<event>
 7    1  0.2334784E-009  0.9342050E+02  0.7561462E-02  0.1294774E+00
         -2   -1    0    0    0  501 -0.00000000000E+00  0.00000000000E+00  0.73656027325E+02  0.73656027325E+02  0.00000000000E+00 0.  1.
          2   -1    0    0  501    0  0.00000000000E+00 -0.00000000000E+00 -0.20683193872E+03  0.20683193872E+03  0.00000000000E+00 0. -1.
         25    2    1    2    0    0  0.48711138403E+02 -0.28594109934E+02 -0.63445389954E+02  0.15120692719E+03  0.12509124348E+03 0.  0.
          5    1    3    3  502    0  0.59381633209E+02 -0.14236210269E+02 -0.95985111839E+02  0.11383963343E+03  0.41800000000E+01 0. -1.
         -5    1    3    3    0  502 -0.10670494806E+02 -0.14357899665E+02  0.32539721884E+02  0.37367293754E+02  0.41800000000E+01 0. -1.
        -11    1    1    2    0    0 -0.62650387403E+02  0.51061472492E+02 -0.61592254465E+02  0.10161668576E+03  0.00000000000E+00 0. -1.
         11    1    1    2    0    0  0.13939249000E+02 -0.22467362558E+02 -0.81382669775E+01  0.27664353099E+02  0.00000000000E+00 0.  1.
</event>
<event>
 7    1  0.2334784E-009  0.9030789E+02  0.7561462E-02  0.1302108E+00
          2   -1    0    0  501    0  0.00000000000E+00  0.00000000000E+00  0.12426513719E+03  0.12426513719E+03  0.00000000000E+00 0. -1.
         -2   -1    0    0    0  501 -0.00000000000E+00 -0.00000000000E+00 -0.18517532839E+03  0.18517532839E+03  0.00000000000E+00 0.  1.
         25    2    1    2    0    0  0.44930593614E+02 -0.40312148685E+01 -0.13276299053E+03  0.18790540156E+03  0.12508964523E+03 0.  0.
          5    1    3    3  502    0 -0.13731408433E+02  0.49990323585E+02 -0.40757249470E+02  0.66077301807E+02  0.41800000000E+01 0.  1.
         -5    1    3    3    0  502  0.58662002047E+02 -0.54021538454E+02 -0.92005741059E+02  0.12182809975E+03  0.41800000000E+01 0.  1.
        -11    1    1    2    0    0 -0.13592607998E+02  0.99655276725E+01  0.85279635775E+02  0.86929206897E+02  0.00000000000E+00 0. -1.
         11    1    1    2    0    0 -0.31337985616E+02 -0.59343128040E+01 -0.13426836442E+02  0.34605857131E+02  0.00000000000E+00 0.  1.
</event>
<event>
 7    1  0.2334784E-009  0.1018371E+03  0.7561462E-02  0.1276479E+00
          1   -1    0    0  501    0  0.00000000000E+00  0.00000000000E+00  0.54760050473E+02  0.54760050473E+02  0.00000000000E+00 0. -1.
         -1   -1    0    0    0  501 -0.00000000000E+00 -0.00000000000E+00 -0.34112566202E+03  0.34112566202E+03  0.00000000000E+00 0.  1.
         25    2    1    2    0    0  0.72440987040E+02 -0.14701462620E+02 -0.21447018327E+03  0.25905292530E+03  0.12508848464E+03 0.  0.
          5    1    3    3  502    0  0.84368447509E+02  0.60776294421E+01 -0.21855611469E+03  0.23439116917E+03  0.41800000000E+01 0.  1.
         -5    1    3    3    0  502 -0.11927460469E+02 -0.20779092062E+02  0.40859314197E+01  0.24661756136E+02  0.41800000000E+01 0.  1.
        -11    1    1    2    0    0  0.27624869163E+01 -0.13924312265E+02  0.13435257624E+02  0.19545433059E+02  0.00000000000E+00 0. -1.
         11    1    1    2    0    0 -0.75203473956E+02  0.28625774885E+02 -0.85330685902E+02  0.11728735413E+03  0.00000000000E+00 0.  1.
</event>
<event>
 7    1  0.2334784E-009  0.1593148E+03  0.7561462E-02  0.1189473E+00
         -2   -1    0    0    0  501 -0.00000000000E+00  0.00000000000E+00  0.41691305931E+02  0.41691305931E+02  0.00000000000E+00 0.  1.
          2   -1    0    0  501    0  0.00000000000E+00 -0.00000000000E+00 -0.87057364814E+03  0.87057364814E+03  0.00000000000E+00 0. -1.
         25    2    1    2    0    0  0.40074192540E+02  0.12050968034E+03 -0.21702889733E+03  0.28085023511E+03  0.12508712292E+03 0.  0.
          5    1    3    3  502    0  0.58057128024E+02  0.20696554681E+02 -0.14127769393E+03  0.15419415259E+03  0.41800000000E+01 0. -1.
         -5    1    3    3    0  502 -0.17982935484E+02  0.99813125663E+02 -0.75751203398E+02  0.12665608252E+03  0.41800000000E+01 0. -1.
        -11    1    1    2    0    0  0.12853149331E+02 -0.96283331966E+02 -0.40884775888E+03  0.42022871559E+03  0.00000000000E+00 0. -1.
         11    1    1    2    0    0 -0.52927341871E+02 -0.24226348378E+02 -0.20300568601E+03  0.21118600338E+03  0.00000000000E+00 0.  1.
</event>
<event>
 7    1  0.2334784E-009  0.1943762E+03  0.7561462E-02  0.1154572E+00
          1   -1    0    0  501    0  0.00000000000E+00  0.00000000000E+00  0.61030629004E+03  0.61030629004E+03  0.00000000000E+00 0. -1.
         -1   -1    0    0    0  501 -0.00000000000E+00 -0.00000000000E+00 -0.68453943026E+02  0.68453943026E+02  0.00000000000E+00 0.  1.
         25    2    1    2    0    0  0.84610919778E+02 -0.14804966661E+03  0.33156612720E+03  0.39327026450E+03  0.12509073787E+03 0.  0.
          5    1    3    3  502    0  0.76847880747E+02 -0.39030533645E+02  0.22320832025E+03  0.23930818197E+03  0.41800000000E+01 0. -1.
         -5    1    3    3    0  502  0.77630390308E+01 -0.10901913296E+03  0.10835780696E+03  0.15396208253E+03  0.41800000000E+01 0. -1.
        -11    1    1    2    0    0 -0.61203109347E+02  0.15662269190E+03  0.18233075836E+03  0.24803425904E+03  0.00000000000E+00 0. -1.
         11    1    1    2    0    0 -0.23407810431E+02 -0.85730252879E+01  0.27955461445E+02  0.37455709530E+02  0.00000000000E+00 0.  1.
</event>
<event>
 7    1  0.2334784E-009  0.1464429E+03  0.7561462E-02  0.1204913E+00
         -2   -1    0    0    0  501 -0.00000000000E+00  0.00000000000E+00  0.95915039375E+02  0.95915039375E+02  0.00000000000E+00 0.  1.
          2   -1    0    0  501    0  0.00000000000E+00 -0.00000000000E+00 -0.50933981281E+03  0.50933981281E+03  0.00000000000E+00 0. -1.
         25    2    1    2    0    0  0.11779144381E+03  0.41035644255E+02 -0.41458750426E+03  0.45065414823E+03  0.12509042447E+03 0.  0.
          5    1    3    3  502    0 -0.78192712784E+01  0.22408577284E+01  0.53529966806E+01  0.10596670239E+02  0.41800000000E+01 0. -1.
         -5    1    3    3    0  502  0.12561071509E+03  0.38794786527E+02 -0.41994050094E+03  0.44005747799E+03  0.41800000000E+01 0. -1.
        -11    1    1    2    0    0 -0.88471374821E+02 -0.68611473874E+02  0.12835497143E+02  0.11269191851E+03  0.00000000000E+00 0. -1.
         11    1    1    2    0    0 -0.29320068987E+02  0.27575829619E+02 -0.11672766325E+02  0.41908785455E+02  0.00000000000E+00 0.  1.
</event>
<event>
 7    1  0.2334784E-009  0.4404511E+03  0.7561462E-02  0.1030608E+00
         -2   -1    0    0    0  501 -0.00000000000E+00  0.00000000000E+00  0.34743448783E+03  0.34743448783E+03  0.00000000000E+00 0.  1.
          2   -1    0    0  501    0  0.00000000000E+00 -0.00000000000E+00 -0.68442198074E+03  0.68442198074E+03  0.00000000000E+00 0. -1.
         25    2    1    2    0    0 -0.42985279767E+03  0.83960216294E+01  0.45055489907E+02  0.45002300240E+03  0.12508710835E+03 0.  0.
          5    1    3    3  502    0 -0.12551266967E+03 -0.47966232127E+02 -0.13087138134E+02  0.13506641054E+03  0.41800000000E+01 0.  1.
         -5    1    3    3    0  502 -0.30434012800E+03  0.56362253757E+02  0.58142628041E+02  0.31495659186E+03  0.41800000000E+01 0.  1.
        -11    1    1    2    0    0  0.34757480714E+03  0.24227918375E+02 -0.32547802305E+03  0.47679259859E+03  0.00000000000E+00 0. -1.
         11    1    1    2    0    0  0.82277990532E+02 -0.32623940005E+02 -0.56564959764E+02  0.10504086757E+03  0.00000000000E+00 0.  1.
</event>
<event>
 7    1  0.2334784E-009  0.1021280E+03  0.7561462E-02  0.1275884E+00
          1   -1    0    0  501    0  0.00000000000E+00  0.00000000000E+00  0.36633971288E+03  0.36633971288E+03  0.00000000000E+00 0. -1.
         -1   -1    0    0    0  501 -0.00000000000E+00 -0.00000000000E+00 -0.46706729330E+02  0.46706729330E+02  0.00000000000E+00 0.  1.
         25    2    1    2    0    0  0.33598357809E+02  0.42246953991E+02  0.13307364615E+03  0.19044657448E+03  0.12509055785E+03 0.  0.
          5    1    3    3  502    0 -0.28593094264E+02  0.59656773262E+01  0.11124796022E+03  0.11509446294E+03  0.41800000000E+01 0.  1.
         -5    1    3    3    0  502  0.62191452073E+02  0.36281276665E+02  0.21825685923E+02  0.75352111539E+02  0.41800000000E+01 0.  1.
        -11    1    1    2    0    0  0.29509041479E+02 -0.20281897428E+02  0.15622293599E+02  0.39066545145E+02  0.00000000000E+00 0.  1.
         11    1    1    2    0    0 -0.63107399288E+02 -0.21965056563E+02  0.17093704381E+03  0.18353332259E+03  0.00000000000E+00 0. -1.
</event>
<event>
 7    1  0.2334784E-009  0.1013942E+03  0.7561462E-02  0.1277391E+00
          1   -1    0    0  501    0  0.00000000000E+00  0.00000000000E+00  0.83652823717E+03  0.83652823717E+03  0.00000000000E+00 0. -1.
         -1   -1    0    0    0  501 -0.00000000000E+00 -0.00000000000E+00 -0.37505826208E+02  0.37505826208E+02  0.00000000000E+00 0.  1.
         25    2    1    2    0    0 -0.81834075046E+02  0.49824595321E+01  0.70900006086E+03  0.72459792620E+03  0.12505769710E+03 0.  0.
          5    1    3    3  502    0 -0.59703701449E+02 -0.92114580703E+01  0.68808220912E+03  0.69074161727E+03  0.41800000000E+01 0. -1.
         -5    1    3    3    0  502 -0.22130373597E+02  0.14193917602E+02  0.20917851746E+02  0.33856308926E+02  0.41800000000E+01 0. -1.
        -11    1    1    2    0    0  0.20231910510E+02  0.36229586355E+02  0.50758683007E+02  0.65561856524E+02  0.00000000000E+00 0. -1.
         11    1    1    2    0    0  0.61602164536E+02 -0.41212045887E+02  0.39263667086E+02  0.83874280651E+02  0.00000000000E+00 0.  1.
</event>
<event>
 7    1  0.2334784E-009  0.9519839E+02  0.7561462E-02  0.1290730E+00
          3   -1    0    0  501    0  0.00000000000E+00  0.00000000000E+00  0.58115066810E+03  0.58115066810E+03  0.00000000000E+00 0. -1.
         -3   -1    0    0    0  501 -0.00000000000E+00 -0.00000000000E+00 -0.25876460719E+02  0.25876460719E+02  0.00000000000E+00 0.  1.
         25    2    1    2    0    0  0.15730658335E+02  0.50649880015E+02  0.25509921796E+03  0.28902872159E+03  0.12509647056E+03 0.  0.
          5    1    3    3  502    0  0.30054512968E+02 -0.30145412033E+01  0.22231504419E+03  0.22439655185E+03  0.41800000000E+01 0.  1.
         -5    1    3    3    0  502 -0.14323854632E+02  0.53664421219E+02  0.32784173765E+02  0.64632169743E+02  0.41800000000E+01 0.  1.
        -11    1    1    2    0    0 -0.11303723350E+02  0.25516655064E+02  0.64421311626E+02  0.70206689417E+02  0.00000000000E+00 0. -1.
         11    1    1    2    0    0 -0.44269349852E+01 -0.76166535080E+02  0.23575367780E+03  0.24779171781E+03  0.00000000000E+00 0.  1.
</event>
<event>
 7    1  0.2334784E-009  0.1067502E+03  0.7561462E-02  0.1266709E+00
         -1   -1    0    0    0  501 -0.00000000000E+00  0.00000000000E+00  0.34550163737E+02  0.34550163737E+02  0.00000000000E+00 0.  1.
          1   -1    0    0  501    0  0.00000000000E+00 -0.00000000000E+00 -0.54855017070E+03  0.54855017070E+03  0.00000000000E+00 0. -1.
         25    2    1    2    0    0 -0.34565673867E+02  0.73207960189E+02 -0.31515866233E+03  0.34860622032E+03  0.12508846132E+03 0.  0.
          5    1    3    3  502    0  0.32517122535E+02 -0.40627299994E+00 -0.16598422164E+03  0.16919149668E+03  0.41800000000E+01 0.  1.
         -5    1    3    3    0  502 -0.67082796403E+02  0.73614233189E+02 -0.14917444069E+03  0.17941472363E+03  0.41800000000E+01 0.  1.
        -11    1    1    2    0    0  0.16149192578E+02 -0.38220133990E+02 -0.11542501166E+02  0.43067440095E+02  0.00000000000E+00 0.  1.
         11    1    1    2    0    0  0.18416481289E+02 -0.34987826199E+02 -0.18729884347E+03  0.19142667403E+03  0.00000000000E+00 0. -1.
</event>
<event>
 7    1  0.2334784E-009  0.9754481E+02  0.7561462E-02  0.1285545E+00
         -1   -1    0    0    0  501 -0.00000000000E+00  0.00000000000E+00  0.12951557187E+02  0.12951557187E+02  0.00000000000E+00 0.  1.
          1   -1    0    0  501    0  0.00000000000E+00 -0.00000000000E+00 -0.10442632717E+04  0.10442632717E+04  0.00000000000E+00 0. -1.
         25    2    1    2    0    0 -0.23735033267E+02 -0.14080241477E+01 -0.73729867729E+03  0.74821059955E+03  0.12507768548E+03 0.  0.
          5    1    3    3  502    0 -0.34318431497E+02 -0.45175881040E+02 -0.17321583108E+03  0.18231788586E+03  0.41800000000E+01 0. -1.
         -5    1    3    3    0  502  0.10583398229E+02  0.43767856892E+02 -0.56408284621E+03  0.56589271369E+03  0.41800000000E+01 0. -1.
        -11    1    1    2    0    0 -0.23991483414E+02  0.29168210832E+02 -0.88895242107E+02  0.96585401945E+02  0.00000000000E+00 0.  1.
         11    1    1    2    0    0  0.47726516681E+02 -0.27760186685E+02 -0.20511779515E+03  0.21241882743E+03  0.00000000000E+00 0. -1.
</event>
<event>
 7    1  0.2334784E-009  0.1296337E+03  0.7561462E-02  0.1228000E+00
         -2   -1    0    0    0  501 -0.00000000000E+00  0.00000000000E+00  0.15356112299E+03  0.15356112299E+03  0.00000000000E+00 0.  1.
          2   -1    0    0  501    0  0.00000000000E+00 -0.00000000000E+00 -0.12138616141E+03  0.12138616141E+03  0.00000000000E+00 0. -1.
         25    2    1    2    0    0  0.67761906459E+02 -0.47786826383E+02  0.20274859760E+02  0.15143633735E+03  0.12508652042E+03 0.  0.
          5    1    3    3  502    0  0.25045263756E+02 -0.79360534904E+02 -0.18729632501E+02  0.85402759150E+02  0.41800000000E+01 0. -1.
         -5    1    3    3    0  502  0.42716642704E+02  0.31573708521E+02  0.39004492262E+02  0.66033578203E+02  0.41800000000E+01 0. -1.
        -11    1    1    2    0    0 -0.70231165831E+02 -0.44439739286E+01  0.10910924017E+02  0.71212455520E+02  0.00000000000E+00 0.  1.
         11    1    1    2    0    0  0.24692593719E+01  0.52230800311E+02  0.98917780618E+00  0.52298491524E+02  0.00000000000E+00 0. -1.
</event>
<event>
 7    1  0.2334784E-009  0.1094198E+03  0.7561462E-02  0.1261648E+00
         -1   -1    0    0    0  501 -0.00000000000E+00  0.00000000000E+00  0.93787590983E+02  0.93787590983E+02  0.00000000000E+00 0.  1.
          1   -1    0    0  501    0  0.00000000000E+00 -0.00000000000E+00 -0.15406712865E+03  0.15406712865E+03  0.00000000000E+00 0. -1.
         25    2    1    2    0    0 -0.20445069856E+02  0.42304217638E+02 -0.14894894913E+02  0.13444935780E+03  0.12508846553E+03 0.  0.
          5    1    3    3  502    0  0.26329077377E+01  0.80180841820E+02 -0.32349878623E+02  0.86601885921E+02  0.41800000000E+01 0. -1.
         -5    1    3    3    0  502 -0.23077977593E+02 -0.37876624182E+02  0.17454983710E+02  0.47847471882E+02  0.41800000000E+01 0. -1.
        -11    1    1    2    0    0  0.35533617670E+02 -0.60595162757E+02 -0.10207647796E+02  0.70983151577E+02  0.00000000000E+00 0.  1.
         11    1    1    2    0    0 -0.15088547815E+02  0.18290945119E+02 -0.35176994956E+02  0.42422210252E+02  0.00000000000E+00 0. -1.
</event>
<event>
 7    1  0.2334784E-009  0.8921941E+02  0.7561462E-02  0.1304753E+00
          2   -1    0    0  501    0  0.00000000000E+00  0.00000000000E+00  0.26854569922E+03  0.26854569922E+03  0.00000000000E+00 0. -1.
         -2   -1    0    0    0  501 -0.00000000000E+00 -0.00000000000E+00 -0.57497337433E+02  0.57497337433E+02  0.00000000000E+00 0.  1.
         25    2    1    2    0    0  0.59529373922E+02  0.82783263764E+01  0.12145705283E+03  0.18442022108E+03  0.12508687066E+03 0.  0.
          5    1    3    3  502    0  0.68713487775E+00  0.24560899824E+02  0.12067177553E+03  0.12321874761E+03  0.41800000000E+01 0.  1.
         -5    1    3    3    0  502  0.58842239044E+02 -0.16282573448E+02  0.78527730695E+00  0.61201473465E+02  0.41800000000E+01 0.  1.
        -11    1    1    2    0    0 -0.59122563638E+02 -0.32922694078E+02  0.94756613818E+02  0.11643967184E+03  0.00000000000E+00 0. -1.
         11    1    1    2    0    0 -0.40681028442E+00  0.24644367701E+02 -0.51653048631E+01  0.25183143734E+02  0.00000000000E+00 0.  1.
</event>
<event>
 7    1  0.2334784E-009  0.8329199E+02  0.7561462E-02  0.1319961E+00
          1   -1    0    0  501    0  0.00000000000E+00  0.00000000000E+00  0.24423790597E+03  0.24423790597E+03  0.00000000000E+00 0. -1.
         -1   -1    0    0    0  501 -0.00000000000E+00 -0.00000000000E+00 -0.61226787475E+02  0.61226787475E+02  0.00000000000E+00 0.  1.
         25    2    1    2    0    0 -0.12441055684E+02  0.62921079067E+02  0.10162446865E+03  0.17346235020E+03  0.12509121573E+03 0.  0.
          5    1    3    3  502    0 -0.25757010894E+02  0.43458370764E+02 -0.16209526123E+02  0.53219120031E+02  0.41800000000E+01 0.  1.
         -5    1    3    3    0  502  0.13315955210E+02  0.19462708303E+02  0.11783399477E+03  0.12024323017E+03  0.41800000000E+01 0.  1.
        -11    1    1    2    0    0  0.38216893135E+02 -0.23564713426E+02  0.91881901387E+01  0.45828478894E+02  0.00000000000E+00 0.  1.
         11    1    1    2    0    0 -0.25775837451E+02 -0.39356365641E+02  0.72198459701E+02  0.86173864343E+02  0.00000000000E+00 0. -1.
</event>
<event>
 7    1  0.2334784E-009  0.1040561E+03  0.7561462E-02  0.1271991E+00
          2   -1    0    0  501    0  0.00000000000E+00  0.00000000000E+00  0.72178478239E+03  0.72178478239E+03  0.00000000000E+00 0.  1.
         -2   -1    0    0    0  501 -0.00000000000E+00 -0.00000000000E+00 -0.25719419905E+02  0.25719419905E+02  0.00000000000E+00 0. -1.
         25    2    1    2    0    0 -0.41735936212E+02  0.64192319203E+02  0.47064689741E+03  0.49296935585E+03  0.12509093311E+03 0.  0.
          5    1    3    3  502    0 -0.60367338210E+01  0.82723220374E+02  0.16564053577E+03  0.18529390933E+03  0.41800000000E+01 0. -1.
         -5    1    3    3    0  502 -0.35699202391E+02 -0.18530901170E+02  0.30500636164E+03  0.30767544652E+03  0.41800000000E+01 0. -1.
        -11    1    1    2    0    0  0.22969147699E+02 -0.61520909023E+02  0.22622324820E+03  0.23556180085E+03  0.00000000000E+00 0.  1.
         11    1    1    2    0    0  0.18766788513E+02 -0.26714101805E+01 -0.80478312510E+00  0.18973045599E+02  0.00000000000E+00 0. -1.
</event>
<event>
 7    1  0.2334784E-009  0.1196958E+03  0.7561462E-02  0.1243600E+00
          2   -1    0    0  501    0  0.00000000000E+00  0.00000000000E+00  0.47448539538E+02  0.47448539538E+02  0.00000000000E+00 0. -1.
         -2   -1    0    0    0  501 -0.00000000000E+00 -0.00000000000E+00 -0.36423938164E+03  0.36423938164E+03  0.00000000000E+00 0.  1.
         25    2    1    2    0    0  0.25850219897E+01 -0.61462350686E+02 -0.12261911557E+03  0.18565458664E+03  0.12509146713E+03 0.  0.
          5    1    3    3  502    0 -0.55880220146E+02 -0.57917370241E+02 -0.67638779163E+02  0.10521168008E+03  0.41800000000E+01 0.  1.
         -5    1    3    3    0  502  0.58465242136E+02 -0.35449804456E+01 -0.54980336410E+02  0.80442906562E+02  0.41800000000E+01 0.  1.
        -11    1    1    2    0    0 -0.27210305368E+02 -0.63457140875E+01 -0.11742513107E+03  0.12070348053E+03  0.00000000000E+00 0.  1.
         11    1    1    2    0    0  0.24625283378E+02  0.67808064774E+02 -0.76746595463E+02  0.10532985401E+03  0.00000000000E+00 0. -1.
</event>
<event>
 7    1  0.2334784E-009  0.2630973E+03  0.7561462E-02  0.1105296E+00
          2   -1    0    0  501    0  0.00000000000E+00  0.00000000000E+00  0.10510705832E+04  0.10510705832E+04  0.00000000000E+00 0. -1.
         -2   -1    0    0    0  501 -0.00000000000E+00 -0.00000000000E+00 -0.96031742571E+02  0.96031742571E+02  0.00000000000E+00 0.  1.
         25    2    1    2    0    0 -0.20100923443E+03  0.14582607560E+03  0.78338009696E+03  0.83126395266E+03  0.12508167741E+03 0.  0.
          5    1    3    3  502    0 -0.13102642900E+03  0.15748022049E+03  0.62332029912E+03  0.65613536152E+03  0.41800000000E+01 0. -1.
         -5    1    3    3    0  502 -0.69982805437E+02 -0.11654144887E+02  0.16005979784E+03  0.17512859114E+03  0.41800000000E+01 0. -1.
        -11    1    1    2    0    0  0.18434013048E+03 -0.12167234709E+03  0.10826507112E+03  0.24598123786E+03  0.00000000000E+00 0.  1.
         11    1    1    2    0    0  0.16669103953E+02 -0.24153728507E+02  0.63393672581E+02  0.69857135288E+02  0.00000000000E+00 0. -1.
</event>
<event>
 7    1  0.2334784E-009  0.1185494E+03  0.7561462E-02  0.1245509E+00
          2   -1    0    0  501    0  0.00000000000E+00  0.00000000000E+00  0.60684235117E+03  0.60684235117E+03  0.00000000000E+00 0. -1.
         -2   -1    0    0    0  501 -0.00000000000E+00 -0.00000000000E+00 -0.28925518269E+02  0.28925518269E+02  0.00000000000E+00 0.  1.
         25    2    1    2    0    0 -0.53191571538E+02  0.11290654052E+02  0.19933622264E+03  0.24153715988E+03  0.12509375602E+03 0.  0.
          5    1    3    3  502    0 -0.29493528039E+02 -0.54436444137E+02  0.12426897582E+03  0.13890084736E+03  0.41800000000E+01 0.  1.
         -5    1    3    3    0  502 -0.23698043499E+02  0.65727098189E+02  0.75067246818E+02  0.10263631252E+03  0.41800000000E+01 0.  1.
        -11    1    1    2    0    0  0.46516356014E+02  0.35043200076E+02  0.26608364184E+03  0.27238263840E+03  0.00000000000E+00 0.  1.
         11    1    1    2    0    0  0.66752155241E+01 -0.46333854128E+02  0.11249696842E+03  0.12184807116E+03  0.00000000000E+00 0. -1.
</event>
<event>
 7    1  0.2334784E-009  0.1255237E+03  0.7561462E-02  0.1234253E+00
         -3   -1    0    0    0  501 -0.00000000000E+00  0.00000000000E+00  0.17293053346E+03  0.17293053346E+03  0.00000000000E+00 0.  1.
          3   -1    0    0  501    0  0.00000000000E+00 -0.00000000000E+00 -0.98298190485E+02  0.98298190485E+02  0.00000000000E+00 0. -1.
         25    2    1    2    0    0  0.99409920408E+01 -0.62186920032E+02  0.53720404508E+01  0.14015143170E+03  0.12509008211E+03 0.  0.
          5    1    3    3  502    0 -0.13488542364E+02  0.36075453751E+02 -0.18949712713E+01  0.38787142903E+02  0.41800000000E+01 0. -1.
         -5    1    3    3    0  502  0.23429534405E+02 -0.98262373783E+02  0.72670117220E+01  0.10136428880E+03  0.41800000000E+01 0. -1.
        -11    1    1    2    0    0  0.31430684814E+02  0.62357708819E+02  0.41054237932E+02  0.81005075454E+02  0.00000000000E+00 0.  1.
         11    1    1    2    0    0 -0.41371676855E+02 -0.17078878726E+00  0.28206064592E+02  0.50072216791E+02  0.00000000000E+00 0. -1.
</event>
<event>
 7    1  0.2334784E-009  0.8041076E+02  0.7561462E-02  0.1327890E+00
          1   -1    0    0  501    0  0.00000000000E+00  0.00000000000E+00  0.26200868414E+03  0.26200868414E+03  0.00000000000E+00 0. -1.
         -1   -1    0    0    0  501 -0.00000000000E+00 -0.00000000000E+00 -0.46460363995E+02  0.46460363995E+02  0.00000000000E+00 0.  1.
         25    2    1    2    0    0  0.14214751226E+02  0.12682213703E+02  0.11721616012E+03  0.17248122494E+03  0.12508895662E+03 0.  0.
          5    1    3    3  502    0 -0.20370450515E+02  0.26078413797E+02 -0.13915911585E+02  0.36140889801E+02  0.41800000000E+01 0.  1.
         -5    1    3    3    0  502  0.34585201742E+02 -0.13396200094E+02  0.13113207171E+03  0.13634033514E+03  0.41800000000E+01 0.  1.
        -11    1    1    2    0    0 -0.42313780341E+02  0.20202153054E+02  0.70096574972E+02  0.84333343450E+02  0.00000000000E+00 0. -1.
         11    1    1    2    0    0  0.28099029115E+02 -0.32884366757E+02  0.28235585052E+02  0.51654479742E+02  0.00000000000E+00 0.  1.
</event>
<event>
 7    1  0.2334784E-009  0.1755912E+03  0.7561462E-02  0.1172139E+00
         -2   -1    0    0    0  501 -0.00000000000E+00  0.00000000000E+00  0.65494342247E+02  0.65494342247E+02  0.00000000000E+00 0.  1.
          2   -1    0    0  501    0  0.00000000000E+00 -0.00000000000E+00 -0.47748720392E+03  0.47748720392E+03  0.00000000000E+00 0. -1.
         25    2    1    2    0    0  0.11602648260E+03  0.75999399871E+02 -0.21856964849E+03  0.28750398680E+03  0.12509115773E+03 0.  0.
          5    1    3    3  502    0  0.13842630459E+03  0.82464548384E+02 -0.20278871240E+03  0.25904242475E+03  0.41800000000E+01 0. -1.
         -5    1    3    3    0  502 -0.22399821993E+02 -0.64651485131E+01 -0.15780936081E+02  0.28461562048E+02  0.41800000000E+01 0. -1.
        -11    1    1    2    0    0 -0.71033708930E+02  0.75363749286E+01 -0.93774919577E+02  0.11788265476E+03  0.00000000000E+00 0.  1.
         11    1    1    2    0    0 -0.44992773670E+02 -0.83535774799E+02 -0.99648293608E+02  0.13759490460E+03  0.00000000000E+00 0. -1.
</event>
<event>
 7    1  0.2334784E-009  0.1098797E+03  0.7561462E-02  0.1260793E+00
         -1   -1    0    0    0  501 -0.00000000000E+00  0.00000000000E+00  0.84643753489E+02  0.84643753489E+02  0.00000000000E+00 0.  1.
          1   -1    0    0  501    0  0.00000000000E+00 -0.00000000000E+00 -0.20213322567E+03  0.20213322567E+03  0.00000000000E+00 0. -1.
         25    2    1    2    0    0  0.42151366363E+02 -0.57550789941E+02 -0.17995088139E+02  0.14511872487E+03  0.12508712964E+03 0.  0.
          5    1    3    3  502    0  0.13048872256E+02 -0.92040649975E+02  0.70793841124E+01  0.93323868300E+02  0.41800000000E+01 0.  1.
         -5    1    3    3    0  502  0.29102494107E+02  0.34489860034E+02 -0.25074472252E+02  0.51794856570E+02  0.41800000000E+01 0.  1.
        -11    1    1    2    0    0 -0.76603736230E+01  0.43452361166E+02 -0.94202018408E+02  0.10402311900E+03  0.00000000000E+00 0. -1.
         11    1    1    2    0    0 -0.34490992740E+02  0.14098428776E+02 -0.52923656356E+01  0.37635135288E+02  0.00000000000E+00 0.  1.
</event>
<event>
 7    1  0.2334784E-009  0.1339114E+03  0.7561462E-02  0.1221765E+00
         -1   -1    0    0    0  501 -0.00000000000E+00  0.00000000000E+00  0.36632395772E+03  0.36632395772E+03  0.00000000000E+00 0.  1.
          1   -1    0    0  501    0  0.00000000000E+00 -0.00000000000E+00 -0.10254852572E+03  0.10254852572E+03  0.00000000000E+00 0. -1.
         25    2    1    2    0    0  0.33660096836E+02  0.11737274452E+03  0.12202832832E+02  0.17523197955E+03  0.12509186326E+03 0.  0.
          5    1    3    3  502    0 -0.23334791538E+02  0.13903768378E+02 -0.37928324413E+02  0.46838632175E+02  0.41800000000E+01 0. -1.
         -5    1    3    3    0  502  0.56994888374E+02  0.10346897614E+03  0.50131157245E+02  0.12839334738E+03  0.41800000000E+01 0. -1.
        -11    1    1    2    0    0 -0.60230349928E+01 -0.25291738448E+02  0.18658564615E+01  0.26065885839E+02  0.00000000000E+00 0. -1.
         11    1    1    2    0    0 -0.27637061843E+02 -0.92081006071E+02  0.24970674271E+03  0.26757461805E+03  0.00000000000E+00 0.  1.
</event>
<event>
 7    1  0.2334784E-009  0.1419181E+03  0.7561462E-02  0.1210771E+00
         -3   -1    0    0    0  501 -0.00000000000E+00  0.00000000000E+00  0.25962869112E+03  0.25962869112E+03  0.00000000000E+00 0.  1.
          3   -1    0    0  501    0  0.00000000000E+00 -0.00000000000E+00 -0.10634490788E+03  0.10634490788E+03  0.00000000000E+00 0. -1.
         25    2    1    2    0    0  0.78828824818E+02 -0.63801271733E+02  0.76009332582E+00  0.16103573481E+03  0.12508934505E+03 0.  0.
          5    1    3    3  502    0  0.10597651681E+03 -0.74877901551E+02  0.94479043108E+01  0.13017087828E+03  0.41800000000E+01 0. -1.
         -5    1    3    3    0  502 -0.27147691994E+02  0.11076629818E+02 -0.86878109850E+01  0.30864856527E+02  0.41800000000E+01 0. -1.
        -11    1    1    2    0    0 -0.50660817962E+02  0.77875203213E+02  0.69142516785E+02  0.11580912477E+03  0.00000000000E+00 0. -1.
         11    1    1    2    0    0 -0.28168006855E+02 -0.14073931480E+02  0.83381173131E+02  0.89128739417E+02  0.00000000000E+00 0.  1.
</event>
<event>
 7    1  0.2334784E-009  0.5244141E+02  0.7561462E-02  0.1432601E+00
         -2   -1    0    0    0  501 -0.00000000000E+00  0.00000000000E+00  0.36667406362E+02  0.36667406362E+02  0.00000000000E+00 0.  1.
          2   -1    0    0  501    0  0.00000000000E+00 -0.00000000000E+00 -0.46778664532E+03  0.46778664532E+03  0.00000000000E+00 0. -1.
         25    2    1    2    0    0  0.21745876010E+01  0.28149997586E+02 -0.36885610285E+03  0.39051089662E+03  0.12508710793E+03 0.  0.
          5    1    3    3  502    0 -0.17335926619E+02  0.24359150511E+02 -0.36896744515E+03  0.37020041943E+03  0.41800000000E+01 0.  1.
         -5    1    3    3    0  502  0.19510514220E+02  0.37908470751E+01  0.11134229294E+00  0.20310477192E+02  0.41800000000E+01 0.  1.
        -11    1    1    2    0    0 -0.16141973849E+02 -0.35209686063E+02  0.10000963523E+02  0.40003807116E+02  0.00000000000E+00 0.  1.
         11    1    1    2    0    0  0.13967386248E+02  0.70596884765E+01 -0.72264099631E+02  0.73939347951E+02  0.00000000000E+00 0. -1.
</event>
<event>
 7    1  0.2635302E-009  0.8424996E+02  0.7561462E-02  0.1317406E+00
         -1   -1    0    0    0  501 -0.00000000000E+00  0.00000000000E+00  0.28534977503E+03  0.28534977503E+03  0.00000000000E+00 0.  1.
          1   -1    0    0  501    0  0.00000000000E+00 -0.00000000000E+00 -0.63361431491E+02  0.63361431491E+02  0.00000000000E+00 0. -1.
         25    2    1    2    0    0 -0.48072005617E+02 -0.24475031953E+02  0.46531801487E+02  0.14395742490E+03  0.12509431130E+03 0.  0.
          5    1    3    3  502    0 -0.19160527624E+02  0.26081849538E+02  0.72914896826E+02  0.79883936265E+02  0.41800000000E+01 0.  1.
         -5    1    3    3    0  502 -0.28911477993E+02 -0.50556881491E+02 -0.26383095338E+02  0.64073488632E+02  0.41800000000E+01 0.  1.
        -11    1    1    2    0    0  0.20234253379E+02  0.40560301857E+02  0.16474297602E+03  0.17086489178E+03  0.00000000000E+00 0.  1.
         11    1    1    2    0    0  0.27837752239E+02 -0.16085269904E+02  0.10713566035E+02  0.33888889843E+02  0.00000000000E+00 0. -1.
</event>
<event>
 7    1  0.2334784E-009  0.1312094E+03  0.7561462E-02  0.1225672E+00
         -2   -1    0    0    0  501 -0.00000000000E+00  0.00000000000E+00  0.31328774449E+02  0.31328774449E+02  0.00000000000E+00 0.  1.
          2   -1    0    0  501    0  0.00000000000E+00 -0.00000000000E+00 -0.84753440824E+03  0.84753440824E+03  0.00000000000E+00 0. -1.
         25    2    1    2    0    0  0.59079042986E+02  0.97090740231E+02 -0.54410798686E+03  0.56975276126E+03  0.12509101663E+03 0.  0.
          5    1    3    3  502    0 -0.25690075131E+02  0.17762450257E+02 -0.33080998587E+02  0.45687082057E+02  0.41800000000E+01 0.  1.
         -5    1    3    3    0  502  0.84769118117E+02  0.79328289974E+02 -0.51102698827E+03  0.52406567921E+03  0.41800000000E+01 0.  1.
        -11    1    1    2    0    0 -0.50915282583E+02 -0.70811362185E+02 -0.26731063599E+03  0.28117893081E+03  0.00000000000E+00 0. -1.
         11    1    1    2    0    0 -0.81637604032E+01 -0.26279378046E+02 -0.47870109356E+01  0.27931490617E+02  0.00000000000E+00 0.  1.
</event>
<event>
 7    1  0.2334784E-009  0.1634628E+03  0.7561462E-02  0.1184842E+00
         -2   -1    0    0    0  501 -0.00000000000E+00  0.00000000000E+00  0.39234253499E+03  0.39234253499E+03  0.00000000000E+00 0.  1.
          2   -1    0    0  501    0  0.00000000000E+00 -0.00000000000E+00 -0.14754224245E+03  0.14754224245E+03  0.00000000000E+00 0. -1.
         25    2    1    2    0    0 -0.10328185057E+03  0.78886832321E+02 -0.64970559559E+02  0.19172443555E+03  0.12508722000E+03 0.  0.
          5    1    3    3  502    0  0.34527646237E+00 -0.23431744273E+02  0.12319941922E+02  0.26803343532E+02  0.41800000000E+01 0.  1.
         -5    1    3    3    0  502 -0.10362712704E+03  0.10231857659E+03 -0.77290501481E+02  0.16492109202E+03  0.41800000000E+01 0.  1.
        -11    1    1    2    0    0  0.13717167514E+02 -0.65442804672E+02  0.10845898929E+03  0.12741378939E+03  0.00000000000E+00 0. -1.
         11    1    1    2    0    0  0.89564683061E+02 -0.13444027649E+02  0.20131186281E+03  0.22074655250E+03  0.00000000000E+00 0.  1.
</event>
<event>
 7    1  0.2334784E-009  0.1534196E+03  0.7561462E-02  0.1196333E+00
          1   -1    0    0  501    0  0.00000000000E+00  0.00000000000E+00  0.41288009717E+02  0.41288009717E+02  0.00000000000E+00 0. -1.
         -1   -1    0    0    0  501 -0.00000000000E+00 -0.00000000000E+00 -0.76904363710E+03  0.76904363710E+03  0.00000000000E+00 0.  1.
         25    2    1    2    0    0  0.14039107500E+03 -0.62389990777E+01 -0.36322409576E+03  0.40905533380E+03  0.12508374520E+03 0.  0.
          5    1    3    3  502    0  0.11135892822E+03 -0.12556765851E+02 -0.12098306351E+03  0.16496319989E+03  0.41800000000E+01 0.  1.
         -5    1    3    3    0  502  0.29032146772E+02  0.63177667732E+01 -0.24224103226E+03  0.24409213390E+03  0.41800000000E+01 0.  1.
        -11    1    1    2    0    0 -0.43075008306E+02 -0.38326399466E+02 -0.93159072302E+02  0.10955812151E+03  0.00000000000E+00 0. -1.
         11    1    1    2    0    0 -0.97316066690E+02  0.44565398544E+02 -0.27137245932E+03  0.29171819151E+03  0.00000000000E+00 0.  1.
</event>
<event>
 7    1  0.2334784E-009  0.1043952E+03  0.7561462E-02  0.1271316E+00
         -4   -1    0    0    0  501 -0.00000000000E+00  0.00000000000E+00  0.88132274976E+02  0.88132274976E+02  0.00000000000E+00 0. -1.
          4   -1    0    0  501    0  0.00000000000E+00 -0.00000000000E+00 -0.18846054666E+03  0.18846054666E+03  0.00000000000E+00 0.  1.
         25    2    1    2    0    0  0.14836132781E+02 -0.60191112010E+02 -0.41173476074E+02  0.14555646829E+03  0.12509336325E+03 0.  0.
          5    1    3    3  502    0  0.37069557301E+02 -0.58607997692E+02  0.26368429349E+02  0.74308922333E+02  0.41800000000E+01 0. -1.
         -5    1    3    3    0  502 -0.22233424520E+02 -0.15831143181E+01 -0.67541905423E+02  0.71247545958E+02  0.41800000000E+01 0. -1.
        -11    1    1    2    0    0  0.35755867863E+02  0.55244056872E+02 -0.28820842398E+02  0.71840301105E+02  0.00000000000E+00 0.  1.
         11    1    1    2    0    0 -0.50592000644E+02  0.49470551382E+01 -0.30333953217E+02  0.59196052245E+02  0.00000000000E+00 0. -1.
</event>
<event>
 7    1  0.2334784E-009  0.2634290E+03  0.7561462E-02  0.1105100E+00
         -1   -1    0    0    0  501 -0.00000000000E+00  0.00000000000E+00  0.63352474924E+03  0.63352474924E+03  0.00000000000E+00 0.  1.
          1   -1    0    0  501    0  0.00000000000E+00 -0.00000000000E+00 -0.16644216883E+03  0.16644216883E+03  0.00000000000E+00 0. -1.
         25    2    1    2    0    0 -0.21753851088E+03 -0.13475677815E+03  0.31233604692E+02  0.28654005834E+03  0.12508906428E+03 0.  0.
          5    1    3    3  502    0 -0.45446545586E+02 -0.15098163773E+02  0.57845106080E+02  0.75212178218E+02  0.41800000000E+01 0. -1.
         -5    1    3    3    0  502 -0.17209196529E+03 -0.11965861437E+03 -0.26611501388E+02  0.21132788012E+03  0.41800000000E+01 0. -1.
        -11    1    1    2    0    0  0.63550852499E+02  0.87349310253E+02  0.20784717563E+03  0.23424145934E+03  0.00000000000E+00 0.  1.
         11    1    1    2    0    0  0.15398765838E+03  0.47407467893E+02  0.22800180009E+03  0.27918540039E+03  0.00000000000E+00 0. -1.
</event>
<event>
 7    1  0.2334784E-009  0.2164345E+03  0.7561462E-02  0.1136569E+00
          2   -1    0    0  501    0  0.00000000000E+00  0.00000000000E+00  0.11609449061E+03  0.11609449061E+03  0.00000000000E+00 0.  1.
         -2   -1    0    0    0  501 -0.00000000000E+00 -0.00000000000E+00 -0.44566967310E+03  0.44566967310E+03  0.00000000000E+00 0. -1.
         25    2    1    2    0    0  0.49631548423E+02  0.19349900013E+03 -0.17592965280E+03  0.29411573342E+03  0.12509064019E+03 0.  0.
          5    1    3    3  502    0  0.70483709457E+02  0.15425891100E+03 -0.18230416917E+03  0.24903021386E+03  0.41800000000E+01 0.  1.
         -5    1    3    3    0  502 -0.20852161034E+02  0.39240089134E+02  0.63745163686E+01  0.45085519560E+02  0.41800000000E+01 0.  1.
        -11    1    1    2    0    0 -0.35293072812E+02 -0.13142661673E+02 -0.34022174153E+02  0.50752722868E+02  0.00000000000E+00 0.  1.
         11    1    1    2    0    0 -0.14338475611E+02 -0.18035633846E+03 -0.11962335554E+03  0.21689570742E+03  0.00000000000E+00 0. -1.
</event>
<event>
 7    1  0.2334784E-009  0.1278847E+03  0.7561462E-02  0.1230629E+00
          2   -1    0    0  501    0  0.00000000000E+00  0.00000000000E+00  0.13706045670E+03  0.13706045670E+03  0.00000000000E+00 0. -1.
         -2   -1    0    0    0  501 -0.00000000000E+00 -0.00000000000E+00 -0.14095764481E+03  0.14095764481E+03  0.00000000000E+00 0.  1.
         25    2    1    2    0    0 -0.40811616934E+02  0.53826699757E+02  0.51394997079E+02  0.15116905668E+03  0.12509091210E+03 0.  0.
          5    1    3    3  502    0 -0.83443007033E+02  0.52812599690E+02  0.30103429682E+02  0.10332277090E+03  0.41800000000E+01 0. -1.
         -5    1    3    3    0  502  0.42631390099E+02  0.10141000670E+01  0.21291567397E+02  0.47846285780E+02  0.41800000000E+01 0. -1.
        -11    1    1    2    0    0  0.56097562568E+02 -0.71392663146E+02 -0.42034576067E+02  0.10005375786E+03  0.00000000000E+00 0.  1.
         11    1    1    2    0    0 -0.15285945635E+02  0.17565963389E+02 -0.13257609129E+02  0.26795286965E+02  0.00000000000E+00 0. -1.
</event>
<event>
 7    1  0.2334784E-009  0.1153613E+03  0.7561462E-02  0.1250952E+00
         -1   -1    0    0    0  501 -0.00000000000E+00  0.00000000000E+00  0.30455163625E+02  0.30455163625E+02  0.00000000000E+00 0.  1.
          1   -1    0    0  501    0  0.00000000000E+00 -0.00000000000E+00 -0.67065161676E+03  0.67065161676E+03  0.00000000000E+00 0. -1.
         25    2    1    2    0    0 -0.62967222845E+02  0.65887222494E+02 -0.36713186347E+03  0.39841998023E+03  0.12508668285E+03 0.  0.
          5    1    3    3  502    0 -0.20974335515E+02  0.67229762167E+02 -0.73917674950E+02  0.10218149902E+03  0.41800000000E+01 0. -1.
         -5    1    3    3    0  502 -0.41992887331E+02 -0.13425396732E+01 -0.29321418852E+03  0.29623848121E+03  0.41800000000E+01 0. -1.
        -11    1    1    2    0    0  0.13702426372E+02 -0.67285540954E+02 -0.90588384512E+02  0.11367214223E+03  0.00000000000E+00 0.  1.
         11    1    1    2    0    0  0.49264796473E+02  0.13983184601E+01 -0.18247620515E+03  0.18901465793E+03  0.00000000000E+00 0. -1.
</event>
<event>
 7    1  0.2334784E-009  0.9646546E+02  0.7561462E-02  0.1287909E+00
          3   -1    0    0  501    0  0.00000000000E+00  0.00000000000E+00  0.11911284696E+03  0.11911284696E+03  0.00000000000E+00 0. -1.
         -3   -1    0    0    0  501 -0.00000000000E+00 -0.00000000000E+00 -0.10935567360E+03  0.10935567360E+03  0.00000000000E+00 0.  1.
         25    2    1    2    0    0  0.31466053438E+02  0.22648653668E+01  0.33375670808E+02  0.13325579908E+03  0.12509168819E+03 0.  0.
          5    1    3    3  502    0  0.69778820074E+02  0.22299433892E+02 -0.73137450557E+01  0.73738129550E+02  0.41800000000E+01 0. -1.
         -5    1    3    3    0  502 -0.38312766635E+02 -0.20034568525E+02  0.40689415864E+02  0.59517669533E+02  0.41800000000E+01 0. -1.
        -11    1    1    2    0    0  0.21702929905E+02  0.54948176425E+01 -0.33782747108E+02  0.40527573201E+02  0.00000000000E+00 0.  1.
         11    1    1    2    0    0 -0.53168983343E+02 -0.77596830094E+01  0.10164249659E+02  0.54685148270E+02  0.00000000000E+00 0. -1.
</event>
<event>
 7    1  0.2334784E-009  0.1894342E+03  0.7561462E-02  0.1158973E+00
          2   -1    0    0  501    0  0.00000000000E+00  0.00000000000E+00  0.74802106701E+03  0.74802106701E+03  0.00000000000E+00 0. -1.
         -2   -1    0    0    0  501 -0.00000000000E+00 -0.00000000000E+00 -0.51328453881E+02  0.51328453881E+02  0.00000000000E+00 0.  1.
         25    2    1    2    0    0 -0.14964602211E+03  0.59552484196E+02  0.31519127271E+03  0.37541025800E+03  0.12508754179E+03 0.  0.
          5    1    3    3  502    0 -0.29808813101E+02 -0.38536654820E+02  0.70403180131E+02  0.85718838512E+02  0.41800000000E+01 0.  1.
         -5    1    3    3    0  502 -0.11983720901E+03  0.98089139017E+02  0.24478809258E+03  0.28969141949E+03  0.41800000000E+01 0.  1.
        -11    1    1    2    0    0  0.85600305885E+01 -0.29609432089E+02  0.26102321613E+02  0.40389649490E+02  0.00000000000E+00 0.  1.
         11    1    1    2    0    0  0.14108599152E+03 -0.29943052108E+02  0.35539901880E+03  0.38354961340E+03  0.00000000000E+00 0. -1.
</event>
<event>
 7    1  0.2334784E-009  0.8746858E+02  0.7561462E-02  0.1309100E+00
          2   -1    0    0  501    0  0.00000000000E+00  0.00000000000E+00  0.27045171645E+03  0.27045171645E+03  0.00000000000E+00 0. -1.
         -2   -1    0    0    0  501 -0.00000000000E+00 -0.00000000000E+00 -0.64199837526E+02  0.64199837526E+02  0.00000000000E+00 0.  1.
         25    2    1    2    0    0  0.47672037188E+02 -0.44425441888E+02  0.14728084564E+03  0.20392335009E+03  0.12508733830E+03 0.  0.
          5    1    3    3  502    0  0.18853663179E+02 -0.64591246143E+02  0.17858642685E+02  0.69741617504E+02  0.41800000000E+01 0.  1.
         -5    1    3    3    0  502  0.28818374009E+02  0.20165804254E+02  0.12942220296E+03  0.13418173259E+03  0.41800000000E+01 0.  1.
        -11    1    1    2    0    0 -0.10843191444E+02  0.31097616463E+02 -0.22803623960E+02  0.40057980679E+02  0.00000000000E+00 0.  1.
         11    1    1    2    0    0 -0.36828845743E+02  0.13327825426E+02  0.81774657236E+02  0.90670223202E+02  0.00000000000E+00 0. -1.
</event>
<event>
 7    1  0.2334784E-009  0.1293736E+03  0.7561462E-02  0.1228388E+00
          1   -1    0    0  501    0  0.00000000000E+00  0.00000000000E+00  0.95381191553E+02  0.95381191553E+02  0.00000000000E+00 0. -1.
         -1   -1    0    0    0  501 -0.00000000000E+00 -0.00000000000E+00 -0.20133052687E+03  0.20133052687E+03  0.00000000000E+00 0.  1.
         25    2    1    2    0    0 -0.82153262804E+02  0.20308599095E+02 -0.81616822468E+02  0.17166397161E+03  0.12508243543E+03 0.  0.
          5    1    3    3  502    0  0.20208549929E+02 -0.24559852302E+02 -0.42353092471E+02  0.53130299050E+02  0.41800000000E+01 0.  1.
         -5    1    3    3    0  502 -0.10236181273E+03  0.44868451397E+02 -0.39263729997E+02  0.11853367256E+03  0.41800000000E+01 0.  1.
        -11    1    1    2    0    0  0.78904775077E+02 -0.44385251288E+02  0.18476578145E+00  0.90532028588E+02  0.00000000000E+00 0. -1.
         11    1    1    2    0    0  0.32484877274E+01  0.24076652193E+02 -0.24517278632E+02  0.34515718229E+02  0.00000000000E+00 0.  1.
</event>
<event>
 7    1  0.2334784E-009  0.1011743E+03  0.7561462E-02  0.1277846E+00
         -2   -1    0    0    0  501 -0.00000000000E+00  0.00000000000E+00  0.17506851150E+03  0.17506851150E+03  0.00000000000E+00 0.  1.
          2   -1    0    0  501    0  0.00000000000E+00 -0.00000000000E+00 -0.10343345847E+03  0.10343345847E+03  0.00000000000E+00 0. -1.
         25    2    1    2    0    0 -0.74859407163E+01  0.67039937256E+02 -0.15282596469E+02  0.14293768269E+03  0.12508889193E+03 0.  0.
          5    1    3    3  502    0  0.31859117325E+02  0.38638805276E+02 -0.58992484300E+02  0.77495459440E+02  0.41800000000E+01 0.  1.
         -5    1    3    3    0  502 -0.39345058041E+02  0.28401131980E+02  0.43709887831E+02  0.65442223253E+02  0.41800000000E+01 0.  1.
        -11    1    1    2    0    0 -0.34405722922E+02 -0.17786829493E+02  0.25406471815E+02  0.46320771619E+02  0.00000000000E+00 0. -1.
         11    1    1    2    0    0  0.41891663639E+02 -0.49253107763E+02  0.61511177686E+02  0.89243515659E+02  0.00000000000E+00 0.  1.
</event>
<event>
 7    1  0.2334784E-009  0.1859808E+03  0.7561462E-02  0.1162137E+00
         -1   -1    0    0    0  501 -0.00000000000E+00  0.00000000000E+00  0.80974907628E+02  0.80974907628E+02  0.00000000000E+00 0.  1.
          1   -1    0    0  501    0  0.00000000000E+00 -0.00000000000E+00 -0.58466961824E+03  0.58466961824E+03  0.00000000000E+00 0. -1.
         25    2    1    2    0    0 -0.14838475680E+03  0.10395222294E+03 -0.33742222171E+03  0.40289523440E+03  0.12508682382E+03 0.  0.
          5    1    3    3  502    0  0.49068688978E+01  0.52905132913E+01 -0.11490938439E+03  0.11521157022E+03  0.41800000000E+01 0. -1.
         -5    1    3    3    0  502 -0.15329162569E+03  0.98661709647E+02 -0.22251283732E+03  0.28768366417E+03  0.41800000000E+01 0. -1.
        -11    1    1    2    0    0  0.84098307515E+02 -0.55212232563E+02 -0.31042021348E+02  0.10528306151E+03  0.00000000000E+00 0.  1.
         11    1    1    2    0    0  0.64286449282E+02 -0.48739990375E+02 -0.13523046755E+03  0.15746622996E+03  0.00000000000E+00 0. -1.
</event>
<event>
 7    1  0.2334784E-009  0.6344227E+02  0.7561462E-02  0.1383929E+00
          1   -1    0    0  501    0  0.00000000000E+00  0.00000000000E+00  0.86580060709E+02  0.86580060709E+02  0.00000000000E+00 0. -1.
         -1   -1    0    0    0  501 -0.00000000000E+00 -0.00000000000E+00 -0.14249514722E+03  0.14249514722E+03  0.00000000000E+00 0.  1.
         25    2    1    2    0    0  0.10441906075E+02  0.33349448669E+02 -0.42751736620E+02  0.13673322010E+03  0.12508814239E+03 0.  0.
          5    1    3    3  502    0 -0.10886177911E+02 -0.15947189663E+02 -0.72532619219E+02  0.75174962444E+02  0.41800000000E+01 0.  1.
         -5    1    3    3    0  502  0.21328083986E+02  0.49296638331E+02  0.29780882599E+02  0.61558257656E+02  0.41800000000E+01 0.  1.
        -11    1    1    2    0    0 -0.20985769361E+02 -0.36626228459E+02  0.27385024911E+02  0.50317220871E+02  0.00000000000E+00 0. -1.
         11    1    1    2    0    0  0.10543863287E+02  0.32767797899E+01 -0.40548374797E+02  0.42024766954E+02  0.00000000000E+00 0.  1.
</event>
<event>
 7    1  0.2334784E-009  0.9969052E+02  0.7561462E-02  0.1280948E+00
          2   -1    0    0  501    0  0.00000000000E+00  0.00000000000E+00  0.79017663469E+03  0.79017663469E+03  0.00000000000E+00 0.  1.
         -2   -1    0    0    0  501 -0.00000000000E+00 -0.00000000000E+00 -0.17288822332E+02  0.17288822332E+02  0.00000000000E+00 0. -1.
         25    2    1    2    0    0  0.41820055886E+02 -0.18024784153E+02  0.39790488364E+03  0.41958106078E+03  0.12508461223E+03 0.  0.
          5    1    3    3  502    0 -0.29678081036E+02 -0.38976930369E+01  0.23935561379E+02  0.38553391596E+02  0.41800000000E+01 0. -1.
         -5    1    3    3    0  502  0.71498136922E+02 -0.14127091116E+02  0.37396932226E+03  0.38102766918E+03  0.41800000000E+01 0. -1.
        -11    1    1    2    0    0 -0.67669284706E+02  0.69143470889E+01  0.21686075246E+03  0.22727852130E+03  0.00000000000E+00 0.  1.
         11    1    1    2    0    0  0.25849228820E+02  0.11110437064E+02  0.15812217625E+03  0.16060587494E+03  0.00000000000E+00 0. -1.
</event>
<event>
 7    1  0.2334784E-009  0.1766370E+03  0.7561462E-02  0.1171098E+00
         -2   -1    0    0    0  501 -0.00000000000E+00  0.00000000000E+00  0.36144148015E+02  0.36144148015E+02  0.00000000000E+00 0.  1.
          2   -1    0    0  501    0  0.00000000000E+00 -0.00000000000E+00 -0.90831573474E+03  0.90831573474E+03  0.00000000000E+00 0. -1.
         25    2    1    2    0    0 -0.58396397187E+02 -0.13188003706E+03 -0.41724470356E+03  0.45884985663E+03  0.12509022706E+03 0.  0.
          5    1    3    3  502    0 -0.60294904113E+02 -0.15375697204E+03 -0.33356817089E+03  0.37223900783E+03  0.41800000000E+01 0.  1.
         -5    1    3    3    0  502  0.18985069265E+01  0.21876934979E+02 -0.83676532662E+02  0.86610848807E+02  0.41800000000E+01 0.  1.
        -11    1    1    2    0    0  0.50264486547E+02  0.20904866933E+02 -0.10286026927E+03  0.11637769143E+03  0.00000000000E+00 0. -1.
         11    1    1    2    0    0  0.81319106400E+01  0.11097517013E+03 -0.35206661390E+03  0.36923233469E+03  0.00000000000E+00 0.  1.
</event>
<event>
 7    1  0.2334784E-009  0.1196031E+03  0.7561462E-02  0.1243753E+00
          1   -1    0    0  501    0  0.00000000000E+00  0.00000000000E+00  0.35531198609E+02  0.35531198609E+02  0.00000000000E+00 0. -1.
         -1   -1    0    0    0  501 -0.00000000000E+00 -0.00000000000E+00 -0.10470789028E+04  0.10470789028E+04  0.00000000000E+00 0.  1.
         25    2    1    2    0    0 -0.13444724119E+02 -0.86408746440E+02 -0.90330158001E+03  0.91610487926E+03  0.12508866166E+03 0.  0.
          5    1    3    3  502    0  0.54580140380E+02 -0.26045967230E+02 -0.41254444044E+03  0.41697454583E+03  0.41800000000E+01 0. -1.
         -5    1    3    3    0  502 -0.68024864499E+02 -0.60362779210E+02 -0.49075713958E+03  0.49913033343E+03  0.41800000000E+01 0. -1.
        -11    1    1    2    0    0  0.74869199687E+01  0.60383776928E+02 -0.63582294803E+01  0.61177459647E+02  0.00000000000E+00 0. -1.
         11    1    1    2    0    0  0.59578041500E+01  0.26024969512E+02 -0.10188789467E+03  0.10532776248E+03  0.00000000000E+00 0.  1.
</event>
<event>
 7    1  0.2334784E-009  0.1053701E+03  0.7561462E-02  0.1269392E+00
         -3   -1    0    0    0  501 -0.00000000000E+00  0.00000000000E+00  0.77075984891E+02  0.77075984891E+02  0.00000000000E+00 0.  1.
          3   -1    0    0  501    0  0.00000000000E+00 -0.00000000000E+00 -0.22704188378E+03  0.22704188378E+03  0.00000000000E+00 0. -1.
         25    2    1    2    0    0 -0.57737702645E+02  0.24179286513E+02 -0.14583526216E+03  0.20207488533E+03  0.12509218757E+03 0.  0.
          5    1    3    3  502    0 -0.62871321395E+02  0.56932304021E+02 -0.14572029541E+03  0.16865932287E+03  0.41800000000E+01 0.  1.
         -5    1    3    3    0  502  0.51336187500E+01 -0.32753017508E+02 -0.11496674263E+00  0.33415562463E+02  0.41800000000E+01 0.  1.
        -11    1    1    2    0    0  0.19447103875E+02  0.23982026084E+02  0.19065256516E+02  0.36287896470E+02  0.00000000000E+00 0.  1.
         11    1    1    2    0    0  0.38290598771E+02 -0.48161312597E+02 -0.23195893244E+02  0.65755086866E+02  0.00000000000E+00 0. -1.
</event>
<event>
 6    1  0.2334784E-009  0.1288902E+03  0.7561462E-02  0.1229112E+00
         -2   -1    0    0    0  501 -0.00000000000E+00  0.00000000000E+00  0.26666394001E+02  0.26666394001E+02  0.00000000000E+00 0.  1.
          2   -1    0    0  501    0  0.00000000000E+00 -0.00000000000E+00 -0.95057949898E+03  0.95057949898E+03  0.00000000000E+00 0. -1.
          5    1    1    2  502    0  0.14728315043E+02 -0.21769731970E+02 -0.34307786323E+03  0.34410861240E+03  0.41800000000E+01 0.  1.
         -5    1    1    2    0  502  0.98044685097E+02  0.99937221543E+00 -0.17010944110E+03  0.19638852658E+03  0.41800000000E+01 0.  1.
        -11    1    1    2    0    0 -0.91194364719E+02  0.44057650788E+02 -0.37726589056E+03  0.39062391239E+03  0.00000000000E+00 0. -1.
         11    1    1    2    0    0 -0.21578635422E+02 -0.23287291033E+02 -0.33459910098E+02  0.46124841616E+02  0.00000000000E+00 0.  1.
</event>
<event>
 7    1  0.2334784E-009  0.8656871E+02  0.7561462E-02  0.1311380E+00
         -1   -1    0    0    0  501 -0.00000000000E+00  0.00000000000E+00  0.16925963509E+03  0.16925963509E+03  0.00000000000E+00 0.  1.
          1   -1    0    0  501    0  0.00000000000E+00 -0.00000000000E+00 -0.10407866484E+03  0.10407866484E+03  0.00000000000E+00 0. -1.
         25    2    1    2    0    0 -0.60000572977E+01  0.42492849994E+02  0.98628661699E+02  0.16497649589E+03  0.12509191940E+03 0.  0.
          5    1    3    3  502    0  0.44595777549E+02  0.17753468610E+02 -0.34627098399E+01  0.48305608187E+02  0.41800000000E+01 0.  1.
         -5    1    3    3    0  502 -0.50595834847E+02  0.24739381384E+02  0.10209137154E+03  0.11667088770E+03  0.41800000000E+01 0.  1.
        -11    1    1    2    0    0 -0.57890996718E+01  0.11682211728E+02  0.24754988331E+02  0.27978513062E+02  0.00000000000E+00 0.  1.
         11    1    1    2    0    0  0.11789156970E+02 -0.54175061722E+02 -0.58202679775E+02  0.80383290973E+02  0.00000000000E+00 0. -1.
</event>
<event>
 7    1  0.2334784E-009  0.9343814E+02  0.7561462E-02  0.1294733E+00
          1   -1    0    0  501    0  0.00000000000E+00  0.00000000000E+00  0.90114379246E+02  0.90114379246E+02  0.00000000000E+00 0. -1.
         -1   -1    0    0    0  501 -0.00000000000E+00 -0.00000000000E+00 -0.16384131436E+03  0.16384131436E+03  0.00000000000E+00 0.  1.
         25    2    1    2    0    0 -0.43484679006E+02 -0.21793328642E+02 -0.73057046715E+02  0.15280832370E+03  0.12508870947E+03 0.  0.
          5    1    3    3  502    0 -0.75338946178E+02 -0.41331151854E+02 -0.76398532714E+02  0.11505837269E+03  0.41800000000E+01 0. -1.
         -5    1    3    3    0  502  0.31854267172E+02  0.19537823212E+02  0.33414859990E+01  0.37749951015E+02  0.41800000000E+01 0. -1.
        -11    1    1    2    0    0  0.14720558443E+02 -0.11907964393E+02  0.37924268353E+02  0.42388024098E+02  0.00000000000E+00 0. -1.
         11    1    1    2    0    0  0.28764120562E+02  0.33701293034E+02 -0.38594156751E+02  0.58759345804E+02  0.00000000000E+00 0.  1.
</event>
<event>
 7    1  0.2334784E-009  0.1043126E+03  0.7561462E-02  0.1271480E+00
         -2   -1    0    0    0  501 -0.00000000000E+00  0.00000000000E+00  0.28847429264E+02  0.28847429264E+02  0.00000000000E+00 0. -1.
          2   -1    0    0  501    0  0.00000000000E+00 -0.00000000000E+00 -0.89468866442E+03  0.89468866442E+03  0.00000000000E+00 0.  1.
         25    2    1    2    0    0  0.30327378097E+02  0.45134766282E+02 -0.75699218060E+03  0.76918115963E+03  0.12508236425E+03 0.  0.
          5    1    3    3  502    0  0.18813163974E+02 -0.38500175441E+02 -0.14130026758E+03  0.14771403679E+03  0.41800000000E+01 0. -1.
         -5    1    3    3    0  502  0.11514214123E+02  0.83634941723E+02 -0.61569191302E+03  0.62146712283E+03  0.41800000000E+01 0. -1.
        -11    1    1    2    0    0  0.10509385585E+02 -0.38203693960E+02 -0.19038091324E+01  0.39668550601E+02  0.00000000000E+00 0. -1.
         11    1    1    2    0    0 -0.40836763683E+02 -0.69310723220E+01 -0.10694524542E+03  0.11468638345E+03  0.00000000000E+00 0.  1.
</event>
<event>
 7    1  0.2334784E-009  0.6244585E+02  0.7561462E-02  0.1387845E+00
          2   -1    0    0  501    0  0.00000000000E+00  0.00000000000E+00  0.11317808561E+04  0.11317808561E+04  0.00000000000E+00 0. -1.
         -2   -1    0    0    0  501 -0.00000000000E+00 -0.00000000000E+00 -0.12215491736E+02  0.12215491736E+02  0.00000000000E+00 0.  1.
         25    2    1    2    0    0 -0.16316979337E+02 -0.83697694229E+01  0.82202805509E+03  0.83169356116E+03  0.12509100472E+03 0.  0.
          5    1    3    3  502    0  0.11947050332E+02 -0.80847259742E+01  0.77245689047E+01  0.16888936333E+02  0.41800000000E+01 0.  1.
         -5    1    3    3    0  502 -0.28264029669E+02 -0.28504344867E+00  0.81430348618E+03  0.81480462482E+03  0.41800000000E+01 0.  1.
        -11    1    1    2    0    0  0.26991457914E+02 -0.30653350027E+02  0.68758384599E+02  0.79974259114E+02  0.00000000000E+00 0.  1.
         11    1    1    2    0    0 -0.10674478578E+02  0.39023119450E+02  0.22877892469E+03  0.23232852758E+03  0.00000000000E+00 0. -1.
</event>
<event>
 6    1  0.2334784E-009  0.7081533E+02  0.7561462E-02  0.1357342E+00
         -2   -1    0    0    0  501 -0.00000000000E+00  0.00000000000E+00  0.53522536488E+02  0.53522536488E+02  0.00000000000E+00 0.  1.
          2   -1    0    0  501    0  0.00000000000E+00 -0.00000000000E+00 -0.23211199738E+03  0.23211199738E+03  0.00000000000E+00 0. -1.
          5    1    1    2  502    0  0.12231697420E+02  0.41104821728E+02  0.17340658837E+02  0.46447730191E+02  0.41800000000E+01 0.  1.
         -5    1    1    2    0  502 -0.11822851020E+02 -0.17637160097E+02 -0.10656223444E+03  0.10873744264E+03  0.41800000000E+01 0.  1.
        -11    1    1    2    0    0 -0.11367258871E+02 -0.48373153123E+02 -0.90469018907E+02  0.10321734302E+03  0.00000000000E+00 0. -1.
         11    1    1    2    0    0  0.10958412471E+02  0.24905491493E+02  0.11011336175E+01  0.27232018024E+02  0.00000000000E+00 0.  1.
</event>
<event>
 7    1  0.2334784E-009  0.1433041E+03  0.7561462E-02  0.1208951E+00
          2   -1    0    0  501    0  0.00000000000E+00  0.00000000000E+00  0.13928370118E+03  0.13928370118E+03  0.00000000000E+00 0. -1.
         -2   -1    0    0    0  501 -0.00000000000E+00 -0.00000000000E+00 -0.18722978573E+03  0.18722978573E+03  0.00000000000E+00 0.  1.
         25    2    1    2    0    0  0.10752831327E+03 -0.48477183563E+02 -0.46064323668E+02  0.17799589042E+03  0.12509292390E+03 0.  0.
          5    1    3    3  502    0 -0.16310660151E+02 -0.36925510552E+02  0.95433671769E+01  0.41690277298E+02  0.41800000000E+01 0. -1.
         -5    1    3    3    0  502  0.12383897342E+03 -0.11551673010E+02 -0.55607690845E+02  0.13630561312E+03  0.41800000000E+01 0. -1.
        -11    1    1    2    0    0 -0.53462758027E+02  0.80415766085E+01  0.41597171206E+02  0.68214793869E+02  0.00000000000E+00 0. -1.
         11    1    1    2    0    0 -0.54065555239E+02  0.40435606954E+02 -0.43478932093E+02  0.80302802622E+02  0.00000000000E+00 0.  1.
</event>
<event>
 7    1  0.2334784E-009  0.1301585E+03  0.7561462E-02  0.1227221E+00
         -2   -1    0    0    0  501 -0.00000000000E+00  0.00000000000E+00  0.26526361852E+02  0.26526361852E+02  0.00000000000E+00 0.  1.
          2   -1    0    0  501    0  0.00000000000E+00 -0.00000000000E+00 -0.78718470600E+03  0.78718470600E+03  0.00000000000E+00 0. -1.
         25    2    1    2    0    0 -0.42668771706E+02 -0.60931260330E+02 -0.57339235797E+03  0.59157531538E+03  0.12509722225E+03 0.  0.
          5    1    3    3  502    0 -0.67591456121E+02  0.11602582811E+02 -0.27621058962E+03  0.28462780448E+03  0.41800000000E+01 0.  1.
         -5    1    3    3    0  502  0.24922684415E+02 -0.72533843141E+02 -0.29718176836E+03  0.30694751089E+03  0.41800000000E+01 0.  1.
        -11    1    1    2    0    0 -0.39801407795E+01 -0.20538024013E+02 -0.63077202592E+02  0.66455890919E+02  0.00000000000E+00 0. -1.
         11    1    1    2    0    0  0.46648912485E+02  0.81469284343E+02 -0.12418878359E+03  0.15567986156E+03  0.00000000000E+00 0.  1.
</event>
<event>
 7    1  0.2334784E-009  0.7302480E+02  0.7561462E-02  0.1350099E+00
         -2   -1    0    0    0  501 -0.00000000000E+00  0.00000000000E+00  0.45784245976E+03  0.45784245976E+03  0.00000000000E+00 0.  1.
          2   -1    0    0  501    0  0.00000000000E+00 -0.00000000000E+00 -0.26558953114E+02  0.26558953114E+02  0.00000000000E+00 0. -1.
         25    2    1    2    0    0 -0.40386058074E+01  0.29549134474E+02  0.27767144066E+03  0.30600367192E+03  0.12508939438E+03 0.  0.
          5    1    3    3  502    0  0.11837352114E+02  0.36058111444E+02  0.28451377078E+03  0.28706422360E+03  0.41800000000E+01 0.  1.
         -5    1    3    3    0  502 -0.15875957921E+02 -0.65089769696E+01 -0.68423301244E+01  0.18939448320E+02  0.41800000000E+01 0.  1.
        -11    1    1    2    0    0 -0.70677012530E+01  0.29392098892E+02  0.42871853954E+02  0.52458018831E+02  0.00000000000E+00 0.  1.
         11    1    1    2    0    0  0.11106307060E+02 -0.58941233366E+02  0.11074021204E+03  0.12593972212E+03  0.00000000000E+00 0. -1.
</event>
<event>
 7    1  0.2334784E-009  0.1008212E+03  0.7561462E-02  0.1278578E+00
          1   -1    0    0  501    0  0.00000000000E+00  0.00000000000E+00  0.18731165347E+03  0.18731165347E+03  0.00000000000E+00 0. -1.
         -1   -1    0    0    0  501 -0.00000000000E+00 -0.00000000000E+00 -0.71755426580E+02  0.71755426580E+02  0.00000000000E+00 0.  1.
         25    2    1    2    0    0  0.11988161579E+02 -0.17728906538E+02  0.22955864789E+02  0.12896665061E+03  0.12508954830E+03 0.  0.
          5    1    3    3  502    0  0.61226365218E+02 -0.11309860630E+00 -0.16238301274E+02  0.63480984692E+02  0.41800000000E+01 0.  1.
         -5    1    3    3    0  502 -0.49238203640E+02 -0.17615807931E+02  0.39194166063E+02  0.65485665913E+02  0.41800000000E+01 0.  1.
        -11    1    1    2    0    0 -0.38563386726E+02  0.38189386318E+02  0.38851681471E+02  0.66745915053E+02  0.00000000000E+00 0.  1.
         11    1    1    2    0    0  0.26575225147E+02 -0.20460479780E+02  0.53748680634E+02  0.63354514396E+02  0.00000000000E+00 0. -1.
</event>
<event>
 6    1  0.2334784E-009  0.1688096E+03  0.7561462E-02  0.1179095E+00
          1   -1    0    0  501    0  0.00000000000E+00  0.00000000000E+00  0.20023961813E+03  0.20023961813E+03  0.00000000000E+00 0. -1.
         -1   -1    0    0    0  501 -0.00000000000E+00 -0.00000000000E+00 -0.36369562586E+03  0.36369562586E+03  0.00000000000E+00 0.  1.
          5    1    1    2  502    0  0.98727374787E+02 -0.61737018100E+02 -0.24535026977E+03  0.27161145265E+03  0.41800000000E+01 0. -1.
         -5    1    1    2    0  502  0.40981512284E+02  0.44628952007E+02 -0.49925555964E+02  0.78620997480E+02  0.41800000000E+01 0. -1.
        -11    1    1    2    0    0 -0.47296887043E+02  0.43502490864E+02  0.85661031482E+02  0.10708536104E+03  0.00000000000E+00 0. -1.
         11    1    1    2    0    0 -0.92412000028E+02 -0.26394424771E+02  0.46158786512E+02  0.10661743282E+03  0.00000000000E+00 0.  1.
</event>
<event>
 7    1  0.2334784E-009  0.1856545E+03  0.7561462E-02  0.1162440E+00
         -2   -1    0    0    0  501 -0.00000000000E+00  0.00000000000E+00  0.86569134732E+02  0.86569134732E+02  0.00000000000E+00 0.  1.
          2   -1    0    0  501    0  0.00000000000E+00 -0.00000000000E+00 -0.57387115065E+03  0.57387115065E+03  0.00000000000E+00 0. -1.
         25    2    1    2    0    0  0.82049145510E+02 -0.15290099036E+03 -0.11830460322E+03  0.24444731678E+03  0.12509091256E+03 0.  0.
          5    1    3    3  502    0  0.98950680542E+02 -0.14875456298E+03 -0.68264089447E+02  0.19130241895E+03  0.41800000000E+01 0.  1.
         -5    1    3    3    0  502 -0.16901535032E+02 -0.41464273748E+01 -0.50040513773E+02  0.53144897827E+02  0.41800000000E+01 0.  1.
        -11    1    1    2    0    0 -0.19407961058E+02  0.56473829419E+02 -0.21897989465E+03  0.22697611465E+03  0.00000000000E+00 0. -1.
         11    1    1    2    0    0 -0.62641184452E+02  0.96427160940E+02 -0.15001751804E+03  0.18901685395E+03  0.00000000000E+00 0.  1.
</event>
<event>
 7    1  0.2334784E-009  0.1168593E+03  0.7561462E-02  0.1248370E+00
          4   -1    0    0  501    0  0.00000000000E+00  0.00000000000E+00  0.27341158938E+03  0.27341158938E+03  0.00000000000E+00 0. -1.
         -4   -1    0    0    0  501 -0.00000000000E+00 -0.00000000000E+00 -0.78115029418E+02  0.78115029418E+02  0.00000000000E+00 0.  1.
         25    2    1    2    0    0  0.44583435029E+02  0.44064337748E+02  0.16281287237E+02  0.14084315625E+03  0.12506944394E+03 0.  0.
          5    1    3    3  502    0  0.28413017494E+02 -0.34320820884E+02 -0.24393043672E+02  0.50967747535E+02  0.41800000000E+01 0. -1.
         -5    1    3    3    0  502  0.16170417535E+02  0.78385158631E+02  0.40674330909E+02  0.89875408716E+02  0.41800000000E+01 0. -1.
        -11    1    1    2    0    0  0.27459238960E+02 -0.12239030220E+02  0.32039717765E+02  0.43935716444E+02  0.00000000000E+00 0.  1.
         11    1    1    2    0    0 -0.72042673989E+02 -0.31825307528E+02  0.14697555496E+03  0.16674774610E+03  0.00000000000E+00 0. -1.
</event>
<event>
 7    1  0.2334784E-009  0.1741295E+03  0.7561462E-02  0.1173609E+00
          1   -1    0    0  501    0  0.00000000000E+00  0.00000000000E+00  0.26302396625E+03  0.26302396625E+03  0.00000000000E+00 0. -1.
         -1   -1    0    0    0  501 -0.00000000000E+00 -0.00000000000E+00 -0.15160613464E+03  0.15160613464E+03  0.00000000000E+00 0.  1.
         25    2    1    2    0    0  0.11384942345E+03  0.12103182509E+03  0.62817973564E+02  0.21726670698E+03  0.12509328621E+03 0.  0.
          5    1    3    3  502    0  0.87241638033E+02  0.58547971206E+02 -0.23112286887E+02  0.10765973502E+03  0.41800000000E+01 0.  1.
         -5    1    3    3    0  502  0.26607785416E+02  0.62483853886E+02  0.85930260450E+02  0.10960697196E+03  0.41800000000E+01 0.  1.
        -11    1    1    2    0    0 -0.85885342343E+02 -0.11936748199E+03  0.69267238972E+02  0.16255103254E+03  0.00000000000E+00 0. -1.
         11    1    1    2    0    0 -0.27964081105E+02 -0.16643431009E+01 -0.20667380926E+02  0.34812361373E+02  0.00000000000E+00 0.  1.
</event>
<event>
 7    1  0.2334784E-009  0.1208714E+03  0.7561462E-02  0.1241666E+00
          2   -1    0    0  501    0  0.00000000000E+00  0.00000000000E+00  0.57514400114E+03  0.57514400114E+03  0.00000000000E+00 0. -1.
         -2   -1    0    0    0  501 -0.00000000000E+00 -0.00000000000E+00 -0.31657019598E+02  0.31657019598E+02  0.00000000000E+00 0.  1.
         25    2    1    2    0    0 -0.58988617654E+02  0.50592100358E+02  0.34647929260E+03  0.37647605182E+03  0.12508836782E+03 0.  0.
          5    1    3    3  502    0 -0.69402958572E+01 -0.39153510662E+02  0.13638652532E+03  0.14212642891E+03  0.41800000000E+01 0.  1.
         -5    1    3    3    0  502 -0.52048321797E+02  0.89745611021E+02  0.21009276727E+03  0.23434962291E+03  0.41800000000E+01 0.  1.
        -11    1    1    2    0    0  0.50567782892E+01 -0.43198109323E+02  0.15660788549E+03  0.16253515759E+03  0.00000000000E+00 0. -1.
         11    1    1    2    0    0  0.53931839365E+02 -0.73939910348E+01  0.40399803459E+02  0.67789811330E+02  0.00000000000E+00 0.  1.
</event>
<event>
 7    1  0.2334784E-009  0.1851469E+03  0.7561462E-02  0.1162913E+00
          1   -1    0    0  501    0  0.00000000000E+00  0.00000000000E+00  0.57608927609E+03  0.57608927609E+03  0.00000000000E+00 0. -1.
         -1   -1    0    0    0  501 -0.00000000000E+00 -0.00000000000E+00 -0.61222878243E+02  0.61222878243E+02  0.00000000000E+00 0.  1.
         25    2    1    2    0    0  0.86172304331E+02  0.12363785992E+03  0.30690327570E+03  0.36407296571E+03  0.12509003672E+03 0.  0.
          5    1    3    3  502    0  0.14626055548E+02  0.12131269326E+03  0.16832569850E+03  0.20804255388E+03  0.41800000000E+01 0. -1.
         -5    1    3    3    0  502  0.71546248782E+02  0.23251666537E+01  0.13857757720E+03  0.15603041184E+03  0.41800000000E+01 0. -1.
        -11    1    1    2    0    0  0.73810899889E+01 -0.66064615422E+02  0.65285271085E+02  0.93172852918E+02  0.00000000000E+00 0.  1.
         11    1    1    2    0    0 -0.93553394319E+02 -0.57573244495E+02  0.14267785106E+03  0.18006633570E+03  0.00000000000E+00 0. -1.
</event>
<event>
 7    1  0.2334784E-009  0.1196320E+03  0.7561462E-02  0.1243705E+00
          2   -1    0    0  501    0  0.00000000000E+00  0.00000000000E+00  0.48584395093E+03  0.48584395093E+03  0.00000000000E+00 0. -1.
         -2   -1    0    0    0  501 -0.00000000000E+00 -0.00000000000E+00 -0.81502209792E+02  0.81502209792E+02  0.00000000000E+00 0.  1.
         25    2    1    2    0    0 -0.10405040467E+02  0.56011027402E+02  0.42565323886E+03  0.44729626180E+03  0.12509103089E+03 0.  0.
          5    1    3    3  502    0 -0.64310419080E+02  0.24947014707E+02  0.15759391628E+03  0.17207991862E+03  0.41800000000E+01 0.  1.
         -5    1    3    3    0  502  0.53905378613E+02  0.31064012695E+02  0.26805932258E+03  0.27521634317E+03  0.41800000000E+01 0.  1.
        -11    1    1    2    0    0  0.11221967778E+01 -0.81070704110E+02 -0.36934219612E+02  0.89094640517E+02  0.00000000000E+00 0.  1.
         11    1    1    2    0    0  0.92828436890E+01  0.25059676708E+02  0.15622721885E+02  0.30955258402E+02  0.00000000000E+00 0. -1.
</event>
<event>
 7    1  0.2334784E-009  0.1199595E+03  0.7561462E-02  0.1243164E+00
          2   -1    0    0  501    0  0.00000000000E+00  0.00000000000E+00  0.21530558490E+04  0.21530558490E+04  0.00000000000E+00 0. -1.
         -2   -1    0    0    0  501 -0.00000000000E+00 -0.00000000000E+00 -0.16217024761E+02  0.16217024761E+02  0.00000000000E+00 0.  1.
         25    2    1    2    0    0  0.50432139971E+02  0.57388516451E+02  0.18784923183E+04  0.18842030675E+04  0.12510382579E+03 0.  0.
          5    1    3    3  502    0  0.42834864020E+02 -0.15968455332E+02  0.13260286403E+04  0.13268229891E+04  0.41800000000E+01 0. -1.
         -5    1    3    3    0  502  0.75972759509E+01  0.73356971783E+02  0.55246367795E+03  0.55738007838E+03  0.41800000000E+01 0. -1.
        -11    1    1    2    0    0 -0.48516807360E+02 -0.82098089740E+02  0.21353350644E+03  0.23386007634E+03  0.00000000000E+00 0. -1.
         11    1    1    2    0    0 -0.19153326113E+01  0.24709573289E+02  0.44812999539E+02  0.51209729923E+02  0.00000000000E+00 0.  1.
</event>
<event>
 7    1  0.2334784E-009  0.1087767E+03  0.7561462E-02  0.1262852E+00
          2   -1    0    0  501    0  0.00000000000E+00  0.00000000000E+00  0.94945947014E+03  0.94945947014E+03  0.00000000000E+00 0. -1.
         -2   -1    0    0    0  501 -0.00000000000E+00 -0.00000000000E+00 -0.20644715187E+02  0.20644715187E+02  0.00000000000E+00 0.  1.
         25    2    1    2    0    0 -0.47154803853E+02 -0.66327190987E+02  0.63719520871E+03  0.65443721812E+03  0.12508983441E+03 0.  0.
          5    1    3    3  502    0  0.55373212903E+01  0.46635933795E+01  0.41749964399E+03  0.41758332841E+03  0.41800000000E+01 0.  1.
         -5    1    3    3    0  502 -0.52692125143E+02 -0.70990784366E+02  0.21969556472E+03  0.23685388971E+03  0.41800000000E+01 0.  1.
        -11    1    1    2    0    0  0.72224655617E+02  0.34138398385E+02  0.20058171347E+03  0.21590473571E+03  0.00000000000E+00 0.  1.
         11    1    1    2    0    0 -0.25069851764E+02  0.32188792602E+02  0.91037832766E+02  0.99762231488E+02  0.00000000000E+00 0. -1.
</event>
<event>
 7    1  0.2334784E-009  0.1271299E+03  0.7561462E-02  0.1231778E+00
         -1   -1    0    0    0  501 -0.00000000000E+00  0.00000000000E+00  0.12278237798E+03  0.12278237798E+03  0.00000000000E+00 0.  1.
          1   -1    0    0  501    0  0.00000000000E+00 -0.00000000000E+00 -0.15829878777E+03  0.15829878777E+03  0.00000000000E+00 0. -1.
         25    2    1    2    0    0 -0.19989615569E+02 -0.85121554930E+02  0.13387999427E+00  0.15261894873E+03  0.12508901528E+03 0.  0.
          5    1    3    3  502    0  0.52930619261E+02 -0.30263606595E+02  0.34501566970E+01  0.61212027583E+02  0.41800000000E+01 0.  1.
         -5    1    3    3    0  502 -0.72920234830E+02 -0.54857948335E+02 -0.33162767027E+01  0.91406921151E+02  0.41800000000E+01 0.  1.
        -11    1    1    2    0    0  0.20260216404E+02  0.39689343633E+01  0.21033742938E+02  0.29472820542E+02  0.00000000000E+00 0.  1.
         11    1    1    2    0    0 -0.27060083515E+00  0.81152620567E+02 -0.56684032714E+02  0.98989396474E+02  0.00000000000E+00 0. -1.
</event>
<event>
 7    1  0.2334784E-009  0.1183386E+03  0.7561462E-02  0.1245863E+00
         -2   -1    0    0    0  501 -0.00000000000E+00  0.00000000000E+00  0.35184935024E+02  0.35184935024E+02  0.00000000000E+00 0. -1.
          2   -1    0    0  501    0  0.00000000000E+00 -0.00000000000E+00 -0.17987631020E+04  0.17987631020E+04  0.00000000000E+00 0.  1.
         25    2    1    2    0    0 -0.27228719730E+02  0.55597084934E+02 -0.17018901885E+04  0.17076038058E+04  0.12509238553E+03 0.  0.
          5    1    3    3  502    0  0.47618210936E+02  0.44219931057E+01 -0.67871835888E+03  0.68041394100E+03  0.41800000000E+01 0.  1.
         -5    1    3    3    0  502 -0.74846930666E+02  0.51175091828E+02 -0.10231718296E+04  0.10271898648E+04  0.41800000000E+01 0.  1.
        -11    1    1    2    0    0 -0.12009877276E+02 -0.57383476205E+02 -0.64254452971E+02  0.86981234874E+02  0.00000000000E+00 0.  1.
         11    1    1    2    0    0  0.39238597007E+02  0.17863912714E+01  0.25664744908E+01  0.39362996331E+02  0.00000000000E+00 0. -1.
</event>
<event>
 7    1  0.2334784E-009  0.1057293E+03  0.7561462E-02  0.1268689E+00
         -1   -1    0    0    0  501 -0.00000000000E+00  0.00000000000E+00  0.16937634971E+03  0.16937634971E+03  0.00000000000E+00 0.  1.
          1   -1    0    0  501    0  0.00000000000E+00 -0.00000000000E+00 -0.74026543826E+02  0.74026543826E+02  0.00000000000E+00 0. -1.
         25    2    1    2    0    0  0.92721882382E+01 -0.26057900027E+02  0.62775647174E+02  0.14266623064E+03  0.12509150194E+03 0.  0.
          5    1    3    3  502    0 -0.57022183166E+02 -0.18801552936E+02  0.20443103180E+02  0.63564303138E+02  0.41800000000E+01 0.  1.
         -5    1    3    3    0  502  0.66294371404E+02 -0.72563470916E+01  0.42332543994E+02  0.79101927498E+02  0.41800000000E+01 0.  1.
        -11    1    1    2    0    0  0.33194180795E+02 -0.24783456229E+01 -0.93670812369E+01  0.34579445435E+02  0.00000000000E+00 0. -1.
         11    1    1    2    0    0 -0.42466369033E+02  0.28536245650E+02  0.41941239952E+02  0.66157217470E+02  0.00000000000E+00 0.  1.
</event>
<event>
 7    1  0.2334784E-009  0.1244774E+03  0.7561462E-02  0.1235888E+00
         -3   -1    0    0    0  501 -0.00000000000E+00  0.00000000000E+00  0.10123443325E+04  0.10123443325E+04  0.00000000000E+00 0.  1.
          3   -1    0    0  501    0  0.00000000000E+00 -0.00000000000E+00 -0.16544306595E+02  0.16544306595E+02  0.00000000000E+00 0. -1.
         25    2    1    2    0    0 -0.12377128930E+02 -0.65680108821E+02  0.58799177860E+03  0.60485435269E+03  0.12508951294E+03 0.  0.
          5    1    3    3  502    0  0.19124806383E+02  0.32382709856E+02  0.12937207260E+03  0.13479244670E+03  0.41800000000E+01 0. -1.
         -5    1    3    3    0  502 -0.31501935314E+02 -0.98062818676E+02  0.45861970600E+03  0.47006190600E+03  0.41800000000E+01 0. -1.
        -11    1    1    2    0    0 -0.34878637925E+02  0.12900355249E+02  0.22363064804E+03  0.22670157761E+03  0.00000000000E+00 0.  1.
         11    1    1    2    0    0  0.47255766856E+02  0.52779753572E+02  0.18417759922E+03  0.19733270875E+03  0.00000000000E+00 0. -1.
</event>
<event>
 7    1  0.2334784E-009  0.2487780E+03  0.7561462E-02  0.1114080E+00
         -1   -1    0    0    0  501 -0.00000000000E+00  0.00000000000E+00  0.29814629956E+03  0.29814629956E+03  0.00000000000E+00 0.  1.
          1   -1    0    0  501    0  0.00000000000E+00 -0.00000000000E+00 -0.25691180663E+03  0.25691180663E+03  0.00000000000E+00 0. -1.
         25    2    1    2    0    0  0.16258390809E+03  0.18264341443E+03  0.86305608306E+02  0.28789601984E+03  0.12507324339E+03 0.  0.
          5    1    3    3  502    0  0.12731818867E+03  0.96698674138E+02 -0.15881046266E+01  0.15993920477E+03  0.41800000000E+01 0.  1.
         -5    1    3    3    0  502  0.35265719413E+02  0.85944740293E+02  0.87893712932E+02  0.12795681507E+03  0.41800000000E+01 0.  1.
        -11    1    1    2    0    0 -0.36964250478E+02 -0.37048572809E+02  0.30470790502E+02  0.60559240702E+02  0.00000000000E+00 0.  1.
         11    1    1    2    0    0 -0.12561965761E+03 -0.14559484162E+03 -0.75541905886E+02  0.20660284565E+03  0.00000000000E+00 0. -1.
</event>
<event>
 7    1  0.2334784E-009  0.9786614E+02  0.7561462E-02  0.1284848E+00
         -1   -1    0    0    0  501 -0.00000000000E+00  0.00000000000E+00  0.12484618965E+02  0.12484618965E+02  0.00000000000E+00 0.  1.
          1   -1    0    0  501    0  0.00000000000E+00 -0.00000000000E+00 -0.25175630434E+04  0.25175630434E+04  0.00000000000E+00 0. -1.
         25    2    1    2    0    0 -0.28874710759E+02  0.60171061211E+00 -0.23097698242E+04  0.23133348743E+04  0.12508992414E+03 0.  0.
          5    1    3    3  502    0 -0.56032898835E+02  0.43261725957E+02 -0.96200454499E+03  0.96461467937E+03  0.41800000000E+01 0.  1.
         -5    1    3    3    0  502  0.27158188076E+02 -0.42660015344E+02 -0.13477652792E+04  0.13487201949E+04  0.41800000000E+01 0.  1.
        -11    1    1    2    0    0  0.36217161306E+02  0.27216832146E+02 -0.17677721112E+03  0.18249005753E+03  0.00000000000E+00 0. -1.
         11    1    1    2    0    0 -0.73424505470E+01 -0.27818542758E+02 -0.18531389168E+02  0.34222730542E+02  0.00000000000E+00 0.  1.
</event>
<event>
 7    1  0.2334784E-009  0.8051706E+02  0.7561462E-02  0.1327590E+00
         -2   -1    0    0    0  501 -0.00000000000E+00  0.00000000000E+00  0.59205669716E+02  0.59205669716E+02  0.00000000000E+00 0.  1.
          2   -1    0    0  501    0  0.00000000000E+00 -0.00000000000E+00 -0.27744855499E+03  0.27744855499E+03  0.00000000000E+00 0. -1.
         25    2    1    2    0    0  0.13561812170E+02 -0.24822895373E+02 -0.41063606807E+02  0.13466102695E+03  0.12508906224E+03 0.  0.
          5    1    3    3  502    0 -0.48899419802E+02 -0.18224723910E+02 -0.48387154305E+02  0.71288729266E+02  0.41800000000E+01 0.  1.
         -5    1    3    3    0  502  0.62461231972E+02 -0.65981714629E+01  0.73235474986E+01  0.63372297687E+02  0.41800000000E+01 0.  1.
        -11    1    1    2    0    0  0.98370960665E+01 -0.21054939378E+01  0.83447434527E+01  0.13070436375E+02  0.00000000000E+00 0.  1.
         11    1    1    2    0    0 -0.23398908236E+02  0.26928389311E+02 -0.18552402192E+03  0.18892276138E+03  0.00000000000E+00 0. -1.
</event>
<event>
 7    1  0.2334784E-009  0.9846994E+02  0.7561462E-02  0.1283547E+00
          1   -1    0    0  501    0  0.00000000000E+00  0.00000000000E+00  0.28147671991E+02  0.28147671991E+02  0.00000000000E+00 0. -1.
         -1   -1    0    0    0  501 -0.00000000000E+00 -0.00000000000E+00 -0.53468069027E+03  0.53468069027E+03  0.00000000000E+00 0.  1.
         25    2    1    2    0    0  0.43903681024E+02 -0.37174731261E+02 -0.29590400019E+03  0.32636846503E+03  0.12509078218E+03 0.  0.
          5    1    3    3  502    0 -0.10593790233E+02  0.15018551331E+02  0.20683190673E+01  0.18961424507E+02  0.41800000000E+01 0. -1.
         -5    1    3    3    0  502  0.54497471256E+02 -0.52193282593E+02 -0.29797231925E+03  0.30740704052E+03  0.41800000000E+01 0. -1.
        -11    1    1    2    0    0 -0.16774012115E+02 -0.27595732386E+02 -0.10303720616E+03  0.10797943221E+03  0.00000000000E+00 0.  1.
         11    1    1    2    0    0 -0.27129668909E+02  0.64770463647E+02 -0.10759181194E+03  0.12848046502E+03  0.00000000000E+00 0. -1.
</event>
<event>
 7    1  0.2334784E-009  0.1711242E+03  0.7561462E-02  0.1176681E+00
          2   -1    0    0  501    0  0.00000000000E+00  0.00000000000E+00  0.53350373399E+03  0.53350373399E+03  0.00000000000E+00 0. -1.
         -2   -1    0    0    0  501 -0.00000000000E+00 -0.00000000000E+00 -0.81483438473E+02  0.81483438473E+02  0.00000000000E+00 0.  1.
         25    2    1    2    0    0 -0.14771828300E+03  0.40661276045E+02  0.10264963936E+03  0.22284091058E+03  0.12508833865E+03 0.  0.
          5    1    3    3  502    0 -0.43048143895E+02  0.58404357248E+02  0.90250536009E+02  0.11587425637E+03  0.41800000000E+01 0.  1.
         -5    1    3    3    0  502 -0.10467013910E+03 -0.17743081203E+02  0.12399103355E+02  0.10696665421E+03  0.41800000000E+01 0.  1.
        -11    1    1    2    0    0  0.13466537195E+02  0.13029199569E+02  0.61638225924E+01  0.19725627351E+02  0.00000000000E+00 0.  1.
         11    1    1    2    0    0  0.13425174580E+03 -0.53690475615E+02  0.34320683356E+03  0.37242063453E+03  0.00000000000E+00 0. -1.
</event>
<event>
 7    1  0.2334784E-009  0.1295822E+03  0.7561462E-02  0.1228077E+00
          1   -1    0    0  501    0  0.00000000000E+00  0.00000000000E+00  0.37448562774E+03  0.37448562774E+03  0.00000000000E+00 0. -1.
         -1   -1    0    0    0  501 -0.00000000000E+00 -0.00000000000E+00 -0.49117322236E+02  0.49117322236E+02  0.00000000000E+00 0.  1.
         25    2    1    2    0    0  0.33099298860E+02  0.64562846418E+02  0.12015005898E+03  0.18802991317E+03  0.12512108875E+03 0.  0.
          5    1    3    3  502    0  0.55755093548E+01  0.99458242879E+02  0.88428104853E+02  0.13326676446E+03  0.41800000000E+01 0.  1.
         -5    1    3    3    0  502  0.27523789505E+02 -0.34895396461E+02  0.31721954129E+02  0.54763148710E+02  0.41800000000E+01 0.  1.
        -11    1    1    2    0    0 -0.32343538684E+02  0.14720302874E+02  0.77278183222E+02  0.85057095021E+02  0.00000000000E+00 0. -1.
         11    1    1    2    0    0 -0.75576017530E+00 -0.79283149292E+02  0.12794006330E+03  0.15051594179E+03  0.00000000000E+00 0.  1.
</event>
<event>
 7    1  0.2334784E-009  0.1180829E+03  0.7561462E-02  0.1246294E+00
         -2   -1    0    0    0  501 -0.00000000000E+00  0.00000000000E+00  0.98059612879E+02  0.98059612879E+02  0.00000000000E+00 0.  1.
          2   -1    0    0  501    0  0.00000000000E+00 -0.00000000000E+00 -0.25231113447E+03  0.25231113447E+03  0.00000000000E+00 0. -1.
         25    2    1    2    0    0 -0.13549528638E+02 -0.56645010390E+02 -0.19111793045E+03  0.23572772124E+03  0.12509695556E+03 0.  0.
          5    1    3    3  502    0 -0.66400482791E+02 -0.39256968846E+02 -0.14077728725E+03  0.16057973323E+03  0.41800000000E+01 0. -1.
         -5    1    3    3    0  502  0.52850954153E+02 -0.17388041544E+02 -0.50340643202E+02  0.75147988008E+02  0.41800000000E+01 0. -1.
        -11    1    1    2    0    0 -0.19486787388E+02 -0.14758765904E+02 -0.58268571794E+01  0.25129829254E+02  0.00000000000E+00 0.  1.
         11    1    1    2    0    0  0.33036316027E+02  0.71403776294E+02  0.42693266045E+02  0.89513196855E+02  0.00000000000E+00 0. -1.
</event>
<event>
 7    1  0.2334784E-009  0.3757007E+03  0.7561462E-02  0.1052534E+00
         -2   -1    0    0    0  501 -0.00000000000E+00  0.00000000000E+00  0.20836901996E+03  0.20836901996E+03  0.00000000000E+00 0.  1.
          2   -1    0    0  501    0  0.00000000000E+00 -0.00000000000E+00 -0.71857381787E+03  0.71857381787E+03  0.00000000000E+00 0. -1.
         25    2    1    2    0    0 -0.10427176578E+03 -0.34674998510E+03 -0.35589761682E+03  0.52289431217E+03  0.12508874742E+03 0.  0.
          5    1    3    3  502    0 -0.12673453469E+03 -0.22303897240E+03 -0.22353109446E+03  0.34028171870E+03  0.41800000000E+01 0.  1.
         -5    1    3    3    0  502  0.22462768908E+02 -0.12371101271E+03 -0.13236652236E+03  0.18261259347E+03  0.41800000000E+01 0.  1.
        -11    1    1    2    0    0  0.25309721125E+02  0.20680906399E+03 -0.56255357335E+02  0.21581296569E+03  0.00000000000E+00 0. -1.
         11    1    1    2    0    0  0.78962044656E+02  0.13994092111E+03 -0.98051823753E+02  0.18823555998E+03  0.00000000000E+00 0.  1.
</event>
<event>
 7    1  0.2334784E-009  0.9067621E+02  0.7561462E-02  0.1301222E+00
          2   -1    0    0  501    0  0.00000000000E+00  0.00000000000E+00  0.10142678152E+03  0.10142678152E+03  0.00000000000E+00 0. -1.
         -2   -1    0    0    0  501 -0.00000000000E+00 -0.00000000000E+00 -0.17737495571E+03  0.17737495571E+03  0.00000000000E+00 0.  1.
         25    2    1    2    0    0 -0.41930156486E+02  0.57477045600E+02 -0.63061376716E+01  0.14404774482E+03  0.12509291196E+03 0.  0.
          5    1    3    3  502    0 -0.12505634569E+02 -0.48957348553E+01  0.51859040452E+02  0.53732593389E+02  0.41800000000E+01 0. -1.
         -5    1    3    3    0  502 -0.29424521918E+02  0.62372780455E+02 -0.58165178123E+02  0.90315151430E+02  0.41800000000E+01 0. -1.
        -11    1    1    2    0    0  0.21957174298E+02  0.12608428071E+02 -0.54821826404E+02  0.60386443941E+02  0.00000000000E+00 0.  1.
         11    1    1    2    0    0  0.19972982189E+02 -0.70085473671E+02 -0.14820210119E+02  0.74367548468E+02  0.00000000000E+00 0. -1.
</event>
<event>
 7    1  0.2334784E-009  0.1294966E+03  0.7561462E-02  0.1228205E+00
         -2   -1    0    0    0  501 -0.00000000000E+00  0.00000000000E+00  0.28557153741E+02  0.28557153741E+02  0.00000000000E+00 0.  1.
          2   -1    0    0  501    0  0.00000000000E+00 -0.00000000000E+00 -0.85575633583E+03  0.85575633583E+03  0.00000000000E+00 0. -1.
         25    2    1    2    0    0  0.95275830891E+02  0.29777684482E+02 -0.59008242572E+03  0.61139965443E+03  0.12509226138E+03 0.  0.
          5    1    3    3  502    0  0.80798719653E+01 -0.21832226022E+02 -0.34973242844E+03  0.35053127439E+03  0.41800000000E+01 0. -1.
         -5    1    3    3    0  502  0.87195958926E+02  0.51609910504E+02 -0.24034999727E+03  0.26086838004E+03  0.41800000000E+01 0. -1.
        -11    1    1    2    0    0  0.10645232139E+02  0.15446058902E+02 -0.47370586397E+02  0.50949721869E+02  0.00000000000E+00 0.  1.
         11    1    1    2    0    0 -0.10592106303E+03 -0.45223743384E+02 -0.18974616998E+03  0.22196411327E+03  0.00000000000E+00 0. -1.
</event>
<event>
 7    1  0.2334784E-009  0.9190365E+02  0.7561462E-02  0.1298306E+00
         -1   -1    0    0    0  501 -0.00000000000E+00  0.00000000000E+00  0.17017590866E+03  0.17017590866E+03  0.00000000000E+00 0.  1.
          1   -1    0    0  501    0  0.00000000000E+00 -0.00000000000E+00 -0.10300726306E+03  0.10300726306E+03  0.00000000000E+00 0. -1.
         25    2    1    2    0    0 -0.61205191434E+01 -0.40165392663E+02 -0.30497057104E+02  0.13500094407E+03  0.12507783531E+03 0.  0.
          5    1    3    3  502    0 -0.48078151909E+02 -0.20673497034E+01 -0.54926479555E+02  0.73144878031E+02  0.41800000000E+01 0. -1.
         -5    1    3    3    0  502  0.41957632766E+02 -0.38098042960E+02  0.24429422452E+02  0.61856066040E+02  0.41800000000E+01 0. -1.
        -11    1    1    2    0    0  0.63547636532E+00  0.59028291789E+02  0.10219803443E+03  0.11802195263E+03  0.00000000000E+00 0.  1.
         11    1    1    2    0    0  0.54850427781E+01 -0.18862899126E+02 -0.45323317335E+01  0.20160275014E+02  0.00000000000E+00 0. -1.
</event>
<event>
 7    1  0.2334784E-009  0.1122799E+03  0.7561462E-02  0.1256405E+00
          2   -1    0    0  501    0  0.00000000000E+00  0.00000000000E+00  0.24725159003E+03  0.24725159003E+03  0.00000000000E+00 0. -1.
         -2   -1    0    0    0  501 -0.00000000000E+00 -0.00000000000E+00 -0.83605014410E+02  0.83605014410E+02  0.00000000000E+00 0.  1.
         25    2    1    2    0    0 -0.10048326102E+02  0.91024435454E+02  0.11494442414E+03  0.19299328696E+03  0.12509105269E+03 0.  0.
          5    1    3    3  502    0 -0.21237425409E+02  0.94945415619E+02  0.22825729927E+02  0.10002073051E+03  0.41800000000E+01 0. -1.
         -5    1    3    3    0  502  0.11189099307E+02 -0.39209801649E+01  0.92118694217E+02  0.92972556450E+02  0.41800000000E+01 0. -1.
        -11    1    1    2    0    0  0.19899981711E+02  0.29500375144E+01 -0.13957949989E+02  0.24485431614E+02  0.00000000000E+00 0.  1.
         11    1    1    2    0    0 -0.98516556087E+01 -0.93974472969E+02  0.62660101468E+02  0.11337788587E+03  0.00000000000E+00 0. -1.
</event>
<event>
 7    1  0.2334784E-009  0.5834184E+02  0.7561462E-02  0.1404925E+00
         -2   -1    0    0    0  501 -0.00000000000E+00  0.00000000000E+00  0.66220602086E+02  0.66220602086E+02  0.00000000000E+00 0.  1.
          2   -1    0    0  501    0  0.00000000000E+00 -0.00000000000E+00 -0.22490982771E+03  0.22490982771E+03  0.00000000000E+00 0. -1.
         25    2    1    2    0    0  0.16093662282E+02  0.39650285643E+02 -0.90130102399E+02  0.16000337599E+03  0.12508594586E+03 0.  0.
          5    1    3    3  502    0  0.11071881976E+02 -0.90250561439E+00  0.30416757269E+02  0.32650461094E+02  0.41800000000E+01 0. -1.
         -5    1    3    3    0  502  0.50217803066E+01  0.40552791257E+02 -0.12054685967E+03  0.12735291489E+03  0.41800000000E+01 0. -1.
        -11    1    1    2    0    0 -0.32966783033E+02 -0.27749434359E+02  0.14557908645E+02  0.45483761881E+02  0.00000000000E+00 0.  1.
         11    1    1    2    0    0  0.16873120751E+02 -0.11900851284E+02 -0.83117031869E+02  0.85643291925E+02  0.00000000000E+00 0. -1.
</event>
<event>
 7    1  0.2334784E-009  0.2436541E+03  0.7561462E-02  0.1117382E+00
         -1   -1    0    0    0  501 -0.00000000000E+00  0.00000000000E+00  0.51463338580E+02  0.51463338580E+02  0.00000000000E+00 0.  1.
          1   -1    0    0  501    0  0.00000000000E+00 -0.00000000000E+00 -0.17097033995E+04  0.17097033995E+04  0.00000000000E+00 0. -1.
         25    2    1    2    0    0 -0.80898460299E+02  0.22622318960E+03 -0.44316194886E+03  0.51938571734E+03  0.12509003983E+03 0.  0.
          5    1    3    3  502    0 -0.52177698359E+02  0.87137561849E+02 -0.79797382008E+02  0.12923065219E+03  0.41800000000E+01 0.  1.
         -5    1    3    3    0  502 -0.28720761939E+02  0.13908562775E+03 -0.36336456686E+03  0.39015506515E+03  0.41800000000E+01 0.  1.
        -11    1    1    2    0    0  0.92729447327E+01 -0.82236409945E+02 -0.24855706489E+03  0.26197219153E+03  0.00000000000E+00 0. -1.
         11    1    1    2    0    0  0.71625515566E+02 -0.14398677966E+03 -0.96652104719E+03  0.97980882924E+03  0.00000000000E+00 0.  1.
</event>
<event>
 7    1  0.2334784E-009  0.9508963E+02  0.7561462E-02  0.1290974E+00
         -1   -1    0    0    0  501 -0.00000000000E+00  0.00000000000E+00  0.33448208727E+03  0.33448208727E+03  0.00000000000E+00 0.  1.
          1   -1    0    0  501    0  0.00000000000E+00 -0.00000000000E+00 -0.53524680849E+02  0.53524680849E+02  0.00000000000E+00 0. -1.
         25    2    1    2    0    0  0.50976066793E+02  0.58486775986E+01  0.25321529743E+03  0.28705017018E+03  0.12508815665E+03 0.  0.
          5    1    3    3  502    0  0.60521398403E+01 -0.36919488426E+02  0.20486283417E+03  0.20829289534E+03  0.41800000000E+01 0.  1.
         -5    1    3    3    0  502  0.44923926952E+02  0.42768166024E+02  0.48352463257E+02  0.78757274844E+02  0.41800000000E+01 0.  1.
        -11    1    1    2    0    0 -0.67335052140E+02  0.94186887811E+01  0.36685187099E+01  0.68089492395E+02  0.00000000000E+00 0. -1.
         11    1    1    2    0    0  0.16358985347E+02 -0.15267366380E+02  0.24073590279E+02  0.32867105542E+02  0.00000000000E+00 0.  1.
</event>
<event>
 6    1  0.2334784E-009  0.1002569E+03  0.7561462E-02  0.1279757E+00
          1   -1    0    0  501    0  0.00000000000E+00  0.00000000000E+00  0.40182481389E+02  0.40182481389E+02  0.00000000000E+00 0.  1.
         -1   -1    0    0    0  501 -0.00000000000E+00 -0.00000000000E+00 -0.60250891715E+03  0.60250891715E+03  0.00000000000E+00 0. -1.
          5    1    1    2  502    0  0.33089362705E+01  0.49336059071E+02 -0.10235194197E+03  0.11374703604E+03  0.41800000000E+01 0.  1.
         -5    1    1    2    0  502 -0.18764068820E+02 -0.51173094160E+02 -0.42179861580E+03  0.42532613432E+03  0.41800000000E+01 0.  1.
        -11    1    1    2    0    0  0.52156056839E+02  0.19260647968E+02 -0.19677512253E+02  0.58978227454E+02  0.00000000000E+00 0. -1.
         11    1    1    2    0    0 -0.36700924290E+02 -0.17423612879E+02 -0.18498365739E+02  0.44640000722E+02  0.00000000000E+00 0.  1.
</event>
<event>
 7    1  0.2334784E-009  0.2206725E+03  0.7561462E-02  0.1133383E+00
         -2   -1    0    0    0  501 -0.00000000000E+00  0.00000000000E+00  0.49904393806E+02  0.49904393806E+02  0.00000000000E+00 0.  1.
          2   -1    0    0  501    0  0.00000000000E+00 -0.00000000000E+00 -0.12104550035E+04  0.12104550035E+04  0.00000000000E+00 0. -1.
         25    2    1    2    0    0 -0.19191157887E+03  0.22893113217E+02 -0.86476779515E+03  0.89488771948E+03  0.12508613918E+03 0.  0.
          5    1    3    3  502    0 -0.89026676063E+02  0.70267365338E+02 -0.35626194108E+03  0.37390278782E+03  0.41800000000E+01 0. -1.
         -5    1    3    3    0  502 -0.10288490281E+03 -0.47374252121E+02 -0.50850585407E+03  0.52098493166E+03  0.41800000000E+01 0. -1.
        -11    1    1    2    0    0  0.33981345076E+01  0.20734142683E+02 -0.24941035688E+02  0.32611458908E+02  0.00000000000E+00 0.  1.
         11    1    1    2    0    0  0.18851344436E+03 -0.43627255900E+02 -0.27084177887E+03  0.33286021892E+03  0.00000000000E+00 0. -1.
</event>
<event>
 7    1  0.2334784E-009  0.1591968E+03  0.7561462E-02  0.1189607E+00
          1   -1    0    0  501    0  0.00000000000E+00  0.00000000000E+00  0.43207852184E+02  0.43207852184E+02  0.00000000000E+00 0. -1.
         -1   -1    0    0    0  501 -0.00000000000E+00 -0.00000000000E+00 -0.76992523527E+03  0.76992523527E+03  0.00000000000E+00 0.  1.
         25    2    1    2    0    0  0.14173932227E+03  0.16319775351E+02 -0.45253953643E+03  0.49071106974E+03  0.12509576887E+03 0.  0.
          5    1    3    3  502    0  0.34491429956E+02 -0.29643961572E+02 -0.27130974921E+03  0.27512701724E+03  0.41800000000E+01 0. -1.
         -5    1    3    3    0  502  0.10724789232E+03  0.45963736923E+02 -0.18122978722E+03  0.21558405250E+03  0.41800000000E+01 0. -1.
        -11    1    1    2    0    0 -0.63904804575E+02 -0.39034779539E+02 -0.19588397977E+03  0.20970949333E+03  0.00000000000E+00 0.  1.
         11    1    1    2    0    0 -0.77834517697E+02  0.22715004187E+02 -0.78293866876E+02  0.11271252437E+03  0.00000000000E+00 0. -1.
</event>
<event>
 7    1  0.2334784E-009  0.1092072E+03  0.7561462E-02  0.1262045E+00
          2   -1    0    0  501    0  0.00000000000E+00  0.00000000000E+00  0.21949660983E+03  0.21949660983E+03  0.00000000000E+00 0. -1.
         -2   -1    0    0    0  501 -0.00000000000E+00 -0.00000000000E+00 -0.94194607456E+02  0.94194607456E+02  0.00000000000E+00 0.  1.
         25    2    1    2    0    0 -0.71829403385E+02  0.50418082870E+02  0.10206733934E+03  0.18375952257E+03  0.12509346148E+03 0.  0.
          5    1    3    3  502    0 -0.73827973747E+02  0.43039928591E+02  0.12936836373E+03  0.15510206670E+03  0.41800000000E+01 0.  1.
         -5    1    3    3    0  502  0.19985703622E+01  0.73781542790E+01 -0.27301024393E+02  0.28657455870E+02  0.41800000000E+01 0.  1.
        -11    1    1    2    0    0 -0.35842754005E+01  0.20386476631E+02 -0.75049115625E+01  0.22017700995E+02  0.00000000000E+00 0.  1.
         11    1    1    2    0    0  0.75413678785E+02 -0.70804559500E+02  0.30739574598E+02  0.10791399372E+03  0.00000000000E+00 0. -1.
</event>
<event>
 7    1  0.2334784E-009  0.1287877E+03  0.7561462E-02  0.1229266E+00
          1   -1    0    0  501    0  0.00000000000E+00  0.00000000000E+00  0.13938116377E+03  0.13938116377E+03  0.00000000000E+00 0. -1.
         -1   -1    0    0    0  501 -0.00000000000E+00 -0.00000000000E+00 -0.14580477616E+03  0.14580477616E+03  0.00000000000E+00 0.  1.
         25    2    1    2    0    0 -0.92654426369E+02  0.30476313890E+01 -0.80862242067E+01  0.15590718003E+03  0.12509009145E+03 0.  0.
          5    1    3    3  502    0  0.87459606744E+01  0.28652599443E+02  0.31809134700E+02  0.43894837206E+02  0.41800000000E+01 0.  1.
         -5    1    3    3    0  502 -0.10140038704E+03 -0.25604968054E+02 -0.39895358907E+02  0.11201234282E+03  0.41800000000E+01 0.  1.
        -11    1    1    2    0    0  0.31539390666E+02 -0.40233148807E+02 -0.19438590857E+02  0.54692762236E+02  0.00000000000E+00 0.  1.
         11    1    1    2    0    0  0.61115035703E+02  0.37185517419E+02  0.21101202673E+02  0.74585997673E+02  0.00000000000E+00 0. -1.
</event>
<event>
 7    1  0.2334784E-009  0.1769293E+03  0.7561462E-02  0.1170808E+00
         -2   -1    0    0    0  501 -0.00000000000E+00  0.00000000000E+00  0.62996885382E+03  0.62996885382E+03  0.00000000000E+00 0.  1.
          2   -1    0    0  501    0  0.00000000000E+00 -0.00000000000E+00 -0.56152026658E+02  0.56152026658E+02  0.00000000000E+00 0. -1.
         25    2    1    2    0    0 -0.17411235772E+02  0.15134408522E+03  0.33428206046E+03  0.38807223726E+03  0.12508949646E+03 0.  0.
          5    1    3    3  502    0 -0.57979715796E+02  0.11791058378E+03  0.29286385800E+03  0.32101598860E+03  0.41800000000E+01 0. -1.
         -5    1    3    3    0  502  0.40568480024E+02  0.33433501439E+02  0.41418202456E+02  0.67056248662E+02  0.41800000000E+01 0. -1.
        -11    1    1    2    0    0 -0.15265592392E+02 -0.12940673648E+03  0.21579815057E+03  0.25208725384E+03  0.00000000000E+00 0.  1.
         11    1    1    2    0    0  0.32676828165E+02 -0.21937348737E+02  0.23736616133E+02  0.45961389382E+02  0.00000000000E+00 0. -1.
</event>
<event>
 7    1  0.2334784E-009  0.1364732E+03  0.7561462E-02  0.1218155E+00
         -1   -1    0    0    0  501 -0.00000000000E+00  0.00000000000E+00  0.27652610316E+02  0.27652610316E+02  0.00000000000E+00 0.  1.
          1   -1    0    0  501    0  0.00000000000E+00 -0.00000000000E+00 -0.71947391404E+03  0.71947391404E+03  0.00000000000E+00 0. -1.
         25    2    1    2    0    0 -0.59402647956E+02  0.62792775224E+02 -0.32891745868E+03  0.36236248318E+03  0.12509303491E+03 0.  0.
          5    1    3    3  502    0 -0.79135705781E+02  0.87586795034E+02 -0.28040792403E+03  0.30426958910E+03  0.41800000000E+01 0. -1.
         -5    1    3    3    0  502  0.19733057825E+02 -0.24794019810E+02 -0.48509534652E+02  0.58092894072E+02  0.41800000000E+01 0. -1.
        -11    1    1    2    0    0 -0.91492699314E-01  0.20505053977E+02 -0.11062222016E+03  0.11250662737E+03  0.00000000000E+00 0.  1.
         11    1    1    2    0    0  0.59494140655E+02 -0.83297829200E+02 -0.25228162488E+03  0.27225741381E+03  0.00000000000E+00 0. -1.
</event>
<event>
 6    1  0.2864743E-009  0.1708891E+03  0.7561462E-02  0.1176924E+00
          1   -1    0    0  501    0  0.00000000000E+00  0.00000000000E+00  0.70810331741E+03  0.70810331741E+03  0.00000000000E+00 0. -1.
         -1   -1    0    0    0  501 -0.00000000000E+00 -0.00000000000E+00 -0.54763389844E+02  0.54763389844E+02  0.00000000000E+00 0.  1.
          5    1    1    2  502    0 -0.19103325172E+02  0.18673517413E+02  0.20277620659E+03  0.20457101369E+03  0.41800000000E+01 0.  1.
         -5    1    1    2    0  502 -0.29746617004E+02  0.13733866165E+03  0.16412391039E+03  0.21610390920E+03  0.41800000000E+01 0.  1.
        -11    1    1    2    0    0 -0.97884418737E+01 -0.66029025444E+02  0.17556581355E+03  0.18782704992E+03  0.00000000000E+00 0. -1.
         11    1    1    2    0    0  0.58638384050E+02 -0.89983153624E+02  0.11087399703E+03  0.15436473444E+03  0.00000000000E+00 0.  1.
</event>
<event>
 7    1  0.2334784E-009  0.6778764E+02  0.7561462E-02  0.1367782E+00
          1   -1    0    0  501    0  0.00000000000E+00  0.00000000000E+00  0.24376341362E+02  0.24376341362E+02  0.00000000000E+00 0.  1.
         -1   -1    0    0    0  501 -0.00000000000E+00 -0.00000000000E+00 -0.50354568101E+03  0.50354568101E+03  0.00000000000E+00 0. -1.
         25    2    1    2    0    0 -0.89543324304E+01 -0.11017263798E+02 -0.24822152717E+03  0.27832306919E+03  0.12509294193E+03 0.  0.
          5    1    3    3  502    0 -0.32942005415E+02 -0.94356797950E+01 -0.61980890161E+01  0.35072731308E+02  0.41800000000E+01 0.  1.
         -5    1    3    3    0  502  0.23987672985E+02 -0.15815840031E+01 -0.24202343816E+03  0.24325033788E+03  0.41800000000E+01 0.  1.
        -11    1    1    2    0    0  0.17030000898E+02  0.41638166284E+02 -0.20113941548E+03  0.20610876324E+03  0.00000000000E+00 0. -1.
         11    1    1    2    0    0 -0.80756684673E+01 -0.30620902486E+02 -0.29808396995E+02  0.43490189947E+02  0.00000000000E+00 0.  1.
</event>
<event>
 7    1  0.2334784E-009  0.1221557E+03  0.7561462E-02  0.1239583E+00
          1   -1    0    0  501    0  0.00000000000E+00  0.00000000000E+00  0.59747262452E+02  0.59747262452E+02  0.00000000000E+00 0. -1.
         -1   -1    0    0    0  501 -0.00000000000E+00 -0.00000000000E+00 -0.38526224964E+03  0.38526224964E+03  0.00000000000E+00 0.  1.
         25    2    1    2    0    0  0.51694205823E+02  0.64704492478E+02 -0.73073310620E+02  0.16687231039E+03  0.12509075501E+03 0.  0.
          5    1    3    3  502    0 -0.20116395868E+02  0.70109364749E+02 -0.57753405998E+02  0.93128517183E+02  0.41800000000E+01 0. -1.
         -5    1    3    3    0  502  0.71810601692E+02 -0.54048722715E+01 -0.15319904622E+02  0.73743793212E+02  0.41800000000E+01 0. -1.
        -11    1    1    2    0    0 -0.12208478057E+01 -0.44871956371E+02 -0.44376733809E+02  0.63121133082E+02  0.00000000000E+00 0. -1.
         11    1    1    2    0    0 -0.50473358017E+02 -0.19832536107E+02 -0.20806494276E+03  0.21501606862E+03  0.00000000000E+00 0.  1.
</event>
<event>
 7    1  0.2334784E-009  0.1158048E+03  0.7561462E-02  0.1250183E+00
         -1   -1    0    0    0  501 -0.00000000000E+00  0.00000000000E+00  0.43779697386E+02  0.43779697386E+02  0.00000000000E+00 0.  1.
          1   -1    0    0  501    0  0.00000000000E+00 -0.00000000000E+00 -0.74082859095E+03  0.74082859095E+03  0.00000000000E+00 0. -1.
         25    2    1    2    0    0  0.75826036115E+02 -0.31926233001E+02 -0.61882221871E+03  0.63667685920E+03  0.12509041757E+03 0.  0.
          5    1    3    3  502    0  0.58751993628E+01 -0.48101661330E+02 -0.84198682095E+02  0.97237740907E+02  0.41800000000E+01 0. -1.
         -5    1    3    3    0  502  0.69950836752E+02  0.16175428328E+02 -0.53462353661E+03  0.53943911829E+03  0.41800000000E+01 0. -1.
        -11    1    1    2    0    0 -0.26546614964E+02  0.51570303697E+02 -0.59943916874E+01  0.58310819932E+02  0.00000000000E+00 0.  1.
         11    1    1    2    0    0 -0.49279421151E+02 -0.19644070695E+02 -0.72232283172E+02  0.89620609207E+02  0.00000000000E+00 0. -1.
</event>
<event>
 7    1  0.2334784E-009  0.2570135E+03  0.7561462E-02  0.1108951E+00
         -3   -1    0    0    0  501 -0.00000000000E+00  0.00000000000E+00  0.34017994583E+03  0.34017994583E+03  0.00000000000E+00 0.  1.
          3   -1    0    0  501    0  0.00000000000E+00 -0.00000000000E+00 -0.23412793507E+03  0.23412793507E+03  0.00000000000E+00 0. -1.
         25    2    1    2    0    0 -0.23311626339E+03  0.62076231366E+02 -0.45969847758E+02  0.27563046284E+03  0.12514900872E+03 0.  0.
          5    1    3    3  502    0 -0.23284172301E+03  0.26178941255E+02 -0.48820418403E+02  0.23937733935E+03  0.41800000000E+01 0.  1.
         -5    1    3    3    0  502 -0.27454037951E+00  0.35897290111E+02  0.28505706447E+01  0.36253123490E+02  0.41800000000E+01 0.  1.
        -11    1    1    2    0    0  0.14470648519E+03 -0.55149606628E+02  0.14078259926E+03  0.20928732934E+03  0.00000000000E+00 0. -1.
         11    1    1    2    0    0  0.88409778203E+02 -0.69266247382E+01  0.11239259262E+02  0.89390088718E+02  0.00000000000E+00 0.  1.
</event>
<event>
 7    1  0.2334784E-009  0.1670156E+03  0.7561462E-02  0.1180996E+00
         -3   -1    0    0    0  501 -0.00000000000E+00  0.00000000000E+00  0.18237153481E+04  0.18237153481E+04  0.00000000000E+00 0.  1.
          3   -1    0    0  501    0  0.00000000000E+00 -0.00000000000E+00 -0.21543212368E+02  0.21543212368E+02  0.00000000000E+00 0. -1.
         25    2    1    2    0    0 -0.12862290444E+03 -0.63013873831E+02  0.13301414217E+04  0.13436653756E+04  0.12508333190E+03 0.  0.
          5    1    3    3  502    0 -0.13877995757E+03 -0.44441580502E+02  0.12889216424E+04  0.12971397008E+04  0.41800000000E+01 0.  1.
         -5    1    3    3    0  502  0.10157053133E+02 -0.18572293329E+02  0.41219779285E+02  0.46525674763E+02  0.41800000000E+01 0.  1.
        -11    1    1    2    0    0  0.30142098807E+01 -0.17314062140E+02  0.85837940072E+02  0.87618572031E+02  0.00000000000E+00 0.  1.
         11    1    1    2    0    0  0.12560869456E+03  0.80327935971E+02  0.38619277397E+03  0.41397461288E+03  0.00000000000E+00 0. -1.
</event>
<event>
 7    1  0.2334784E-009  0.1048874E+03  0.7561462E-02  0.1270342E+00
         -2   -1    0    0    0  501 -0.00000000000E+00  0.00000000000E+00  0.44979629181E+02  0.44979629181E+02  0.00000000000E+00 0. -1.
          2   -1    0    0  501    0  0.00000000000E+00 -0.00000000000E+00 -0.71185018242E+03  0.71185018242E+03  0.00000000000E+00 0.  1.
         25    2    1    2    0    0  0.54880317463E+02  0.13500772075E+02 -0.62810637280E+03  0.64292995740E+03  0.12508874642E+03 0.  0.
          5    1    3    3  502    0 -0.21805950755E+02 -0.26937350374E+02 -0.71162904429E+02  0.79263810786E+02  0.41800000000E+01 0.  1.
         -5    1    3    3    0  502  0.76686268219E+02  0.40438122449E+02 -0.55694346837E+03  0.56366614661E+03  0.41800000000E+01 0.  1.
        -11    1    1    2    0    0 -0.43638762793E+02  0.23385290573E+02  0.11224822219E+02  0.50766229594E+02  0.00000000000E+00 0.  1.
         11    1    1    2    0    0 -0.11241554670E+02 -0.36886062648E+02 -0.49989002660E+02  0.63133624607E+02  0.00000000000E+00 0. -1.
</event>
<event>
 7    1  0.2334784E-009  0.8358110E+02  0.7561462E-02  0.1319185E+00
         -1   -1    0    0    0  501 -0.00000000000E+00  0.00000000000E+00  0.77503254678E+02  0.77503254678E+02  0.00000000000E+00 0. -1.
          1   -1    0    0  501    0  0.00000000000E+00 -0.00000000000E+00 -0.21536780504E+03  0.21536780504E+03  0.00000000000E+00 0.  1.
         25    2    1    2    0    0 -0.56670596497E+02 -0.24585149355E+01 -0.29040121776E+02  0.14038225558E+03  0.12508496395E+03 0.  0.
          5    1    3    3  502    0 -0.21571308591E+02 -0.10992058980E+02 -0.76640338697E+02  0.80482051605E+02  0.41800000000E+01 0. -1.
         -5    1    3    3    0  502 -0.35099287906E+02  0.85335440448E+01  0.47600216921E+02  0.59900203976E+02  0.41800000000E+01 0. -1.
        -11    1    1    2    0    0  0.76503387007E+02  0.20732236397E+02 -0.87865979046E+02  0.11833437423E+03  0.00000000000E+00 0. -1.
         11    1    1    2    0    0 -0.19832790510E+02 -0.18273721461E+02 -0.20958449539E+02  0.34154429911E+02  0.00000000000E+00 0.  1.
</event>
<event>
 7    1  0.2334784E-009  0.3306300E+03  0.7561462E-02  0.1070858E+00
         -2   -1    0    0    0  501 -0.00000000000E+00  0.00000000000E+00  0.39783644107E+02  0.39783644107E+02  0.00000000000E+00 0.  1.
          2   -1    0    0  501    0  0.00000000000E+00 -0.00000000000E+00 -0.28364344935E+04  0.28364344935E+04  0.00000000000E+00 0. -1.
         25    2    1    2    0    0 -0.24388736278E+03  0.20215383888E+03 -0.14785198818E+04  0.15172403049E+04  0.12509948631E+03 0.  0.
          5    1    3    3  502    0 -0.14863580532E+03  0.43380411837E+02 -0.63307807081E+03  0.65175131675E+03  0.41800000000E+01 0. -1.
         -5    1    3    3    0  502 -0.95251557458E+02  0.15877342704E+03 -0.84544181102E+03  0.86548898812E+03  0.41800000000E+01 0. -1.
        -11    1    1    2    0    0  0.55279559112E+02 -0.77088270371E+02 -0.25611695905E+03  0.27311962178E+03  0.00000000000E+00 0. -1.
         11    1    1    2    0    0  0.18860780367E+03 -0.12506556851E+03 -0.10620140085E+04  0.10858582110E+04  0.00000000000E+00 0.  1.
</event>
<event>
 7    1  0.2334784E-009  0.1416913E+03  0.7561462E-02  0.1211071E+00
         -1   -1    0    0    0  501 -0.00000000000E+00  0.00000000000E+00  0.20464027415E+03  0.20464027415E+03  0.00000000000E+00 0.  1.
          1   -1    0    0  501    0  0.00000000000E+00 -0.00000000000E+00 -0.14243099019E+03  0.14243099019E+03  0.00000000000E+00 0. -1.
         25    2    1    2    0    0  0.11064107276E+03 -0.54134498333E+02 -0.14347887242E+02  0.17613472393E+03  0.12508232574E+03 0.  0.
          5    1    3    3  502    0  0.37857716146E+02  0.27598612761E+02  0.32334938645E+02  0.57078110999E+02  0.41800000000E+01 0.  1.
         -5    1    3    3    0  502  0.72783356618E+02 -0.81733111093E+02 -0.46682825887E+02  0.11905661293E+03  0.41800000000E+01 0.  1.
        -11    1    1    2    0    0 -0.42043975022E+02  0.37269130874E+02 -0.12206395408E+02  0.57495043618E+02  0.00000000000E+00 0. -1.
         11    1    1    2    0    0 -0.68597097741E+02  0.16865367458E+02  0.88763566604E+02  0.11344149679E+03  0.00000000000E+00 0.  1.
</event>
<event>
 7    1  0.2334784E-009  0.3022149E+03  0.7561462E-02  0.1084139E+00
         -1   -1    0    0    0  501 -0.00000000000E+00  0.00000000000E+00  0.67940271845E+03  0.67940271845E+03  0.00000000000E+00 0.  1.
          1   -1    0    0  501    0  0.00000000000E+00 -0.00000000000E+00 -0.13907388877E+03  0.13907388877E+03  0.00000000000E+00 0. -1.
         25    2    1    2    0    0 -0.28333692638E+03 -0.41137266722E+02  0.31011685754E+03  0.44021891531E+03  0.12509252377E+03 0.  0.
          5    1    3    3  502    0  0.87278372743E+01  0.14540007725E-01 -0.29090743855E+01  0.10104972473E+02  0.41800000000E+01 0.  1.
         -5    1    3    3    0  502 -0.29206476366E+03 -0.41151806730E+02  0.31302593192E+03  0.43011394284E+03  0.41800000000E+01 0.  1.
        -11    1    1    2    0    0  0.93339321349E+02  0.56580030473E+02  0.74956364415E+02  0.13240840353E+03  0.00000000000E+00 0.  1.
         11    1    1    2    0    0  0.18999760503E+03 -0.15442763751E+02  0.15525560772E+03  0.24584928839E+03  0.00000000000E+00 0. -1.
</event>
<event>
 7    1  0.2334784E-009  0.9596980E+02  0.7561462E-02  0.1289007E+00
         -1   -1    0    0    0  501 -0.00000000000E+00  0.00000000000E+00  0.22817834813E+02  0.22817834813E+02  0.00000000000E+00 0.  1.
          1   -1    0    0  501    0  0.00000000000E+00 -0.00000000000E+00 -0.52916499430E+03  0.52916499430E+03  0.00000000000E+00 0. -1.
         25    2    1    2    0    0  0.36902502662E+01  0.13508464352E+02 -0.31429662698E+03  0.33856466251E+03  0.12509022509E+03 0.  0.
          5    1    3    3  502    0  0.44868661469E+02 -0.16227501911E+02 -0.49387524230E+02  0.68797736517E+02  0.41800000000E+01 0. -1.
         -5    1    3    3    0  502 -0.41178411203E+02  0.29735966262E+02 -0.26490910275E+03  0.26976692599E+03  0.41800000000E+01 0. -1.
        -11    1    1    2    0    0  0.44139704912E+02 -0.89005741434E+01 -0.92535395139E+02  0.10290934420E+03  0.00000000000E+00 0.  1.
         11    1    1    2    0    0 -0.47829955178E+02 -0.46078902082E+01 -0.99515137372E+02  0.11050882241E+03  0.00000000000E+00 0. -1.
</event>
<event>
 7    1  0.2334784E-009  0.2556036E+03  0.7561462E-02  0.1109814E+00
          1   -1    0    0  501    0  0.00000000000E+00  0.00000000000E+00  0.86382924191E+03  0.86382924191E+03  0.00000000000E+00 0. -1.
         -1   -1    0    0    0  501 -0.00000000000E+00 -0.00000000000E+00 -0.30269891959E+03  0.30269891959E+03  0.00000000000E+00 0.  1.
         25    2    1    2    0    0  0.86883289332E+01  0.24139792759E+03 -0.21608137265E+03  0.34740117451E+03  0.12509184603E+03 0.  0.
          5    1    3    3  502    0 -0.42170410761E+02  0.17497626905E+03 -0.10546972650E+03  0.20865371763E+03  0.41800000000E+01 0.  1.
         -5    1    3    3    0  502  0.50858739694E+02  0.66421658534E+02 -0.11061164615E+03  0.13874745688E+03  0.41800000000E+01 0.  1.
        -11    1    1    2    0    0 -0.30900048113E+02 -0.11512856494E+03  0.49511921658E+03  0.50926656876E+03  0.00000000000E+00 0. -1.
         11    1    1    2    0    0  0.22211719180E+02 -0.12626936264E+03  0.28209247840E+03  0.30986041822E+03  0.00000000000E+00 0.  1.
</event>
<event>
 7    1  0.2334784E-009  0.1453703E+03  0.7561462E-02  0.1206280E+00
         -2   -1    0    0    0  501 -0.00000000000E+00  0.00000000000E+00  0.15120906236E+03  0.15120906236E+03  0.00000000000E+00 0.  1.
          2   -1    0    0  501    0  0.00000000000E+00 -0.00000000000E+00 -0.17181613989E+03  0.17181613989E+03  0.00000000000E+00 0. -1.
         25    2    1    2    0    0 -0.43021914690E+02  0.10968332625E+03 -0.93788294972E+01  0.17209526422E+03  0.12508996892E+03 0.  0.
          5    1    3    3  502    0 -0.31866541745E+02  0.13227131984E+01 -0.46842875006E+02  0.56823880471E+02  0.41800000000E+01 0. -1.
         -5    1    3    3    0  502 -0.11155372945E+02  0.10836061305E+03  0.37464045508E+02  0.11527138375E+03  0.41800000000E+01 0. -1.
        -11    1    1    2    0    0 -0.27289422120E+02 -0.51555121988E+02 -0.12661672357E+02  0.59690544559E+02  0.00000000000E+00 0.  1.
         11    1    1    2    0    0  0.70311336810E+02 -0.58128204259E+02  0.14334243246E+01  0.91239393464E+02  0.00000000000E+00 0. -1.
</event>
<event>
 7    1  0.2334784E-009  0.1083351E+03  0.7561462E-02  0.1263685E+00
          1   -1    0    0  501    0  0.00000000000E+00  0.00000000000E+00  0.30945314545E+03  0.30945314545E+03  0.00000000000E+00 0. -1.
         -1   -1    0    0    0  501 -0.00000000000E+00 -0.00000000000E+00 -0.47546316774E+02  0.47546316774E+02  0.00000000000E+00 0.  1.
         25    2    1    2    0    0 -0.69293696668E+01  0.16411561547E+02  0.21873828448E+03  0.25260917824E+03  0.12509038461E+03 0.  0.
          5    1    3    3  502    0  0.34038632959E+02 -0.39445516055E+02  0.61326129599E+02  0.80578805167E+02  0.41800000000E+01 0. -1.
         -5    1    3    3    0  502 -0.40968002626E+02  0.55857077602E+02  0.15741215488E+03  0.17203037308E+03  0.41800000000E+01 0. -1.
        -11    1    1    2    0    0 -0.17472151998E+02  0.34430530081E+02  0.19065296673E+02  0.43060690129E+02  0.00000000000E+00 0. -1.
         11    1    1    2    0    0  0.24401521665E+02 -0.50842091628E+02  0.24103247524E+02  0.61329593851E+02  0.00000000000E+00 0.  1.
</event>
<event>
 7    1  0.2334784E-009  0.1273401E+03  0.7561462E-02  0.1231457E+00
         -2   -1    0    0    0  501 -0.00000000000E+00  0.00000000000E+00  0.22006318210E+02  0.22006318210E+02  0.00000000000E+00 0. -1.
          2   -1    0    0  501    0  0.00000000000E+00 -0.00000000000E+00 -0.17403812103E+04  0.17403812103E+04  0.00000000000E+00 0.  1.
         25    2    1    2    0    0 -0.72467883458E+02 -0.65165951262E+02 -0.14928524209E+04  0.15012507746E+04  0.12508933686E+03 0.  0.
          5    1    3    3  502    0  0.12486372451E+02  0.93353077587E+01 -0.30273788859E+02  0.34307902294E+02  0.41800000000E+01 0. -1.
         -5    1    3    3    0  502 -0.84954255910E+02 -0.74501259021E+02 -0.14625786320E+04  0.14669428723E+04  0.41800000000E+01 0. -1.
        -11    1    1    2    0    0  0.89601050351E+02  0.58891065733E+02 -0.21453727430E+03  0.23983900415E+03  0.00000000000E+00 0.  1.
         11    1    1    2    0    0 -0.17133166893E+02  0.62748855296E+01 -0.10985196906E+02  0.21297749817E+02  0.00000000000E+00 0. -1.
</event>
<event>
 7    1  0.2334784E-009  0.1278031E+03  0.7561462E-02  0.1230752E+00
         -1   -1    0    0    0  501 -0.00000000000E+00  0.00000000000E+00  0.25320682827E+02  0.25320682827E+02  0.00000000000E+00 0.  1.
          1   -1    0    0  501    0  0.00000000000E+00 -0.00000000000E+00 -0.94579168437E+03  0.94579168437E+03  0.00000000000E+00 0. -1.
         25    2    1    2    0    0 -0.84441683965E+02 -0.37592767585E+02 -0.66914736660E+03  0.68698502582E+03  0.12508642335E+03 0.  0.
          5    1    3    3  502    0 -0.80729942448E+02 -0.77458517445E+02 -0.42289900231E+03  0.43746792349E+03  0.41800000000E+01 0. -1.
         -5    1    3    3    0  502 -0.37117415163E+01  0.39865749860E+02 -0.24624836430E+03  0.24951710233E+03  0.41800000000E+01 0. -1.
        -11    1    1    2    0    0  0.26893383241E+02  0.37124625038E+02 -0.28471288739E+02  0.53963933593E+02  0.00000000000E+00 0.  1.
         11    1    1    2    0    0  0.57548300723E+02  0.46814254684E+00 -0.22285234620E+03  0.23016340778E+03  0.00000000000E+00 0. -1.
</event>
<event>
 7    1  0.2334784E-009  0.9800560E+02  0.7561462E-02  0.1284547E+00
         -2   -1    0    0    0  501 -0.00000000000E+00  0.00000000000E+00  0.66501114777E+02  0.66501114777E+02  0.00000000000E+00 0.  1.
          2   -1    0    0  501    0  0.00000000000E+00 -0.00000000000E+00 -0.27395115008E+03  0.27395115008E+03  0.00000000000E+00 0. -1.
         25    2    1    2    0    0 -0.17892708032E+02 -0.39035528325E+02 -0.20289576156E+03  0.24219353307E+03  0.12508835248E+03 0.  0.
          5    1    3    3  502    0  0.21600666505E+02 -0.73689393352E+02 -0.95958459094E+02  0.12297241056E+03  0.41800000000E+01 0. -1.
         -5    1    3    3    0  502 -0.39493374537E+02  0.34653865027E+02 -0.10693730247E+03  0.11922112251E+03  0.41800000000E+01 0. -1.
        -11    1    1    2    0    0 -0.25654037653E+01  0.45013255629E+02  0.32453805607E+02  0.55551993458E+02  0.00000000000E+00 0.  1.
         11    1    1    2    0    0  0.20458111797E+02 -0.59777273039E+01 -0.37008079346E+02  0.42706738331E+02  0.00000000000E+00 0. -1.
</event>
<event>
 7    1  0.2334784E-009  0.2798509E+03  0.7561462E-02  0.1095770E+00
         -1   -1    0    0    0  501 -0.00000000000E+00  0.00000000000E+00  0.12624393273E+03  0.12624393273E+03  0.00000000000E+00 0.  1.
          1   -1    0    0  501    0  0.00000000000E+00 -0.00000000000E+00 -0.64211074231E+03  0.64211074231E+03  0.00000000000E+00 0. -1.
         25    2    1    2    0    0  0.86571706365E+02 -0.24622923929E+03 -0.30544560912E+03  0.42079682662E+03  0.12509776392E+03 0.  0.
          5    1    3    3  502    0  0.66395316405E+02 -0.33881823547E+02 -0.98259744223E+02  0.12340488541E+03  0.41800000000E+01 0. -1.
         -5    1    3    3    0  502  0.20176389960E+02 -0.21234741575E+03 -0.20718586490E+03  0.29739194122E+03  0.41800000000E+01 0. -1.
        -11    1    1    2    0    0 -0.42006806912E+02  0.21030116675E+03 -0.13708752673E+03  0.25452729235E+03  0.00000000000E+00 0.  1.
         11    1    1    2    0    0 -0.44564899453E+02  0.35928072539E+02 -0.73333673734E+02  0.93030556071E+02  0.00000000000E+00 0. -1.
</event>
<event>
 7    1  0.2334784E-009  0.1111641E+03  0.7561462E-02  0.1258429E+00
         -2   -1    0    0    0  501 -0.00000000000E+00  0.00000000000E+00  0.20197453650E+02  0.20197453650E+02  0.00000000000E+00 0.  1.
          2   -1    0    0  501    0  0.00000000000E+00 -0.00000000000E+00 -0.72057847157E+03  0.72057847157E+03  0.00000000000E+00 0. -1.
         25    2    1    2    0    0  0.31523966169E+02 -0.32816853776E+02 -0.31629052850E+03  0.34315735601E+03  0.12508623517E+03 0.  0.
          5    1    3    3  502    0  0.72278105730E+02 -0.30190374399E+02 -0.27056988562E+03  0.28171105530E+03  0.41800000000E+01 0.  1.
         -5    1    3    3    0  502 -0.40754139561E+02 -0.26264793765E+01 -0.45720642878E+02  0.61446300706E+02  0.41800000000E+01 0.  1.
        -11    1    1    2    0    0 -0.42489398472E+02 -0.21362156695E+02 -0.17797415007E+03  0.18421858976E+03  0.00000000000E+00 0.  1.
         11    1    1    2    0    0  0.10965432304E+02  0.54179010471E+02 -0.20611633935E+03  0.21339997945E+03  0.00000000000E+00 0. -1.
</event>
<event>
 7    1  0.2334784E-009  0.1300561E+03  0.7561462E-02  0.1227373E+00
         -2   -1    0    0    0  501 -0.00000000000E+00  0.00000000000E+00  0.46982953578E+02  0.46982953578E+02  0.00000000000E+00 0.  1.
          2   -1    0    0  501    0  0.00000000000E+00 -0.00000000000E+00 -0.37622816736E+03  0.37622816736E+03  0.00000000000E+00 0. -1.
         25    2    1    2    0    0 -0.70134979370E+02  0.19858601775E+02 -0.19232136253E+03  0.24072484130E+03  0.12509062051E+03 0.  0.
          5    1    3    3  502    0 -0.42771351277E+02 -0.52087638144E+02 -0.84109082358E+02  0.10786250819E+03  0.41800000000E+01 0.  1.
         -5    1    3    3    0  502 -0.27363628093E+02  0.71946239919E+02 -0.10821228017E+03  0.13286233311E+03  0.41800000000E+01 0.  1.
        -11    1    1    2    0    0  0.76066860910E+02  0.17182856403E+02 -0.65628906607E+02  0.10192434089E+03  0.00000000000E+00 0.  1.
         11    1    1    2    0    0 -0.59318815401E+01 -0.37041458178E+02 -0.71294944649E+02  0.80561938749E+02  0.00000000000E+00 0. -1.
</event>
<event>
 7    1  0.2334784E-009  0.1925119E+03  0.7561462E-02  0.1156215E+00
         -2   -1    0    0    0  501 -0.00000000000E+00  0.00000000000E+00  0.13868663511E+03  0.13868663511E+03  0.00000000000E+00 0.  1.
          2   -1    0    0  501    0  0.00000000000E+00 -0.00000000000E+00 -0.33795007488E+03  0.33795007488E+03  0.00000000000E+00 0. -1.
         25    2    1    2    0    0  0.15784869516E+03 -0.94301319064E+02 -0.65000199683E+02  0.23169362937E+03  0.12509181665E+03 0.  0.
          5    1    3    3  502    0  0.10176883891E+03 -0.36187655637E+02 -0.96506623655E+02  0.14490494748E+03  0.41800000000E+01 0.  1.
         -5    1    3    3    0  502  0.56079856242E+02 -0.58113663427E+02  0.31506423972E+02  0.86788681892E+02  0.41800000000E+01 0.  1.
        -11    1    1    2    0    0 -0.14465441049E+03  0.10527127201E+03 -0.96058663404E+02  0.20306207425E+03  0.00000000000E+00 0.  1.
         11    1    1    2    0    0 -0.13194284667E+02 -0.10969952944E+02 -0.38204576683E+02  0.41881006375E+02  0.00000000000E+00 0. -1.
</event>
<event>
 7    1  0.2334784E-009  0.9310963E+02  0.7561462E-02  0.1295491E+00
          2   -1    0    0  501    0  0.00000000000E+00  0.00000000000E+00  0.10695608996E+03  0.10695608996E+03  0.00000000000E+00 0. -1.
         -2   -1    0    0    0  501 -0.00000000000E+00 -0.00000000000E+00 -0.12346676312E+03  0.12346676312E+03  0.00000000000E+00 0.  1.
         25    2    1    2    0    0  0.21483848723E+02 -0.26921616538E+02  0.14132104262E+02  0.13051552640E+03  0.12509299367E+03 0.  0.
          5    1    3    3  502    0  0.51534156206E+02 -0.52704973306E+02 -0.21696104978E+02  0.76953082058E+02  0.41800000000E+01 0.  1.
         -5    1    3    3    0  502 -0.30050307483E+02  0.25783356768E+02  0.35828209240E+02  0.53562444337E+02  0.41800000000E+01 0.  1.
        -11    1    1    2    0    0  0.22855206427E+02  0.65345740922E+01 -0.43384448703E+02  0.49469905080E+02  0.00000000000E+00 0.  1.
         11    1    1    2    0    0 -0.44339055151E+02  0.20387042446E+02  0.12741671283E+02  0.50437421608E+02  0.00000000000E+00 0. -1.
</event>
<event>
 7    1  0.2689138E-009  0.8504630E+02  0.7561462E-02  0.1315312E+00
         -2   -1    0    0    0  501 -0.00000000000E+00  0.00000000000E+00  0.11161985114E+03  0.11161985114E+03  0.00000000000E+00 0.  1.
          2   -1    0    0  501    0  0.00000000000E+00 -0.00000000000E+00 -0.12551607802E+03  0.12551607802E+03  0.00000000000E+00 0. -1.
         25    2    1    2    0    0  0.27730821917E+02 -0.21535865957E+02  0.23714706341E+02  0.13207540172E+03  0.12509489372E+03 0.  0.
          5    1    3    3  502    0  0.61797307726E+02 -0.54274447760E+02  0.18026870918E+02  0.84303400862E+02  0.41800000000E+01 0.  1.
         -5    1    3    3    0  502 -0.34066485809E+02  0.32738581803E+02  0.56878354222E+01  0.47772000854E+02  0.41800000000E+01 0.  1.
        -11    1    1    2    0    0 -0.16025055000E+02  0.26431883337E+00  0.29565935994E+02  0.33630593563E+02  0.00000000000E+00 0.  1.
         11    1    1    2    0    0 -0.11705766917E+02  0.21271547123E+02 -0.67176869220E+02  0.71429933881E+02  0.00000000000E+00 0. -1.
</event>
<event>
 7    1  0.2334784E-009  0.9714682E+02  0.7561462E-02  0.1286413E+00
         -1   -1    0    0    0  501 -0.00000000000E+00  0.00000000000E+00  0.10797121958E+03  0.10797121958E+03  0.00000000000E+00 0.  1.
          1   -1    0    0  501    0  0.00000000000E+00 -0.00000000000E+00 -0.14515318521E+03  0.14515318521E+03  0.00000000000E+00 0. -1.
         25    2    1    2    0    0 -0.36037842510E+02 -0.15603102149E+02  0.28492501233E+02  0.13417292130E+03  0.12509343426E+03 0.  0.
          5    1    3    3  502    0 -0.60860085044E+02 -0.30018310750E+02 -0.25717154733E+02  0.72690393997E+02  0.41800000000E+01 0.  1.
         -5    1    3    3    0  502  0.24822242534E+02  0.14415208601E+02  0.54209655966E+02  0.61482527302E+02  0.41800000000E+01 0.  1.
        -11    1    1    2    0    0  0.44179983008E+02  0.47210350755E+02 -0.54148233818E+02  0.84336939372E+02  0.00000000000E+00 0. -1.
         11    1    1    2    0    0 -0.81421404979E+01 -0.31607248606E+02 -0.11526233053E+02  0.34614544122E+02  0.00000000000E+00 0.  1.
</event>
<event>
 7    1  0.2334784E-009  0.1252622E+03  0.7561462E-02  0.1234660E+00
          1   -1    0    0  501    0  0.00000000000E+00  0.00000000000E+00  0.23169100025E+02  0.23169100025E+02  0.00000000000E+00 0. -1.
         -1   -1    0    0    0  501 -0.00000000000E+00 -0.00000000000E+00 -0.69645502507E+03  0.69645502507E+03  0.00000000000E+00 0.  1.
         25    2    1    2    0    0 -0.37930510328E+02 -0.53151924786E+02 -0.34699221119E+03  0.37458530645E+03  0.12508679569E+03 0.  0.
          5    1    3    3  502    0 -0.77811916090E+02 -0.62537724681E+02 -0.24721129216E+03  0.26663937569E+03  0.41800000000E+01 0.  1.
         -5    1    3    3    0  502  0.39881405763E+02  0.93857998952E+01 -0.99780919033E+02  0.10794593076E+03  0.41800000000E+01 0.  1.
        -11    1    1    2    0    0  0.34655849899E+02  0.77480117228E+02 -0.28076434432E+03  0.29331350726E+03  0.00000000000E+00 0. -1.
         11    1    1    2    0    0  0.32746604285E+01 -0.24328192442E+02 -0.45529369526E+02  0.51725311385E+02  0.00000000000E+00 0.  1.
</event>
<event>
 7    1  0.2334784E-009  0.2310557E+03  0.7561462E-02  0.1125899E+00
         -1   -1    0    0    0  501 -0.00000000000E+00  0.00000000000E+00  0.80770917938E+02  0.80770917938E+02  0.00000000000E+00 0.  1.
          1   -1    0    0  501    0  0.00000000000E+00 -0.00000000000E+00 -0.73145662442E+03  0.73145662442E+03  0.00000000000E+00 0. -1.
         25    2    1    2    0    0  0.10408962273E+02 -0.21224121708E+03 -0.41056734613E+03  0.47892994533E+03  0.12511461186E+03 0.  0.
          5    1    3    3  502    0 -0.12869543114E+02 -0.21616568453E+03 -0.32884452484E+03  0.39376315499E+03  0.41800000000E+01 0.  1.
         -5    1    3    3    0  502  0.23278505388E+02  0.39244674483E+01 -0.81722821285E+02  0.85166790339E+02  0.41800000000E+01 0.  1.
        -11    1    1    2    0    0  0.91265578919E+01  0.19580718206E+03 -0.23703049111E+03  0.30758283490E+03  0.00000000000E+00 0.  1.
         11    1    1    2    0    0 -0.19535520165E+02  0.16434035021E+02 -0.30878692396E+01  0.25714762135E+02  0.00000000000E+00 0. -1.
</event>
<event>
 7    1  0.2334784E-009  0.1505927E+03  0.7561462E-02  0.1199747E+00
         -2   -1    0    0    0  501 -0.00000000000E+00  0.00000000000E+00  0.95598396762E+02  0.95598396762E+02  0.00000000000E+00 0.  1.
          2   -1    0    0  501    0  0.00000000000E+00 -0.00000000000E+00 -0.30559444062E+03  0.30559444062E+03  0.00000000000E+00 0. -1.
         25    2    1    2    0    0 -0.12079326784E+03 -0.32692851723E+02 -0.15946204604E+03  0.23819094591E+03  0.12508775510E+03 0.  0.
          5    1    3    3  502    0 -0.39681846271E+02  0.40913527794E+02 -0.19431512138E+02  0.60362419965E+02  0.41800000000E+01 0.  1.
         -5    1    3    3    0  502 -0.81111421572E+02 -0.73606379517E+02 -0.14003053390E+03  0.17782852594E+03  0.41800000000E+01 0.  1.
        -11    1    1    2    0    0  0.54460346844E+02 -0.10235328863E+02 -0.62008675394E+02  0.83161091620E+02  0.00000000000E+00 0. -1.
         11    1    1    2    0    0  0.66332921000E+02  0.42928180586E+02  0.11474677569E+02  0.79840799859E+02  0.00000000000E+00 0.  1.
</event>
<event>
 7    1  0.2334784E-009  0.2872460E+03  0.7561462E-02  0.1091796E+00
          1   -1    0    0  501    0  0.00000000000E+00  0.00000000000E+00  0.17362042931E+04  0.17362042931E+04  0.00000000000E+00 0. -1.
         -1   -1    0    0    0  501 -0.00000000000E+00 -0.00000000000E+00 -0.51444579330E+02  0.51444579330E+02  0.00000000000E+00 0.  1.
         25    2    1    2    0    0 -0.42699578335E+02  0.27450252265E+03  0.88631213427E+03  0.93721481550E+03  0.12509005599E+03 0.  0.
          5    1    3    3  502    0 -0.53390827295E+02  0.20712444208E+03  0.48449798540E+03  0.52962900714E+03  0.41800000000E+01 0. -1.
         -5    1    3    3    0  502  0.10691248960E+02  0.67378080571E+02  0.40181414887E+03  0.40758580836E+03  0.41800000000E+01 0. -1.
        -11    1    1    2    0    0 -0.13798519438E+02 -0.19034075709E+03  0.49569456590E+03  0.53116203329E+03  0.00000000000E+00 0.  1.
         11    1    1    2    0    0  0.56498097772E+02 -0.84161765560E+02  0.30275301364E+03  0.31927202368E+03  0.00000000000E+00 0. -1.
</event>
<event>
 7    1  0.2334784E-009  0.2340440E+03  0.7561462E-02  0.1123825E+00
          2   -1    0    0  501    0  0.00000000000E+00  0.00000000000E+00  0.15355170865E+03  0.15355170865E+03  0.00000000000E+00 0. -1.
         -2   -1    0    0    0  501 -0.00000000000E+00 -0.00000000000E+00 -0.40966240822E+03  0.40966240822E+03  0.00000000000E+00 0.  1.
         25    2    1    2    0    0 -0.10821086081E+03 -0.18936800024E+03 -0.66941549067E+02  0.26018821045E+03  0.12508758512E+03 0.  0.
          5    1    3    3  502    0 -0.60671530979E+02 -0.10511591014E+02  0.42350996129E+01  0.61862239579E+02  0.41800000000E+01 0.  1.
         -5    1    3    3    0  502 -0.47539329826E+02 -0.17885640923E+03 -0.71176648680E+02  0.19832597087E+03  0.41800000000E+01 0.  1.
        -11    1    1    2    0    0  0.76188240972E+02  0.96050701409E+02 -0.49927979008E+02  0.13237518042E+03  0.00000000000E+00 0. -1.
         11    1    1    2    0    0  0.32022619833E+02  0.93317298835E+02 -0.13924117150E+03  0.17065072600E+03  0.00000000000E+00 0.  1.
</event>
<event>
 7    1  0.2334784E-009  0.1029843E+03  0.7561462E-02  0.1274143E+00
          3   -1    0    0  501    0  0.00000000000E+00  0.00000000000E+00  0.28733329509E+03  0.28733329509E+03  0.00000000000E+00 0. -1.
         -3   -1    0    0    0  501 -0.00000000000E+00 -0.00000000000E+00 -0.51212253446E+02  0.51212253446E+02  0.00000000000E+00 0.  1.
         25    2    1    2    0    0  0.43168257280E+00  0.58298529819E+02  0.13504681941E+03  0.19308735893E+03  0.12508469059E+03 0.  0.
          5    1    3    3  502    0  0.26445534393E+02  0.69779175683E+02  0.14462307227E+03  0.16279375012E+03  0.41800000000E+01 0.  1.
         -5    1    3    3    0  502 -0.26013851820E+02 -0.11480645864E+02 -0.95762528563E+01  0.30293608810E+02  0.41800000000E+01 0.  1.
        -11    1    1    2    0    0  0.29596448920E+02 -0.65266056786E+02  0.56469998645E+02  0.91238526424E+02  0.00000000000E+00 0. -1.
         11    1    1    2    0    0 -0.30028131493E+02  0.69675269669E+01  0.44604223592E+02  0.54219663179E+02  0.00000000000E+00 0.  1.
</event>
<event>
 7    1  0.2334784E-009  0.1701459E+03  0.7561462E-02  0.1177696E+00
         -2   -1    0    0    0  501 -0.00000000000E+00  0.00000000000E+00  0.23596898368E+03  0.23596898368E+03  0.00000000000E+00 0.  1.
          2   -1    0    0  501    0  0.00000000000E+00 -0.00000000000E+00 -0.13902977828E+03  0.13902977828E+03  0.00000000000E+00 0. -1.
         25    2    1    2    0    0 -0.14311838814E+03  0.13882048483E+02  0.63500736840E+02  0.20085912392E+03  0.12504583076E+03 0.  0.
          5    1    3    3  502    0 -0.81339833007E+02 -0.40292720639E+02  0.74952419574E+02  0.11779222967E+03  0.41800000000E+01 0.  1.
         -5    1    3    3    0  502 -0.61778555135E+02  0.54174769122E+02 -0.11451682734E+02  0.83066894256E+02  0.41800000000E+01 0.  1.
        -11    1    1    2    0    0  0.44361759542E+02 -0.45409537504E+02 -0.47565534674E+01  0.63660164992E+02  0.00000000000E+00 0.  1.
         11    1    1    2    0    0  0.98756628600E+02  0.31527489021E+02  0.38195022030E+02  0.11047947304E+03  0.00000000000E+00 0. -1.
</event>
<event>
 7    1  0.2334784E-009  0.1019115E+03  0.7561462E-02  0.1276327E+00
          2   -1    0    0  501    0  0.00000000000E+00  0.00000000000E+00  0.13716508111E+04  0.13716508111E+04  0.00000000000E+00 0. -1.
         -2   -1    0    0    0  501 -0.00000000000E+00 -0.00000000000E+00 -0.14566389861E+02  0.14566389861E+02  0.00000000000E+00 0.  1.
         25    2    1    2    0    0  0.21836038088E+01  0.62688503416E+02  0.10360334311E+04  0.10454411715E+04  0.12508939262E+03 0.  0.
          5    1    3    3  502    0 -0.26842896528E+02  0.51992539753E+02  0.97614173249E+03  0.97790281705E+03  0.41800000000E+01 0. -1.
         -5    1    3    3    0  502  0.29026500337E+02  0.10695963663E+02  0.59891698575E+02  0.67538354427E+02  0.41800000000E+01 0. -1.
        -11    1    1    2    0    0  0.29273297242E+02 -0.74732814282E+02  0.23726148417E+03  0.25046942195E+03  0.00000000000E+00 0.  1.
         11    1    1    2    0    0 -0.31456901050E+02  0.12044310866E+02  0.83789506009E+02  0.90306607539E+02  0.00000000000E+00 0. -1.
</event>
<event>
 7    1  0.2334784E-009  0.1254742E+03  0.7561462E-02  0.1234330E+00
         -1   -1    0    0    0  501 -0.00000000000E+00  0.00000000000E+00  0.40786914010E+02  0.40786914010E+02  0.00000000000E+00 0.  1.
          1   -1    0    0  501    0  0.00000000000E+00 -0.00000000000E+00 -0.89355719466E+03  0.89355719466E+03  0.00000000000E+00 0. -1.
         25    2    1    2    0    0  0.66245914613E+02  0.51789083924E+02 -0.80993900208E+03  0.82384289661E+03  0.12508117677E+03 0.  0.
          5    1    3    3  502    0 -0.33721554006E+02 -0.48602167746E+01 -0.14274053657E+03  0.14680973433E+03  0.41800000000E+01 0.  1.
         -5    1    3    3    0  502  0.99967468620E+02  0.56649300699E+02 -0.66719846551E+03  0.67703316228E+03  0.41800000000E+01 0.  1.
        -11    1    1    2    0    0 -0.65352086527E+02 -0.17921466249E+02 -0.31934544725E+02  0.74912544429E+02  0.00000000000E+00 0.  1.
         11    1    1    2    0    0 -0.89382808598E+00 -0.33867617675E+02 -0.10896733846E+02  0.35588667636E+02  0.00000000000E+00 0. -1.
</event>
<event>
 7    1  0.2334784E-009  0.1155438E+03  0.7561462E-02  0.1250635E+00
         -1   -1    0    0    0  501 -0.00000000000E+00  0.00000000000E+00  0.22228209519E+03  0.22228209519E+03  0.00000000000E+00 0.  1.
          1   -1    0    0  501    0  0.00000000000E+00 -0.00000000000E+00 -0.91272443081E+02  0.91272443081E+02  0.00000000000E+00 0. -1.
         25    2    1    2    0    0 -0.46520512440E+02  0.32328055704E+02 -0.85091647650E+01  0.13758439681E+03  0.12509116314E+03 0.  0.
          5    1    3    3  502    0  0.33150770789E+02  0.30090609160E+02  0.24509986387E+02  0.51211621691E+02  0.41800000000E+01 0.  1.
         -5    1    3    3    0  502 -0.79671283229E+02  0.22374465442E+01 -0.33019151152E+02  0.86372775116E+02  0.41800000000E+01 0.  1.
        -11    1    1    2    0    0  0.43477157151E+02 -0.62417425684E+02  0.88867803072E+02  0.11697728261E+03  0.00000000000E+00 0.  1.
         11    1    1    2    0    0  0.30433552891E+01  0.30089369980E+02  0.50651013805E+02  0.58992858862E+02  0.00000000000E+00 0. -1.
</event>
<event>
 7    1  0.2334784E-009  0.1019798E+03  0.7561462E-02  0.1276187E+00
         -2   -1    0    0    0  501 -0.00000000000E+00  0.00000000000E+00  0.10722808541E+03  0.10722808541E+03  0.00000000000E+00 0.  1.
          2   -1    0    0  501    0  0.00000000000E+00 -0.00000000000E+00 -0.14882836667E+03  0.14882836667E+03  0.00000000000E+00 0. -1.
         25    2    1    2    0    0  0.23865025954E+02  0.24557297480E+02  0.32025924083E+02  0.13361545324E+03  0.12511925994E+03 0.  0.
          5    1    3    3  502    0  0.68622035729E+02  0.31749278006E+02  0.42591245174E+02  0.86882029252E+02  0.41800000000E+01 0.  1.
         -5    1    3    3    0  502 -0.44757009775E+02 -0.71919805263E+01 -0.10565321091E+02  0.46733423988E+02  0.41800000000E+01 0.  1.
        -11    1    1    2    0    0 -0.29660169069E+02  0.21282114443E+02 -0.11919201807E+01  0.36524987311E+02  0.00000000000E+00 0.  1.
         11    1    1    2    0    0  0.57951431154E+01 -0.45839411923E+02 -0.72434285163E+02  0.85916011525E+02  0.00000000000E+00 0. -1.
</event>
<event>
 7    1  0.2764170E-009  0.1715852E+03  0.7561462E-02  0.1176205E+00
         -2   -1    0    0    0  501 -0.00000000000E+00  0.00000000000E+00  0.48781354385E+02  0.48781354385E+02  0.00000000000E+00 0.  1.
          2   -1    0    0  501    0  0.00000000000E+00 -0.00000000000E+00 -0.82934887925E+03  0.82934887925E+03  0.00000000000E+00 0. -1.
         25    2    1    2    0    0  0.14552912946E+03 -0.30766276812E+02 -0.58384958295E+03  0.61534378068E+03  0.12506934718E+03 0.  0.
          5    1    3    3  502    0  0.14524405921E+03  0.16381605043E+02 -0.41616155453E+03  0.44110328222E+03  0.41800000000E+01 0.  1.
         -5    1    3    3    0  502  0.28507025072E+00 -0.47147881855E+02 -0.16768802843E+03  0.17424049847E+03  0.41800000000E+01 0.  1.
        -11    1    1    2    0    0 -0.41755354982E+02  0.14654629604E+01 -0.40255281891E+01  0.41974541433E+02  0.00000000000E+00 0.  1.
         11    1    1    2    0    0 -0.10377377448E+03  0.29300813851E+02 -0.19269241372E+03  0.22081191152E+03  0.00000000000E+00 0. -1.
</event>
<event>
 7    1  0.2334784E-009  0.1727574E+03  0.7561462E-02  0.1175002E+00
         -1   -1    0    0    0  501 -0.00000000000E+00  0.00000000000E+00  0.34267853466E+02  0.34267853466E+02  0.00000000000E+00 0.  1.
          1   -1    0    0  501    0  0.00000000000E+00 -0.00000000000E+00 -0.12019156877E+04  0.12019156877E+04  0.00000000000E+00 0. -1.
         25    2    1    2    0    0 -0.93416528756E+02 -0.12027815942E+03 -0.84604527472E+03  0.86869718741E+03  0.12509481630E+03 0.  0.
          5    1    3    3  502    0 -0.10443953796E+03 -0.11316014980E+03 -0.51942001700E+03  0.54178174854E+03  0.41800000000E+01 0.  1.
         -5    1    3    3    0  502  0.11023009199E+02 -0.71180096180E+01 -0.32662525772E+03  0.32691543887E+03  0.41800000000E+01 0.  1.
        -11    1    1    2    0    0 -0.11977364034E+02 -0.58513265317E+01 -0.27827087957E+02  0.30855179395E+02  0.00000000000E+00 0. -1.
         11    1    1    2    0    0  0.10539389279E+03  0.12612948595E+03 -0.29377547159E+03  0.33663117439E+03  0.00000000000E+00 0.  1.
</event>
<event>
 7    1  0.2334784E-009  0.1428749E+03  0.7561462E-02  0.1209512E+00
          2   -1    0    0  501    0  0.00000000000E+00  0.00000000000E+00  0.43624994510E+03  0.43624994510E+03  0.00000000000E+00 0. -1.
         -2   -1    0    0    0  501 -0.00000000000E+00 -0.00000000000E+00 -0.12620238633E+03  0.12620238633E+03  0.00000000000E+00 0.  1.
         25    2    1    2    0    0  0.91792346850E+02 -0.53545871901E+02 -0.53863403855E+02  0.17274251419E+03  0.12508283094E+03 0.  0.
          5    1    3    3  502    0  0.55237286676E+02  0.28642732699E+02 -0.54305645265E+02  0.82693043743E+02  0.41800000000E+01 0.  1.
         -5    1    3    3    0  502  0.36555060174E+02 -0.82188604599E+02  0.44224140981E+00  0.90049470447E+02  0.41800000000E+01 0.  1.
        -11    1    1    2    0    0 -0.68944046163E+02  0.75086797459E+02  0.22081472231E+03  0.24320865578E+03  0.00000000000E+00 0.  1.
         11    1    1    2    0    0 -0.22848300687E+02 -0.21540925559E+02  0.14309624031E+03  0.14650116146E+03  0.00000000000E+00 0. -1.
</event>
<event>
 7    1  0.2334784E-009  0.9358022E+02  0.7561462E-02  0.1294406E+00
         -3   -1    0    0    0  501 -0.00000000000E+00  0.00000000000E+00  0.42681475448E+02  0.42681475448E+02  0.00000000000E+00 0.  1.
          3   -1    0    0  501    0  0.00000000000E+00 -0.00000000000E+00 -0.38026615407E+03  0.38026615407E+03  0.00000000000E+00 0. -1.
         25    2    1    2    0    0  0.72867936899E+01 -0.20318001087E+02 -0.29161817231E+03  0.31804786559E+03  0.12508943942E+03 0.  0.
          5    1    3    3  502    0 -0.41218903041E+02 -0.46176244641E+02 -0.21423681166E+03  0.22303839895E+03  0.41800000000E+01 0. -1.
         -5    1    3    3    0  502  0.48505696731E+02  0.25858243554E+02 -0.77381360653E+02  0.95009466642E+02  0.41800000000E+01 0. -1.
        -11    1    1    2    0    0 -0.36889325826E+02  0.15458080303E+02  0.10152765483E+02  0.41265642531E+02  0.00000000000E+00 0.  1.
         11    1    1    2    0    0  0.29602532136E+02  0.48599207840E+01 -0.56119271789E+02  0.63634121390E+02  0.00000000000E+00 0. -1.
</event>
<event>
 7    1  0.2334784E-009  0.2532644E+03  0.7561462E-02  0.1111259E+00
         -1   -1    0    0    0  501 -0.00000000000E+00  0.00000000000E+00  0.22772913640E+03  0.22772913640E+03  0.00000000000E+00 0.  1.
          1   -1    0    0  501    0  0.00000000000E+00 -0.00000000000E+00 -0.39369527649E+03  0.39369527649E+03  0.00000000000E+00 0. -1.
         25    2    1    2    0    0  0.15743502990E+03 -0.18108145075E+03 -0.23194337894E+03  0.35639975904E+03  0.12508707675E+03 0.  0.
          5    1    3    3  502    0  0.10575347541E+03 -0.18084590224E+03 -0.21870950998E+03  0.30288671161E+03  0.41800000000E+01 0. -1.
         -5    1    3    3    0  502  0.51681554489E+02 -0.23554850805E+00 -0.13233868958E+02  0.53513047429E+02  0.41800000000E+01 0. -1.
        -11    1    1    2    0    0 -0.62490348334E+02  0.11008643104E+03 -0.52953356286E+01  0.12669690807E+03  0.00000000000E+00 0. -1.
         11    1    1    2    0    0 -0.94944681567E+02  0.70995019706E+02  0.71272574469E+02  0.13832774578E+03  0.00000000000E+00 0.  1.
</event>
<event>
 7    1  0.2334784E-009  0.1559916E+03  0.7561462E-02  0.1193298E+00
         -1   -1    0    0    0  501 -0.00000000000E+00  0.00000000000E+00  0.36175529234E+02  0.36175529234E+02  0.00000000000E+00 0.  1.
          1   -1    0    0  501    0  0.00000000000E+00 -0.00000000000E+00 -0.75804348961E+03  0.75804348961E+03  0.00000000000E+00 0. -1.
         25    2    1    2    0    0  0.17624965919E+02 -0.11280932352E+03 -0.50565289368E+03  0.53326545081E+03  0.12510239506E+03 0.  0.
          5    1    3    3  502    0 -0.44520391205E+02 -0.93228123179E+02 -0.33280904797E+03  0.34850090817E+03  0.41800000000E+01 0. -1.
         -5    1    3    3    0  502  0.62145357124E+02 -0.19581200337E+02 -0.17284384571E+03  0.18476454265E+03  0.41800000000E+01 0. -1.
        -11    1    1    2    0    0 -0.47387195784E+02  0.10045352765E+03 -0.14386579551E+03  0.18175209671E+03  0.00000000000E+00 0.  1.
         11    1    1    2    0    0  0.29762229865E+02  0.12355795870E+02 -0.72349271189E+02  0.79201471322E+02  0.00000000000E+00 0. -1.
</event>
<event>
 7    1  0.2334784E-009  0.9686275E+02  0.7561462E-02  0.1287035E+00
         -2   -1    0    0    0  501 -0.00000000000E+00  0.00000000000E+00  0.41993773730E+02  0.41993773730E+02  0.00000000000E+00 0.  1.
          2   -1    0    0  501    0  0.00000000000E+00 -0.00000000000E+00 -0.38595015051E+03  0.38595015051E+03  0.00000000000E+00 0. -1.
         25    2    1    2    0    0 -0.38594703173E+02  0.48758335006E+02 -0.21398340055E+03  0.25554444508E+03  0.12508853405E+03 0.  0.
          5    1    3    3  502    0 -0.17342055667E+02 -0.13845487120E+02 -0.17940005735E+03  0.18081564475E+03  0.41800000000E+01 0.  1.
         -5    1    3    3    0  502 -0.21252647506E+02  0.62603822126E+02 -0.34583343201E+02  0.74728800324E+02  0.41800000000E+01 0.  1.
        -11    1    1    2    0    0 -0.43525290440E+01  0.21837006934E+02 -0.54004738588E+01  0.22912103762E+02  0.00000000000E+00 0. -1.
         11    1    1    2    0    0  0.42947232217E+02 -0.70595341940E+02 -0.12457250236E+03  0.14948737540E+03  0.00000000000E+00 0.  1.
</event>
<event>
 7    1  0.2334784E-009  0.1367696E+03  0.7561462E-02  0.1217743E+00
         -1   -1    0    0    0  501 -0.00000000000E+00  0.00000000000E+00  0.23496561985E+03  0.23496561985E+03  0.00000000000E+00 0.  1.
          1   -1    0    0  501    0  0.00000000000E+00 -0.00000000000E+00 -0.42054735688E+03  0.42054735688E+03  0.00000000000E+00 0. -1.
         25    2    1    2    0    0  0.11528279783E+03 -0.16526055815E+02  0.18783720087E+03  0.25395449560E+03  0.12508732074E+03 0.  0.
          5    1    3    3  502    0  0.10789887803E+03  0.91827977099E+01  0.61201370781E+02  0.12445710843E+03  0.41800000000E+01 0.  1.
         -5    1    3    3    0  502  0.73839198015E+01 -0.25708853525E+02  0.12663583009E+03  0.12949738717E+03  0.41800000000E+01 0.  1.
        -11    1    1    2    0    0 -0.23325388656E+02 -0.27569973519E+02 -0.45169108981E+02  0.57831009000E+02  0.00000000000E+00 0. -1.
         11    1    1    2    0    0 -0.91957409178E+02  0.44096029334E+02 -0.32824982893E+03  0.34372747213E+03  0.00000000000E+00 0.  1.
</event>
<event>
 7    1  0.2334784E-009  0.1182125E+03  0.7561462E-02  0.1246075E+00
         -2   -1    0    0    0  501 -0.00000000000E+00  0.00000000000E+00  0.49872414725E+02  0.49872414725E+02  0.00000000000E+00 0. -1.
          2   -1    0    0  501    0  0.00000000000E+00 -0.00000000000E+00 -0.41664782608E+03  0.41664782608E+03  0.00000000000E+00 0.  1.
         25    2    1    2    0    0  0.79015012715E+02  0.14415050621E+02 -0.11893300110E+03  0.19037786056E+03  0.12508998810E+03 0.  0.
          5    1    3    3  502    0  0.74978310046E+02  0.44440785066E+02 -0.13108249900E+03  0.15747007429E+03  0.41800000000E+01 0.  1.
         -5    1    3    3    0  502  0.40367026695E+01 -0.30025734445E+02  0.12149497903E+02  0.32907786263E+02  0.41800000000E+01 0.  1.
        -11    1    1    2    0    0 -0.54074566442E+02 -0.50983227632E+02 -0.18413333997E+03  0.19856594654E+03  0.00000000000E+00 0.  1.
         11    1    1    2    0    0 -0.24940446274E+02  0.36568177011E+02 -0.63709070288E+02  0.77576433710E+02  0.00000000000E+00 0. -1.
</event>
<event>
 7    1  0.2334784E-009  0.1021296E+03  0.7561462E-02  0.1275880E+00
          1   -1    0    0  501    0  0.00000000000E+00  0.00000000000E+00  0.72715841270E+03  0.72715841270E+03  0.00000000000E+00 0. -1.
         -1   -1    0    0    0  501 -0.00000000000E+00 -0.00000000000E+00 -0.21833942685E+02  0.21833942685E+02  0.00000000000E+00 0.  1.
         25    2    1    2    0    0  0.11575106221E+02 -0.77879792957E+01  0.56229405836E+03  0.57620919205E+03  0.12509112370E+03 0.  0.
          5    1    3    3  502    0 -0.10693748167E+02  0.48276647802E+02  0.39907966929E+03  0.40215301294E+03  0.41800000000E+01 0. -1.
         -5    1    3    3    0  502  0.22268854388E+02 -0.56064627098E+02  0.16321438906E+03  0.17405617911E+03  0.41800000000E+01 0. -1.
        -11    1    1    2    0    0  0.38587998114E+02 -0.11742432701E+02  0.82143009842E+02  0.91511706301E+02  0.00000000000E+00 0. -1.
         11    1    1    2    0    0 -0.50163104335E+02  0.19530411997E+02  0.60887401816E+02  0.81271457039E+02  0.00000000000E+00 0.  1.
</event>
<event>
 7    1  0.2334784E-009  0.6620779E+02  0.7561462E-02  0.1373485E+00
          2   -1    0    0  501    0  0.00000000000E+00  0.00000000000E+00  0.56145614327E+02  0.56145614327E+02  0.00000000000E+00 0. -1.
         -2   -1    0    0    0  501 -0.00000000000E+00 -0.00000000000E+00 -0.24175008375E+03  0.24175008375E+03  0.00000000000E+00 0.  1.
         25    2    1    2    0    0 -0.38149464094E+01  0.31276219033E+01 -0.49146366771E+02  0.13448961171E+03  0.12509098471E+03 0.  0.
          5    1    3    3  502    0  0.27796211320E+02  0.96161267894E+00 -0.83177559822E+02  0.87803945929E+02  0.41800000000E+01 0. -1.
         -5    1    3    3    0  502 -0.31611157730E+02  0.21660092243E+01  0.34031193052E+02  0.46685665782E+02  0.41800000000E+01 0. -1.
        -11    1    1    2    0    0  0.10958857709E+02 -0.36547765781E+02 -0.22194145783E+02  0.44140863754E+02  0.00000000000E+00 0. -1.
         11    1    1    2    0    0 -0.71439112994E+01  0.33420143878E+02 -0.11426395687E+03  0.11926522261E+03  0.00000000000E+00 0.  1.
</event>
<event>
 7    1  0.2334784E-009  0.8239993E+02  0.7561462E-02  0.1322376E+00
          1   -1    0    0  501    0  0.00000000000E+00  0.00000000000E+00  0.86886280621E+03  0.86886280621E+03  0.00000000000E+00 0. -1.
         -1   -1    0    0    0  501 -0.00000000000E+00 -0.00000000000E+00 -0.22575421309E+02  0.22575421309E+02  0.00000000000E+00 0.  1.
         25    2    1    2    0    0 -0.13431012296E+02  0.16507588964E+02  0.73209532886E+03  0.74301008285E+03  0.12509004793E+03 0.  0.
          5    1    3    3  502    0 -0.25971279928E+02 -0.38725204145E+02  0.55635176729E+03  0.55831792931E+03  0.41800000000E+01 0.  1.
         -5    1    3    3    0  502  0.12540267632E+02  0.55232793110E+02  0.17574356157E+03  0.18469215354E+03  0.41800000000E+01 0.  1.
        -11    1    1    2    0    0 -0.12963111781E+02 -0.29168166207E+02  0.14546802337E+01  0.31952156133E+02  0.00000000000E+00 0.  1.
         11    1    1    2    0    0  0.26394124078E+02  0.12660577243E+02  0.11273737581E+03  0.11647598854E+03  0.00000000000E+00 0. -1.
</event>
<event>
 7    1  0.2334784E-009  0.9495374E+02  0.7561462E-02  0.1291280E+00
         -2   -1    0    0    0  501 -0.00000000000E+00  0.00000000000E+00  0.27099811313E+02  0.27099811313E+02  0.00000000000E+00 0.  1.
          2   -1    0    0  501    0  0.00000000000E+00 -0.00000000000E+00 -0.45276269172E+03  0.45276269172E+03  0.00000000000E+00 0. -1.
         25    2    1    2    0    0  0.55857341158E+01  0.18790002511E+02 -0.21928831738E+03  0.25322001013E+03  0.12509493504E+03 0.  0.
          5    1    3    3  502    0  0.40518687740E+02 -0.29218505362E+02 -0.16574778432E+03  0.17316259850E+03  0.41800000000E+01 0.  1.
         -5    1    3    3    0  502 -0.34932953625E+02  0.48008507873E+02 -0.53540533061E+02  0.80057411634E+02  0.41800000000E+01 0.  1.
        -11    1    1    2    0    0  0.36001301014E+02 -0.12968278745E+02 -0.15807558623E+03  0.16264120293E+03  0.00000000000E+00 0. -1.
         11    1    1    2    0    0 -0.41587035130E+02 -0.58217237658E+01 -0.48298976799E+02  0.64001289974E+02  0.00000000000E+00 0.  1.
</event>
<event>
 7    1  0.2334784E-009  0.8711233E+02  0.7561462E-02  0.1309999E+00
          1   -1    0    0  501    0  0.00000000000E+00  0.00000000000E+00  0.73718909374E+02  0.73718909374E+02  0.00000000000E+00 0. -1.
         -1   -1    0    0    0  501 -0.00000000000E+00 -0.00000000000E+00 -0.24369467280E+03  0.24369467280E+03  0.00000000000E+00 0.  1.
         25    2    1    2    0    0  0.64766861002E+02  0.33030510546E+02 -0.12906912785E+03  0.19388712058E+03  0.12509042670E+03 0.  0.
          5    1    3    3  502    0  0.19431288284E+02  0.11292581966E+02 -0.14034221430E+03  0.14219179613E+03  0.41800000000E+01 0.  1.
         -5    1    3    3    0  502  0.45335572717E+02  0.21737928580E+02  0.11273086448E+02  0.51695324456E+02  0.41800000000E+01 0.  1.
        -11    1    1    2    0    0  0.14800577556E+02 -0.10727881791E+02  0.15092633642E+02  0.23705107761E+02  0.00000000000E+00 0.  1.
         11    1    1    2    0    0 -0.79567438557E+02 -0.22302628755E+02 -0.55999269222E+02  0.99821353835E+02  0.00000000000E+00 0. -1.
</event>
<event>
 7    1  0.2334784E-009  0.8739169E+02  0.7561462E-02  0.1309294E+00
         -1   -1    0    0    0  501 -0.00000000000E+00  0.00000000000E+00  0.25515573508E+02  0.25515573508E+02  0.00000000000E+00 0.  1.
          1   -1    0    0  501    0  0.00000000000E+00 -0.00000000000E+00 -0.60070113502E+03  0.60070113502E+03  0.00000000000E+00 0. -1.
         25    2    1    2    0    0 -0.33183835344E+02  0.17228107439E+02 -0.44528027850E+03  0.46402543797E+03  0.12508839291E+03 0.  0.
          5    1    3    3  502    0 -0.24437265635E+02  0.59839926381E+02 -0.37991762504E+03  0.38539962501E+03  0.41800000000E+01 0.  1.
         -5    1    3    3    0  502 -0.87465697085E+01 -0.42611818942E+02 -0.65362653466E+02  0.78625812958E+02  0.41800000000E+01 0.  1.
        -11    1    1    2    0    0 -0.60849603970E+01 -0.25469298748E+02  0.46397343099E-01  0.26186142794E+02  0.00000000000E+00 0.  1.
         11    1    1    2    0    0  0.39268795741E+02  0.82411913092E+01 -0.12995168035E+03  0.13600512777E+03  0.00000000000E+00 0. -1.
</event>
<event>
 7    1  0.2334784E-009  0.1914173E+03  0.7561462E-02  0.1157189E+00
         -1   -1    0    0    0  501 -0.00000000000E+00  0.00000000000E+00  0.24767460952E+02  0.24767460952E+02  0.00000000000E+00 0.  1.
          1   -1    0    0  501    0  0.00000000000E+00 -0.00000000000E+00 -0.15546895662E+04  0.15546895662E+04  0.00000000000E+00 0. -1.
         25    2    1    2    0    0 -0.15944780350E+03  0.39017529744E+02 -0.75370469936E+03  0.78144712426E+03  0.12507143760E+03 0.  0.
          5    1    3    3  502    0  0.19744080015E+02 -0.19003688302E+01 -0.11645541187E+03  0.11820649496E+03  0.41800000000E+01 0.  1.
         -5    1    3    3    0  502 -0.17919188351E+03  0.40917898575E+02 -0.63724928749E+03  0.66324062930E+03  0.41800000000E+01 0.  1.
        -11    1    1    2    0    0  0.80000201387E+02 -0.55765188873E+02 -0.52554413376E+03  0.53451513078E+03  0.00000000000E+00 0. -1.
         11    1    1    2    0    0  0.79447602113E+02  0.16747659128E+02 -0.25067327209E+03  0.26349477207E+03  0.00000000000E+00 0.  1.
</event>
<event>
 7    1  0.2334784E-009  0.1119901E+03  0.7561462E-02  0.1256928E+00
         -2   -1    0    0    0  501 -0.00000000000E+00  0.00000000000E+00  0.19116991221E+03  0.19116991221E+03  0.00000000000E+00 0.  1.
          2   -1    0    0  501    0  0.00000000000E+00 -0.00000000000E+00 -0.79435410737E+02  0.79435410737E+02  0.00000000000E+00 0. -1.
         25    2    1    2    0    0 -0.11391189312E+02  0.57358581477E+02  0.45554115084E+02  0.14540867821E+03  0.12509492489E+03 0.  0.
          5    1    3    3  502    0 -0.33240965812E+02  0.91060927904E+02  0.38636853737E+02  0.10443817916E+03  0.41800000000E+01 0. -1.
         -5    1    3    3    0  502  0.21849776501E+02 -0.33702346426E+02  0.69172613477E+01  0.40970499049E+02  0.41800000000E+01 0. -1.
        -11    1    1    2    0    0  0.38099590426E+02 -0.32370666710E+02  0.47417193557E+00  0.49996636816E+02  0.00000000000E+00 0. -1.
         11    1    1    2    0    0 -0.26708401114E+02 -0.24987914767E+02  0.65706214457E+02  0.75200007931E+02  0.00000000000E+00 0.  1.
</event>
<event>
 7    1  0.2334784E-009  0.2119850E+03  0.7561462E-02  0.1140004E+00
          2   -1    0    0  501    0  0.00000000000E+00  0.00000000000E+00  0.21313140432E+04  0.21313140432E+04  0.00000000000E+00 0.  1.
         -2   -1    0    0    0  501 -0.00000000000E+00 -0.00000000000E+00 -0.33913203238E+02  0.33913203238E+02  0.00000000000E+00 0. -1.
         25    2    1    2    0    0 -0.17838095358E+03 -0.88306592869E+02  0.16553479462E+04  0.16719575869E+04  0.12509009030E+03 0.  0.
          5    1    3    3  502    0 -0.72713747681E+02 -0.65020770020E+02  0.11977354786E+04  0.12017082586E+04  0.41800000000E+01 0.  1.
         -5    1    3    3    0  502 -0.10566720590E+03 -0.23285822848E+02  0.45761246754E+03  0.47024932833E+03  0.41800000000E+01 0.  1.
        -11    1    1    2    0    0  0.16203674643E+03  0.39781506879E+02  0.31928827726E+03  0.36025474248E+03  0.00000000000E+00 0. -1.
         11    1    1    2    0    0  0.16344207155E+02  0.48525085990E+02  0.12276461655E+03  0.13301491704E+03  0.00000000000E+00 0.  1.
</event>
<event>
 7    1  0.2340580E-009  0.1139951E+03  0.7561462E-02  0.1253346E+00
         -1   -1    0    0    0  501 -0.00000000000E+00  0.00000000000E+00  0.58742014535E+02  0.58742014535E+02  0.00000000000E+00 0.  1.
          1   -1    0    0  501    0  0.00000000000E+00 -0.00000000000E+00 -0.40439824230E+03  0.40439824230E+03  0.00000000000E+00 0. -1.
         25    2    1    2    0    0  0.78802275908E+02  0.11222167756E+02 -0.29734605906E+03  0.33226241064E+03  0.12509154625E+03 0.  0.
          5    1    3    3  502    0  0.30342080790E+02  0.67235882938E+02 -0.13973806067E+03  0.15806803542E+03  0.41800000000E+01 0. -1.
         -5    1    3    3    0  502  0.48460195118E+02 -0.56013715182E+02 -0.15760799840E+03  0.17419437522E+03  0.41800000000E+01 0. -1.
        -11    1    1    2    0    0 -0.28410839425E+02 -0.75484061144E+01  0.27182276739E+02  0.40037862086E+02  0.00000000000E+00 0.  1.
         11    1    1    2    0    0 -0.50391436483E+02 -0.36737616419E+01 -0.75492445438E+02  0.90839984113E+02  0.00000000000E+00 0. -1.
</event>
<event>
 7    1  0.2334784E-009  0.1350014E+03  0.7561462E-02  0.1220218E+00
         -1   -1    0    0    0  501 -0.00000000000E+00  0.00000000000E+00  0.36136692093E+02  0.36136692093E+02  0.00000000000E+00 0.  1.
          1   -1    0    0  501    0  0.00000000000E+00 -0.00000000000E+00 -0.88701728191E+03  0.88701728191E+03  0.00000000000E+00 0. -1.
         25    2    1    2    0    0 -0.55711168366E+02  0.10132886547E+03 -0.23164214554E+03  0.28753528578E+03  0.12508870340E+03 0.  0.
          5    1    3    3  502    0 -0.17017264745E+02  0.87274652506E+02 -0.51793385644E+02  0.10298776367E+03  0.41800000000E+01 0.  1.
         -5    1    3    3    0  502 -0.38693903622E+02  0.14054212961E+02 -0.17984875990E+03  0.18454752211E+03  0.41800000000E+01 0.  1.
        -11    1    1    2    0    0  0.68930129104E+02 -0.46356389523E+02 -0.29432650382E+03  0.30582408080E+03  0.00000000000E+00 0.  1.
         11    1    1    2    0    0 -0.13218960738E+02 -0.54972475944E+02 -0.32491194045E+03  0.32979460741E+03  0.00000000000E+00 0. -1.
</event>
<event>
 7    1  0.2334784E-009  0.7575389E+02  0.7561462E-02  0.1341552E+00
         -2   -1    0    0    0  501 -0.00000000000E+00  0.00000000000E+00  0.75202752218E+02  0.75202752218E+02  0.00000000000E+00 0.  1.
          2   -1    0    0  501    0  0.00000000000E+00 -0.00000000000E+00 -0.25369668698E+03  0.25369668698E+03  0.00000000000E+00 0. -1.
         25    2    1    2    0    0 -0.31647646713E+02 -0.54431178438E+01 -0.19132730353E+03  0.23083515532E+03  0.12509009066E+03 0.  0.
          5    1    3    3  502    0 -0.94745337608E+01 -0.23346605922E+02 -0.19931475829E+03  0.20094446016E+03  0.41800000000E+01 0.  1.
         -5    1    3    3    0  502 -0.22173112952E+02  0.17903488078E+02  0.79874547619E+01  0.29890695156E+02  0.41800000000E+01 0.  1.
        -11    1    1    2    0    0  0.22542982034E+01 -0.41617261082E+02  0.38429042623E+01  0.41855061743E+02  0.00000000000E+00 0. -1.
         11    1    1    2    0    0  0.29393348510E+02  0.47060378926E+02  0.89904645021E+01  0.56209222136E+02  0.00000000000E+00 0.  1.
</event>
<event>
 7    1  0.2487384E-009  0.8884024E+02  0.7561462E-02  0.1305685E+00
         -1   -1    0    0    0  501 -0.00000000000E+00  0.00000000000E+00  0.22550518212E+02  0.22550518212E+02  0.00000000000E+00 0.  1.
          1   -1    0    0  501    0  0.00000000000E+00 -0.00000000000E+00 -0.62735507985E+03  0.62735507985E+03  0.00000000000E+00 0. -1.
         25    2    1    2    0    0 -0.38821547242E+02 -0.29081805219E+02 -0.31462812482E+03  0.34204045494E+03  0.12509177418E+03 0.  0.
          5    1    3    3  502    0  0.23595788834E+02 -0.35836356114E+02 -0.24259814162E+03  0.24639873455E+03  0.41800000000E+01 0. -1.
         -5    1    3    3    0  502 -0.62417336076E+02  0.67545508949E+01 -0.72029983197E+02  0.95641720394E+02  0.41800000000E+01 0. -1.
        -11    1    1    2    0    0 -0.72006609227E+01  0.24341218099E+02 -0.16431478380E+02  0.30238020735E+02  0.00000000000E+00 0.  1.
         11    1    1    2    0    0  0.46022208165E+02  0.47405871206E+01 -0.27374495844E+03  0.27762712239E+03  0.00000000000E+00 0. -1.
</event>
<event>
 7    1  0.2334784E-009  0.1231072E+03  0.7561462E-02  0.1238057E+00
         -1   -1    0    0    0  501 -0.00000000000E+00  0.00000000000E+00  0.16078722878E+03  0.16078722878E+03  0.00000000000E+00 0.  1.
          1   -1    0    0  501    0  0.00000000000E+00 -0.00000000000E+00 -0.17690784655E+03  0.17690784655E+03  0.00000000000E+00 0. -1.
         25    2    1    2    0    0 -0.11269862494E+03  0.26698634317E+02  0.49805325492E+02  0.17758978043E+03  0.12507502759E+03 0.  0.
          5    1    3    3  502    0 -0.11351971108E+03  0.16344583219E+02 -0.11434702299E+02  0.11533470866E+03  0.41800000000E+01 0. -1.
         -5    1    3    3    0  502  0.82108614099E+00  0.10354051098E+02  0.61240027792E+02  0.62255071765E+02  0.41800000000E+01 0. -1.
        -11    1    1    2    0    0  0.22055570645E+02  0.76121880519E+01 -0.58406554155E+02  0.62894508279E+02  0.00000000000E+00 0. -1.
         11    1    1    2    0    0  0.90643054297E+02 -0.34310822369E+02 -0.75193890974E+01  0.97210786626E+02  0.00000000000E+00 0.  1.
</event>
<event>
 7    1  0.2334784E-009  0.1267824E+03  0.7561462E-02  0.1232310E+00
         -2   -1    0    0    0  501 -0.00000000000E+00  0.00000000000E+00  0.38658415958E+03  0.38658415958E+03  0.00000000000E+00 0. -1.
          2   -1    0    0  501    0  0.00000000000E+00 -0.00000000000E+00 -0.62491911581E+02  0.62491911581E+02  0.00000000000E+00 0.  1.
         25    2    1    2    0    0 -0.89328363649E+02 -0.10066069711E+02  0.26552425740E+03  0.30697060486E+03  0.12508772390E+03 0.  0.
          5    1    3    3  502    0 -0.12031280506E+03  0.46085184390E+00  0.21947135671E+03  0.25032085863E+03  0.41800000000E+01 0.  1.
         -5    1    3    3    0  502  0.30984441413E+02 -0.10526921555E+02  0.46052900688E+02  0.56649746238E+02  0.41800000000E+01 0.  1.
        -11    1    1    2    0    0  0.19305951758E+02 -0.16400263126E+02  0.62199701555E+02  0.67160191166E+02  0.00000000000E+00 0. -1.
         11    1    1    2    0    0  0.70022411890E+02  0.26466332836E+02 -0.36317109506E+01  0.74945275136E+02  0.00000000000E+00 0.  1.
</event>
<event>
 7    1  0.2334784E-009  0.1104910E+03  0.7561462E-02  0.1259663E+00
          1   -1    0    0  501    0  0.00000000000E+00  0.00000000000E+00  0.10255902185E+03  0.10255902185E+03  0.00000000000E+00 0. -1.
         -1   -1    0    0    0  501 -0.00000000000E+00 -0.00000000000E+00 -0.12903080638E+03  0.12903080638E+03  0.00000000000E+00 0.  1.
         25    2    1    2    0    0  0.36359582809E+01  0.36536197125E+02 -0.24520224950E+02  0.13265556256E+03  0.12509253756E+03 0.  0.
          5    1    3    3  502    0 -0.51534342177E+02 -0.63242769957E+01 -0.33742578996E+02  0.62063023939E+02  0.41800000000E+01 0.  1.
         -5    1    3    3    0  502  0.55170300458E+02  0.42860474121E+02  0.92223540463E+01  0.70592538619E+02  0.41800000000E+01 0.  1.
        -11    1    1    2    0    0 -0.20900012258E+02  0.26384526292E+02 -0.13121735649E+01  0.33684945295E+02  0.00000000000E+00 0. -1.
         11    1    1    2    0    0  0.17264053977E+02 -0.62920723417E+02 -0.63938600684E+00  0.65249320376E+02  0.00000000000E+00 0.  1.
</event>
<event>
 7    1  0.2334784E-009  0.1226960E+03  0.7561462E-02  0.1238715E+00
          1   -1    0    0  501    0  0.00000000000E+00  0.00000000000E+00  0.25587506211E+03  0.25587506211E+03  0.00000000000E+00 0. -1.
         -1   -1    0    0    0  501 -0.00000000000E+00 -0.00000000000E+00 -0.80966762745E+02  0.80966762745E+02  0.00000000000E+00 0.  1.
         25    2    1    2    0    0  0.60310270371E+02  0.38811184438E+02  0.21735402995E+02  0.14581783307E+03  0.12508707347E+03 0.  0.
          5    1    3    3  502    0 -0.89935617380E+01 -0.31210192255E+02  0.33094085412E+02  0.46558040579E+02  0.41800000000E+01 0.  1.
         -5    1    3    3    0  502  0.69303832109E+02  0.70021376693E+02 -0.11358682418E+02  0.99259792490E+02  0.41800000000E+01 0.  1.
        -11    1    1    2    0    0 -0.10946925664E+02 -0.59510316462E+02  0.85354230586E+02  0.10462627598E+03  0.00000000000E+00 0.  1.
         11    1    1    2    0    0 -0.49363344707E+02  0.20699132024E+02  0.67818665787E+02  0.86397715805E+02  0.00000000000E+00 0. -1.
</event>
<event>
 7    1  0.2334784E-009  0.1673367E+03  0.7561462E-02  0.1180654E+00
          2   -1    0    0  501    0  0.00000000000E+00  0.00000000000E+00  0.40483932960E+04  0.40483932960E+04  0.00000000000E+00 0. -1.
         -2   -1    0    0    0  501 -0.00000000000E+00 -0.00000000000E+00 -0.10653992741E+02  0.10653992741E+02  0.00000000000E+00 0.  1.
         25    2    1    2    0    0  0.69829064370E+02  0.12135801444E+03  0.31414059988E+04  0.31470096611E+04  0.12503716169E+03 0.  0.
          5    1    3    3  502    0  0.89849980343E+02  0.81530106460E+02  0.28064717117E+04  0.28090961390E+04  0.41800000000E+01 0. -1.
         -5    1    3    3    0  502 -0.20020915973E+02  0.39827907978E+02  0.33493428713E+03  0.33791352211E+03  0.41800000000E+01 0. -1.
        -11    1    1    2    0    0  0.23527667597E+02 -0.25479888786E+02  0.17906866412E+03  0.18239616867E+03  0.00000000000E+00 0.  1.
         11    1    1    2    0    0 -0.93356731967E+02 -0.95878125653E+02  0.71726464031E+03  0.72964145895E+03  0.00000000000E+00 0. -1.
</event>
<event>
 7    1  0.2334784E-009  0.4341873E+03  0.7561462E-02  0.1032545E+00
          1   -1    0    0  501    0  0.00000000000E+00  0.00000000000E+00  0.66549856493E+03  0.66549856493E+03  0.00000000000E+00 0. -1.
         -1   -1    0    0    0  501 -0.00000000000E+00 -0.00000000000E+00 -0.32018476097E+03  0.32018476097E+03  0.00000000000E+00 0.  1.
         25    2    1    2    0    0 -0.92016650090E+02  0.41474219338E+03  0.20782889069E+02  0.44334917326E+03  0.12509360533E+03 0.  0.
          5    1    3    3  502    0  0.19372129957E+02  0.13701633958E+03  0.38098021676E+02  0.14358860814E+03  0.41800000000E+01 0.  1.
         -5    1    3    3    0  502 -0.11138878005E+03  0.27772585380E+03 -0.17315132607E+02  0.29976056513E+03  0.41800000000E+01 0.  1.
        -11    1    1    2    0    0  0.23000141460E+01 -0.16981798645E+03  0.16378039789E+03  0.23593952047E+03  0.00000000000E+00 0.  1.
         11    1    1    2    0    0  0.89716635944E+02 -0.24492420693E+03  0.16075051700E+03  0.30639463217E+03  0.00000000000E+00 0. -1.
</event>
<event>
 7    1  0.2334784E-009  0.1937831E+03  0.7561462E-02  0.1155093E+00
          2   -1    0    0  501    0  0.00000000000E+00  0.00000000000E+00  0.93656118715E+03  0.93656118715E+03  0.00000000000E+00 0. -1.
         -2   -1    0    0    0  501 -0.00000000000E+00 -0.00000000000E+00 -0.48284157828E+02  0.48284157828E+02  0.00000000000E+00 0.  1.
         25    2    1    2    0    0  0.54582953793E+02  0.16498439062E+03  0.59240203027E+03  0.62990939821E+03  0.12508611633E+03 0.  0.
          5    1    3    3  502    0  0.62314619571E+02  0.41702756783E+02  0.34826701448E+03  0.35627183093E+03  0.41800000000E+01 0.  1.
         -5    1    3    3    0  502 -0.77316657779E+01  0.12328163384E+03  0.24413501578E+03  0.27363756728E+03  0.41800000000E+01 0.  1.
        -11    1    1    2    0    0 -0.58872857248E+02 -0.60912069537E+02  0.18115714756E+03  0.19998551360E+03  0.00000000000E+00 0.  1.
         11    1    1    2    0    0  0.42899034545E+01 -0.10407232109E+03  0.11471785149E+03  0.15495043317E+03  0.00000000000E+00 0. -1.
</event>
<event>
 7    1  0.2334784E-009  0.2384666E+03  0.7561462E-02  0.1120819E+00
          1   -1    0    0  501    0  0.00000000000E+00  0.00000000000E+00  0.98435494183E+03  0.98435494183E+03  0.00000000000E+00 0. -1.
         -1   -1    0    0    0  501 -0.00000000000E+00 -0.00000000000E+00 -0.90591572100E+02  0.90591572100E+02  0.00000000000E+00 0.  1.
         25    2    1    2    0    0  0.13929037101E+03  0.17818987449E+03  0.16506068295E+03  0.30666874295E+03  0.12508896842E+03 0.  0.
          5    1    3    3  502    0  0.11532881385E+03  0.10329139154E+03  0.41834637793E+02  0.16042897553E+03  0.41800000000E+01 0. -1.
         -5    1    3    3    0  502  0.23961557155E+02  0.74898482953E+02  0.12322604516E+03  0.14623976742E+03  0.41800000000E+01 0. -1.
        -11    1    1    2    0    0 -0.28604928288E+02 -0.10919009338E+03  0.32747053416E+03  0.34637792822E+03  0.00000000000E+00 0. -1.
         11    1    1    2    0    0 -0.11068544272E+03 -0.68999781113E+02  0.40123215262E+03  0.42189984276E+03  0.00000000000E+00 0.  1.
</event>
<event>
 7    1  0.2334784E-009  0.7815158E+02  0.7561462E-02  0.1334380E+00
         -4   -1    0    0    0  501 -0.00000000000E+00  0.00000000000E+00  0.61471854290E+02  0.61471854290E+02  0.00000000000E+00 0. -1.
          4   -1    0    0  501    0  0.00000000000E+00 -0.00000000000E+00 -0.19737181559E+03  0.19737181559E+03  0.00000000000E+00 0.  1.
         25    2    1    2    0    0 -0.39168186876E+02  0.13984776842E+02 -0.89476506178E+02  0.15932105444E+03  0.12508969735E+03 0.  0.
          5    1    3    3  502    0  0.29643180996E+02 -0.91038594997E+01 -0.80127830892E+02  0.86020579635E+02  0.41800000000E+01 0. -1.
         -5    1    3    3    0  502 -0.68811367872E+02  0.23088636342E+02 -0.93486752864E+01  0.73300474802E+02  0.41800000000E+01 0. -1.
        -11    1    1    2    0    0  0.25881587175E+02  0.75915976391E+01 -0.63483464562E+02  0.68975641949E+02  0.00000000000E+00 0.  1.
         11    1    1    2    0    0  0.13286599700E+02 -0.21576374481E+02  0.17060009442E+02  0.30546973492E+02  0.00000000000E+00 0. -1.
</event>
<event>
 7    1  0.2532191E-009  0.1591742E+03  0.7561462E-02  0.1189632E+00
          2   -1    0    0  501    0  0.00000000000E+00  0.00000000000E+00  0.25752742239E+03  0.25752742239E+03  0.00000000000E+00 0. -1.
         -2   -1    0    0    0  501 -0.00000000000E+00 -0.00000000000E+00 -0.11276662730E+03  0.11276662730E+03  0.00000000000E+00 0.  1.
         25    2    1    2    0    0  0.11891005944E+03  0.54334200823E+02  0.79127580378E+02  0.19748631357E+03  0.12509141639E+03 0.  0.
          5    1    3    3  502    0  0.48422613305E+02  0.71526957296E+02  0.89059327429E+02  0.12413658325E+03  0.41800000000E+01 0.  1.
         -5    1    3    3    0  502  0.70487446137E+02 -0.17192756473E+02 -0.99317470510E+01  0.73349730317E+02  0.41800000000E+01 0.  1.
        -11    1    1    2    0    0 -0.82287123688E+02 -0.79771449200E+02  0.54191399124E+02  0.12677287790E+03  0.00000000000E+00 0. -1.
         11    1    1    2    0    0 -0.36622935754E+02  0.25437248377E+02  0.11441815589E+02  0.46034858229E+02  0.00000000000E+00 0.  1.
</event>
<event>
 7    1  0.2777725E-009  0.1065262E+03  0.7561462E-02  0.1267142E+00
          1   -1    0    0  501    0  0.00000000000E+00  0.00000000000E+00  0.94810982274E+02  0.94810982274E+02  0.00000000000E+00 0. -1.
         -1   -1    0    0    0  501 -0.00000000000E+00 -0.00000000000E+00 -0.17773849170E+03  0.17773849170E+03  0.00000000000E+00 0.  1.
         25    2    1    2    0    0 -0.34673457486E+02  0.49893453543E+02 -0.67646932383E+01  0.13922897557E+03  0.12508933289E+03 0.  0.
          5    1    3    3  502    0 -0.75719935635E+02  0.59518921152E+02 -0.88707395098E+01  0.96809984233E+02  0.41800000000E+01 0. -1.
         -5    1    3    3    0  502  0.41046478149E+02 -0.96254676090E+01  0.21060462715E+01  0.42418991337E+02  0.41800000000E+01 0. -1.
        -11    1    1    2    0    0  0.11499732634E+02  0.65733527479E+01 -0.70822207864E+02  0.72050245966E+02  0.00000000000E+00 0.  1.
         11    1    1    2    0    0  0.23173724852E+02 -0.56466806291E+02 -0.53406083199E+01  0.61270252435E+02  0.00000000000E+00 0. -1.
</event>
<event>
 7    1  0.2334784E-009  0.1233838E+03  0.7561462E-02  0.1237617E+00
         -1   -1    0    0    0  501 -0.00000000000E+00  0.00000000000E+00  0.56358789504E+02  0.56358789504E+02  0.00000000000E+00 0.  1.
          1   -1    0    0  501    0  0.00000000000E+00 -0.00000000000E+00 -0.34228350754E+03  0.34228350754E+03  0.00000000000E+00 0. -1.
         25    2    1    2    0    0 -0.34072580878E+02 -0.62105257580E+02 -0.22648353376E+03  0.26825445669E+03  0.12509060189E+03 0.  0.
          5    1    3    3  502    0  0.40800718848E+02 -0.72026927761E+01 -0.31367929862E+02  0.52134411530E+02  0.41800000000E+01 0.  1.
         -5    1    3    3    0  502 -0.74873299725E+02 -0.54902564804E+02 -0.19511560390E+03  0.21612004516E+03  0.41800000000E+01 0.  1.
        -11    1    1    2    0    0  0.62133596292E+02  0.55605678894E+02 -0.28508787093E+02  0.88121088594E+02  0.00000000000E+00 0.  1.
         11    1    1    2    0    0 -0.28061015415E+02  0.64995786860E+01 -0.30932397183E+02  0.42266751764E+02  0.00000000000E+00 0. -1.
</event>
<event>
 7    1  0.2334784E-009  0.1323626E+03  0.7561462E-02  0.1223992E+00
          3   -1    0    0  501    0  0.00000000000E+00  0.00000000000E+00  0.73741172537E+02  0.73741172537E+02  0.00000000000E+00 0. -1.
         -3   -1    0    0    0  501 -0.00000000000E+00 -0.00000000000E+00 -0.24958655760E+03  0.24958655760E+03  0.00000000000E+00 0.  1.
         25    2    1    2    0    0  0.80720354451E+02  0.52771227060E+01 -0.78347223459E+02  0.16831375998E+03  0.12509041022E+03 0.  0.
          5    1    3    3  502    0  0.62637958338E+02 -0.56121376688E+02 -0.52024052009E+02  0.98980286591E+02  0.41800000000E+01 0. -1.
         -5    1    3    3    0  502  0.18082396113E+02  0.61398499394E+02 -0.26323171450E+02  0.69333473390E+02  0.41800000000E+01 0. -1.
        -11    1    1    2    0    0 -0.16667483047E+01 -0.32669879479E+02 -0.10602382337E+02  0.34387637115E+02  0.00000000000E+00 0. -1.
         11    1    1    2    0    0 -0.79053606147E+02  0.27392756773E+02 -0.86895779262E+02  0.12062633304E+03  0.00000000000E+00 0.  1.
</event>
<event>
 7    1  0.2334784E-009  0.1431806E+03  0.7561462E-02  0.1209112E+00
          1   -1    0    0  501    0  0.00000000000E+00  0.00000000000E+00  0.29082324433E+03  0.29082324433E+03  0.00000000000E+00 0. -1.
         -1   -1    0    0    0  501 -0.00000000000E+00 -0.00000000000E+00 -0.90755609284E+02  0.90755609284E+02  0.00000000000E+00 0.  1.
         25    2    1    2    0    0 -0.77953517763E+02  0.62229711404E+02  0.24760629054E+02  0.16189345918E+03  0.12508843056E+03 0.  0.
          5    1    3    3  502    0  0.33751471756E+02  0.14829175156E+02  0.15217237530E+02  0.40101159578E+02  0.41800000000E+01 0. -1.
         -5    1    3    3    0  502 -0.11170498952E+03  0.47400536248E+02  0.95433915243E+01  0.12179229960E+03  0.41800000000E+01 0. -1.
        -11    1    1    2    0    0  0.31723833075E+02 -0.73676365251E+02  0.80799446654E+02  0.11385586924E+03  0.00000000000E+00 0.  1.
         11    1    1    2    0    0  0.46229684688E+02  0.11446653847E+02  0.94507559334E+02  0.10582952519E+03  0.00000000000E+00 0. -1.
</event>
<event>
 7    1  0.2334784E-009  0.1734886E+03  0.7561462E-02  0.1174258E+00
          2   -1    0    0  501    0  0.00000000000E+00  0.00000000000E+00  0.29720347083E+03  0.29720347083E+03  0.00000000000E+00 0. -1.
         -2   -1    0    0    0  501 -0.00000000000E+00 -0.00000000000E+00 -0.11162415216E+03  0.11162415216E+03  0.00000000000E+00 0.  1.
         25    2    1    2    0    0 -0.13153414582E+03  0.39727973049E+02  0.43918636736E+02  0.19093445477E+03  0.12509027142E+03 0.  0.
          5    1    3    3  502    0  0.20519759736E+02 -0.73528955585E+01 -0.77838999035E+01  0.23519930068E+02  0.41800000000E+01 0. -1.
         -5    1    3    3    0  502 -0.15205390556E+03  0.47080868607E+02  0.51702536640E+02  0.16741452470E+03  0.41800000000E+01 0. -1.
        -11    1    1    2    0    0  0.22341448756E+02 -0.51098061582E+02  0.48661869915E+02  0.74014389233E+02  0.00000000000E+00 0. -1.
         11    1    1    2    0    0  0.10919269707E+03  0.11370088533E+02  0.92998812027E+02  0.14387877899E+03  0.00000000000E+00 0.  1.
</event>
<event>
 7    1  0.2334784E-009  0.1068544E+03  0.7561462E-02  0.1266508E+00
         -4   -1    0    0    0  501 -0.00000000000E+00  0.00000000000E+00  0.10795575808E+03  0.10795575808E+03  0.00000000000E+00 0.  1.
          4   -1    0    0  501    0  0.00000000000E+00 -0.00000000000E+00 -0.11508321306E+03  0.11508321306E+03  0.00000000000E+00 0. -1.
         25    2    1    2    0    0  0.18288283167E+02 -0.16550072543E+02 -0.13583378125E+02  0.12822940669E+03  0.12509958583E+03 0.  0.
          5    1    3    3  502    0 -0.48819978644E+02 -0.17218533974E+02  0.16599682515E+02  0.54524215598E+02  0.41800000000E+01 0. -1.
         -5    1    3    3    0  502  0.67108261811E+02  0.66846143139E+00 -0.30183060639E+02  0.73705191089E+02  0.41800000000E+01 0. -1.
        -11    1    1    2    0    0 -0.53721549080E+02  0.23135009561E+02  0.23778285539E+01  0.58539623944E+02  0.00000000000E+00 0.  1.
         11    1    1    2    0    0  0.35433265913E+02 -0.65849370182E+01  0.40780945904E+01  0.36269940506E+02  0.00000000000E+00 0. -1.
</event>
<event>
 6    1  0.2334784E-009  0.1626300E+03  0.7561462E-02  0.1185759E+00
         -2   -1    0    0    0  501 -0.00000000000E+00  0.00000000000E+00  0.21156928874E+03  0.21156928874E+03  0.00000000000E+00 0.  1.
          2   -1    0    0  501    0  0.00000000000E+00 -0.00000000000E+00 -0.16634162512E+03  0.16634162512E+03  0.00000000000E+00 0. -1.
          5    1    1    2  502    0 -0.31194302843E+02 -0.73523760399E+02 -0.41165863527E+02  0.89949589177E+02  0.41800000000E+01 0.  1.
         -5    1    1    2    0  502 -0.29255429372E+01 -0.73132204720E+02  0.82238036847E+02  0.11017007431E+03  0.41800000000E+01 0.  1.
        -11    1    1    2    0    0 -0.25667256777E+02  0.71307513348E+02 -0.20470200197E+02  0.78502220519E+02  0.00000000000E+00 0. -1.
         11    1    1    2    0    0  0.59787102557E+02  0.75348451771E+02  0.24625690491E+02  0.99289029851E+02  0.00000000000E+00 0.  1.
</event>
<event>
 7    1  0.2334784E-009  0.1127059E+03  0.7561462E-02  0.1255640E+00
          1   -1    0    0  501    0  0.00000000000E+00  0.00000000000E+00  0.28405358334E+03  0.28405358334E+03  0.00000000000E+00 0. -1.
         -1   -1    0    0    0  501 -0.00000000000E+00 -0.00000000000E+00 -0.58382590795E+02  0.58382590795E+02  0.00000000000E+00 0.  1.
         25    2    1    2    0    0  0.11451701172E+02  0.42555766753E+02  0.55651646559E+02  0.14380510416E+03  0.12506265419E+03 0.  0.
          5    1    3    3  502    0  0.63792310446E+02  0.19873066042E+02  0.54939008299E+02  0.86603491031E+02  0.41800000000E+01 0.  1.
         -5    1    3    3    0  502 -0.52340609274E+02  0.22682700711E+02  0.71263826004E+00  0.57201613124E+02  0.41800000000E+01 0.  1.
        -11    1    1    2    0    0 -0.51103600713E+02 -0.31774237628E+02  0.84333747329E+02  0.10360193589E+03  0.00000000000E+00 0.  1.
         11    1    1    2    0    0  0.39651899541E+02 -0.10781529125E+02  0.85685598659E+02  0.95029134085E+02  0.00000000000E+00 0. -1.
</event>
<event>
 7    1  0.2334784E-009  0.1964498E+03  0.7561462E-02  0.1152769E+00
          2   -1    0    0  501    0  0.00000000000E+00  0.00000000000E+00  0.14673146555E+03  0.14673146555E+03  0.00000000000E+00 0. -1.
         -2   -1    0    0    0  501 -0.00000000000E+00 -0.00000000000E+00 -0.32144343051E+03  0.32144343051E+03  0.00000000000E+00 0.  1.
         25    2    1    2    0    0  0.10987334411E+03  0.14980216040E+03 -0.11254162167E+03  0.25065572507E+03  0.12509930814E+03 0.  0.
          5    1    3    3  502    0  0.37849020013E+02  0.53182553308E+02  0.22910984238E+02  0.69305972982E+02  0.41800000000E+01 0.  1.
         -5    1    3    3    0  502  0.72024324096E+02  0.96619607092E+02 -0.13545260590E+03  0.18134975209E+03  0.41800000000E+01 0.  1.
        -11    1    1    2    0    0 -0.12594661214E+03 -0.12573400292E+03 -0.62366624837E+02  0.18857673370E+03  0.00000000000E+00 0.  1.
         11    1    1    2    0    0  0.16073268034E+02 -0.24068157484E+02  0.19628154525E+00  0.28942437292E+02  0.00000000000E+00 0. -1.
</event>
<event>
 7    1  0.2334784E-009  0.8592862E+02  0.7561462E-02  0.1313022E+00
          1   -1    0    0  501    0  0.00000000000E+00  0.00000000000E+00  0.21892079367E+03  0.21892079367E+03  0.00000000000E+00 0. -1.
         -1   -1    0    0    0  501 -0.00000000000E+00 -0.00000000000E+00 -0.62694198290E+02  0.62694198290E+02  0.00000000000E+00 0.  1.
         25    2    1    2    0    0 -0.10777443418E+02 -0.36595646821E+02  0.12714311385E+03  0.18239588589E+03  0.12508994019E+03 0.  0.
          5    1    3    3  502    0 -0.62215663555E+02 -0.11029671052E+02  0.10085507484E+03  0.11908677910E+03  0.41800000000E+01 0.  1.
         -5    1    3    3    0  502  0.51438220136E+02 -0.25565975769E+02  0.26288039012E+02  0.63309106793E+02  0.41800000000E+01 0.  1.
        -11    1    1    2    0    0  0.18801101092E+02  0.66568837290E+01 -0.27932796282E+02  0.34322537951E+02  0.00000000000E+00 0.  1.
         11    1    1    2    0    0 -0.80236576741E+01  0.29938763092E+02  0.57016277809E+02  0.64896568115E+02  0.00000000000E+00 0. -1.
</event>
<event>
 7    1  0.2334784E-009  0.1051726E+03  0.7561462E-02  0.1269780E+00
          1   -1    0    0  501    0  0.00000000000E+00  0.00000000000E+00  0.73134451600E+03  0.73134451600E+03  0.00000000000E+00 0. -1.
         -1   -1    0    0    0  501 -0.00000000000E+00 -0.00000000000E+00 -0.20908348275E+02  0.20908348275E+02  0.00000000000E+00 0.  1.
         25    2    1    2    0    0  0.54379204686E+01 -0.28251781324E+02  0.55082870980E+03  0.56558578764E+03  0.12508909428E+03 0.  0.
          5    1    3    3  502    0 -0.49726616291E+02 -0.30062406336E+02  0.41249839559E+03  0.41659198672E+03  0.41800000000E+01 0.  1.
         -5    1    3    3    0  502  0.55164536760E+02  0.18106250124E+01  0.13833031422E+03  0.14899380091E+03  0.41800000000E+01 0.  1.
        -11    1    1    2    0    0 -0.40939920807E+02  0.42011197244E+02  0.93453864480E+02  0.11033876289E+03  0.00000000000E+00 0.  1.
         11    1    1    2    0    0  0.35502000338E+02 -0.13759415920E+02  0.66153593446E+02  0.76328313753E+02  0.00000000000E+00 0. -1.
</event>
<event>
 7    1  0.2334784E-009  0.1250590E+03  0.7561462E-02  0.1234977E+00
         -2   -1    0    0    0  501 -0.00000000000E+00  0.00000000000E+00  0.14943334823E+03  0.14943334823E+03  0.00000000000E+00 0.  1.
          2   -1    0    0  501    0  0.00000000000E+00 -0.00000000000E+00 -0.13360768350E+03  0.13360768350E+03  0.00000000000E+00 0. -1.
         25    2    1    2    0    0 -0.63472320998E+02  0.62033352938E+02 -0.96074694907E+01  0.15367761266E+03  0.12509049825E+03 0.  0.
          5    1    3    3  502    0 -0.44455037553E+02  0.83462377369E+02 -0.47567501556E+02  0.10593563331E+03  0.41800000000E+01 0. -1.
         -5    1    3    3    0  502 -0.19017283446E+02 -0.21429024432E+02  0.37960032066E+02  0.47741979349E+02  0.41800000000E+01 0. -1.
        -11    1    1    2    0    0  0.63692306986E+02  0.77753145498E+00  0.17470307621E+02  0.66049422198E+02  0.00000000000E+00 0.  1.
         11    1    1    2    0    0 -0.21998598712E+00 -0.62810884393E+02  0.79628265978E+01  0.63313996868E+02  0.00000000000E+00 0. -1.
</event>
<event>
 7    1  0.2334784E-009  0.9065517E+02  0.7561462E-02  0.1301273E+00
          1   -1    0    0  501    0  0.00000000000E+00  0.00000000000E+00  0.12482589876E+03  0.12482589876E+03  0.00000000000E+00 0. -1.
         -1   -1    0    0    0  501 -0.00000000000E+00 -0.00000000000E+00 -0.18015708773E+03  0.18015708773E+03  0.00000000000E+00 0.  1.
         25    2    1    2    0    0 -0.17758178481E+02  0.32085475351E+02  0.67953054342E+02  0.14700413262E+03  0.12509103398E+03 0.  0.
          5    1    3    3  502    0  0.43231853079E+02  0.47657639092E+02  0.19207395711E+02  0.67280310154E+02  0.41800000000E+01 0. -1.
         -5    1    3    3    0  502 -0.60990031560E+02 -0.15572163741E+02  0.48745658631E+02  0.79723822466E+02  0.41800000000E+01 0. -1.
        -11    1    1    2    0    0 -0.11635419475E+02 -0.17281946049E+02 -0.12332046316E+03  0.12506792266E+03  0.00000000000E+00 0.  1.
         11    1    1    2    0    0  0.29393597956E+02 -0.14803529302E+02  0.36219845506E-01  0.32910931200E+02  0.00000000000E+00 0. -1.
</event>
<event>
 7    1  0.2334784E-009  0.1086875E+03  0.7561462E-02  0.1263020E+00
          1   -1    0    0  501    0  0.00000000000E+00  0.00000000000E+00  0.29979194076E+03  0.29979194076E+03  0.00000000000E+00 0. -1.
         -1   -1    0    0    0  501 -0.00000000000E+00 -0.00000000000E+00 -0.66152266740E+02  0.66152266740E+02  0.00000000000E+00 0.  1.
         25    2    1    2    0    0 -0.69892998960E+02 -0.34508501334E+02  0.19818601363E+03  0.24698411272E+03  0.12509031926E+03 0.  0.
          5    1    3    3  502    0 -0.16367611411E+02 -0.71988768347E+02  0.14446536609E+03  0.16228985141E+03  0.41800000000E+01 0.  1.
         -5    1    3    3    0  502 -0.53525387549E+02  0.37480267013E+02  0.53720647540E+02  0.84694261316E+02  0.41800000000E+01 0.  1.
        -11    1    1    2    0    0  0.46229428449E+02  0.22310649985E+02  0.62588713706E+02  0.80946107015E+02  0.00000000000E+00 0. -1.
         11    1    1    2    0    0  0.23663570511E+02  0.12197851348E+02 -0.27135053316E+02  0.38013987759E+02  0.00000000000E+00 0.  1.
</event>
<event>
 7    1  0.2334784E-009  0.1092225E+03  0.7561462E-02  0.1262016E+00
         -1   -1    0    0    0  501 -0.00000000000E+00  0.00000000000E+00  0.32239026623E+03  0.32239026623E+03  0.00000000000E+00 0.  1.
          1   -1    0    0  501    0  0.00000000000E+00 -0.00000000000E+00 -0.47605922429E+02  0.47605922429E+02  0.00000000000E+00 0. -1.
         25    2    1    2    0    0 -0.34309150605E+02 -0.26517717951E+02  0.21218423386E+03  0.25010309356E+03  0.12509636737E+03 0.  0.
          5    1    3    3  502    0 -0.27149507120E+01  0.45014049881E+02  0.37979112834E+02  0.59106015394E+02  0.41800000000E+01 0. -1.
         -5    1    3    3    0  502 -0.31594199893E+02 -0.71531767832E+02  0.17420512103E+03  0.19099707817E+03  0.41800000000E+01 0. -1.
        -11    1    1    2    0    0  0.42536734139E+02 -0.20425831653E+02  0.53565477467E+02  0.71385213639E+02  0.00000000000E+00 0.  1.
         11    1    1    2    0    0 -0.82275835340E+01  0.46943549604E+02  0.90346324775E+01  0.48507881465E+02  0.00000000000E+00 0. -1.
</event>
<event>
 7    1  0.2334784E-009  0.1070419E+03  0.7561462E-02  0.1266148E+00
          2   -1    0    0  501    0  0.00000000000E+00  0.00000000000E+00  0.36383493172E+02  0.36383493172E+02  0.00000000000E+00 0. -1.
         -2   -1    0    0    0  501 -0.00000000000E+00 -0.00000000000E+00 -0.41049904442E+03  0.41049904442E+03  0.00000000000E+00 0.  1.
         25    2    1    2    0    0 -0.37686621602E+02  0.39371561586E+02 -0.20125155238E+03  0.24314549202E+03  0.12508853523E+03 0.  0.
          5    1    3    3  502    0 -0.37640989958E+02  0.68537751133E+02 -0.19869760192E+03  0.21357077718E+03  0.41800000000E+01 0.  1.
         -5    1    3    3    0  502 -0.45631644018E-01 -0.29166189547E+02 -0.25539504544E+01  0.29574714840E+02  0.41800000000E+01 0.  1.
        -11    1    1    2    0    0  0.33245436523E+02 -0.68874682523E+02 -0.10796031510E+03  0.13230423493E+03  0.00000000000E+00 0. -1.
         11    1    1    2    0    0  0.44411850789E+01  0.29503120937E+02 -0.64903683768E+02  0.71432810645E+02  0.00000000000E+00 0.  1.
</event>
<event>
 7    1  0.2494569E-009  0.1351994E+03  0.7561462E-02  0.1219938E+00
          1   -1    0    0  501    0  0.00000000000E+00  0.00000000000E+00  0.30594462139E+03  0.30594462139E+03  0.00000000000E+00 0. -1.
         -1   -1    0    0    0  501 -0.00000000000E+00 -0.00000000000E+00 -0.70917800042E+02  0.70917800042E+02  0.00000000000E+00 0.  1.
         25    2    1    2    0    0  0.28321330364E+01 -0.85734335271E+02  0.19254926609E+03  0.24511410132E+03  0.12508919047E+03 0.  0.
          5    1    3    3  502    0  0.39802988530E+02  0.15446230920E+02  0.67864986288E+02  0.80286939843E+02  0.41800000000E+01 0.  1.
         -5    1    3    3    0  502 -0.36970855494E+02 -0.10118056619E+03  0.12468427981E+03  0.16482716148E+03  0.41800000000E+01 0.  1.
        -11    1    1    2    0    0 -0.37948804569E+02  0.73120929822E+02  0.11357954104E+02  0.83161200494E+02  0.00000000000E+00 0.  1.
         11    1    1    2    0    0  0.35116671533E+02  0.12613405449E+02  0.31119601147E+02  0.48587119611E+02  0.00000000000E+00 0. -1.
</event>
<event>
 7    1  0.2334784E-009  0.6197122E+02  0.7561462E-02  0.1389741E+00
          1   -1    0    0  501    0  0.00000000000E+00  0.00000000000E+00  0.12827847771E+03  0.12827847771E+03  0.00000000000E+00 0.  1.
         -1   -1    0    0    0  501 -0.00000000000E+00 -0.00000000000E+00 -0.14612180621E+03  0.14612180621E+03  0.00000000000E+00 0. -1.
         25    2    1    2    0    0  0.52426244059E+02 -0.29471700011E+02 -0.66100797775E+02  0.15373283802E+03  0.12508947938E+03 0.  0.
          5    1    3    3  502    0  0.26792270106E+02 -0.18918157749E+02  0.35395490934E+02  0.48435891739E+02  0.41800000000E+01 0.  1.
         -5    1    3    3    0  502  0.25633973953E+02 -0.10553542262E+02 -0.10149628871E+03  0.10529694628E+03  0.41800000000E+01 0.  1.
        -11    1    1    2    0    0 -0.40048134517E+02  0.12728540624E+02  0.75483313291E+02  0.86392125857E+02  0.00000000000E+00 0.  1.
         11    1    1    2    0    0 -0.12378109542E+02  0.16743159388E+02 -0.27225844011E+02  0.34275320046E+02  0.00000000000E+00 0. -1.
</event>
<event>
 7    1  0.2334784E-009  0.1283762E+03  0.7561462E-02  0.1229885E+00
          2   -1    0    0  501    0  0.00000000000E+00  0.00000000000E+00  0.61920163637E+03  0.61920163637E+03  0.00000000000E+00 0.  1.
         -2   -1    0    0    0  501 -0.00000000000E+00 -0.00000000000E+00 -0.32263142802E+02  0.32263142802E+02  0.00000000000E+00 0. -1.
         25    2    1    2    0    0 -0.23000744194E+02 -0.79771411596E+02  0.22928780452E+03  0.27406724522E+03  0.12508974882E+03 0.  0.
          5    1    3    3  502    0 -0.30576785373E+02 -0.10731754058E+03  0.13361938775E+03  0.17413674943E+03  0.41800000000E+01 0.  1.
         -5    1    3    3    0  502  0.75760411793E+01  0.27546128981E+02  0.95668416769E+02  0.99930495790E+02  0.41800000000E+01 0.  1.
        -11    1    1    2    0    0  0.19415812090E+02  0.96842175615E+02  0.25854818012E+03  0.27677164266E+03  0.00000000000E+00 0. -1.
         11    1    1    2    0    0  0.35849321038E+01 -0.17070764018E+02  0.99102508918E+02  0.10062589128E+03  0.00000000000E+00 0.  1.
</event>
<event>
 7    1  0.2334784E-009  0.9289082E+02  0.7561462E-02  0.1295998E+00
          2   -1    0    0  501    0  0.00000000000E+00  0.00000000000E+00  0.10965645439E+04  0.10965645439E+04  0.00000000000E+00 0.  1.
         -2   -1    0    0    0  501 -0.00000000000E+00 -0.00000000000E+00 -0.15241537673E+02  0.15241537673E+02  0.00000000000E+00 0. -1.
         25    2    1    2    0    0 -0.13794115848E+02  0.38612896851E+02  0.81848815488E+03  0.82900630767E+03  0.12508942818E+03 0.  0.
          5    1    3    3  502    0  0.34448126193E+02  0.23831632215E+02  0.96959239380E+02  0.10570329509E+03  0.41800000000E+01 0.  1.
         -5    1    3    3    0  502 -0.48242242041E+02  0.14781264637E+02  0.72152891550E+03  0.72330301258E+03  0.41800000000E+01 0.  1.
        -11    1    1    2    0    0 -0.30547417859E+02  0.48924204308E+01  0.35301890866E+02  0.46939365294E+02  0.00000000000E+00 0. -1.
         11    1    1    2    0    0  0.44341533707E+02 -0.43505317282E+02  0.22753296043E+03  0.23586040856E+03  0.00000000000E+00 0.  1.
</event>
<event>
 7    1  0.2334784E-009  0.1007481E+03  0.7561462E-02  0.1278731E+00
         -2   -1    0    0    0  501 -0.00000000000E+00  0.00000000000E+00  0.34112859263E+02  0.34112859263E+02  0.00000000000E+00 0.  1.
          2   -1    0    0  501    0  0.00000000000E+00 -0.00000000000E+00 -0.50910314307E+03  0.50910314307E+03  0.00000000000E+00 0. -1.
         25    2    1    2    0    0 -0.93421182011E+01 -0.70392781431E+02 -0.21822419936E+03  0.26136541450E+03  0.12509060660E+03 0.  0.
          5    1    3    3  502    0 -0.40028782116E+02 -0.24187773469E+02 -0.12978985496E+02  0.48716303715E+02  0.41800000000E+01 0. -1.
         -5    1    3    3    0  502  0.30686663915E+02 -0.46205007961E+02 -0.20524521386E+03  0.21264911078E+03  0.41800000000E+01 0. -1.
        -11    1    1    2    0    0  0.39417697062E+02  0.40037452064E+02 -0.67515004551E+02  0.87835233528E+02  0.00000000000E+00 0.  1.
         11    1    1    2    0    0 -0.30075578861E+02  0.30355329367E+02 -0.18925107990E+03  0.19401535431E+03  0.00000000000E+00 0. -1.
</event>
<event>
 7    1  0.2334784E-009  0.1620488E+03  0.7561462E-02  0.1186403E+00
         -1   -1    0    0    0  501 -0.00000000000E+00  0.00000000000E+00  0.74533729844E+02  0.74533729844E+02  0.00000000000E+00 0.  1.
          1   -1    0    0  501    0  0.00000000000E+00 -0.00000000000E+00 -0.42039708981E+03  0.42039708981E+03  0.00000000000E+00 0. -1.
         25    2    1    2    0    0 -0.65628118958E+02 -0.10951685965E+03 -0.10555194180E+03  0.20758229327E+03  0.12509277963E+03 0.  0.
          5    1    3    3  502    0  0.27356725343E+02 -0.74106928968E+02 -0.49193941490E+02  0.93154407421E+02  0.41800000000E+01 0. -1.
         -5    1    3    3    0  502 -0.92984844301E+02 -0.35409930678E+02 -0.56358000309E+02  0.11442788585E+03  0.41800000000E+01 0. -1.
        -11    1    1    2    0    0  0.11095871380E+02  0.84817478183E+02 -0.19278964710E+03  0.21091460593E+03  0.00000000000E+00 0. -1.
         11    1    1    2    0    0  0.54532247577E+02  0.24699381463E+02 -0.47521771064E+02  0.76433920451E+02  0.00000000000E+00 0.  1.
</event>
<event>
 7    1  0.2334784E-009  0.1144485E+03  0.7561462E-02  0.1252547E+00
         -2   -1    0    0    0  501 -0.00000000000E+00  0.00000000000E+00  0.50103742193E+03  0.50103742193E+03  0.00000000000E+00 0.  1.
          2   -1    0    0  501    0  0.00000000000E+00 -0.00000000000E+00 -0.39590779870E+02  0.39590779870E+02  0.00000000000E+00 0. -1.
         25    2    1    2    0    0  0.44206523781E+02 -0.75764633794E+02  0.21564088027E+03  0.26427489102E+03  0.12508290173E+03 0.  0.
          5    1    3    3  502    0  0.92654772101E+01 -0.76208954796E+02  0.43016511962E+02  0.88099639956E+02  0.41800000000E+01 0. -1.
         -5    1    3    3    0  502  0.34941046571E+02  0.44432100165E+00  0.17262436830E+03  0.17617525107E+03  0.41800000000E+01 0. -1.
        -11    1    1    2    0    0 -0.12105890723E+02 -0.15735004896E+02  0.11903707101E+02  0.23148244253E+02  0.00000000000E+00 0. -1.
         11    1    1    2    0    0 -0.32100633058E+02  0.91499638690E+02  0.23390205469E+03  0.25320506652E+03  0.00000000000E+00 0.  1.
</event>
<event>
 7    1  0.2334784E-009  0.1505498E+03  0.7561462E-02  0.1199799E+00
          4   -1    0    0  501    0  0.00000000000E+00  0.00000000000E+00  0.17674320656E+03  0.17674320656E+03  0.00000000000E+00 0. -1.
         -4   -1    0    0    0  501 -0.00000000000E+00 -0.00000000000E+00 -0.15800675595E+03  0.15800675595E+03  0.00000000000E+00 0.  1.
         25    2    1    2    0    0  0.85707255893E+02 -0.88536315590E+02 -0.21068727025E+02  0.17685189321E+03  0.12509311725E+03 0.  0.
          5    1    3    3  502    0  0.98401877264E+02 -0.11132490592E+03 -0.12894513737E+02  0.14919753688E+03  0.41800000000E+01 0.  1.
         -5    1    3    3    0  502 -0.12694621371E+02  0.22788590333E+02 -0.81742132887E+01  0.27654356330E+02  0.41800000000E+01 0.  1.
        -11    1    1    2    0    0 -0.12086538738E+02  0.28803402634E+02  0.53656272893E+02  0.62086359555E+02  0.00000000000E+00 0. -1.
         11    1    1    2    0    0 -0.73620717154E+02  0.59732912955E+02 -0.13851095257E+02  0.95811709745E+02  0.00000000000E+00 0.  1.
</event>
<event>
 7    1  0.2334784E-009  0.8194894E+02  0.7561462E-02  0.1323610E+00
         -3   -1    0    0    0  501 -0.00000000000E+00  0.00000000000E+00  0.10146322139E+03  0.10146322139E+03  0.00000000000E+00 0.  1.
          3   -1    0    0  501    0  0.00000000000E+00 -0.00000000000E+00 -0.14353624367E+03  0.14353624367E+03  0.00000000000E+00 0. -1.
         25    2    1    2    0    0  0.39283437536E+02  0.33856297059E+02 -0.52021430928E+02  0.14506488438E+03  0.12509258207E+03 0.  0.
          5    1    3    3  502    0  0.63775360708E+02  0.36352410511E+02 -0.79259512352E+02  0.10811261296E+03  0.41800000000E+01 0. -1.
         -5    1    3    3    0  502 -0.24491923172E+02 -0.24961134519E+01  0.27238081424E+02  0.36952271414E+02  0.41800000000E+01 0. -1.
        -11    1    1    2    0    0  0.12340612904E+01 -0.23562460719E+02  0.41378401536E+02  0.47632809870E+02  0.00000000000E+00 0.  1.
         11    1    1    2    0    0 -0.40517498826E+02 -0.10293836340E+02 -0.31429992879E+02  0.52301770812E+02  0.00000000000E+00 0. -1.
</event>
<event>
 7    1  0.2334784E-009  0.1595283E+03  0.7561462E-02  0.1189230E+00
         -3   -1    0    0    0  501 -0.00000000000E+00  0.00000000000E+00  0.53452765716E+03  0.53452765716E+03  0.00000000000E+00 0.  1.
          3   -1    0    0  501    0  0.00000000000E+00 -0.00000000000E+00 -0.65426430048E+02  0.65426430048E+02  0.00000000000E+00 0. -1.
         25    2    1    2    0    0 -0.97176852791E+02  0.71236443997E+02  0.39284277931E+03  0.42952411853E+03  0.12509015736E+03 0.  0.
          5    1    3    3  502    0  0.21205208508E+02 -0.12025516097E+02  0.97651159292E+02  0.10073477660E+03  0.41800000000E+01 0. -1.
         -5    1    3    3    0  502 -0.11838206130E+03  0.83261960094E+02  0.29519162002E+03  0.32878934193E+03  0.41800000000E+01 0. -1.
        -11    1    1    2    0    0  0.28784297241E+02  0.20332706673E+02  0.46200201666E+01  0.35542922146E+02  0.00000000000E+00 0. -1.
         11    1    1    2    0    0  0.68392555550E+02 -0.91569150670E+02  0.71638427632E+02  0.13488704653E+03  0.00000000000E+00 0.  1.
</event>
<event>
 6    1  0.2334784E-009  0.1096450E+03  0.7561462E-02  0.1261229E+00
         -2   -1    0    0    0  501 -0.00000000000E+00  0.00000000000E+00  0.57228792283E+03  0.57228792283E+03  0.00000000000E+00 0.  1.
          2   -1    0    0  501    0  0.00000000000E+00 -0.00000000000E+00 -0.58617274844E+02  0.58617274844E+02  0.00000000000E+00 0. -1.
          5    1    1    2  502    0 -0.52934238882E+02 -0.51435260560E+02  0.41071796085E+03  0.41731802674E+03  0.41800000000E+01 0. -1.
         -5    1    1    2    0  502  0.25717847051E+02 -0.41235288564E+02  0.50270196244E+02  0.70045140519E+02  0.41800000000E+01 0. -1.
        -11    1    1    2    0    0  0.95844507758E+01  0.31620821166E+02  0.70233796991E+02  0.77617808960E+02  0.00000000000E+00 0.  1.
         11    1    1    2    0    0  0.17631941055E+02  0.61049727958E+02 -0.17551306099E+02  0.65924221458E+02  0.00000000000E+00 0. -1.
</event>
<event>
 7    1  0.2334784E-009  0.8249841E+02  0.7561462E-02  0.1322107E+00
         -2   -1    0    0    0  501 -0.00000000000E+00  0.00000000000E+00  0.13354677466E+03  0.13354677466E+03  0.00000000000E+00 0.  1.
          2   -1    0    0  501    0  0.00000000000E+00 -0.00000000000E+00 -0.13495152866E+03  0.13495152866E+03  0.00000000000E+00 0. -1.
         25    2    1    2    0    0 -0.47920457783E+02  0.34691720769E+01  0.88428703781E+01  0.13430038421E+03  0.12509992571E+03 0.  0.
          5    1    3    3  502    0  0.70299014763E+01  0.45099136169E+02 -0.30270443706E+02  0.54928351150E+02  0.41800000000E+01 0.  1.
         -5    1    3    3    0  502 -0.54950359260E+02 -0.41629964092E+02  0.39113314085E+02  0.79372033058E+02  0.41800000000E+01 0.  1.
        -11    1    1    2    0    0  0.38195210008E+02 -0.85256776800E+01 -0.66351664408E+02  0.77033139733E+02  0.00000000000E+00 0. -1.
         11    1    1    2    0    0  0.97252477752E+01  0.50565056030E+01  0.56104040030E+02  0.57164779374E+02  0.00000000000E+00 0.  1.
</event>
<event>
 7    1  0.2334784E-009  0.1734590E+03  0.7561462E-02  0.1174288E+00
         -2   -1    0    0    0  501 -0.00000000000E+00  0.00000000000E+00  0.32496060333E+03  0.32496060333E+03  0.00000000000E+00 0. -1.
          2   -1    0    0  501    0  0.00000000000E+00 -0.00000000000E+00 -0.10895147744E+03  0.10895147744E+03  0.00000000000E+00 0.  1.
         25    2    1    2    0    0  0.65914129295E+01 -0.13615585546E+03  0.19440065642E+03  0.26834859887E+03  0.12504995640E+03 0.  0.
          5    1    3    3  502    0  0.49774459275E+02 -0.92668423651E+01  0.49888450536E+02  0.71201833266E+02  0.41800000000E+01 0. -1.
         -5    1    3    3    0  502 -0.43183046346E+02 -0.12688901310E+03  0.14451220589E+03  0.19714676560E+03  0.41800000000E+01 0. -1.
        -11    1    1    2    0    0 -0.46681522804E+02  0.85508065012E+02  0.25968071490E+02  0.10082229163E+03  0.00000000000E+00 0. -1.
         11    1    1    2    0    0  0.40090109875E+02  0.50647790449E+02 -0.43596020190E+01  0.64741190264E+02  0.00000000000E+00 0.  1.
</event>
<event>
 7    1  0.2334784E-009  0.8319327E+02  0.7561462E-02  0.1320226E+00
          1   -1    0    0  501    0  0.00000000000E+00  0.00000000000E+00  0.65146738341E+02  0.65146738341E+02  0.00000000000E+00 0. -1.
         -1   -1    0    0    0  501 -0.00000000000E+00 -0.00000000000E+00 -0.24612254563E+03  0.24612254563E+03  0.00000000000E+00 0.  1.
         25    2    1    2    0    0 -0.17687951883E+02 -0.62413448890E+02 -0.11203433029E+03  0.18002116578E+03  0.12509047414E+03 0.  0.
          5    1    3    3  502    0 -0.34362936692E+00 -0.18095993378E+02 -0.12823635163E+03  0.12957475578E+03  0.41800000000E+01 0. -1.
         -5    1    3    3    0  502 -0.17344322516E+02 -0.44317455512E+02  0.16202021334E+02  0.50446410000E+02  0.41800000000E+01 0. -1.
        -11    1    1    2    0    0 -0.14404891617E+02 -0.12160012830E+02  0.69723783817E+01  0.20099275480E+02  0.00000000000E+00 0. -1.
         11    1    1    2    0    0  0.32092843500E+02  0.74573461720E+02 -0.75913855376E+02  0.11114884271E+03  0.00000000000E+00 0.  1.
</event>
<event>
 7    1  0.2334784E-009  0.3376205E+03  0.7561462E-02  0.1067814E+00
         -4   -1    0    0    0  501 -0.00000000000E+00  0.00000000000E+00  0.49061839532E+03  0.49061839532E+03  0.00000000000E+00 0.  1.
          4   -1    0    0  501    0  0.00000000000E+00 -0.00000000000E+00 -0.30451084912E+03  0.30451084912E+03  0.00000000000E+00 0. -1.
         25    2    1    2    0    0 -0.15240660463E+03 -0.28808294119E+03  0.27960414334E+03  0.44726258742E+03  0.12508313631E+03 0.  0.
          5    1    3    3  502    0 -0.37747454214E+01 -0.10521408262E+03  0.44550731445E+02  0.11439620604E+03  0.41800000000E+01 0.  1.
         -5    1    3    3    0  502 -0.14863185921E+03 -0.18286885857E+03  0.23505341190E+03  0.33286638138E+03  0.41800000000E+01 0.  1.
        -11    1    1    2    0    0  0.79449516526E+02  0.22185593213E+03 -0.77327712179E+02  0.24801583693E+03  0.00000000000E+00 0. -1.
         11    1    1    2    0    0  0.72957088101E+02  0.66227009055E+02 -0.16168884961E+02  0.99850820094E+02  0.00000000000E+00 0.  1.
</event>
<event>
 7    1  0.2334784E-009  0.8946860E+02  0.7561462E-02  0.1304144E+00
         -1   -1    0    0    0  501 -0.00000000000E+00  0.00000000000E+00  0.81816212228E+02  0.81816212228E+02  0.00000000000E+00 0.  1.
          1   -1    0    0  501    0  0.00000000000E+00 -0.00000000000E+00 -0.19801458023E+03  0.19801458023E+03  0.00000000000E+00 0. -1.
         25    2    1    2    0    0  0.20570260870E+02 -0.54434436684E+02 -0.28644565094E+02  0.14090674774E+03  0.12509179397E+03 0.  0.
          5    1    3    3  502    0 -0.27594722250E+01 -0.64638276149E+02  0.33963389156E+02  0.73189518604E+02  0.41800000000E+01 0.  1.
         -5    1    3    3    0  502  0.23329733095E+02  0.10203839465E+02 -0.62607954250E+02  0.67717229134E+02  0.41800000000E+01 0.  1.
        -11    1    1    2    0    0 -0.35295622211E+01  0.67022140161E+02 -0.95131848555E+02  0.11642376772E+03  0.00000000000E+00 0. -1.
         11    1    1    2    0    0 -0.17040698649E+02 -0.12587703477E+02  0.75780456452E+01  0.22500277000E+02  0.00000000000E+00 0.  1.
</event>
<event>
 7    1  0.2334784E-009  0.1329861E+03  0.7561462E-02  0.1223091E+00
          1   -1    0    0  501    0  0.00000000000E+00  0.00000000000E+00  0.15680003365E+03  0.15680003365E+03  0.00000000000E+00 0. -1.
         -1   -1    0    0    0  501 -0.00000000000E+00 -0.00000000000E+00 -0.13436717882E+03  0.13436717882E+03  0.00000000000E+00 0.  1.
         25    2    1    2    0    0 -0.51687829965E+02  0.78400339571E+02 -0.65968922342E+01  0.15655574468E+03  0.12509171512E+03 0.  0.
          5    1    3    3  502    0 -0.45302528416E+02  0.11223415937E+03 -0.10955732670E+02  0.12159903819E+03  0.41800000000E+01 0. -1.
         -5    1    3    3    0  502 -0.63853015491E+01 -0.33833819801E+02  0.43588404363E+01  0.34956706483E+02  0.41800000000E+01 0. -1.
        -11    1    1    2    0    0 -0.23458686721E+00 -0.51879949110E+02 -0.22736061734E+02  0.56643734462E+02  0.00000000000E+00 0.  1.
         11    1    1    2    0    0  0.51922416833E+02 -0.26520390462E+02  0.51765808805E+02  0.77967733334E+02  0.00000000000E+00 0. -1.
</event>
<event>
 7    1  0.2334784E-009  0.1033929E+03  0.7561462E-02  0.1273319E+00
         -2   -1    0    0    0  501 -0.00000000000E+00  0.00000000000E+00  0.15252253371E+03  0.15252253371E+03  0.00000000000E+00 0.  1.
          2   -1    0    0  501    0  0.00000000000E+00 -0.00000000000E+00 -0.11699001080E+03  0.11699001080E+03  0.00000000000E+00 0. -1.
         25    2    1    2    0    0  0.23391117896E+02 -0.74616980814E+02  0.76896599778E+01  0.14772090285E+03  0.12508995182E+03 0.  0.
          5    1    3    3  502    0  0.52900778482E+02 -0.83806824714E+01  0.41227047739E+02  0.67719052474E+02  0.41800000000E+01 0.  1.
         -5    1    3    3    0  502 -0.29509660586E+02 -0.66236298343E+02 -0.33537387762E+02  0.80001850378E+02  0.41800000000E+01 0.  1.
        -11    1    1    2    0    0 -0.23322031250E+02  0.43883376645E+02 -0.28734930297E+02  0.57405262011E+02  0.00000000000E+00 0. -1.
         11    1    1    2    0    0 -0.69086645374E-01  0.30733604169E+02  0.56577793230E+02  0.64386379654E+02  0.00000000000E+00 0.  1.
</event>
<event>
 6    1  0.2334784E-009  0.1500533E+03  0.7561462E-02  0.1200407E+00
         -2   -1    0    0    0  501 -0.00000000000E+00  0.00000000000E+00  0.56434134038E+02  0.56434134038E+02  0.00000000000E+00 0.  1.
          2   -1    0    0  501    0  0.00000000000E+00 -0.00000000000E+00 -0.53647468931E+03  0.53647468931E+03  0.00000000000E+00 0. -1.
          5    1    1    2  502    0 -0.11246529695E+03 -0.19809533396E+02 -0.18625253536E+03  0.21851393539E+03  0.41800000000E+01 0. -1.
         -5    1    1    2    0  502  0.13387265532E+02 -0.51565712805E+02 -0.17274699103E+03  0.18082377312E+03  0.41800000000E+01 0. -1.
        -11    1    1    2    0    0  0.48582442578E+02  0.65511443306E+02 -0.11693780208E+03  0.14257086829E+03  0.00000000000E+00 0. -1.
         11    1    1    2    0    0  0.50495588839E+02  0.58638028954E+01 -0.41032267933E+01  0.51000246536E+02  0.00000000000E+00 0.  1.
</event>
<event>
 7    1  0.2334784E-009  0.1277251E+03  0.7561462E-02  0.1230871E+00
          1   -1    0    0  501    0  0.00000000000E+00  0.00000000000E+00  0.13248144813E+03  0.13248144813E+03  0.00000000000E+00 0. -1.
         -1   -1    0    0    0  501 -0.00000000000E+00 -0.00000000000E+00 -0.19106622784E+03  0.19106622784E+03  0.00000000000E+00 0.  1.
         25    2    1    2    0    0 -0.10613537808E+03  0.39776248923E+02 -0.36450428089E+01  0.16884258106E+03  0.12509061669E+03 0.  0.
          5    1    3    3  502    0 -0.58957044330E+02  0.63079053845E+02  0.44653658850E+02  0.97295024327E+02  0.41800000000E+01 0.  1.
         -5    1    3    3    0  502 -0.47178333750E+02 -0.23302804922E+02 -0.48298701659E+02  0.71547556734E+02  0.41800000000E+01 0.  1.
        -11    1    1    2    0    0  0.58731797106E+02 -0.35497314694E+02 -0.76225330155E+02  0.10256599972E+03  0.00000000000E+00 0.  1.
         11    1    1    2    0    0  0.47403580975E+02 -0.42789342287E+01  0.21285593254E+02  0.52139095193E+02  0.00000000000E+00 0. -1.
</event>
<event>
 7    1  0.3167849E-009  0.9469233E+02  0.7561462E-02  0.1291871E+00
         -1   -1    0    0    0  501 -0.00000000000E+00  0.00000000000E+00  0.20290785020E+03  0.20290785020E+03  0.00000000000E+00 0.  1.
          1   -1    0    0  501    0  0.00000000000E+00 -0.00000000000E+00 -0.81717596055E+02  0.81717596055E+02  0.00000000000E+00 0. -1.
         25    2    1    2    0    0  0.53193571517E+02  0.39902992663E+02  0.89094479527E+02  0.16735277440E+03  0.12508924791E+03 0.  0.
          5    1    3    3  502    0  0.43596345011E+02  0.81304364805E+01  0.11610514708E+03  0.12435683686E+03  0.41800000000E+01 0.  1.
         -5    1    3    3    0  502  0.95972265056E+01  0.31772556182E+02 -0.27010667554E+02  0.42995937536E+02  0.41800000000E+01 0.  1.
        -11    1    1    2    0    0  0.13659410265E+02 -0.42341338835E+02  0.21950201808E+02  0.49610279404E+02  0.00000000000E+00 0.  1.
         11    1    1    2    0    0 -0.66852981782E+02  0.24383461728E+01  0.10145572815E+02  0.67662392457E+02  0.00000000000E+00 0. -1.
</event>
<event>
 7    1  0.2334784E-009  0.1094188E+03  0.7561462E-02  0.1261650E+00
         -2   -1    0    0    0  501 -0.00000000000E+00  0.00000000000E+00  0.17557371592E+02  0.17557371592E+02  0.00000000000E+00 0.  1.
          2   -1    0    0  501    0  0.00000000000E+00 -0.00000000000E+00 -0.84149011248E+03  0.84149011248E+03  0.00000000000E+00 0. -1.
         25    2    1    2    0    0 -0.38999835590E+02  0.29150372333E+02 -0.56722408329E+03  0.58289084471E+03  0.12509134581E+03 0.  0.
          5    1    3    3  502    0  0.41182647797E+02  0.48391760420E+01 -0.29797050962E+03  0.30087094427E+03  0.41800000000E+01 0.  1.
         -5    1    3    3    0  502 -0.80182483387E+02  0.24311196291E+02 -0.26925357367E+03  0.28201990044E+03  0.41800000000E+01 0.  1.
        -11    1    1    2    0    0  0.26584373144E+02 -0.56936216485E+02 -0.11333833448E+03  0.12959181959E+03  0.00000000000E+00 0.  1.
         11    1    1    2    0    0  0.12415462445E+02  0.27785844152E+02 -0.14337032313E+03  0.14656481978E+03  0.00000000000E+00 0. -1.
</event>
<event>
 7    1  0.2334784E-009  0.1946054E+03  0.7561462E-02  0.1154372E+00
          1   -1    0    0  501    0  0.00000000000E+00  0.00000000000E+00  0.18829182402E+03  0.18829182402E+03  0.00000000000E+00 0. -1.
         -1   -1    0    0    0  501 -0.00000000000E+00 -0.00000000000E+00 -0.23092506855E+03  0.23092506855E+03  0.00000000000E+00 0.  1.
         25    2    1    2    0    0 -0.86917707047E+02 -0.15375654343E+03 -0.50987090657E+02  0.22235854004E+03  0.12509146441E+03 0.  0.
          5    1    3    3  502    0 -0.57148733346E+02 -0.63968007928E+01  0.12692483790E+02  0.59037855044E+02  0.41800000000E+01 0.  1.
         -5    1    3    3    0  502 -0.29768973701E+02 -0.14735974264E+03 -0.63679574447E+02  0.16332068500E+03  0.41800000000E+01 0.  1.
        -11    1    1    2    0    0  0.24083929983E+02  0.83498406307E+02 -0.34265939195E+02  0.93413993213E+02  0.00000000000E+00 0.  1.
         11    1    1    2    0    0  0.62833777064E+02  0.70258137128E+02  0.42619785324E+02  0.10344435931E+03  0.00000000000E+00 0. -1.
</event>
<event>
 7    1  0.2334784E-009  0.9998141E+02  0.7561462E-02  0.1280335E+00
          2   -1    0    0  501    0  0.00000000000E+00  0.00000000000E+00  0.18253673569E+03  0.18253673569E+03  0.00000000000E+00 0. -1.
         -2   -1    0    0    0  501 -0.00000000000E+00 -0.00000000000E+00 -0.71912478730E+02  0.71912478730E+02  0.00000000000E+00 0.  1.
         25    2    1    2    0    0 -0.36478344038E+02  0.25414251965E+02  0.61746320322E+02  0.14641040104E+03  0.12508734417E+03 0.  0.
          5    1    3    3  502    0  0.31870919227E+02 -0.10862990173E+02  0.59963135238E+02  0.68897097438E+02  0.41800000000E+01 0.  1.
         -5    1    3    3    0  502 -0.68349263265E+02  0.36277242138E+02  0.17831850846E+01  0.77513303600E+02  0.41800000000E+01 0.  1.
        -11    1    1    2    0    0  0.60163310953E+02 -0.24125391901E+02  0.14749778830E+02  0.66477172734E+02  0.00000000000E+00 0.  1.
         11    1    1    2    0    0 -0.23684966915E+02 -0.12888600634E+01  0.34128157809E+02  0.41561640649E+02  0.00000000000E+00 0. -1.
</event>
<event>
 7    1  0.2334784E-009  0.9590087E+02  0.7561462E-02  0.1289160E+00
          1   -1    0    0  501    0  0.00000000000E+00  0.00000000000E+00  0.31378210364E+02  0.31378210364E+02  0.00000000000E+00 0. -1.
         -1   -1    0    0    0  501 -0.00000000000E+00 -0.00000000000E+00 -0.44551819351E+03  0.44551819351E+03  0.00000000000E+00 0.  1.
         25    2    1    2    0    0  0.49974081746E+02 -0.71904568366E+01 -0.19370746622E+03  0.23604709541E+03  0.12508611939E+03 0.  0.
          5    1    3    3  502    0  0.79008670320E+02 -0.35337670534E+01 -0.60671772371E+02  0.99766697139E+02  0.41800000000E+01 0. -1.
         -5    1    3    3    0  502 -0.29034588574E+02 -0.36566897833E+01 -0.13303569385E+03  0.13628039827E+03  0.41800000000E+01 0. -1.
        -11    1    1    2    0    0 -0.35614393346E+02  0.36132589700E+02 -0.18930449466E+03  0.19598505237E+03  0.00000000000E+00 0.  1.
         11    1    1    2    0    0 -0.14359688400E+02 -0.28942132863E+02 -0.31128022265E+02  0.44864256104E+02  0.00000000000E+00 0. -1.
</event>
<event>
 7    1  0.2334784E-009  0.7093090E+02  0.7561462E-02  0.1356956E+00
         -2   -1    0    0    0  501 -0.00000000000E+00  0.00000000000E+00  0.30503878676E+02  0.30503878676E+02  0.00000000000E+00 0.  1.
          2   -1    0    0  501    0  0.00000000000E+00 -0.00000000000E+00 -0.52822901353E+03  0.52822901353E+03  0.00000000000E+00 0. -1.
         25    2    1    2    0    0 -0.61826676324E+02  0.12134561299E+02 -0.23285381754E+03  0.27173442069E+03  0.12509560169E+03 0.  0.
          5    1    3    3  502    0 -0.33474177482E+02  0.12363948960E+02 -0.23961021577E+03  0.24228890955E+03  0.41800000000E+01 0. -1.
         -5    1    3    3    0  502 -0.28352498841E+02 -0.22938766078E+00  0.67563982263E+01  0.29445511139E+02  0.41800000000E+01 0. -1.
        -11    1    1    2    0    0  0.50138643650E+02  0.11020588024E+02 -0.25355490640E+03  0.25869949267E+03  0.00000000000E+00 0. -1.
         11    1    1    2    0    0  0.11688032674E+02 -0.23155149322E+02 -0.11316410917E+02  0.28298978850E+02  0.00000000000E+00 0.  1.
</event>
<event>
 7    1  0.2334784E-009  0.1415853E+03  0.7561462E-02  0.1211212E+00
         -1   -1    0    0    0  501 -0.00000000000E+00  0.00000000000E+00  0.80866959254E+02  0.80866959254E+02  0.00000000000E+00 0.  1.
          1   -1    0    0  501    0  0.00000000000E+00 -0.00000000000E+00 -0.33202957605E+03  0.33202957605E+03  0.00000000000E+00 0. -1.
         25    2    1    2    0    0 -0.10457153746E+03 -0.45391983053E+02 -0.18911593957E+03  0.25378856762E+03  0.12509260524E+03 0.  0.
          5    1    3    3  502    0 -0.12434303692E+03 -0.11774521472E+02 -0.11450432033E+03  0.16949496146E+03  0.41800000000E+01 0.  1.
         -5    1    3    3    0  502  0.19771499463E+02 -0.33617461581E+02 -0.74611619235E+02  0.84293606158E+02  0.41800000000E+01 0.  1.
        -11    1    1    2    0    0  0.75591188658E+02  0.48528452979E+02  0.79875026278E+00  0.89831378445E+02  0.00000000000E+00 0.  1.
         11    1    1    2    0    0  0.28980348799E+02 -0.31364699258E+01 -0.62845427494E+02  0.69276589242E+02  0.00000000000E+00 0. -1.
</event>
<event>
 7    1  0.2334784E-009  0.6626901E+02  0.7561462E-02  0.1373261E+00
         -1   -1    0    0    0  501 -0.00000000000E+00  0.00000000000E+00  0.26902692996E+02  0.26902692996E+02  0.00000000000E+00 0.  1.
          1   -1    0    0  501    0  0.00000000000E+00 -0.00000000000E+00 -0.48303280955E+03  0.48303280955E+03  0.00000000000E+00 0. -1.
         25    2    1    2    0    0  0.19630765916E+02  0.46531591977E+02 -0.29739715038E+03  0.32656251104E+03  0.12508977790E+03 0.  0.
          5    1    3    3  502    0 -0.20543996906E+01 -0.39239097851E+01 -0.25981179393E+03  0.25988316277E+03  0.41800000000E+01 0.  1.
         -5    1    3    3    0  502  0.21685165606E+02  0.50455501762E+02 -0.37585356455E+02  0.66679348267E+02  0.41800000000E+01 0.  1.
        -11    1    1    2    0    0 -0.35946087267E+02 -0.22783422711E+02 -0.31576966558E+02  0.52993493537E+02  0.00000000000E+00 0.  1.
         11    1    1    2    0    0  0.16315321352E+02 -0.23748169266E+02 -0.12715599961E+03  0.13037949797E+03  0.00000000000E+00 0. -1.
</event>
<event>
 7    1  0.2334784E-009  0.1462149E+03  0.7561462E-02  0.1205203E+00
          2   -1    0    0  501    0  0.00000000000E+00  0.00000000000E+00  0.11790296127E+03  0.11790296127E+03  0.00000000000E+00 0.  1.
         -2   -1    0    0    0  501 -0.00000000000E+00 -0.00000000000E+00 -0.20623378369E+03  0.20623378369E+03  0.00000000000E+00 0. -1.
         25    2    1    2    0    0 -0.11097276832E+03  0.40139778135E+01 -0.34358138996E+02  0.17075728304E+03  0.12508597311E+03 0.  0.
          5    1    3    3  502    0 -0.11712626859E+03  0.40656728652E+02 -0.44869419066E+02  0.13191766199E+03  0.41800000000E+01 0.  1.
         -5    1    3    3    0  502  0.61535002682E+01 -0.36642750838E+02  0.10511280070E+02  0.38839621049E+02  0.41800000000E+01 0.  1.
        -11    1    1    2    0    0  0.64559160509E+02  0.32174896383E+02  0.19978793571E+01  0.72160243104E+02  0.00000000000E+00 0. -1.
         11    1    1    2    0    0  0.46413607814E+02 -0.36188874196E+02 -0.55970562787E+02  0.81219218813E+02  0.00000000000E+00 0.  1.
</event>
<event>
 7    1  0.2334784E-009  0.2252342E+03  0.7561462E-02  0.1130040E+00
         -2   -1    0    0    0  501 -0.00000000000E+00  0.00000000000E+00  0.22777098065E+03  0.22777098065E+03  0.00000000000E+00 0.  1.
          2   -1    0    0  501    0  0.00000000000E+00 -0.00000000000E+00 -0.25669967876E+03  0.25669967876E+03  0.00000000000E+00 0. -1.
         25    2    1    2    0    0 -0.19763685154E+03 -0.71912865776E+02  0.33091841135E+02  0.24693390443E+03  0.12509795306E+03 0.  0.
          5    1    3    3  502    0 -0.20828131533E+03 -0.56016843302E+02  0.90316755455E+01  0.21591210390E+03  0.41800000000E+01 0. -1.
         -5    1    3    3    0  502  0.10644463793E+02 -0.15896022474E+02  0.24060165589E+02  0.31021800529E+02  0.41800000000E+01 0. -1.
        -11    1    1    2    0    0  0.18114142713E+03  0.78476099315E+02 -0.28299778388E+02  0.19942816311E+03  0.00000000000E+00 0.  1.
         11    1    1    2    0    0  0.16495424410E+02 -0.65632335388E+01 -0.33720760860E+02  0.38108591865E+02  0.00000000000E+00 0. -1.
</event>
<event>
 7    1  0.2334784E-009  0.9037934E+02  0.7561462E-02  0.1301936E+00
          1   -1    0    0  501    0  0.00000000000E+00  0.00000000000E+00  0.52547435210E+03  0.52547435210E+03  0.00000000000E+00 0. -1.
         -1   -1    0    0    0  501 -0.00000000000E+00 -0.00000000000E+00 -0.27895522219E+02  0.27895522219E+02  0.00000000000E+00 0.  1.
         25    2    1    2    0    0 -0.47204176070E+02 -0.17247797178E+02  0.31459658879E+03  0.34226939807E+03  0.12510638046E+03 0.  0.
          5    1    3    3  502    0  0.14951175904E+02 -0.28131171052E+01  0.25296781053E+03  0.25345933965E+03  0.41800000000E+01 0. -1.
         -5    1    3    3    0  502 -0.62155351974E+02 -0.14434680073E+02  0.61628778256E+02  0.88810058423E+02  0.41800000000E+01 0. -1.
        -11    1    1    2    0    0  0.65812858221E+02 -0.11480327768E+02  0.14683703459E+03  0.16132031788E+03  0.00000000000E+00 0.  1.
         11    1    1    2    0    0 -0.18608682151E+02  0.28728124946E+02  0.36145206501E+02  0.49780158369E+02  0.00000000000E+00 0. -1.
</event>
<event>
 7    1  0.2334784E-009  0.9638359E+02  0.7561462E-02  0.1288090E+00
          2   -1    0    0  501    0  0.00000000000E+00  0.00000000000E+00  0.23161034485E+03  0.23161034485E+03  0.00000000000E+00 0. -1.
         -2   -1    0    0    0  501 -0.00000000000E+00 -0.00000000000E+00 -0.61517794315E+02  0.61517794315E+02  0.00000000000E+00 0.  1.
         25    2    1    2    0    0 -0.19823721589E+02 -0.45287132060E+01  0.46325394953E+02  0.13488321641E+03  0.12503579756E+03 0.  0.
          5    1    3    3  502    0  0.37516658217E+02 -0.16063545868E+02  0.61855392540E+02  0.74223305881E+02  0.41800000000E+01 0.  1.
         -5    1    3    3    0  502 -0.57340379806E+02  0.11534832662E+02 -0.15529997586E+02  0.60659910533E+02  0.41800000000E+01 0.  1.
        -11    1    1    2    0    0  0.36926099597E+02 -0.34473737828E+02  0.92557415951E+02  0.10544596094E+03  0.00000000000E+00 0.  1.
         11    1    1    2    0    0 -0.17102378008E+02  0.39002451034E+02  0.31209739628E+02  0.52798961807E+02  0.00000000000E+00 0. -1.
</event>
<event>
 7    1  0.2334784E-009  0.1084949E+03  0.7561462E-02  0.1263383E+00
          1   -1    0    0  501    0  0.00000000000E+00  0.00000000000E+00  0.58167464496E+03  0.58167464496E+03  0.00000000000E+00 0. -1.
         -1   -1    0    0    0  501 -0.00000000000E+00 -0.00000000000E+00 -0.25790750088E+02  0.25790750088E+02  0.00000000000E+00 0.  1.
         25    2    1    2    0    0 -0.29059466101E+02 -0.72428715396E+01  0.30109817410E+03  0.32742128783E+03  0.12509067720E+03 0.  0.
          5    1    3    3  502    0 -0.42542253828E+02  0.51734165949E+02  0.17708504661E+03  0.18937490177E+03  0.41800000000E+01 0. -1.
         -5    1    3    3    0  502  0.13482787727E+02 -0.58977037489E+02  0.12401312749E+03  0.13804638606E+03  0.41800000000E+01 0. -1.
        -11    1    1    2    0    0  0.30005519228E+02  0.43567372877E+02  0.52532733573E+02  0.74552902427E+02  0.00000000000E+00 0.  1.
         11    1    1    2    0    0 -0.94605312756E+00 -0.36324501337E+02  0.20225298721E+03  0.20549120480E+03  0.00000000000E+00 0. -1.
</event>
<event>
 7    1  0.2334784E-009  0.1734181E+03  0.7561462E-02  0.1174329E+00
          1   -1    0    0  501    0  0.00000000000E+00  0.00000000000E+00  0.40212630502E+03  0.40212630502E+03  0.00000000000E+00 0. -1.
         -1   -1    0    0    0  501 -0.00000000000E+00 -0.00000000000E+00 -0.10286447992E+03  0.10286447992E+03  0.00000000000E+00 0.  1.
         25    2    1    2    0    0  0.14072970898E+03  0.53956326835E+02  0.48889594052E+02  0.20187472316E+03  0.12508826984E+03 0.  0.
          5    1    3    3  502    0 -0.88734085845E+01  0.43370095794E+02  0.21378878795E+02  0.49337931125E+02  0.41800000000E+01 0. -1.
         -5    1    3    3    0  502  0.14960311756E+03  0.10586231041E+02  0.27510715257E+02  0.15253679204E+03  0.41800000000E+01 0. -1.
        -11    1    1    2    0    0 -0.49521973569E+02 -0.30495893807E+02  0.16875012211E+03  0.17849097770E+03  0.00000000000E+00 0.  1.
         11    1    1    2    0    0 -0.91207735407E+02 -0.23460433029E+02  0.81622108939E+02  0.12462508409E+03  0.00000000000E+00 0. -1.
</event>
<event>
 7    1  0.2334784E-009  0.7904008E+02  0.7561462E-02  0.1331798E+00
         -1   -1    0    0    0  501 -0.00000000000E+00  0.00000000000E+00  0.17497958100E+03  0.17497958100E+03  0.00000000000E+00 0.  1.
          1   -1    0    0  501    0  0.00000000000E+00 -0.00000000000E+00 -0.73147216508E+02  0.73147216508E+02  0.00000000000E+00 0. -1.
         25    2    1    2    0    0 -0.10879237423E+02 -0.62946927355E+01  0.90620153325E+02  0.15497413114E+03  0.12508792176E+03 0.  0.
          5    1    3    3  502    0 -0.19052825221E+02 -0.49191110631E+02  0.97145949188E+02  0.11062361121E+03  0.41800000000E+01 0. -1.
         -5    1    3    3    0  502  0.81735877977E+01  0.42896417896E+02 -0.65257958637E+01  0.44350519923E+02  0.41800000000E+01 0. -1.
        -11    1    1    2    0    0  0.22076731107E+02 -0.21815265705E+02  0.40511339109E+02  0.51033875716E+02  0.00000000000E+00 0.  1.
         11    1    1    2    0    0 -0.11197493684E+02  0.28109958440E+02 -0.29299127940E+02  0.42118790657E+02  0.00000000000E+00 0. -1.
</event>
<event>
 7    1  0.2334784E-009  0.1697212E+03  0.7561462E-02  0.1178139E+00
          2   -1    0    0  501    0  0.00000000000E+00  0.00000000000E+00  0.48006548742E+03  0.48006548742E+03  0.00000000000E+00 0. -1.
         -2   -1    0    0    0  501 -0.00000000000E+00 -0.00000000000E+00 -0.74091558278E+02  0.74091558278E+02  0.00000000000E+00 0.  1.
         25    2    1    2    0    0  0.15030213275E+03 -0.91684671691E+00  0.16581615770E+03  0.25638677761E+03  0.12509040677E+03 0.  0.
          5    1    3    3  502    0  0.53835081311E+02 -0.41320935393E+02  0.10068306594E+02  0.68734844723E+02  0.41800000000E+01 0. -1.
         -5    1    3    3    0  502  0.96467051435E+02  0.40404088676E+02  0.15574785110E+03  0.18765193289E+03  0.41800000000E+01 0. -1.
        -11    1    1    2    0    0 -0.79382017261E+02 -0.35611840232E+02  0.17237372237E+03  0.19308652980E+03  0.00000000000E+00 0.  1.
         11    1    1    2    0    0 -0.70920115485E+02  0.36528686949E+02  0.67784049074E+02  0.10468373828E+03  0.00000000000E+00 0. -1.
</event>
<event>
 7    1  0.2334784E-009  0.1741216E+03  0.7561462E-02  0.1173617E+00
         -2   -1    0    0    0  501 -0.00000000000E+00  0.00000000000E+00  0.21521951706E+02  0.21521951706E+02  0.00000000000E+00 0.  1.
          2   -1    0    0  501    0  0.00000000000E+00 -0.00000000000E+00 -0.15932210048E+04  0.15932210048E+04  0.00000000000E+00 0. -1.
         25    2    1    2    0    0 -0.12430269470E+03 -0.79243492737E+02 -0.95660024490E+03  0.97594157158E+03  0.12508889459E+03 0.  0.
          5    1    3    3  502    0 -0.11384965456E+03 -0.10811041096E+03 -0.69570158144E+03  0.71320948368E+03  0.41800000000E+01 0.  1.
         -5    1    3    3    0  502 -0.10453040132E+02  0.28866918219E+02 -0.26089866346E+03  0.26273208790E+03  0.41800000000E+01 0.  1.
        -11    1    1    2    0    0  0.45217403830E+02  0.66016382721E+02 -0.18927693503E+03  0.20549582607E+03  0.00000000000E+00 0.  1.
         11    1    1    2    0    0  0.79085290865E+02  0.13227110016E+02 -0.42582187317E+03  0.43330555887E+03  0.00000000000E+00 0. -1.
</event>
<event>
 7    1  0.2334784E-009  0.1585879E+03  0.7561462E-02  0.1190300E+00
          1   -1    0    0  501    0  0.00000000000E+00  0.00000000000E+00  0.13022147401E+03  0.13022147401E+03  0.00000000000E+00 0. -1.
         -1   -1    0    0    0  501 -0.00000000000E+00 -0.00000000000E+00 -0.20883134243E+03  0.20883134243E+03  0.00000000000E+00 0.  1.
         25    2    1    2    0    0 -0.23704005295E+02  0.11520124036E+03 -0.17299116574E+01  0.17170461307E+03  0.12508507468E+03 0.  0.
          5    1    3    3  502    0 -0.47940292714E+02 -0.55577838612E+01  0.56050968503E+00  0.48445301094E+02  0.41800000000E+01 0.  1.
         -5    1    3    3    0  502  0.24236287420E+02  0.12075902422E+03 -0.22904213424E+01  0.12325931198E+03  0.41800000000E+01 0.  1.
        -11    1    1    2    0    0 -0.32522207560E+02 -0.45907911891E+02 -0.13391239777E+02  0.57832133469E+02  0.00000000000E+00 0. -1.
         11    1    1    2    0    0  0.56226212855E+02 -0.69293328472E+02 -0.63488716977E+02  0.10951606990E+03  0.00000000000E+00 0.  1.
</event>
<event>
 7    1  0.2334784E-009  0.2061892E+03  0.7561462E-02  0.1144620E+00
          2   -1    0    0  501    0  0.00000000000E+00  0.00000000000E+00  0.56383865028E+03  0.56383865028E+03  0.00000000000E+00 0. -1.
         -2   -1    0    0    0  501 -0.00000000000E+00 -0.00000000000E+00 -0.91422330413E+02  0.91422330413E+02  0.00000000000E+00 0.  1.
         25    2    1    2    0    0 -0.26458037858E+02  0.18481065259E+03  0.14443135362E+03  0.26713835976E+03  0.12508989677E+03 0.  0.
          5    1    3    3  502    0 -0.42257047768E+02  0.22868305539E+02  0.77216569771E+02  0.91041136479E+02  0.41800000000E+01 0.  1.
         -5    1    3    3    0  502  0.15799009910E+02  0.16194234705E+03  0.67214783847E+02  0.17609722328E+03  0.41800000000E+01 0.  1.
        -11    1    1    2    0    0  0.52753214423E+02 -0.10796126714E+03  0.14783832404E+03  0.19051169751E+03  0.00000000000E+00 0. -1.
         11    1    1    2    0    0 -0.26295176565E+02 -0.76849385444E+02  0.18014664221E+03  0.19761092341E+03  0.00000000000E+00 0.  1.
</event>
<event>
 7    1  0.2334784E-009  0.9631286E+02  0.7561462E-02  0.1288246E+00
          3   -1    0    0  501    0  0.00000000000E+00  0.00000000000E+00  0.28556096951E+03  0.28556096951E+03  0.00000000000E+00 0. -1.
         -3   -1    0    0    0  501 -0.00000000000E+00 -0.00000000000E+00 -0.10198375890E+03  0.10198375890E+03  0.00000000000E+00 0.  1.
         25    2    1    2    0    0 -0.39040482119E+02  0.46035125977E+01 -0.44946407447E+02  0.13861114955E+03  0.12509004623E+03 0.  0.
          5    1    3    3  502    0 -0.33120368876E+02  0.52790155711E+02  0.12063135009E+02  0.63614078636E+02  0.41800000000E+01 0.  1.
         -5    1    3    3    0  502 -0.59201132426E+01 -0.48186643113E+02 -0.57009542456E+02  0.74997070918E+02  0.41800000000E+01 0.  1.
        -11    1    1    2    0    0  0.15158592953E+02  0.33328265460E+02  0.36319129832E+02  0.51571653170E+02  0.00000000000E+00 0.  1.
         11    1    1    2    0    0  0.23881889166E+02 -0.37931778058E+02  0.19220448822E+03  0.19736192569E+03  0.00000000000E+00 0. -1.
</event>
<event>
 7    1  0.2334784E-009  0.8461412E+02  0.7561462E-02  0.1316445E+00
          1   -1    0    0  501    0  0.00000000000E+00  0.00000000000E+00  0.52601270460E+03  0.52601270460E+03  0.00000000000E+00 0. -1.
         -1   -1    0    0    0  501 -0.00000000000E+00 -0.00000000000E+00 -0.26500804330E+02  0.26500804330E+02  0.00000000000E+00 0.  1.
         25    2    1    2    0    0 -0.30528610543E+02  0.18472383211E+02  0.21088037393E+03  0.24777268984E+03  0.12509016236E+03 0.  0.
          5    1    3    3  502    0  0.17114897471E+02 -0.69317300308E+01 -0.92552434450E+01  0.21073692792E+02  0.41800000000E+01 0. -1.
         -5    1    3    3    0  502 -0.47643508014E+02  0.25404113241E+02  0.22013561737E+03  0.22669899704E+03  0.41800000000E+01 0. -1.
        -11    1    1    2    0    0 -0.16311657937E+02  0.26557127744E+02  0.69259205439E+02  0.75948592856E+02  0.00000000000E+00 0.  1.
         11    1    1    2    0    0  0.46840268480E+02 -0.45029510955E+02  0.21937232091E+03  0.22879222624E+03  0.00000000000E+00 0. -1.
</event>
<event>
 7    1  0.2334784E-009  0.9862890E+02  0.7561462E-02  0.1283206E+00
         -2   -1    0    0    0  501 -0.00000000000E+00  0.00000000000E+00  0.18921303582E+03  0.18921303582E+03  0.00000000000E+00 0.  1.
          2   -1    0    0  501    0  0.00000000000E+00 -0.00000000000E+00 -0.10155172783E+03  0.10155172783E+03  0.00000000000E+00 0. -1.
         25    2    1    2    0    0  0.56424028876E+02 -0.53866794904E+02  0.10041394970E+02  0.14775972924E+03  0.12508719097E+03 0.  0.
          5    1    3    3  502    0  0.11140765715E+02 -0.65265554817E+02 -0.41368543749E+02  0.78182722633E+02  0.41800000000E+01 0. -1.
         -5    1    3    3    0  502  0.45283263161E+02  0.11398759913E+02  0.51409938719E+02  0.69577006612E+02  0.41800000000E+01 0. -1.
        -11    1    1    2    0    0 -0.46272198767E+02  0.23264193313E+02 -0.71760161810E+01  0.52286081106E+02  0.00000000000E+00 0. -1.
         11    1    1    2    0    0 -0.10151830109E+02  0.30602601591E+02  0.84795929199E+02  0.90718953298E+02  0.00000000000E+00 0.  1.
</event>
<event>
 7    1  0.2334784E-009  0.1353704E+03  0.7561462E-02  0.1219698E+00
         -1   -1    0    0    0  501 -0.00000000000E+00  0.00000000000E+00  0.49315384320E+02  0.49315384320E+02  0.00000000000E+00 0.  1.
          1   -1    0    0  501    0  0.00000000000E+00 -0.00000000000E+00 -0.56814643297E+03  0.56814643297E+03  0.00000000000E+00 0. -1.
         25    2    1    2    0    0 -0.90868817740E+02  0.87833840698E+02 -0.23900654345E+03  0.29789970921E+03  0.12509269894E+03 0.  0.
          5    1    3    3  502    0 -0.94401173816E+02  0.63801619134E+02 -0.24695315538E+03  0.27200287052E+03  0.41800000000E+01 0.  1.
         -5    1    3    3    0  502  0.35323560761E+01  0.24032221564E+02  0.79466119301E+01  0.25896838686E+02  0.41800000000E+01 0.  1.
        -11    1    1    2    0    0  0.56273829701E+01 -0.26429132785E+02 -0.80588675096E+01  0.28197727646E+02  0.00000000000E+00 0.  1.
         11    1    1    2    0    0  0.85241434769E+02 -0.61404707913E+02 -0.27176563769E+03  0.29136438043E+03  0.00000000000E+00 0. -1.
</event>
<event>
 7    1  0.2334784E-009  0.1139765E+03  0.7561462E-02  0.1253378E+00
          1   -1    0    0  501    0  0.00000000000E+00  0.00000000000E+00  0.12294246329E+04  0.12294246329E+04  0.00000000000E+00 0. -1.
         -1   -1    0    0    0  501 -0.00000000000E+00 -0.00000000000E+00 -0.12162475526E+02  0.12162475526E+02  0.00000000000E+00 0.  1.
         25    2    1    2    0    0 -0.31312549685E+02 -0.25389532569E+02  0.87934877277E+03  0.88911705170E+03  0.12509901408E+03 0.  0.
          5    1    3    3  502    0 -0.63883443851E+02 -0.57098317406E+02  0.57630431719E+03  0.58265380000E+03  0.41800000000E+01 0. -1.
         -5    1    3    3    0  502  0.32570894166E+02  0.31708784836E+02  0.30304445558E+03  0.30646325170E+03  0.41800000000E+01 0. -1.
        -11    1    1    2    0    0 -0.30903403146E+02  0.80794812441E+01  0.16100880746E+03  0.16414668569E+03  0.00000000000E+00 0. -1.
         11    1    1    2    0    0  0.62215952831E+02  0.17310051325E+02  0.17690457715E+03  0.18832337104E+03  0.00000000000E+00 0.  1.
</event>
<event>
 7    1  0.2334784E-009  0.1096818E+03  0.7561462E-02  0.1261160E+00
          2   -1    0    0  501    0  0.00000000000E+00  0.00000000000E+00  0.60737374856E+03  0.60737374856E+03  0.00000000000E+00 0. -1.
         -2   -1    0    0    0  501 -0.00000000000E+00 -0.00000000000E+00 -0.36217783494E+02  0.36217783494E+02  0.00000000000E+00 0.  1.
         25    2    1    2    0    0 -0.90160286573E+01  0.44700905022E+02  0.11282005457E+03  0.17451434484E+03  0.12508969645E+03 0.  0.
          5    1    3    3  502    0 -0.25541183127E+02  0.78026358974E+02  0.10951627922E+03  0.13693703862E+03  0.41800000000E+01 0.  1.
         -5    1    3    3    0  502  0.16525154470E+02 -0.33325453951E+02  0.33037753480E+01  0.37577306221E+02  0.41800000000E+01 0.  1.
        -11    1    1    2    0    0  0.42945754130E+02 -0.49415598454E+02  0.29170998937E+03  0.29896648151E+03  0.00000000000E+00 0.  1.
         11    1    1    2    0    0 -0.33929725473E+02  0.47146934314E+01  0.16662592113E+03  0.17011070571E+03  0.00000000000E+00 0. -1.
</event>
<event>
 7    1  0.2334784E-009  0.1476437E+03  0.7561462E-02  0.1203399E+00
         -1   -1    0    0    0  501 -0.00000000000E+00  0.00000000000E+00  0.12918372775E+03  0.12918372775E+03  0.00000000000E+00 0.  1.
          1   -1    0    0  501    0  0.00000000000E+00 -0.00000000000E+00 -0.23023941979E+03  0.23023941979E+03  0.00000000000E+00 0. -1.
         25    2    1    2    0    0  0.64790992439E+02 -0.11543365449E+03 -0.73173572600E+02  0.19627928004E+03  0.12509349606E+03 0.  0.
          5    1    3    3  502    0  0.28200273220E+02 -0.16833489291E+02  0.33022030447E+02  0.46760546043E+02  0.41800000000E+01 0.  1.
         -5    1    3    3    0  502  0.36590719219E+02 -0.98600165198E+02 -0.10619560305E+03  0.14951873400E+03  0.41800000000E+01 0.  1.
        -11    1    1    2    0    0 -0.84500306967E+02  0.10449270106E+03 -0.36103267190E+02  0.13914910116E+03  0.00000000000E+00 0.  1.
         11    1    1    2    0    0  0.19709314528E+02  0.10940953432E+02  0.82211477514E+01  0.23994766336E+02  0.00000000000E+00 0. -1.
</event>
<event>
 7    1  0.2334784E-009  0.1075828E+03  0.7561462E-02  0.1265113E+00
          1   -1    0    0  501    0  0.00000000000E+00  0.00000000000E+00  0.17882375024E+03  0.17882375024E+03  0.00000000000E+00 0. -1.
         -1   -1    0    0    0  501 -0.00000000000E+00 -0.00000000000E+00 -0.12817920336E+03  0.12817920336E+03  0.00000000000E+00 0.  1.
         25    2    1    2    0    0  0.40664545508E+02 -0.95139672091E+02  0.11472496468E+02  0.16274033940E+03  0.12509051693E+03 0.  0.
          5    1    3    3  502    0  0.12372869249E+02 -0.65255313990E+02 -0.53724680548E+02  0.85528694585E+02  0.41800000000E+01 0. -1.
         -5    1    3    3    0  502  0.28291676258E+02 -0.29884358101E+02  0.65197177016E+02  0.77211644818E+02  0.41800000000E+01 0. -1.
        -11    1    1    2    0    0 -0.30709675971E+02  0.36170181219E+02 -0.27385234188E+02  0.54784279307E+02  0.00000000000E+00 0.  1.
         11    1    1    2    0    0 -0.99548695371E+01  0.58969490872E+02  0.66557284605E+02  0.89478334893E+02  0.00000000000E+00 0. -1.
</event>
<event>
 7    1  0.2334784E-009  0.1123024E+03  0.7561462E-02  0.1256365E+00
          2   -1    0    0  501    0  0.00000000000E+00  0.00000000000E+00  0.22120822364E+03  0.22120822364E+03  0.00000000000E+00 0. -1.
         -2   -1    0    0    0  501 -0.00000000000E+00 -0.00000000000E+00 -0.75615015578E+02  0.75615015578E+02  0.00000000000E+00 0.  1.
         25    2    1    2    0    0 -0.46114982563E+02  0.30800076764E+02  0.13600186307E+03  0.19291925930E+03  0.12508436155E+03 0.  0.
          5    1    3    3  502    0 -0.81164859960E+02  0.28223640162E+02  0.13163834598E+03  0.15725913293E+03  0.41800000000E+01 0.  1.
         -5    1    3    3    0  502  0.35049877397E+02  0.25764366020E+01  0.43635170861E+01  0.35660126366E+02  0.41800000000E+01 0.  1.
        -11    1    1    2    0    0  0.57231709536E+02  0.12410189800E+02  0.16473797543E+01  0.58584940448E+02  0.00000000000E+00 0.  1.
         11    1    1    2    0    0 -0.11116726973E+02 -0.43210266564E+02  0.79439652371E+01  0.45319039473E+02  0.00000000000E+00 0. -1.
</event>
<event>
 7    1  0.2334784E-009  0.1316474E+03  0.7561462E-02  0.1225032E+00
         -1   -1    0    0    0  501 -0.00000000000E+00  0.00000000000E+00  0.83476588041E+02  0.83476588041E+02  0.00000000000E+00 0.  1.
          1   -1    0    0  501    0  0.00000000000E+00 -0.00000000000E+00 -0.29138524352E+03  0.29138524352E+03  0.00000000000E+00 0. -1.
         25    2    1    2    0    0 -0.53625975891E+02 -0.56557310533E+02 -0.26887333943E+02  0.14981678141E+03  0.12509062555E+03 0.  0.
          5    1    3    3  502    0 -0.58032421475E+02 -0.83625941995E+02 -0.50207782909E+02  0.11357532294E+03  0.41800000000E+01 0. -1.
         -5    1    3    3    0  502  0.44064455844E+01  0.27068631462E+02  0.23320448965E+02  0.36241458468E+02  0.41800000000E+01 0. -1.
        -11    1    1    2    0    0 -0.22980671155E+02 -0.16128824349E+02 -0.39815463565E+02  0.48718798841E+02  0.00000000000E+00 0.  1.
         11    1    1    2    0    0  0.76606647046E+02  0.72686134882E+02 -0.14120585797E+03  0.17632625131E+03  0.00000000000E+00 0. -1.
</event>
<event>
 7    1  0.2334784E-009  0.1058787E+03  0.7561462E-02  0.1268398E+00
         -2   -1    0    0    0  501 -0.00000000000E+00  0.00000000000E+00  0.19142803878E+03  0.19142803878E+03  0.00000000000E+00 0.  1.
          2   -1    0    0  501    0  0.00000000000E+00 -0.00000000000E+00 -0.74249957471E+02  0.74249957471E+02  0.00000000000E+00 0. -1.
         25    2    1    2    0    0  0.85885074441E+01  0.12281204006E+02  0.12808532057E+02  0.12662736446E+03  0.12508333424E+03 0.  0.
          5    1    3    3  502    0 -0.23631016326E+02 -0.47741083615E+02 -0.10597796833E+02  0.54474046068E+02  0.41800000000E+01 0. -1.
         -5    1    3    3    0  502  0.32219523770E+02  0.60022287620E+02  0.23406328890E+02  0.72153318394E+02  0.41800000000E+01 0. -1.
        -11    1    1    2    0    0  0.24765770405E+02 -0.39770047969E+02  0.67918705295E+02  0.82510306193E+02  0.00000000000E+00 0.  1.
         11    1    1    2    0    0 -0.33354277849E+02  0.27488843963E+02  0.36450843957E+02  0.56540325596E+02  0.00000000000E+00 0. -1.
</event>
<event>
 7    1  0.2334784E-009  0.1263546E+03  0.7561462E-02  0.1232967E+00
         -1   -1    0    0    0  501 -0.00000000000E+00  0.00000000000E+00  0.54962323966E+02  0.54962323966E+02  0.00000000000E+00 0.  1.
          1   -1    0    0  501    0  0.00000000000E+00 -0.00000000000E+00 -0.35104810957E+03  0.35104810957E+03  0.00000000000E+00 0. -1.
         25    2    1    2    0    0  0.84081697612E+02  0.54959875282E+01 -0.13921082079E+03  0.20524040773E+03  0.12507611517E+03 0.  0.
          5    1    3    3  502    0 -0.23275379574E+02  0.15915518520E+02  0.72024868758E+00  0.28513824405E+02  0.41800000000E+01 0.  1.
         -5    1    3    3    0  502  0.10735707719E+03 -0.10419530992E+02 -0.13993106948E+03  0.17672658332E+03  0.41800000000E+01 0.  1.
        -11    1    1    2    0    0 -0.89202262436E+02  0.19027934111E+02 -0.85083998500E+02  0.12473328626E+03  0.00000000000E+00 0.  1.
         11    1    1    2    0    0  0.51205648247E+01 -0.24523921639E+02 -0.71790966313E+02  0.76036739546E+02  0.00000000000E+00 0. -1.
</event>
<event>
 7    1  0.2334784E-009  0.1095209E+03  0.7561462E-02  0.1261460E+00
          4   -1    0    0  501    0  0.00000000000E+00  0.00000000000E+00  0.43861216308E+02  0.43861216308E+02  0.00000000000E+00 0. -1.
         -4   -1    0    0    0  501 -0.00000000000E+00 -0.00000000000E+00 -0.29569261120E+03  0.29569261120E+03  0.00000000000E+00 0.  1.
         25    2    1    2    0    0 -0.17842733810E+02  0.29347416324E+02 -0.13100531125E+03  0.18436237810E+03  0.12508981129E+03 0.  0.
          5    1    3    3  502    0 -0.25570091537E+02  0.74533005404E+02 -0.57509542850E+02  0.97641274032E+02  0.41800000000E+01 0. -1.
         -5    1    3    3    0  502  0.77273577263E+01 -0.45185589080E+02 -0.73495768398E+02  0.86721104065E+02  0.41800000000E+01 0. -1.
        -11    1    1    2    0    0  0.47881370564E+02  0.53835726498E+01 -0.81765846907E+02  0.94906597357E+02  0.00000000000E+00 0.  1.
         11    1    1    2    0    0 -0.30038636753E+02 -0.34730988974E+02 -0.39060236740E+02  0.60284852055E+02  0.00000000000E+00 0. -1.
</event>
<event>
 7    1  0.2334784E-009  0.1169339E+03  0.7561462E-02  0.1248243E+00
         -1   -1    0    0    0  501 -0.00000000000E+00  0.00000000000E+00  0.12259663693E+03  0.12259663693E+03  0.00000000000E+00 0. -1.
          1   -1    0    0  501    0  0.00000000000E+00 -0.00000000000E+00 -0.25231192633E+03  0.25231192633E+03  0.00000000000E+00 0.  1.
         25    2    1    2    0    0 -0.55789191819E+02 -0.59263496966E+01  0.65647638860E+02  0.15200383365E+03  0.12509195582E+03 0.  0.
          5    1    3    3  502    0  0.34801275226E+02  0.74696271596E+01 -0.51106182687E+01  0.36201034603E+02  0.41800000000E+01 0. -1.
         -5    1    3    3    0  502 -0.90590467045E+02 -0.13395976856E+02  0.70758257128E+02  0.11580279905E+03  0.41800000000E+01 0. -1.
        -11    1    1    2    0    0 -0.10453660215E+02  0.33135320571E+02 -0.78488140196E+02  0.85834821796E+02  0.00000000000E+00 0.  1.
         11    1    1    2    0    0  0.66242852034E+02 -0.27208970875E+02 -0.11687478807E+03  0.13706990781E+03  0.00000000000E+00 0. -1.
</event>
<event>
 7    1  0.2334784E-009  0.1303804E+03  0.7561462E-02  0.1226892E+00
         -4   -1    0    0    0  501 -0.00000000000E+00  0.00000000000E+00  0.87311344035E+03  0.87311344035E+03  0.00000000000E+00 0.  1.
          4   -1    0    0  501    0  0.00000000000E+00 -0.00000000000E+00 -0.29536573217E+02  0.29536573217E+02  0.00000000000E+00 0. -1.
         25    2    1    2    0    0 -0.64086409235E+02 -0.90320861063E+02  0.56734208815E+03  0.59142990059E+03  0.12508939419E+03 0.  0.
          5    1    3    3  502    0 -0.65769284050E+02 -0.51657315736E+02  0.53294928912E+03  0.53948725116E+03  0.41800000000E+01 0.  1.
         -5    1    3    3    0  502  0.16828748158E+01 -0.38663545327E+02  0.34392799034E+02  0.51942649435E+02  0.41800000000E+01 0.  1.
        -11    1    1    2    0    0 -0.70730760873E+01  0.60554638456E+02  0.81613496358E+02  0.10187077810E+03  0.00000000000E+00 0.  1.
         11    1    1    2    0    0  0.71159485322E+02  0.29766222607E+02  0.19462128262E+03  0.20934933486E+03  0.00000000000E+00 0. -1.
</event>
<event>
 7    1  0.2334784E-009  0.1156409E+03  0.7561462E-02  0.1250466E+00
          2   -1    0    0  501    0  0.00000000000E+00  0.00000000000E+00  0.81545529189E+02  0.81545529189E+02  0.00000000000E+00 0. -1.
         -2   -1    0    0    0  501 -0.00000000000E+00 -0.00000000000E+00 -0.21004964632E+03  0.21004964632E+03  0.00000000000E+00 0.  1.
         25    2    1    2    0    0  0.13861317746E+02 -0.67115944325E+02 -0.43529175978E+02  0.14912719931E+03  0.12508975298E+03 0.  0.
          5    1    3    3  502    0 -0.41466736683E+02 -0.27971335633E+02 -0.61015340209E+02  0.79007784484E+02  0.41800000000E+01 0.  1.
         -5    1    3    3    0  502  0.55328054429E+02 -0.39144608692E+02  0.17486164232E+02  0.70119414830E+02  0.41800000000E+01 0.  1.
        -11    1    1    2    0    0 -0.22009159821E+02 -0.17536234859E+02 -0.12754480993E+02  0.30896592603E+02  0.00000000000E+00 0. -1.
         11    1    1    2    0    0  0.81478420752E+01  0.84652179184E+02 -0.72220460163E+02  0.11157138360E+03  0.00000000000E+00 0.  1.
</event>
<event>
 7    1  0.2334784E-009  0.1820000E+03  0.7561462E-02  0.1165881E+00
         -2   -1    0    0    0  501 -0.00000000000E+00  0.00000000000E+00  0.16706483912E+03  0.16706483912E+03  0.00000000000E+00 0.  1.
          2   -1    0    0  501    0  0.00000000000E+00 -0.00000000000E+00 -0.22273687679E+03  0.22273687679E+03  0.00000000000E+00 0. -1.
         25    2    1    2    0    0  0.12867262876E+03  0.90128860331E+02 -0.56592464588E+02  0.20863869930E+03  0.12509013927E+03 0.  0.
          5    1    3    3  502    0  0.19419336645E+01  0.69863341770E+02 -0.48042258667E+01  0.70179844798E+02  0.41800000000E+01 0. -1.
         -5    1    3    3    0  502  0.12673069509E+03  0.20265518561E+02 -0.51788238721E+02  0.13845885451E+03  0.41800000000E+01 0.  1.
        -11    1    1    2    0    0 -0.35395918740E+02  0.67105189362E+00  0.31565317345E+02  0.47430903777E+02  0.00000000000E+00 0.  1.
         11    1    1    2    0    0 -0.93276710019E+02 -0.90799912225E+02 -0.30644890427E+02  0.13373211283E+03  0.00000000000E+00 0. -1.
</event>
<event>
 6    1  0.2334784E-009  0.9822791E+02  0.7561462E-02  0.1284067E+00
         -1   -1    0    0    0  501 -0.00000000000E+00  0.00000000000E+00  0.24847115925E+03  0.24847115925E+03  0.00000000000E+00 0.  1.
          1   -1    0    0  501    0  0.00000000000E+00 -0.00000000000E+00 -0.55735459130E+02  0.55735459130E+02  0.00000000000E+00 0. -1.
          5    1    1    2  502    0 -0.10695840778E+02 -0.41568888106E+02  0.36566522078E+02  0.56541634264E+02  0.41800000000E+01 0.  1.
         -5    1    1    2    0  502  0.28831926049E+02  0.85918510308E+02  0.90282476921E+02  0.12799089191E+03  0.41800000000E+01 0.  1.
        -11    1    1    2    0    0  0.13018518816E+02 -0.12309399656E+02  0.72335502623E+02  0.74521326423E+02  0.00000000000E+00 0.  1.
         11    1    1    2    0    0 -0.31154604087E+02 -0.32040222546E+02 -0.64488015044E+01  0.45152765779E+02  0.00000000000E+00 0. -1.
</event>
<event>
 7    1  0.2424028E-009  0.1173886E+03  0.7561462E-02  0.1247468E+00
         -1   -1    0    0    0  501 -0.00000000000E+00  0.00000000000E+00  0.15019247561E+02  0.15019247561E+02  0.00000000000E+00 0.  1.
          1   -1    0    0  501    0  0.00000000000E+00 -0.00000000000E+00 -0.12705518344E+04  0.12705518344E+04  0.00000000000E+00 0. -1.
         25    2    1    2    0    0 -0.39499492668E+02  0.74665978715E+02 -0.63420065367E+03  0.65191564405E+03  0.12509324341E+03 0.  0.
          5    1    3    3  502    0  0.40201066383E+01  0.65918258795E+02 -0.56954978165E+03  0.57338102888E+03  0.41800000000E+01 0.  1.
         -5    1    3    3    0  502 -0.43519599306E+02  0.87477199201E+01 -0.64650872017E+02  0.78534615172E+02  0.41800000000E+01 0.  1.
        -11    1    1    2    0    0  0.62008636023E+02 -0.20415337017E+02 -0.35049099229E+03  0.35651899333E+03  0.00000000000E+00 0. -1.
         11    1    1    2    0    0 -0.22509143355E+02 -0.54250641698E+02 -0.27084094088E+03  0.27713644459E+03  0.00000000000E+00 0.  1.
</event>
<event>
 7    1  0.2334784E-009  0.1302678E+03  0.7561462E-02  0.1227059E+00
         -1   -1    0    0    0  501 -0.00000000000E+00  0.00000000000E+00  0.15020952320E+03  0.15020952320E+03  0.00000000000E+00 0.  1.
          1   -1    0    0  501    0  0.00000000000E+00 -0.00000000000E+00 -0.14551654297E+03  0.14551654297E+03  0.00000000000E+00 0. -1.
         25    2    1    2    0    0 -0.17125418022E+02 -0.10061098279E+03 -0.83909583394E+01  0.16165920402E+03  0.12508972884E+03 0.  0.
          5    1    3    3  502    0 -0.68144248916E+02 -0.42174262181E+02 -0.21012812710E+02  0.82953708469E+02  0.41800000000E+01 0. -1.
         -5    1    3    3    0  502  0.51018830894E+02 -0.58436720612E+02  0.12621854371E+02  0.78705495547E+02  0.41800000000E+01 0. -1.
        -11    1    1    2    0    0  0.17404564056E+02  0.75190367416E+02 -0.31005165344E+02  0.83173496260E+02  0.00000000000E+00 0. -1.
         11    1    1    2    0    0 -0.27914603392E+00  0.25420615377E+02  0.44089103911E+02  0.50893365897E+02  0.00000000000E+00 0.  1.
</event>
<event>
 7    1  0.2334784E-009  0.1390094E+03  0.7561462E-02  0.1214668E+00
          4   -1    0    0  501    0  0.00000000000E+00  0.00000000000E+00  0.31102737093E+02  0.31102737093E+02  0.00000000000E+00 0. -1.
         -4   -1    0    0    0  501 -0.00000000000E+00 -0.00000000000E+00 -0.81257489598E+03  0.81257489598E+03  0.00000000000E+00 0.  1.
         25    2    1    2    0    0  0.33429883222E+02  0.10510342528E+03 -0.31108355103E+03  0.35296602668E+03  0.12509097958E+03 0.  0.
          5    1    3    3  502    0  0.35506778519E+02  0.24323833518E+01 -0.19352610513E+03  0.19681583671E+03  0.41800000000E+01 0.  1.
         -5    1    3    3    0  502 -0.20768952973E+01  0.10267104193E+03 -0.11755744589E+03  0.15615018998E+03  0.41800000000E+01 0.  1.
        -11    1    1    2    0    0 -0.56875034653E+02 -0.38195423211E+02 -0.24857400893E+03  0.25784238953E+03  0.00000000000E+00 0.  1.
         11    1    1    2    0    0  0.23445151431E+02 -0.66908002067E+02 -0.22181459893E+03  0.23286921687E+03  0.00000000000E+00 0. -1.
</event>
<event>
 7    1  0.2334784E-009  0.4160434E+03  0.7561462E-02  0.1038362E+00
          2   -1    0    0  501    0  0.00000000000E+00  0.00000000000E+00  0.37027069876E+04  0.37027069876E+04  0.00000000000E+00 0. -1.
         -2   -1    0    0    0  501 -0.00000000000E+00 -0.00000000000E+00 -0.56421106213E+02  0.56421106213E+02  0.00000000000E+00 0.  1.
         25    2    1    2    0    0  0.38734269208E+03 -0.11231326371E+03  0.26027971334E+04  0.26368254961E+04  0.12508856399E+03 0.  0.
          5    1    3    3  502    0  0.30558387878E+03 -0.13486133299E+03  0.19306059448E+04  0.19592921867E+04  0.41800000000E+01 0.  1.
         -5    1    3    3    0  502  0.81758813295E+02  0.22548069283E+02  0.67219118855E+03  0.67753330940E+03  0.41800000000E+01 0.  1.
        -11    1    1    2    0    0 -0.19658382889E+03  0.10418347848E+02  0.49109698598E+03  0.52908410805E+03  0.00000000000E+00 0. -1.
         11    1    1    2    0    0 -0.19075886319E+03  0.10189491586E+03  0.55239176199E+03  0.59321848966E+03  0.00000000000E+00 0.  1.
</event>
<event>
 7    1  0.2334784E-009  0.2537638E+03  0.7561462E-02  0.1110949E+00
          1   -1    0    0  501    0  0.00000000000E+00  0.00000000000E+00  0.59216023784E+03  0.59216023784E+03  0.00000000000E+00 0. -1.
         -1   -1    0    0    0  501 -0.00000000000E+00 -0.00000000000E+00 -0.19198333916E+03  0.19198333916E+03  0.00000000000E+00 0.  1.
         25    2    1    2    0    0  0.22328043009E+03  0.73258667587E+02 -0.47321920587E+02  0.27038426558E+03  0.12508918446E+03 0.  0.
          5    1    3    3  502    0  0.17550321588E+03 -0.17270148193E-02 -0.50791423514E+02  0.18275289297E+03  0.41800000000E+01 0.  1.
         -5    1    3    3    0  502  0.47777214205E+02  0.73260394601E+02  0.34695029278E+01  0.87631372606E+02  0.41800000000E+01 0.  1.
        -11    1    1    2    0    0 -0.11371001862E+03 -0.20369126396E+01  0.14531486866E+03  0.18452785264E+03  0.00000000000E+00 0.  1.
         11    1    1    2    0    0 -0.10957041147E+03 -0.71221754947E+02  0.30218395061E+03  0.32923145879E+03  0.00000000000E+00 0. -1.
</event>
<event>
 7    1  0.2334784E-009  0.6752799E+02  0.7561462E-02  0.1368707E+00
          1   -1    0    0  501    0  0.00000000000E+00  0.00000000000E+00  0.21903450883E+02  0.21903450883E+02  0.00000000000E+00 0. -1.
         -1   -1    0    0    0  501 -0.00000000000E+00 -0.00000000000E+00 -0.58701964761E+03  0.58701964761E+03  0.00000000000E+00 0.  1.
         25    2    1    2    0    0  0.55872534837E+00 -0.10297584332E+02 -0.41962952416E+03  0.43799810585E+03  0.12508817194E+03 0.  0.
          5    1    3    3  502    0 -0.43669067710E+01  0.35545598054E+02 -0.36330003489E+03  0.36508484927E+03  0.41800000000E+01 0.  1.
         -5    1    3    3    0  502  0.49256321194E+01 -0.45843182385E+02 -0.56329489278E+02  0.72913256582E+02  0.41800000000E+01 0.  1.
        -11    1    1    2    0    0  0.10675323898E+02  0.28991289630E+02 -0.14587633815E+03  0.14911191585E+03  0.00000000000E+00 0.  1.
         11    1    1    2    0    0 -0.11234049247E+02 -0.18693705298E+02  0.38966558716E+00  0.21813076801E+02  0.00000000000E+00 0. -1.
</event>
<event>
 7    1  0.2334784E-009  0.1448029E+03  0.7561462E-02  0.1207009E+00
          2   -1    0    0  501    0  0.00000000000E+00  0.00000000000E+00  0.74119288355E+03  0.74119288355E+03  0.00000000000E+00 0.  1.
         -2   -1    0    0    0  501 -0.00000000000E+00 -0.00000000000E+00 -0.33322706934E+02  0.33322706934E+02  0.00000000000E+00 0. -1.
         25    2    1    2    0    0  0.45007065164E+02 -0.98182903594E+02  0.45796142331E+03  0.48686880718E+03  0.12508817569E+03 0.  0.
          5    1    3    3  502    0 -0.25950985343E+02 -0.66133129859E+02  0.11567100836E+03  0.13580979007E+03  0.41800000000E+01 0.  1.
         -5    1    3    3    0  502  0.70958050507E+02 -0.32049773735E+02  0.34229041495E+03  0.35105901711E+03  0.41800000000E+01 0.  1.
        -11    1    1    2    0    0  0.27720875055E+02  0.26358525611E+02  0.90867401079E+02  0.98590584566E+02  0.00000000000E+00 0. -1.
         11    1    1    2    0    0 -0.72727940219E+02  0.71824377983E+02  0.15904135223E+03  0.18905619874E+03  0.00000000000E+00 0.  1.
</event>
<event>
 7    1  0.2334784E-009  0.1946483E+03  0.7561462E-02  0.1154334E+00
          1   -1    0    0  501    0  0.00000000000E+00  0.00000000000E+00  0.80278421552E+03  0.80278421552E+03  0.00000000000E+00 0. -1.
         -1   -1    0    0    0  501 -0.00000000000E+00 -0.00000000000E+00 -0.55064502524E+02  0.55064502524E+02  0.00000000000E+00 0.  1.
         25    2    1    2    0    0 -0.11278663974E+03 -0.13939416130E+03  0.41040351229E+03  0.46500542758E+03  0.12508975369E+03 0.  0.
          5    1    3    3  502    0 -0.27799211502E+02  0.11122737444E+02  0.14592322791E+03  0.14902205304E+03  0.41800000000E+01 0. -1.
         -5    1    3    3    0  502 -0.84987428233E+02 -0.15051689874E+03  0.26448028437E+03  0.31598337454E+03  0.41800000000E+01 0. -1.
        -11    1    1    2    0    0  0.75502326525E+02  0.53535913237E+02  0.92995334655E+02  0.13120528794E+03  0.00000000000E+00 0.  1.
         11    1    1    2    0    0  0.37284313210E+02  0.85858248059E+02  0.24432086605E+03  0.26163800251E+03  0.00000000000E+00 0. -1.
</event>
<event>
 7    1  0.2334784E-009  0.1147912E+03  0.7561462E-02  0.1251946E+00
          1   -1    0    0  501    0  0.00000000000E+00  0.00000000000E+00  0.36485436936E+03  0.36485436936E+03  0.00000000000E+00 0. -1.
         -1   -1    0    0    0  501 -0.00000000000E+00 -0.00000000000E+00 -0.52852073820E+02  0.52852073820E+02  0.00000000000E+00 0.  1.
         25    2    1    2    0    0 -0.37826067934E+02  0.64402811640E+02  0.10487125455E+03  0.17951128804E+03  0.12509112256E+03 0.  0.
          5    1    3    3  502    0  0.95646540473E+01  0.73941434632E+02  0.13258560794E+02  0.75842469612E+02  0.41800000000E+01 0.  1.
         -5    1    3    3    0  502 -0.47390721981E+02 -0.95386229925E+01  0.91612693752E+02  0.10366881843E+03  0.41800000000E+01 0.  1.
        -11    1    1    2    0    0  0.35189612308E+02  0.62022474075E+01  0.27254164584E+02  0.44939583604E+02  0.00000000000E+00 0.  1.
         11    1    1    2    0    0  0.26364556261E+01 -0.70605059048E+02  0.17987687641E+03  0.19325557154E+03  0.00000000000E+00 0. -1.
</event>
<event>
 7    1  0.2334784E-009  0.1123652E+03  0.7561462E-02  0.1256251E+00
         -1   -1    0    0    0  501 -0.00000000000E+00  0.00000000000E+00  0.61250510585E+02  0.61250510585E+02  0.00000000000E+00 0.  1.
          1   -1    0    0  501    0  0.00000000000E+00 -0.00000000000E+00 -0.29025602149E+03  0.29025602149E+03  0.00000000000E+00 0. -1.
         25    2    1    2    0    0  0.67509308584E+02  0.38298170295E+02 -0.15091793799E+03  0.21082746263E+03  0.12509092053E+03 0.  0.
          5    1    3    3  502    0  0.38485382085E+02 -0.29994212373E+02 -0.12131619126E+03  0.13082762732E+03  0.41800000000E+01 0. -1.
         -5    1    3    3    0  502  0.29023926499E+02  0.68292382667E+02 -0.29601746731E+02  0.79999835308E+02  0.41800000000E+01 0. -1.
        -11    1    1    2    0    0 -0.74274704873E+02 -0.48852409762E+02 -0.34559399424E+02  0.95381559078E+02  0.00000000000E+00 0.  1.
         11    1    1    2    0    0  0.67653962897E+01  0.10554239467E+02 -0.43528173497E+02  0.45297510370E+02  0.00000000000E+00 0. -1.
</event>
<event>
 7    1  0.2334784E-009  0.8513813E+02  0.7561462E-02  0.1315072E+00
          1   -1    0    0  501    0  0.00000000000E+00  0.00000000000E+00  0.15025142185E+03  0.15025142185E+03  0.00000000000E+00 0. -1.
         -1   -1    0    0    0  501 -0.00000000000E+00 -0.00000000000E+00 -0.87553154860E+02  0.87553154860E+02  0.00000000000E+00 0.  1.
         25    2    1    2    0    0 -0.45095021329E+01 -0.25356372657E+02  0.38016691709E+02  0.13324921717E+03  0.12508718474E+03 0.  0.
          5    1    3    3  502    0 -0.57001453077E+01  0.21666986502E+02  0.71705576454E+02  0.75240361876E+02  0.41800000000E+01 0.  1.
         -5    1    3    3    0  502  0.11906431748E+01 -0.47023359159E+02 -0.33688884745E+02  0.58008855299E+02  0.41800000000E+01 0.  1.
        -11    1    1    2    0    0 -0.36577689107E+01 -0.37096797907E+02  0.17442715874E+02  0.41155801844E+02  0.00000000000E+00 0.  1.
         11    1    1    2    0    0  0.81672710436E+01  0.62453170564E+02  0.72388594055E+01  0.63399557690E+02  0.00000000000E+00 0. -1.
</event>
<event>
 7    1  0.2334784E-009  0.1993943E+03  0.7561462E-02  0.1150251E+00
         -2   -1    0    0    0  501 -0.00000000000E+00  0.00000000000E+00  0.19567388186E+03  0.19567388186E+03  0.00000000000E+00 0.  1.
          2   -1    0    0  501    0  0.00000000000E+00 -0.00000000000E+00 -0.22556681478E+03  0.22556681478E+03  0.00000000000E+00 0. -1.
         25    2    1    2    0    0 -0.17115802034E+03 -0.49170937507E+02 -0.34878247332E+02  0.22040134805E+03  0.12508962013E+03 0.  0.
          5    1    3    3  502    0 -0.15196449441E+03  0.12852244901E+02 -0.24630832294E+02  0.15453976207E+03  0.41800000000E+01 0. -1.
         -5    1    3    3    0  502 -0.19193525930E+02 -0.62023182408E+02 -0.10247415038E+02  0.65861585986E+02  0.41800000000E+01 0. -1.
        -11    1    1    2    0    0  0.14702771865E+03  0.29329387592E+02  0.38737716122E+02  0.15484822788E+03  0.00000000000E+00 0.  1.
         11    1    1    2    0    0  0.24130301695E+02  0.19841549915E+02 -0.33752401706E+02  0.45991120707E+02  0.00000000000E+00 0. -1.
</event>
<event>
 7    1  0.2334784E-009  0.1137487E+03  0.7561462E-02  0.1253781E+00
         -1   -1    0    0    0  501 -0.00000000000E+00  0.00000000000E+00  0.27082273308E+02  0.27082273308E+02  0.00000000000E+00 0. -1.
          1   -1    0    0  501    0  0.00000000000E+00 -0.00000000000E+00 -0.76744159494E+03  0.76744159494E+03  0.00000000000E+00 0.  1.
         25    2    1    2    0    0 -0.38284395136E+02 -0.47606566948E+02 -0.60472720402E+03  0.62054420464E+03  0.12509212006E+03 0.  0.
          5    1    3    3  502    0  0.37241210457E+01 -0.83460325935E+02 -0.34830975411E+03  0.35821313808E+03  0.41800000000E+01 0. -1.
         -5    1    3    3    0  502 -0.42008516181E+02  0.35853758987E+02 -0.25641744991E+03  0.26233106657E+03  0.41800000000E+01 0. -1.
        -11    1    1    2    0    0  0.44617820541E+02  0.44444479259E+01 -0.11921506823E+03  0.12736850285E+03  0.00000000000E+00 0.  1.
         11    1    1    2    0    0 -0.63334254052E+01  0.43162119022E+02 -0.16417049378E+02  0.46611160746E+02  0.00000000000E+00 0. -1.
</event>
<event>
 7    1  0.2334784E-009  0.1172849E+03  0.7561462E-02  0.1247644E+00
          2   -1    0    0  501    0  0.00000000000E+00  0.00000000000E+00  0.73930109723E+03  0.73930109723E+03  0.00000000000E+00 0. -1.
         -2   -1    0    0    0  501 -0.00000000000E+00 -0.00000000000E+00 -0.20761531478E+02  0.20761531478E+02  0.00000000000E+00 0.  1.
         25    2    1    2    0    0  0.97366783514E+01  0.56798543234E+02  0.34172718679E+03  0.36843854525E+03  0.12509442041E+03 0.  0.
          5    1    3    3  502    0 -0.51150073681E+01 -0.39385044140E+02  0.11220615904E+03  0.11910096360E+03  0.41800000000E+01 0. -1.
         -5    1    3    3    0  502  0.14851685719E+02  0.96183587374E+02  0.22952102774E+03  0.24933758166E+03  0.41800000000E+01 0. -1.
        -11    1    1    2    0    0  0.14513469215E+02  0.15339052437E+02  0.30818822617E+02  0.37359431819E+02  0.00000000000E+00 0.  1.
         11    1    1    2    0    0 -0.24250147566E+02 -0.72137595671E+02  0.34599355634E+03  0.35426465163E+03  0.00000000000E+00 0. -1.
</event>
<event>
 7    1  0.2334784E-009  0.7731017E+02  0.7561462E-02  0.1336863E+00
          1   -1    0    0  501    0  0.00000000000E+00  0.00000000000E+00  0.30871486834E+03  0.30871486834E+03  0.00000000000E+00 0. -1.
         -1   -1    0    0    0  501 -0.00000000000E+00 -0.00000000000E+00 -0.46422498465E+02  0.46422498465E+02  0.00000000000E+00 0.  1.
         25    2    1    2    0    0 -0.29509125077E+02 -0.33294069745E+02  0.18672417833E+03  0.22911330526E+03  0.12509078436E+03 0.  0.
          5    1    3    3  502    0  0.15877559731E+02 -0.16897374299E+02  0.17841929397E+03  0.17996815002E+03  0.41800000000E+01 0.  1.
         -5    1    3    3    0  502 -0.45386684808E+02 -0.16396695445E+02  0.83048843641E+01  0.49145155242E+02  0.41800000000E+01 0.  1.
        -11    1    1    2    0    0  0.39400958479E+02  0.49724944315E+02  0.83839047497E+02  0.10513796413E+03  0.00000000000E+00 0. -1.
         11    1    1    2    0    0 -0.98918334012E+01 -0.16430874570E+02 -0.82708559507E+01  0.20886097418E+02  0.00000000000E+00 0.  1.
</event>
<event>
 7    1  0.2334784E-009  0.1065591E+03  0.7561462E-02  0.1267078E+00
          1   -1    0    0  501    0  0.00000000000E+00  0.00000000000E+00  0.14524270013E+03  0.14524270013E+03  0.00000000000E+00 0.  1.
         -1   -1    0    0    0  501 -0.00000000000E+00 -0.00000000000E+00 -0.14975762691E+03  0.14975762691E+03  0.00000000000E+00 0. -1.
         25    2    1    2    0    0 -0.56566596335E+02  0.34905737632E+02 -0.78226601694E+02  0.16182395705E+03  0.12509756801E+03 0.  0.
          5    1    3    3  502    0 -0.54540985436E+02 -0.34397630935E+02 -0.11743996427E+02  0.65675794311E+02  0.41800000000E+01 0.  1.
         -5    1    3    3    0  502 -0.20256108993E+01  0.69303368567E+02 -0.66482605267E+02  0.96148162735E+02  0.41800000000E+01 0.  1.
        -11    1    1    2    0    0  0.47232025805E+02 -0.47448820728E+01 -0.56120520947E+01  0.47800348286E+02  0.00000000000E+00 0. -1.
         11    1    1    2    0    0  0.93345705304E+01 -0.30160855559E+02  0.79323727014E+02  0.85376021707E+02  0.00000000000E+00 0.  1.
</event>
<event>
 7    1  0.2334784E-009  0.1025594E+03  0.7561462E-02  0.1275004E+00
         -1   -1    0    0    0  501 -0.00000000000E+00  0.00000000000E+00  0.38246731056E+02  0.38246731056E+02  0.00000000000E+00 0.  1.
          1   -1    0    0  501    0  0.00000000000E+00 -0.00000000000E+00 -0.35209957135E+03  0.35209957135E+03  0.00000000000E+00 0. -1.
         25    2    1    2    0    0  0.17389017003E+02 -0.13975809968E+02 -0.12128926833E+03  0.17566091972E+03  0.12509184997E+03 0.  0.
          5    1    3    3  502    0  0.53816260051E+02 -0.38422616134E+02 -0.26934634736E+02  0.71522263840E+02  0.41800000000E+01 0.  1.
         -5    1    3    3    0  502 -0.36427243048E+02  0.24446806166E+02 -0.94354633590E+02  0.10413865588E+03  0.41800000000E+01 0.  1.
        -11    1    1    2    0    0  0.35913563157E+02  0.20073722587E+02 -0.78194673726E+02  0.88358052017E+02  0.00000000000E+00 0.  1.
         11    1    1    2    0    0 -0.53302580160E+02 -0.60979126187E+01 -0.11436889824E+03  0.12632733067E+03  0.00000000000E+00 0. -1.
</event>
<event>
 7    1  0.2334784E-009  0.8074817E+02  0.7561462E-02  0.1326942E+00
          3   -1    0    0  501    0  0.00000000000E+00  0.00000000000E+00  0.75568796113E+02  0.75568796113E+02  0.00000000000E+00 0. -1.
         -3   -1    0    0    0  501 -0.00000000000E+00 -0.00000000000E+00 -0.17053496421E+03  0.17053496421E+03  0.00000000000E+00 0.  1.
         25    2    1    2    0    0 -0.47780767561E+01 -0.12174795548E+02 -0.90266650421E+02  0.15480104557E+03  0.12507693579E+03 0.  0.
          5    1    3    3  502    0 -0.26146617067E+01  0.45565548535E+02 -0.85077817622E+02  0.96637276040E+02  0.41800000000E+01 0. -1.
         -5    1    3    3    0  502 -0.21634150494E+01 -0.57740344084E+02 -0.51888327990E+01  0.58163769525E+02  0.41800000000E+01 0. -1.
        -11    1    1    2    0    0 -0.70661113091E+01  0.33014713063E+02 -0.37640147396E+02  0.50563642112E+02  0.00000000000E+00 0.  1.
         11    1    1    2    0    0  0.11844188065E+02 -0.20839917515E+02  0.32940629725E+02  0.40739072641E+02  0.00000000000E+00 0. -1.
</event>
<event>
 7    1  0.2334784E-009  0.1016702E+03  0.7561462E-02  0.1276822E+00
          1   -1    0    0  501    0  0.00000000000E+00  0.00000000000E+00  0.92422485928E+02  0.92422485928E+02  0.00000000000E+00 0. -1.
         -1   -1    0    0    0  501 -0.00000000000E+00 -0.00000000000E+00 -0.18177959771E+03  0.18177959771E+03  0.00000000000E+00 0.  1.
         25    2    1    2    0    0  0.65668797259E+01 -0.63392400762E+02 -0.78300687885E+02  0.16074680759E+03  0.12508724173E+03 0.  0.
          5    1    3    3  502    0 -0.21296279076E+02  0.30057982725E+02 -0.24882773580E+01  0.37157472360E+02  0.41800000000E+01 0.  1.
         -5    1    3    3    0  502  0.27863158802E+02 -0.93450383487E+02 -0.75812410527E+02  0.12358933523E+03  0.41800000000E+01 0.  1.
        -11    1    1    2    0    0  0.83664269283E+01  0.40310314916E+02  0.38767871351E+02  0.56549681142E+02  0.00000000000E+00 0. -1.
         11    1    1    2    0    0 -0.14933306654E+02  0.23082085847E+02 -0.49824295252E+02  0.56905594910E+02  0.00000000000E+00 0.  1.
</event>
<event>
 7    1  0.2334784E-009  0.1143785E+03  0.7561462E-02  0.1252670E+00
         -1   -1    0    0    0  501 -0.00000000000E+00  0.00000000000E+00  0.13826468014E+03  0.13826468014E+03  0.00000000000E+00 0.  1.
          1   -1    0    0  501    0  0.00000000000E+00 -0.00000000000E+00 -0.20944389950E+03  0.20944389950E+03  0.00000000000E+00 0. -1.
         25    2    1    2    0    0 -0.13524497473E+02 -0.38129076345E+02 -0.13177422846E+03  0.18613971768E+03  0.12508720445E+03 0.  0.
          5    1    3    3  502    0  0.73379585223E+01 -0.72330899268E+02 -0.12588595166E+03  0.14543159852E+03  0.41800000000E+01 0. -1.
         -5    1    3    3    0  502 -0.20862455995E+02  0.34201822923E+02 -0.58882767974E+01  0.40708119154E+02  0.41800000000E+01 0. -1.
        -11    1    1    2    0    0 -0.40240527110E+02  0.46221580644E+02 -0.19898018486E+02  0.64433420513E+02  0.00000000000E+00 0. -1.
         11    1    1    2    0    0  0.53765024583E+02 -0.80925042984E+01  0.80493027587E+02  0.97135441444E+02  0.00000000000E+00 0.  1.
</event>
<event>
 7    1  0.2334784E-009  0.8777836E+02  0.7561462E-02  0.1308323E+00
         -2   -1    0    0    0  501 -0.00000000000E+00  0.00000000000E+00  0.17201753326E+02  0.17201753326E+02  0.00000000000E+00 0.  1.
          2   -1    0    0  501    0  0.00000000000E+00 -0.00000000000E+00 -0.76866333728E+03  0.76866333728E+03  0.00000000000E+00 0. -1.
         25    2    1    2    0    0 -0.32519136044E+02  0.15113710175E+02 -0.46903576830E+03  0.48675205686E+03  0.12508834667E+03 0.  0.
          5    1    3    3  502    0 -0.40937386186E+01 -0.26780024447E+02 -0.17840338158E+02  0.32705939382E+02  0.41800000000E+01 0. -1.
         -5    1    3    3    0  502 -0.28425397426E+02  0.41893734621E+02 -0.45119543014E+03  0.45404611748E+03  0.41800000000E+01 0. -1.
        -11    1    1    2    0    0  0.12858609587E+02  0.38314715708E+02 -0.14041965168E+03  0.14611995024E+03  0.00000000000E+00 0.  1.
         11    1    1    2    0    0  0.19660526457E+02 -0.53428425883E+02 -0.14200616398E+03  0.15299308350E+03  0.00000000000E+00 0. -1.
</event>
<event>
 7    1  0.2334784E-009  0.9416128E+02  0.7561462E-02  0.1293076E+00
         -2   -1    0    0    0  501 -0.00000000000E+00  0.00000000000E+00  0.25444266652E+02  0.25444266652E+02  0.00000000000E+00 0.  1.
          2   -1    0    0  501    0  0.00000000000E+00 -0.00000000000E+00 -0.60343301930E+03  0.60343301930E+03  0.00000000000E+00 0. -1.
         25    2    1    2    0    0 -0.13621490527E+02 -0.47604618679E+02 -0.25235003012E+03  0.28597177138E+03  0.12509025382E+03 0.  0.
          5    1    3    3  502    0 -0.22530771020E+02  0.20460119275E+02 -0.74663652055E+01  0.31614413373E+02  0.41800000000E+01 0.  1.
         -5    1    3    3    0  502  0.89092804933E+01 -0.68064737954E+02 -0.24488366491E+03  0.25435735801E+03  0.41800000000E+01 0.  1.
        -11    1    1    2    0    0 -0.30556794904E+02  0.15846643722E+02 -0.43013413092E+02  0.55090720978E+02  0.00000000000E+00 0.  1.
         11    1    1    2    0    0  0.44178285431E+02  0.31757974957E+02 -0.28262530943E+03  0.28781479359E+03  0.00000000000E+00 0. -1.
</event>
<event>
 7    1  0.2334784E-009  0.1911924E+03  0.7561462E-02  0.1157390E+00
          2   -1    0    0  501    0  0.00000000000E+00  0.00000000000E+00  0.48949606420E+03  0.48949606420E+03  0.00000000000E+00 0.  1.
         -2   -1    0    0    0  501 -0.00000000000E+00 -0.00000000000E+00 -0.17046048670E+03  0.17046048670E+03  0.00000000000E+00 0. -1.
         25    2    1    2    0    0 -0.14638444674E+03  0.81276661001E+02 -0.75174969709E+02  0.22211391690E+03  0.12509601968E+03 0.  0.
          5    1    3    3  502    0 -0.11782809094E+03  0.99651134469E+01 -0.83376528167E+02  0.14474764368E+03  0.41800000000E+01 0.  1.
         -5    1    3    3    0  502 -0.28556355799E+02  0.71311547554E+02  0.82015584583E+01  0.77366273221E+02  0.41800000000E+01 0.  1.
        -11    1    1    2    0    0  0.38416362784E+02 -0.68332168407E+02  0.12559497174E+03  0.14805133939E+03  0.00000000000E+00 0.  1.
         11    1    1    2    0    0  0.10796808396E+03 -0.12944492594E+02  0.26861557547E+03  0.28979129460E+03  0.00000000000E+00 0. -1.
</event>
<event>
 7    1  0.2334784E-009  0.9700072E+02  0.7561462E-02  0.1286732E+00
         -1   -1    0    0    0  501 -0.00000000000E+00  0.00000000000E+00  0.10704927771E+03  0.10704927771E+03  0.00000000000E+00 0.  1.
          1   -1    0    0  501    0  0.00000000000E+00 -0.00000000000E+00 -0.22939749963E+03  0.22939749963E+03  0.00000000000E+00 0. -1.
         25    2    1    2    0    0 -0.23607393946E+02  0.34611230467E+02  0.46450458985E+02  0.13988828394E+03  0.12512330127E+03 0.  0.
          5    1    3    3  502    0  0.38948737700E+02  0.28712039933E+02 -0.16063247750E+02  0.51155505410E+02  0.41800000000E+01 0.  1.
         -5    1    3    3    0  502 -0.62556131646E+02  0.58991905346E+01  0.62513706735E+02  0.88732778528E+02  0.41800000000E+01 0.  1.
        -11    1    1    2    0    0  0.49191848037E+02 -0.24441017505E+02 -0.48907996722E+02  0.73547218801E+02  0.00000000000E+00 0.  1.
         11    1    1    2    0    0 -0.25584454091E+02 -0.10170212962E+02 -0.11989068419E+03  0.12301127460E+03  0.00000000000E+00 0. -1.
</event>
<event>
 7    1  0.2334784E-009  0.2264790E+03  0.7561462E-02  0.1129143E+00
         -2   -1    0    0    0  501 -0.00000000000E+00  0.00000000000E+00  0.53002317908E+02  0.53002317908E+02  0.00000000000E+00 0.  1.
          2   -1    0    0  501    0  0.00000000000E+00 -0.00000000000E+00 -0.14976288414E+04  0.14976288414E+04  0.00000000000E+00 0. -1.
         25    2    1    2    0    0 -0.35651100214E+02 -0.20388228109E+03 -0.31033543810E+03  0.39344612443E+03  0.12511108342E+03 0.  0.
          5    1    3    3  502    0  0.27103005399E+02 -0.10486338547E+03 -0.22047822814E+03  0.24568073591E+03  0.41800000000E+01 0.  1.
         -5    1    3    3    0  502 -0.62754105614E+02 -0.99018895623E+02 -0.89857209968E+02  0.14776538852E+03  0.41800000000E+01 0.  1.
        -11    1    1    2    0    0  0.51780620907E+02  0.48180855621E+02 -0.28958581636E+03  0.29809825996E+03  0.00000000000E+00 0.  1.
         11    1    1    2    0    0 -0.16129520693E+02  0.15570142547E+03 -0.84470526902E+03  0.85908677492E+03  0.00000000000E+00 0. -1.
</event>
<event>
 7    1  0.2334784E-009  0.1372563E+03  0.7561462E-02  0.1217069E+00
          3   -1    0    0  501    0  0.00000000000E+00  0.00000000000E+00  0.17624422025E+03  0.17624422025E+03  0.00000000000E+00 0.  1.
         -3   -1    0    0    0  501 -0.00000000000E+00 -0.00000000000E+00 -0.12479089421E+03  0.12479089421E+03  0.00000000000E+00 0. -1.
         25    2    1    2    0    0  0.85900011455E+02 -0.46782638967E+02  0.52354358441E+02  0.16719774623E+03  0.12508669082E+03 0.  0.
          5    1    3    3  502    0  0.49047226280E+02  0.34501466368E+02 -0.61123775609E+01  0.60421975694E+02  0.41800000000E+01 0.  1.
         -5    1    3    3    0  502  0.36852785175E+02 -0.81284105334E+02  0.58466736002E+02  0.10677577054E+03  0.41800000000E+01 0.  1.
        -11    1    1    2    0    0 -0.89896862528E+02  0.12760027362E+02  0.20978306455E+02  0.93189878916E+02  0.00000000000E+00 0.  1.
         11    1    1    2    0    0  0.39968510730E+01  0.34022611605E+02 -0.21879338853E+02  0.40647489314E+02  0.00000000000E+00 0. -1.
</event>
<event>
 7    1  0.2334784E-009  0.1828691E+03  0.7561462E-02  0.1165055E+00
          2   -1    0    0  501    0  0.00000000000E+00  0.00000000000E+00  0.12293992475E+03  0.12293992475E+03  0.00000000000E+00 0.  1.
         -2   -1    0    0    0  501 -0.00000000000E+00 -0.00000000000E+00 -0.45145929666E+03  0.45145929666E+03  0.00000000000E+00 0. -1.
         25    2    1    2    0    0  0.71356085893E+02  0.15681918341E+03 -0.26020614152E+02  0.21449844695E+03  0.12509422091E+03 0.  0.
          5    1    3    3  502    0  0.83838838143E+02  0.93425355358E+02 -0.62386608038E+02  0.14023840083E+03  0.41800000000E+01 0. -1.
         -5    1    3    3    0  502 -0.12482752250E+02  0.63393828050E+02  0.36365993887E+02  0.74260046121E+02  0.41800000000E+01 0. -1.
        -11    1    1    2    0    0 -0.25674549596E+02 -0.24803424203E+02 -0.12177409631E+02  0.37718452440E+02  0.00000000000E+00 0.  1.
         11    1    1    2    0    0 -0.45681536297E+02 -0.13201575921E+03 -0.29032134813E+03  0.32218232201E+03  0.00000000000E+00 0. -1.
</event>
<event>
 7    1  0.2334784E-009  0.7791289E+02  0.7561462E-02  0.1335081E+00
          1   -1    0    0  501    0  0.00000000000E+00  0.00000000000E+00  0.86846797845E+03  0.86846797845E+03  0.00000000000E+00 0. -1.
         -1   -1    0    0    0  501 -0.00000000000E+00 -0.00000000000E+00 -0.13544606378E+02  0.13544606378E+02  0.00000000000E+00 0.  1.
         25    2    1    2    0    0 -0.21113585615E+02  0.32198161251E+02  0.53372549036E+03  0.54953907493E+03  0.12509112969E+03 0.  0.
          5    1    3    3  502    0 -0.18718857772E+02  0.51432277903E+02  0.52502372293E+03  0.52788545811E+03  0.41800000000E+01 0. -1.
         -5    1    3    3    0  502 -0.23947278434E+01 -0.19234116652E+02  0.87017674316E+01  0.21653616817E+02  0.41800000000E+01 0. -1.
        -11    1    1    2    0    0 -0.71410612875E+01 -0.48137906591E+02  0.13574365873E+03  0.14420330681E+03  0.00000000000E+00 0.  1.
         11    1    1    2    0    0  0.28254646903E+02  0.15939745340E+02  0.18545422298E+03  0.18827020310E+03  0.00000000000E+00 0. -1.
</event>
<event>
 7    1  0.2334784E-009  0.1207353E+03  0.7561462E-02  0.1241889E+00
         -1   -1    0    0    0  501 -0.00000000000E+00  0.00000000000E+00  0.21741935562E+03  0.21741935562E+03  0.00000000000E+00 0.  1.
          1   -1    0    0  501    0  0.00000000000E+00 -0.00000000000E+00 -0.10540832520E+03  0.10540832520E+03  0.00000000000E+00 0. -1.
         25    2    1    2    0    0  0.29782678265E+02 -0.76817885047E+02 -0.10080878145E+02  0.15012628163E+03  0.12509308912E+03 0.  0.
          5    1    3    3  502    0  0.56640001756E+02  0.11240533554E+01 -0.31354097094E+02  0.64883781483E+02  0.41800000000E+01 0. -1.
         -5    1    3    3    0  502 -0.26857323491E+02 -0.77941938402E+02  0.21273218950E+02  0.85242500148E+02  0.41800000000E+01 0. -1.
        -11    1    1    2    0    0  0.96018245439E+01 -0.53566723427E+01  0.63319756801E+02  0.64267258962E+02  0.00000000000E+00 0.  1.
         11    1    1    2    0    0 -0.39384502809E+02  0.82174557390E+02  0.58772151763E+02  0.10843414023E+03  0.00000000000E+00 0. -1.
</event>
<event>
 6    1  0.2334784E-009  0.1155733E+03  0.7561462E-02  0.1250584E+00
          1   -1    0    0  501    0  0.00000000000E+00  0.00000000000E+00  0.16446121087E+04  0.16446121087E+04  0.00000000000E+00 0. -1.
         -1   -1    0    0    0  501 -0.00000000000E+00 -0.00000000000E+00 -0.33144364227E+02  0.33144364227E+02  0.00000000000E+00 0.  1.
          5    1    1    2  502    0  0.90419808959E+02 -0.33532177617E+02  0.67936383008E+03  0.68618717185E+03  0.41800000000E+01 0.  1.
         -5    1    1    2    0  502 -0.22448165329E+02 -0.50496460238E+01  0.84029318291E+03  0.84061853697E+03  0.41800000000E+01 0.  1.
        -11    1    1    2    0    0 -0.33449321818E+02 -0.23028559230E+02  0.80672812172E+01  0.41403534832E+02  0.00000000000E+00 0.  1.
         11    1    1    2    0    0 -0.34522321811E+02  0.61610382871E+02  0.83743450282E+02  0.10954722929E+03  0.00000000000E+00 0. -1.
</event>
<event>
 7    1  0.2334784E-009  0.2430711E+03  0.7561462E-02  0.1117764E+00
          1   -1    0    0  501    0  0.00000000000E+00  0.00000000000E+00  0.27671272346E+04  0.27671272346E+04  0.00000000000E+00 0. -1.
         -1   -1    0    0    0  501 -0.00000000000E+00 -0.00000000000E+00 -0.23209731338E+02  0.23209731338E+02  0.00000000000E+00 0.  1.
         25    2    1    2    0    0 -0.56354637683E+02  0.21033911774E+03  0.17977876280E+04  0.18152426058E+04  0.12508786201E+03 0.  0.
          5    1    3    3  502    0 -0.85989396584E+02  0.20143598966E+03  0.15197001799E+04  0.15354076799E+04  0.41800000000E+01 0. -1.
         -5    1    3    3    0  502  0.29634758901E+02  0.89031280807E+01  0.27808744806E+03  0.27983492597E+03  0.41800000000E+01 0. -1.
        -11    1    1    2    0    0  0.80213906652E+02 -0.13725027856E+03  0.62916072000E+03  0.64893383436E+03  0.00000000000E+00 0.  1.
         11    1    1    2    0    0 -0.23859268969E+02 -0.73088839182E+02  0.31696915528E+03  0.32616052570E+03  0.00000000000E+00 0. -1.
</event>
<event>
 7    1  0.2334784E-009  0.9715954E+02  0.7561462E-02  0.1286385E+00
         -2   -1    0    0    0  501 -0.00000000000E+00  0.00000000000E+00  0.18058543879E+03  0.18058543879E+03  0.00000000000E+00 0.  1.
          2   -1    0    0  501    0  0.00000000000E+00 -0.00000000000E+00 -0.73020387597E+02  0.73020387597E+02  0.00000000000E+00 0. -1.
         25    2    1    2    0    0 -0.23615820020E+02 -0.13928658356E+02  0.85779943306E+02  0.15413321511E+03  0.12508850805E+03 0.  0.
          5    1    3    3  502    0 -0.31997202616E+02  0.50098332497E+02  0.59745155410E+02  0.84383765555E+02  0.41800000000E+01 0. -1.
         -5    1    3    3    0  502  0.83813825958E+01 -0.64026990853E+02  0.26034787896E+02  0.69749449551E+02  0.41800000000E+01 0. -1.
        -11    1    1    2    0    0  0.31594892568E+02 -0.18507288655E+02 -0.23270744865E+02  0.43385303229E+02  0.00000000000E+00 0. -1.
         11    1    1    2    0    0 -0.79790725476E+01  0.32435947011E+02  0.45055852751E+02  0.56087308050E+02  0.00000000000E+00 0.  1.
</event>
<event>
 7    1  0.2334784E-009  0.2197355E+03  0.7561462E-02  0.1134080E+00
         -3   -1    0    0    0  501 -0.00000000000E+00  0.00000000000E+00  0.70891586748E+03  0.70891586748E+03  0.00000000000E+00 0.  1.
          3   -1    0    0  501    0  0.00000000000E+00 -0.00000000000E+00 -0.69816186062E+02  0.69816186062E+02  0.00000000000E+00 0. -1.
         25    2    1    2    0    0  0.17466325955E+03 -0.80995612163E+02  0.29826909838E+03  0.37640325207E+03  0.12508960667E+03 0.  0.
          5    1    3    3  502    0  0.17655091971E+03 -0.30930794618E+02  0.23561290855E+03  0.29607069491E+03  0.41800000000E+01 0.  1.
         -5    1    3    3    0  502 -0.18876601643E+01 -0.50064817545E+02  0.62656189830E+02  0.80332557166E+02  0.41800000000E+01 0.  1.
        -11    1    1    2    0    0 -0.16010240369E+03  0.38051095471E+02  0.29537242246E+03  0.33812059016E+03  0.00000000000E+00 0. -1.
         11    1    1    2    0    0 -0.14560855857E+02  0.42944516692E+02  0.45458160574E+02  0.64208211313E+02  0.00000000000E+00 0.  1.
</event>
<event>
 7    1  0.2334784E-009  0.1227835E+03  0.7561462E-02  0.1238575E+00
          2   -1    0    0  501    0  0.00000000000E+00  0.00000000000E+00  0.14221518321E+03  0.14221518321E+03  0.00000000000E+00 0. -1.
         -2   -1    0    0    0  501 -0.00000000000E+00 -0.00000000000E+00 -0.15488839500E+03  0.15488839500E+03  0.00000000000E+00 0.  1.
         25    2    1    2    0    0 -0.96000936475E+02  0.10665346660E+02 -0.37243569110E+02  0.16235982780E+03  0.12507478091E+03 0.  0.
          5    1    3    3  502    0 -0.93461783319E+02 -0.32383464949E+02 -0.57548090097E+02  0.11451222126E+03  0.41800000000E+01 0.  1.
         -5    1    3    3    0  502 -0.25391531561E+01  0.43048811609E+02  0.20304520987E+02  0.47847606547E+02  0.41800000000E+01 0.  1.
        -11    1    1    2    0    0  0.10791681880E+02  0.10905724297E+02  0.42370022671E+02  0.45062335063E+02  0.00000000000E+00 0. -1.
         11    1    1    2    0    0  0.85209254595E+02 -0.21571070958E+02 -0.17799665344E+02  0.89681415339E+02  0.00000000000E+00 0.  1.
</event>
<event>
 7    1  0.2334784E-009  0.1232167E+03  0.7561462E-02  0.1237883E+00
         -1   -1    0    0    0  501 -0.00000000000E+00  0.00000000000E+00  0.49586899617E+03  0.49586899617E+03  0.00000000000E+00 0.  1.
          1   -1    0    0  501    0  0.00000000000E+00 -0.00000000000E+00 -0.52341121389E+02  0.52341121389E+02  0.00000000000E+00 0. -1.
         25    2    1    2    0    0  0.11063156415E+03  0.39541686751E+02  0.27069711720E+03  0.32050964068E+03  0.12508642026E+03 0.  0.
          5    1    3    3  502    0  0.44724092323E+02 -0.10354432435E+02  0.21701176060E+03  0.22185363496E+03  0.41800000000E+01 0. -1.
         -5    1    3    3    0  502  0.65907471823E+02  0.49896119186E+02  0.53685356599E+02  0.98656005722E+02  0.41800000000E+01 0. -1.
        -11    1    1    2    0    0 -0.49620013673E+02 -0.20038493329E+02  0.12365517994E+02  0.54923519616E+02  0.00000000000E+00 0. -1.
         11    1    1    2    0    0 -0.61011550474E+02 -0.19503193422E+02  0.16046523958E+03  0.17277695726E+03  0.00000000000E+00 0.  1.
</event>
<event>
 7    1  0.2334784E-009  0.9397900E+02  0.7561462E-02  0.1293492E+00
         -1   -1    0    0    0  501 -0.00000000000E+00  0.00000000000E+00  0.29724134602E+02  0.29724134602E+02  0.00000000000E+00 0.  1.
          1   -1    0    0  501    0  0.00000000000E+00 -0.00000000000E+00 -0.58344002096E+03  0.58344002096E+03  0.00000000000E+00 0. -1.
         25    2    1    2    0    0 -0.81060110049E+02 -0.32242157023E+02 -0.39072061828E+03  0.41942869330E+03  0.12509008386E+03 0.  0.
          5    1    3    3  502    0 -0.76082886510E+02 -0.15443498991E+02 -0.93231509150E+02  0.12139478563E+03  0.41800000000E+01 0. -1.
         -5    1    3    3    0  502 -0.49772235397E+01 -0.16798658032E+02 -0.29748910913E+03  0.29803390767E+03  0.41800000000E+01 0. -1.
        -11    1    1    2    0    0  0.43256616778E+02  0.11832175950E+01 -0.12348668828E+03  0.13084913864E+03  0.00000000000E+00 0. -1.
         11    1    1    2    0    0  0.37803493271E+02  0.31058939428E+02 -0.39508579789E+02  0.62886323623E+02  0.00000000000E+00 0.  1.
</event>
<event>
 7    1  0.2334784E-009  0.1068500E+03  0.7561462E-02  0.1266517E+00
          1   -1    0    0  501    0  0.00000000000E+00  0.00000000000E+00  0.20405623966E+03  0.20405623966E+03  0.00000000000E+00 0. -1.
         -1   -1    0    0    0  501 -0.00000000000E+00 -0.00000000000E+00 -0.10392837021E+03  0.10392837021E+03  0.00000000000E+00 0.  1.
         25    2    1    2    0    0 -0.29024912024E+01  0.68993327835E+02  0.11228830082E+03  0.18172509326E+03  0.12508734260E+03 0.  0.
          5    1    3    3  502    0 -0.62578639228E+02  0.49302590147E+02  0.58949672084E+02  0.99193587099E+02  0.41800000000E+01 0.  1.
         -5    1    3    3    0  502  0.59676148025E+02  0.19690737688E+02  0.53338628739E+02  0.82531506163E+02  0.41800000000E+01 0.  1.
        -11    1    1    2    0    0 -0.66464775073E+01 -0.21659080647E+02  0.45633335865E+02  0.50947941861E+02  0.00000000000E+00 0. -1.
         11    1    1    2    0    0  0.95489687097E+01 -0.47334247188E+02 -0.57793767236E+02  0.75311574752E+02  0.00000000000E+00 0.  1.
</event>
<event>
 7    1  0.2334784E-009  0.9217845E+02  0.7561462E-02  0.1297660E+00
         -1   -1    0    0    0  501 -0.00000000000E+00  0.00000000000E+00  0.15441422056E+03  0.15441422056E+03  0.00000000000E+00 0.  1.
          1   -1    0    0  501    0  0.00000000000E+00 -0.00000000000E+00 -0.82161776946E+02  0.82161776946E+02  0.00000000000E+00 0. -1.
         25    2    1    2    0    0 -0.16109948613E+02 -0.18071517732E+02  0.24265481383E+02  0.12970154477E+03  0.12509023516E+03 0.  0.
          5    1    3    3  502    0 -0.13351949632E+02 -0.65354956081E+02  0.42019487701E+02  0.78947163280E+02  0.41800000000E+01 0.  1.
         -5    1    3    3    0  502 -0.27579989815E+01  0.47283438349E+02 -0.17754006318E+02  0.50754381494E+02  0.41800000000E+01 0.  1.
        -11    1    1    2    0    0  0.45077077409E+01 -0.24981177229E+02 -0.15163722898E+02  0.29568854170E+02  0.00000000000E+00 0. -1.
         11    1    1    2    0    0  0.11602240872E+02  0.43052694961E+02  0.63150685125E+02  0.77305598557E+02  0.00000000000E+00 0.  1.
</event>
<event>
 7    1  0.2334784E-009  0.1124365E+03  0.7561462E-02  0.1256123E+00
         -1   -1    0    0    0  501 -0.00000000000E+00  0.00000000000E+00  0.73293607103E+02  0.73293607103E+02  0.00000000000E+00 0.  1.
          1   -1    0    0  501    0  0.00000000000E+00 -0.00000000000E+00 -0.29458647597E+03  0.29458647597E+03  0.00000000000E+00 0. -1.
         25    2    1    2    0    0 -0.94776155734E+02 -0.70058216015E+01 -0.82905113442E+02  0.17762937763E+03  0.12508931501E+03 0.  0.
          5    1    3    3  502    0 -0.10817994035E+03 -0.20126104865E+02 -0.10231766662E+03  0.15031412739E+03  0.41800000000E+01 0. -1.
         -5    1    3    3    0  502  0.13403784613E+02  0.13120283263E+02  0.19412553175E+02  0.27315250239E+02  0.41800000000E+01 0. -1.
        -11    1    1    2    0    0  0.35046882519E+02 -0.21554938110E+01  0.42226439539E+01  0.35366097464E+02  0.00000000000E+00 0.  1.
         11    1    1    2    0    0  0.59729273215E+02  0.91613154125E+01 -0.14261039938E+03  0.15488460798E+03  0.00000000000E+00 0. -1.
</event>
<event>
 7    1  0.2334784E-009  0.8123485E+02  0.7561462E-02  0.1325583E+00
         -2   -1    0    0    0  501 -0.00000000000E+00  0.00000000000E+00  0.82918656102E+02  0.82918656102E+02  0.00000000000E+00 0. -1.
          2   -1    0    0  501    0  0.00000000000E+00 -0.00000000000E+00 -0.33394376591E+03  0.33394376591E+03  0.00000000000E+00 0.  1.
         25    2    1    2    0    0  0.77843074970E+02  0.91323121531E+01 -0.25743673503E+03  0.29675630456E+03  0.12509072030E+03 0.  0.
          5    1    3    3  502    0  0.77571457068E+02  0.57911318480E+01 -0.27110521359E+03  0.28207512722E+03  0.41800000000E+01 0.  1.
         -5    1    3    3    0  502  0.27161790167E+00  0.33411803052E+01  0.13668478556E+02  0.14681177342E+02  0.41800000000E+01 0.  1.
        -11    1    1    2    0    0 -0.17297157610E+02  0.27406497288E+01 -0.39494103001E+02  0.43202858634E+02  0.00000000000E+00 0.  1.
         11    1    1    2    0    0 -0.60545917360E+02 -0.11872961882E+02  0.45905728226E+02  0.76903258817E+02  0.00000000000E+00 0. -1.
</event>
<event>
 7    1  0.2334784E-009  0.1937689E+03  0.7561462E-02  0.1155105E+00
         -2   -1    0    0    0  501 -0.00000000000E+00  0.00000000000E+00  0.65760681893E+02  0.65760681893E+02  0.00000000000E+00 0.  1.
          2   -1    0    0  501    0  0.00000000000E+00 -0.00000000000E+00 -0.99104608551E+03  0.99104608551E+03  0.00000000000E+00 0. -1.
         25    2    1    2    0    0 -0.17012561231E+03 -0.27254937315E+02 -0.15748772633E+03  0.26483588902E+03  0.12510039408E+03 0.  0.
          5    1    3    3  502    0  0.15058757771E+02 -0.42004683340E+01  0.54378003247E+01  0.17071970952E+02  0.41800000000E+01 0.  1.
         -5    1    3    3    0  502 -0.18518437008E+03 -0.23054468981E+02 -0.16292552665E+03  0.24776391807E+03  0.41800000000E+01 0.  1.
        -11    1    1    2    0    0  0.10415454665E+03 -0.16610616664E+02 -0.31214618754E+03  0.32948342078E+03  0.00000000000E+00 0. -1.
         11    1    1    2    0    0  0.65971065654E+02  0.43865553979E+02 -0.45565148976E+03  0.46248745761E+03  0.00000000000E+00 0.  1.
</event>
<event>
 7    1  0.2334784E-009  0.1105197E+03  0.7561462E-02  0.1259610E+00
         -2   -1    0    0    0  501 -0.00000000000E+00  0.00000000000E+00  0.25691025680E+03  0.25691025680E+03  0.00000000000E+00 0.  1.
          2   -1    0    0  501    0  0.00000000000E+00 -0.00000000000E+00 -0.67199216284E+02  0.67199216284E+02  0.00000000000E+00 0. -1.
         25    2    1    2    0    0  0.22275955486E+02  0.68835020008E+02  0.10030860184E+03  0.17590638629E+03  0.12508702156E+03 0.  0.
          5    1    3    3  502    0  0.74445856462E+02  0.43890609074E+02  0.59422183680E+02  0.10496208564E+03  0.41800000000E+01 0.  1.
         -5    1    3    3    0  502 -0.52169900977E+02  0.24944410934E+02  0.40886418160E+02  0.70944300650E+02  0.41800000000E+01 0.  1.
        -11    1    1    2    0    0 -0.97150997379E+01 -0.60927932773E+02  0.10801695935E+03  0.12439557735E+03  0.00000000000E+00 0.  1.
         11    1    1    2    0    0 -0.12560855748E+02 -0.79070872345E+01 -0.18614520681E+02  0.23807509442E+02  0.00000000000E+00 0. -1.
</event>
<event>
 7    1  0.2334784E-009  0.1261108E+03  0.7561462E-02  0.1233343E+00
         -2   -1    0    0    0  501 -0.00000000000E+00  0.00000000000E+00  0.31514136351E+02  0.31514136351E+02  0.00000000000E+00 0.  1.
          2   -1    0    0  501    0  0.00000000000E+00 -0.00000000000E+00 -0.74527802985E+03  0.74527802985E+03  0.00000000000E+00 0. -1.
         25    2    1    2    0    0 -0.49794018325E+02 -0.60579386688E+02 -0.54111131789E+03  0.56089171864E+03  0.12509498525E+03 0.  0.
          5    1    3    3  502    0  0.17413049577E+02 -0.60043694621E+02 -0.39588661449E+03  0.40081435041E+03  0.41800000000E+01 0. -1.
         -5    1    3    3    0  502 -0.67207067903E+02 -0.53569206749E+00 -0.14522470340E+03  0.16007736823E+03  0.41800000000E+01 0. -1.
        -11    1    1    2    0    0 -0.11311421633E+02  0.60061890842E+02 -0.50369212164E+02  0.79198715424E+02  0.00000000000E+00 0.  1.
         11    1    1    2    0    0  0.61105439958E+02  0.51749584642E+00 -0.12228336345E+03  0.13670173214E+03  0.00000000000E+00 0. -1.
</event>
<event>
 7    1  0.2334784E-009  0.8003473E+02  0.7561462E-02  0.1328953E+00
         -1   -1    0    0    0  501 -0.00000000000E+00  0.00000000000E+00  0.13897090933E+03  0.13897090933E+03  0.00000000000E+00 0.  1.
          1   -1    0    0  501    0  0.00000000000E+00 -0.00000000000E+00 -0.11197257315E+03  0.11197257315E+03  0.00000000000E+00 0. -1.
         25    2    1    2    0    0 -0.24125844149E+02 -0.18790120677E+02 -0.39844626915E+02  0.13479380015E+03  0.12508656711E+03 0.  0.
          5    1    3    3  502    0  0.11441282694E+02  0.16634575265E+02 -0.72092690772E+02  0.74982934769E+02  0.41800000000E+01 0. -1.
         -5    1    3    3    0  502 -0.35567126844E+02 -0.35424695942E+02  0.32248063857E+02  0.59810865376E+02  0.41800000000E+01 0. -1.
        -11    1    1    2    0    0 -0.14361547544E+02 -0.26196901498E+02  0.45659557688E+01  0.30222171465E+02  0.00000000000E+00 0. -1.
         11    1    1    2    0    0  0.38487391693E+02  0.44987022176E+02  0.62277007319E+02  0.85927510869E+02  0.00000000000E+00 0.  1.
</event>
<event>
 7    1  0.2334784E-009  0.1368611E+03  0.7561462E-02  0.1217616E+00
         -1   -1    0    0    0  501 -0.00000000000E+00  0.00000000000E+00  0.28558479321E+03  0.28558479321E+03  0.00000000000E+00 0.  1.
          1   -1    0    0  501    0  0.00000000000E+00 -0.00000000000E+00 -0.72346305413E+02  0.72346305413E+02  0.00000000000E+00 0. -1.
         25    2    1    2    0    0  0.65244346829E+02 -0.88146970900E+01  0.82858778782E+02  0.16385329221E+03  0.12509116863E+03 0.  0.
          5    1    3    3  502    0  0.94300616326E+02  0.21987100466E+02  0.69472671603E+02  0.11924748771E+03  0.41800000000E+01 0.  1.
         -5    1    3    3    0  502 -0.29056269497E+02 -0.30801797557E+02  0.13386107179E+02  0.44605804501E+02  0.41800000000E+01 0.  1.
        -11    1    1    2    0    0 -0.98776313186E+02  0.15712555909E+02  0.62187835409E+02  0.11777508791E+03  0.00000000000E+00 0. -1.
         11    1    1    2    0    0  0.33531966358E+02 -0.68978588186E+01  0.68191873607E+02  0.76302718498E+02  0.00000000000E+00 0.  1.
</event>
<event>
 7    1  0.2334784E-009  0.8517524E+02  0.7561462E-02  0.1314975E+00
          1   -1    0    0  501    0  0.00000000000E+00  0.00000000000E+00  0.15067259786E+03  0.15067259786E+03  0.00000000000E+00 0. -1.
         -1   -1    0    0    0  501 -0.00000000000E+00 -0.00000000000E+00 -0.13662018236E+03  0.13662018236E+03  0.00000000000E+00 0.  1.
         25    2    1    2    0    0  0.41572965131E+02 -0.33042841468E+02  0.64445239785E+02  0.15040542311E+03  0.12509381107E+03 0.  0.
          5    1    3    3  502    0  0.42673789366E+02 -0.37628155236E+02  0.99551323113E+02  0.11473826170E+03  0.41800000000E+01 0.  1.
         -5    1    3    3    0  502 -0.11008242353E+01  0.45853137682E+01 -0.35106083328E+02  0.35667161409E+02  0.41800000000E+01 0.  1.
        -11    1    1    2    0    0 -0.58736235495E+02 -0.10977841923E+02 -0.64158893096E+02  0.87674522735E+02  0.00000000000E+00 0.  1.
         11    1    1    2    0    0  0.17163270364E+02  0.44020683390E+02  0.13766068814E+02  0.49212834366E+02  0.00000000000E+00 0. -1.
</event>
<event>
 7    1  0.2334784E-009  0.1478796E+03  0.7561462E-02  0.1203103E+00
         -1   -1    0    0    0  501 -0.00000000000E+00  0.00000000000E+00  0.17829043341E+03  0.17829043341E+03  0.00000000000E+00 0. -1.
          1   -1    0    0  501    0  0.00000000000E+00 -0.00000000000E+00 -0.15993858781E+03  0.15993858781E+03  0.00000000000E+00 0.  1.
         25    2    1    2    0    0 -0.59224532297E+02  0.11421740648E+03  0.11927436707E+02  0.17984184416E+03  0.12509062314E+03 0.  0.
          5    1    3    3  502    0 -0.69389663520E+01  0.67850616817E+02 -0.51348926311E+02  0.85475377096E+02  0.41800000000E+01 0. -1.
         -5    1    3    3    0  502 -0.52285565946E+02  0.46366789658E+02  0.63276363019E+02  0.94366467065E+02  0.41800000000E+01 0. -1.
        -11    1    1    2    0    0  0.75461534319E+02 -0.48449311195E+02  0.11715940509E+02  0.90438057139E+02  0.00000000000E+00 0.  1.
         11    1    1    2    0    0 -0.16237002021E+02 -0.65768095280E+02 -0.52915316195E+01  0.67949119923E+02  0.00000000000E+00 0. -1.
</event>
<event>
 7    1  0.2334784E-009  0.9810230E+02  0.7561462E-02  0.1284338E+00
          3   -1    0    0  501    0  0.00000000000E+00  0.00000000000E+00  0.28016162796E+03  0.28016162796E+03  0.00000000000E+00 0. -1.
         -3   -1    0    0    0  501 -0.00000000000E+00 -0.00000000000E+00 -0.61287901527E+02  0.61287901527E+02  0.00000000000E+00 0.  1.
         25    2    1    2    0    0  0.58093962501E+02 -0.35461673136E+02  0.93786994747E+02  0.17051861557E+03  0.12509260223E+03 0.  0.
          5    1    3    3  502    0 -0.95489236158E+01 -0.55213217820E+02  0.81305996142E+02  0.98832275968E+02  0.41800000000E+01 0.  1.
         -5    1    3    3    0  502  0.67642886117E+02  0.19751544684E+02  0.12480998605E+02  0.71686339604E+02  0.41800000000E+01 0.  1.
        -11    1    1    2    0    0 -0.12856713226E+02  0.15054619036E+02  0.11934133071E+03  0.12097226891E+03  0.00000000000E+00 0. -1.
         11    1    1    2    0    0 -0.45237249276E+02  0.20407054100E+02  0.57454009824E+01  0.49958645013E+02  0.00000000000E+00 0.  1.
</event>
<event>
 7    1  0.2334784E-009  0.1284901E+03  0.7561462E-02  0.1229714E+00
          1   -1    0    0  501    0  0.00000000000E+00  0.00000000000E+00  0.27011929351E+03  0.27011929351E+03  0.00000000000E+00 0. -1.
         -1   -1    0    0    0  501 -0.00000000000E+00 -0.00000000000E+00 -0.74228629940E+02  0.74228629940E+02  0.00000000000E+00 0.  1.
         25    2    1    2    0    0 -0.60444022037E+02  0.34464400864E+02  0.17571889328E+03  0.22664121347E+03  0.12509130850E+03 0.  0.
          5    1    3    3  502    0  0.29581981205E+02  0.41128549561E+02  0.81777457888E+02  0.96289543667E+02  0.41800000000E+01 0.  1.
         -5    1    3    3    0  502 -0.90026003243E+02 -0.66641486977E+01  0.93941435390E+02  0.13035166980E+03  0.41800000000E+01 0.  1.
        -11    1    1    2    0    0  0.77708975691E+02 -0.53883339573E+00  0.10376090720E+02  0.78400500656E+02  0.00000000000E+00 0. -1.
         11    1    1    2    0    0 -0.17264953654E+02 -0.33925567468E+02  0.97956795673E+01  0.39306209317E+02  0.00000000000E+00 0.  1.
</event>
<event>
 7    1  0.2334784E-009  0.1806528E+03  0.7561462E-02  0.1167173E+00
          2   -1    0    0  501    0  0.00000000000E+00  0.00000000000E+00  0.16988956402E+04  0.16988956402E+04  0.00000000000E+00 0. -1.
         -2   -1    0    0    0  501 -0.00000000000E+00 -0.00000000000E+00 -0.21706386360E+02  0.21706386360E+02  0.00000000000E+00 0.  1.
         25    2    1    2    0    0 -0.12380258755E+03 -0.86012311911E+02  0.11009237598E+04  0.11182153647E+04  0.12508908218E+03 0.  0.
          5    1    3    3  502    0 -0.94332446823E+02  0.42223616280E+00  0.38174816073E+03  0.39325299672E+03  0.41800000000E+01 0.  1.
         -5    1    3    3    0  502 -0.29470140724E+02 -0.86434548073E+02  0.71917559909E+03  0.72496236800E+03  0.41800000000E+01 0.  1.
        -11    1    1    2    0    0  0.65821888736E+02 -0.66495054699E+01  0.21642601808E+03  0.22631163969E+03  0.00000000000E+00 0.  1.
         11    1    1    2    0    0  0.57980698811E+02  0.92661817380E+02  0.35983947594E+03  0.37607502215E+03  0.00000000000E+00 0. -1.
</event>
<event>
 7    1  0.2334784E-009  0.1146736E+03  0.7561462E-02  0.1252152E+00
         -2   -1    0    0    0  501 -0.00000000000E+00  0.00000000000E+00  0.15904094134E+03  0.15904094134E+03  0.00000000000E+00 0.  1.
          2   -1    0    0  501    0  0.00000000000E+00 -0.00000000000E+00 -0.13053309904E+03  0.13053309904E+03  0.00000000000E+00 0. -1.
         25    2    1    2    0    0  0.24197557751E+02 -0.85083270191E+02  0.43541241779E+02  0.15927256927E+03  0.12508887608E+03 0.  0.
          5    1    3    3  502    0 -0.34251303894E+02 -0.48182783999E+02  0.63842335171E+02  0.87109406223E+02  0.41800000000E+01 0. -1.
         -5    1    3    3    0  502  0.58448861645E+02 -0.36900486191E+02 -0.20301093392E+02  0.72163163051E+02  0.41800000000E+01 0. -1.
        -11    1    1    2    0    0 -0.37403854449E+02  0.44365649334E+02 -0.48768214837E+02  0.75800382234E+02  0.00000000000E+00 0. -1.
         11    1    1    2    0    0  0.13206296699E+02  0.40717620857E+02  0.33734815355E+02  0.54501088868E+02  0.00000000000E+00 0.  1.
</event>
<event>
 7    1  0.2334784E-009  0.1101439E+03  0.7561462E-02  0.1260304E+00
         -2   -1    0    0    0  501 -0.00000000000E+00  0.00000000000E+00  0.14518002624E+03  0.14518002624E+03  0.00000000000E+00 0.  1.
          2   -1    0    0  501    0  0.00000000000E+00 -0.00000000000E+00 -0.14091793491E+03  0.14091793491E+03  0.00000000000E+00 0. -1.
         25    2    1    2    0    0 -0.27884892230E+02 -0.36176044095E+02  0.83287222296E+02  0.15708635319E+03  0.12511229988E+03 0.  0.
          5    1    3    3  502    0 -0.19984943534E+02 -0.77886589735E+02  0.81237554736E+02  0.11437976888E+03  0.41800000000E+01 0. -1.
         -5    1    3    3    0  502 -0.78999486962E+01  0.41710545641E+02  0.20496675598E+01  0.42706584318E+02  0.41800000000E+01 0. -1.
        -11    1    1    2    0    0 -0.28440704027E+02 -0.28566777923E+01 -0.42883882026E+02  0.51536992454E+02  0.00000000000E+00 0. -1.
         11    1    1    2    0    0  0.56325596258E+02  0.39032721887E+02 -0.36141248942E+02  0.77474615499E+02  0.00000000000E+00 0.  1.
</event>
<event>
 7    1  0.2943404E-009  0.1021700E+03  0.7561462E-02  0.1275798E+00
          1   -1    0    0  501    0  0.00000000000E+00  0.00000000000E+00  0.52389169168E+02  0.52389169168E+02  0.00000000000E+00 0. -1.
         -1   -1    0    0    0  501 -0.00000000000E+00 -0.00000000000E+00 -0.32191612582E+03  0.32191612582E+03  0.00000000000E+00 0.  1.
         25    2    1    2    0    0 -0.36835301064E+02 -0.39080904638E+02 -0.82172494627E+02  0.15897279233E+03  0.12504348570E+03 0.  0.
          5    1    3    3  502    0 -0.52600276421E+02  0.78119295036E+01  0.10008322106E+02  0.54272039151E+02  0.41800000000E+01 0. -1.
         -5    1    3    3    0  502  0.15764975358E+02 -0.46892834141E+02 -0.92180816733E+02  0.10470075317E+03  0.41800000000E+01 0. -1.
        -11    1    1    2    0    0 -0.24443115284E+02  0.31098031922E+02 -0.10621105497E+03  0.11333729163E+03  0.00000000000E+00 0.  1.
         11    1    1    2    0    0  0.61278416348E+02  0.79828727158E+01 -0.81143407053E+02  0.10199521104E+03  0.00000000000E+00 0. -1.
</event>
<event>
 7    1  0.2334784E-009  0.1034053E+03  0.7561462E-02  0.1273294E+00
          1   -1    0    0  501    0  0.00000000000E+00  0.00000000000E+00  0.16996519731E+02  0.16996519731E+02  0.00000000000E+00 0. -1.
         -1   -1    0    0    0  501 -0.00000000000E+00 -0.00000000000E+00 -0.10109785986E+04  0.10109785986E+04  0.00000000000E+00 0.  1.
         25    2    1    2    0    0 -0.73067680124E+02  0.66744937531E+01 -0.54886472920E+03  0.56770379791E+03  0.12510666032E+03 0.  0.
          5    1    3    3  502    0 -0.40010850225E+02  0.32872257457E+02 -0.50133686165E+03  0.50402140301E+03  0.41800000000E+01 0.  1.
         -5    1    3    3    0  502 -0.33056829899E+02 -0.26197763704E+02 -0.47527867552E+02  0.63682394899E+02  0.41800000000E+01 0.  1.
        -11    1    1    2    0    0  0.27682730545E+02 -0.45159094598E+02 -0.27479768792E+03  0.27985611782E+03  0.00000000000E+00 0. -1.
         11    1    1    2    0    0  0.45384949579E+02  0.38484600845E+02 -0.17031966172E+03  0.18041520257E+03  0.00000000000E+00 0.  1.
</event>
<event>
 7    1  0.2334784E-009  0.6495989E+02  0.7561462E-02  0.1378122E+00
          1   -1    0    0  501    0  0.00000000000E+00  0.00000000000E+00  0.90964148774E+02  0.90964148774E+02  0.00000000000E+00 0. -1.
         -1   -1    0    0    0  501 -0.00000000000E+00 -0.00000000000E+00 -0.14534104909E+03  0.14534104909E+03  0.00000000000E+00 0.  1.
         25    2    1    2    0    0  0.81900378870E+01  0.38604020310E+02 -0.30116787861E+02  0.13458174185E+03  0.12509147543E+03 0.  0.
          5    1    3    3  502    0  0.22481425040E+02 -0.60507925664E+01  0.42151737210E+02  0.48334955387E+02  0.41800000000E+01 0. -1.
         -5    1    3    3    0  502 -0.14291387153E+02  0.44654812876E+02 -0.72268525071E+02  0.86246786466E+02  0.41800000000E+01 0. -1.
        -11    1    1    2    0    0 -0.24110364418E+02 -0.35594839152E+02 -0.53295035881E+02  0.68473813215E+02  0.00000000000E+00 0.  1.
         11    1    1    2    0    0  0.15920326532E+02 -0.30091811573E+01  0.29034923423E+02  0.33249642800E+02  0.00000000000E+00 0. -1.
</event>
<event>
 7    1  0.2334784E-009  0.1360654E+03  0.7561462E-02  0.1218724E+00
          2   -1    0    0  501    0  0.00000000000E+00  0.00000000000E+00  0.13629025931E+04  0.13629025931E+04  0.00000000000E+00 0. -1.
         -2   -1    0    0    0  501 -0.00000000000E+00 -0.00000000000E+00 -0.15339145963E+02  0.15339145963E+02  0.00000000000E+00 0.  1.
         25    2    1    2    0    0 -0.99945994636E+00  0.83350740364E+02  0.94752107927E+03  0.95937105794E+03  0.12509311055E+03 0.  0.
          5    1    3    3  502    0 -0.43477299297E+02 -0.10512471281E+02  0.21634718290E+03  0.22096235778E+03  0.41800000000E+01 0.  1.
         -5    1    3    3    0  502  0.42477839351E+02  0.93863211645E+02  0.73117389637E+03  0.73840870016E+03  0.41800000000E+01 0.  1.
        -11    1    1    2    0    0  0.34777876023E+02 -0.67603890317E+00  0.11895254102E+03  0.12393411437E+03  0.00000000000E+00 0.  1.
         11    1    1    2    0    0 -0.33778416076E+02 -0.82674701461E+02  0.28108982687E+03  0.29493656678E+03  0.00000000000E+00 0. -1.
</event>
<event>
 7    1  0.2334784E-009  0.9468175E+02  0.7561462E-02  0.1291894E+00
          1   -1    0    0  501    0  0.00000000000E+00  0.00000000000E+00  0.28186736047E+02  0.28186736047E+02  0.00000000000E+00 0. -1.
         -1   -1    0    0    0  501 -0.00000000000E+00 -0.00000000000E+00 -0.42563004910E+03  0.42563004910E+03  0.00000000000E+00 0.  1.
         25    2    1    2    0    0 -0.26102388063E+02  0.22623469284E+02 -0.25038557689E+03  0.28202053198E+03  0.12509791093E+03 0.  0.
          5    1    3    3  502    0  0.36528781573E+02  0.41937511322E+01 -0.18805272804E+03  0.19165917759E+03  0.41800000000E+01 0. -1.
         -5    1    3    3    0  502 -0.62631169636E+02  0.18429718151E+02 -0.62332848848E+02  0.90361354387E+02  0.41800000000E+01 0. -1.
        -11    1    1    2    0    0  0.13915731583E+02 -0.52689352372E+02 -0.10841531118E+03  0.12134123428E+03  0.00000000000E+00 0.  1.
         11    1    1    2    0    0  0.12186656480E+02  0.30065883088E+02 -0.38642424980E+02  0.50455018882E+02  0.00000000000E+00 0. -1.
</event>
<event>
 7    1  0.2334784E-009  0.8384211E+02  0.7561462E-02  0.1318489E+00
         -2   -1    0    0    0  501 -0.00000000000E+00  0.00000000000E+00  0.28540424082E+03  0.28540424082E+03  0.00000000000E+00 0.  1.
          2   -1    0    0  501    0  0.00000000000E+00 -0.00000000000E+00 -0.43479684482E+02  0.43479684482E+02  0.00000000000E+00 0. -1.
         25    2    1    2    0    0 -0.14232093882E+02  0.21069414115E+02  0.21641812746E+03  0.25125889897E+03  0.12509098973E+03 0.  0.
          5    1    3    3  502    0  0.51967459965E+02  0.12186541911E+02  0.13882684909E+03  0.14879346467E+03  0.41800000000E+01 0. -1.
         -5    1    3    3    0  502 -0.66199553847E+02  0.88828722046E+01  0.77591278370E+02  0.10246543431E+03  0.41800000000E+01 0. -1.
        -11    1    1    2    0    0 -0.83445273201E+00  0.11397268832E+02  0.38026230098E+02  0.39706274362E+02  0.00000000000E+00 0.  1.
         11    1    1    2    0    0  0.15066546614E+02 -0.32466682947E+02 -0.12519801220E+02  0.37918751971E+02  0.00000000000E+00 0. -1.
</event>
<event>
 7    1  0.2334784E-009  0.6030029E+02  0.7561462E-02  0.1396576E+00
         -1   -1    0    0    0  501 -0.00000000000E+00  0.00000000000E+00  0.67588419791E+02  0.67588419791E+02  0.00000000000E+00 0.  1.
          1   -1    0    0  501    0  0.00000000000E+00 -0.00000000000E+00 -0.20549015186E+03  0.20549015186E+03  0.00000000000E+00 0. -1.
         25    2    1    2    0    0  0.34723486170E+01 -0.19945388517E+02 -0.30147385073E+02  0.13024898182E+03  0.12508419848E+03 0.  0.
          5    1    3    3  502    0  0.95611064633E+01 -0.24430495540E+02  0.46264969094E+02  0.53349635748E+02  0.41800000000E+01 0. -1.
         -5    1    3    3    0  502 -0.60887578462E+01  0.44851070226E+01 -0.76412354167E+02  0.76899346073E+02  0.41800000000E+01 0. -1.
        -11    1    1    2    0    0  0.91675752189E+00  0.52518603669E+02 -0.92986555544E+02  0.10679674006E+03  0.00000000000E+00 0. -1.
         11    1    1    2    0    0 -0.43891061389E+01 -0.32573215152E+02 -0.14767791449E+02  0.36032849766E+02  0.00000000000E+00 0.  1.
</event>
<event>
 7    1  0.2334784E-009  0.1814383E+03  0.7561462E-02  0.1166418E+00
         -1   -1    0    0    0  501 -0.00000000000E+00  0.00000000000E+00  0.79179066969E+02  0.79179066969E+02  0.00000000000E+00 0.  1.
          1   -1    0    0  501    0  0.00000000000E+00 -0.00000000000E+00 -0.50072057832E+03  0.50072057832E+03  0.00000000000E+00 0. -1.
         25    2    1    2    0    0 -0.67026439542E+02 -0.14746238274E+03 -0.18558783933E+03  0.27627792562E+03  0.12509575595E+03 0.  0.
          5    1    3    3  502    0 -0.73747526837E+02 -0.24930985628E+02 -0.99097802364E+02  0.12608766233E+03  0.41800000000E+01 0. -1.
         -5    1    3    3    0  502  0.67210872948E+01 -0.12253139711E+03 -0.86490036968E+02  0.15019026329E+03  0.41800000000E+01 0. -1.
        -11    1    1    2    0    0  0.18905066597E+02  0.49479344250E+02 -0.16532636252E+03  0.17360418542E+03  0.00000000000E+00 0. -1.
         11    1    1    2    0    0  0.48121372945E+02  0.97983038487E+02 -0.70627309495E+02  0.13001753425E+03  0.00000000000E+00 0.  1.
</event>
<event>
 7    1  0.2334784E-009  0.8370105E+02  0.7561462E-02  0.1318865E+00
          2   -1    0    0  501    0  0.00000000000E+00  0.00000000000E+00  0.53311177090E+03  0.53311177090E+03  0.00000000000E+00 0. -1.
         -2   -1    0    0    0  501 -0.00000000000E+00 -0.00000000000E+00 -0.19533268809E+02  0.19533268809E+02  0.00000000000E+00 0.  1.
         25    2    1    2    0    0 -0.19909008362E+02  0.16467428244E+02  0.35639195628E+03  0.37858962649E+03  0.12508930401E+03 0.  0.
          5    1    3    3  502    0 -0.29538397342E+02  0.52365231522E+02  0.32260851700E+03  0.32818952151E+03  0.41800000000E+01 0.  1.
         -5    1    3    3    0  502  0.96293889802E+01 -0.35897803278E+02  0.33783439282E+02  0.50400104980E+02  0.41800000000E+01 0.  1.
        -11    1    1    2    0    0  0.43713473493E+02 -0.13468454145E+02  0.12991415299E+03  0.13773145672E+03  0.00000000000E+00 0. -1.
         11    1    1    2    0    0 -0.23804465131E+02 -0.29989740987E+01  0.27272392825E+02  0.36323956506E+02  0.00000000000E+00 0.  1.
</event>
<event>
 7    1  0.2334784E-009  0.8815677E+02  0.7561462E-02  0.1307378E+00
         -1   -1    0    0    0  501 -0.00000000000E+00  0.00000000000E+00  0.14875023162E+03  0.14875023162E+03  0.00000000000E+00 0.  1.
          1   -1    0    0  501    0  0.00000000000E+00 -0.00000000000E+00 -0.11062390214E+03  0.11062390214E+03  0.00000000000E+00 0. -1.
         25    2    1    2    0    0  0.32378093300E+02  0.58417727011E+01 -0.38646409022E+02  0.13499526868E+03  0.12509080863E+03 0.  0.
          5    1    3    3  502    0  0.18312718199E+01  0.52221751361E+02 -0.55955853530E+02  0.76674603461E+02  0.41800000000E+01 0.  1.
         -5    1    3    3    0  502  0.30546821480E+02 -0.46379978659E+02  0.17309444508E+02  0.58320665224E+02  0.41800000000E+01 0.  1.
        -11    1    1    2    0    0 -0.49071877306E+02 -0.11807236492E+02  0.89365665316E+02  0.10263372795E+03  0.00000000000E+00 0.  1.
         11    1    1    2    0    0  0.16693784006E+02  0.59654637905E+01 -0.12592926821E+02  0.21745137125E+02  0.00000000000E+00 0. -1.
</event>
<event>
 7    1  0.2334784E-009  0.1332539E+03  0.7561462E-02  0.1222706E+00
          1   -1    0    0  501    0  0.00000000000E+00  0.00000000000E+00  0.77115269304E+02  0.77115269304E+02  0.00000000000E+00 0. -1.
         -1   -1    0    0    0  501 -0.00000000000E+00 -0.00000000000E+00 -0.32107504886E+03  0.32107504886E+03  0.00000000000E+00 0.  1.
         25    2    1    2    0    0  0.72621753711E+02 -0.87420580866E+02 -0.12844540077E+03  0.21227749292E+03  0.12508891219E+03 0.  0.
          5    1    3    3  502    0  0.43542175380E+02 -0.20234144439E+01 -0.11230123435E+03  0.12053652924E+03  0.41800000000E+01 0.  1.
         -5    1    3    3    0  502  0.29079578331E+02 -0.85397166422E+02 -0.16144166413E+02  0.91740963685E+02  0.41800000000E+01 0.  1.
        -11    1    1    2    0    0 -0.34355075599E+02  0.87649523310E+02 -0.11368167196E+03  0.14760160126E+03  0.00000000000E+00 0.  1.
         11    1    1    2    0    0 -0.38266678112E+02 -0.22894244399E+00 -0.18327068276E+01  0.38311223978E+02  0.00000000000E+00 0. -1.
</event>
<event>
 7    1  0.2334784E-009  0.1036273E+03  0.7561462E-02  0.1272848E+00
         -1   -1    0    0    0  501 -0.00000000000E+00  0.00000000000E+00  0.33579959928E+02  0.33579959928E+02  0.00000000000E+00 0.  1.
          1   -1    0    0  501    0  0.00000000000E+00 -0.00000000000E+00 -0.52899660306E+03  0.52899660306E+03  0.00000000000E+00 0. -1.
         25    2    1    2    0    0  0.61885543586E+02 -0.15066440086E+02 -0.37216363273E+03  0.39774974923E+03  0.12506908237E+03 0.  0.
          5    1    3    3  502    0  0.83903592191E+02 -0.40520913239E+01 -0.36051363931E+03  0.37019425813E+03  0.41800000000E+01 0.  1.
         -5    1    3    3    0  502 -0.22018048606E+02 -0.11014348762E+02 -0.11649993422E+02  0.27555491100E+02  0.41800000000E+01 0.  1.
        -11    1    1    2    0    0 -0.10968987386E+02  0.40005074637E+02 -0.17883347325E+02  0.45172323303E+02  0.00000000000E+00 0. -1.
         11    1    1    2    0    0 -0.50916556200E+02 -0.24938634551E+02 -0.10536966308E+03  0.11965449045E+03  0.00000000000E+00 0.  1.
</event>
<event>
 7    1  0.2334784E-009  0.2169796E+03  0.7561462E-02  0.1136155E+00
          1   -1    0    0  501    0  0.00000000000E+00  0.00000000000E+00  0.16600469490E+04  0.16600469490E+04  0.00000000000E+00 0. -1.
         -1   -1    0    0    0  501 -0.00000000000E+00 -0.00000000000E+00 -0.38243590804E+02  0.38243590804E+02  0.00000000000E+00 0.  1.
         25    2    1    2    0    0 -0.18922898898E+03 -0.10227543599E+03  0.58896913104E+03  0.63937438421E+03  0.12508833191E+03 0.  0.
          5    1    3    3  502    0 -0.12400167980E+03 -0.46295057172E+02  0.49297804037E+03  0.51045515924E+03  0.41800000000E+01 0.  1.
         -5    1    3    3    0  502 -0.65227309184E+02 -0.55980378821E+02  0.95991090671E+02  0.12891922496E+03  0.41800000000E+01 0.  1.
        -11    1    1    2    0    0  0.12958483343E+03  0.63249720926E+02  0.85928952020E+03  0.87130433017E+03  0.00000000000E+00 0.  1.
         11    1    1    2    0    0  0.59644155549E+02  0.39025715067E+02  0.17354470695E+03  0.18761182542E+03  0.00000000000E+00 0. -1.
</event>
<event>
 7    1  0.2334784E-009  0.1132192E+03  0.7561462E-02  0.1254722E+00
          2   -1    0    0  501    0  0.00000000000E+00  0.00000000000E+00  0.48023784510E+03  0.48023784510E+03  0.00000000000E+00 0. -1.
         -2   -1    0    0    0  501 -0.00000000000E+00 -0.00000000000E+00 -0.28881508692E+02  0.28881508692E+02  0.00000000000E+00 0.  1.
         25    2    1    2    0    0  0.40551140436E+02  0.24149769141E+02  0.26334015518E+03  0.29533475723E+03  0.12508786977E+03 0.  0.
          5    1    3    3  502    0  0.85156963387E+02  0.13149672490E+02  0.19038202315E+03  0.20901533302E+03  0.41800000000E+01 0. -1.
         -5    1    3    3    0  502 -0.44605822951E+02  0.11000096651E+02  0.72958132023E+02  0.86319424209E+02  0.41800000000E+01 0. -1.
        -11    1    1    2    0    0  0.16683986291E+02 -0.32175417023E+02  0.11550800718E+03  0.12106078052E+03  0.00000000000E+00 0. -1.
         11    1    1    2    0    0 -0.57235126727E+02  0.80256478818E+01  0.72508174061E+02  0.92723816040E+02  0.00000000000E+00 0.  1.
</event>
<event>
 7    1  0.2334784E-009  0.1821340E+03  0.7561462E-02  0.1165754E+00
          2   -1    0    0  501    0  0.00000000000E+00  0.00000000000E+00  0.44547636977E+03  0.44547636977E+03  0.00000000000E+00 0. -1.
         -2   -1    0    0    0  501 -0.00000000000E+00 -0.00000000000E+00 -0.10991161260E+03  0.10991161260E+03  0.00000000000E+00 0.  1.
         25    2    1    2    0    0 -0.90286628174E+01 -0.15719464751E+03  0.35894513359E+02  0.20427079847E+03  0.12508584676E+03 0.  0.
          5    1    3    3  502    0  0.36822862098E+02 -0.34628952636E+02  0.51659919036E+02  0.72396872643E+02  0.41800000000E+01 0. -1.
         -5    1    3    3    0  502 -0.45851524915E+02 -0.12256569488E+03 -0.15765405677E+02  0.13187392583E+03  0.41800000000E+01 0. -1.
        -11    1    1    2    0    0 -0.41924328343E+02  0.74560165882E+02  0.15136912306E+03  0.17386626775E+03  0.00000000000E+00 0.  1.
         11    1    1    2    0    0  0.50952991160E+02  0.82634481632E+02  0.14830112074E+03  0.17725091615E+03  0.00000000000E+00 0. -1.
</event>
<event>
 7    1  0.2334784E-009  0.7707252E+02  0.7561462E-02  0.1337571E+00
         -4   -1    0    0    0  501 -0.00000000000E+00  0.00000000000E+00  0.10133933634E+03  0.10133933634E+03  0.00000000000E+00 0.  1.
          4   -1    0    0  501    0  0.00000000000E+00 -0.00000000000E+00 -0.12789048360E+03  0.12789048360E+03  0.00000000000E+00 0. -1.
         25    2    1    2    0    0 -0.17149357814E+02  0.17623613106E+02  0.11842840716E+02  0.12804679317E+03  0.12510410126E+03 0.  0.
          5    1    3    3  502    0  0.21642296509E+02  0.59453612603E+01 -0.49445004708E+02  0.54461153213E+02  0.41800000000E+01 0.  1.
         -5    1    3    3    0  502 -0.38791654323E+02  0.11678251846E+02  0.61287845424E+02  0.73585639958E+02  0.41800000000E+01 0.  1.
        -11    1    1    2    0    0  0.45806257873E+02  0.14013806880E+02 -0.74903375580E+01  0.48484071614E+02  0.00000000000E+00 0.  1.
         11    1    1    2    0    0 -0.28656900059E+02 -0.31637419987E+02 -0.30903650421E+02  0.52698955149E+02  0.00000000000E+00 0. -1.
</event>
<event>
 7    1  0.2334784E-009  0.1150795E+03  0.7561462E-02  0.1251442E+00
         -1   -1    0    0    0  501 -0.00000000000E+00  0.00000000000E+00  0.23678124909E+03  0.23678124909E+03  0.00000000000E+00 0.  1.
          1   -1    0    0  501    0  0.00000000000E+00 -0.00000000000E+00 -0.11193297001E+03  0.11193297001E+03  0.00000000000E+00 0. -1.
         25    2    1    2    0    0  0.95202404601E+02 -0.31587971215E+02 -0.63983992738E+01  0.16046855496E+03  0.12509164581E+03 0.  0.
          5    1    3    3  502    0  0.21079633869E+02  0.19133690477E+02  0.47575176373E+02  0.55599630234E+02  0.41800000000E+01 0.  1.
         -5    1    3    3    0  502  0.74122770732E+02 -0.50721661692E+02 -0.53973575646E+02  0.10486892473E+03  0.41800000000E+01 0.  1.
        -11    1    1    2    0    0 -0.91170466529E+02  0.12571315800E+02  0.13950249130E+03  0.16712581197E+03  0.00000000000E+00 0.  1.
         11    1    1    2    0    0 -0.40319380721E+01  0.19016655415E+02 -0.82558129452E+01  0.21119852158E+02  0.00000000000E+00 0. -1.
</event>
<event>
 7    1  0.2334784E-009  0.1053279E+03  0.7561462E-02  0.1269475E+00
         -2   -1    0    0    0  501 -0.00000000000E+00  0.00000000000E+00  0.26702624677E+03  0.26702624677E+03  0.00000000000E+00 0.  1.
          2   -1    0    0  501    0  0.00000000000E+00 -0.00000000000E+00 -0.56680165964E+02  0.56680165964E+02  0.00000000000E+00 0. -1.
         25    2    1    2    0    0  0.59850537068E+01 -0.77547216468E+01  0.42452262178E+02  0.13246394726E+03  0.12509414928E+03 0.  0.
          5    1    3    3  502    0  0.64621379223E+02 -0.79089585321E+01  0.12264158682E+02  0.66380390673E+02  0.41800000000E+01 0.  1.
         -5    1    3    3    0  502 -0.58636325516E+02  0.15423688525E+00  0.30188103496E+02  0.66083556591E+02  0.41800000000E+01 0.  1.
        -11    1    1    2    0    0 -0.38809564330E+02 -0.19988502388E+02  0.53556020687E+02  0.69093920594E+02  0.00000000000E+00 0. -1.
         11    1    1    2    0    0  0.32824510623E+02  0.27743224035E+02  0.11433779794E+03  0.12214854488E+03  0.00000000000E+00 0.  1.
</event>
<event>
 7    1  0.2334784E-009  0.1552810E+03  0.7561462E-02  0.1194130E+00
         -2   -1    0    0    0  501 -0.00000000000E+00  0.00000000000E+00  0.63766874844E+02  0.63766874844E+02  0.00000000000E+00 0.  1.
          2   -1    0    0  501    0  0.00000000000E+00 -0.00000000000E+00 -0.42058369027E+03  0.42058369027E+03  0.00000000000E+00 0. -1.
         25    2    1    2    0    0 -0.10496413943E+03  0.56028342860E+02 -0.15134994917E+03  0.22958764949E+03  0.12508811260E+03 0.  0.
          5    1    3    3  502    0 -0.10743147286E+01  0.67349951872E+02 -0.68494781469E+02  0.96157046844E+02  0.41800000000E+01 0.  1.
         -5    1    3    3    0  502 -0.10388982470E+03 -0.11321609011E+02 -0.82855167706E+02  0.13343060265E+03  0.41800000000E+01 0.  1.
        -11    1    1    2    0    0  0.76915994889E+02 -0.72716735838E+02 -0.10486041923E+03  0.14899497127E+03  0.00000000000E+00 0.  1.
         11    1    1    2    0    0  0.28048144540E+02  0.16688392978E+02 -0.10060644702E+03  0.10576794436E+03  0.00000000000E+00 0. -1.
</event>
<event>
 6    1  0.2334784E-009  0.2282538E+03  0.7561462E-02  0.1127875E+00
          1   -1    0    0  501    0  0.00000000000E+00  0.00000000000E+00  0.45131206908E+03  0.45131206908E+03  0.00000000000E+00 0. -1.
         -1   -1    0    0    0  501 -0.00000000000E+00 -0.00000000000E+00 -0.17269592555E+03  0.17269592555E+03  0.00000000000E+00 0.  1.
          5    1    1    2  502    0  0.63048011220E+02 -0.64005075143E+02  0.81147569353E+02  0.12113670697E+03  0.41800000000E+01 0. -1.
         -5    1    1    2    0  502 -0.38151808740E+02 -0.14069365541E+03  0.23280245225E+03  0.27470842607E+03  0.41800000000E+01 0. -1.
        -11    1    1    2    0    0 -0.53482689008E+02  0.12117440475E+03 -0.43727831782E+02  0.13948389750E+03  0.00000000000E+00 0.  1.
         11    1    1    2    0    0  0.28586486528E+02  0.83524325796E+02  0.83939537066E+01  0.88678964082E+02  0.00000000000E+00 0. -1.
</event>
<event>
 7    1  0.2334784E-009  0.1295246E+03  0.7561462E-02  0.1228163E+00
         -1   -1    0    0    0  501 -0.00000000000E+00  0.00000000000E+00  0.29233228909E+02  0.29233228909E+02  0.00000000000E+00 0.  1.
          1   -1    0    0  501    0  0.00000000000E+00 -0.00000000000E+00 -0.69857185044E+03  0.69857185044E+03  0.00000000000E+00 0. -1.
         25    2    1    2    0    0  0.60885262703E+02 -0.52094540161E+02 -0.24969288979E+03  0.29054235344E+03  0.12508982214E+03 0.  0.
          5    1    3    3  502    0  0.91303352131E+02 -0.63314095503E+02 -0.21944565559E+03  0.24600578237E+03  0.41800000000E+01 0. -1.
         -5    1    3    3    0  502 -0.30418089428E+02  0.11219555342E+02 -0.30247234204E+02  0.44536571080E+02  0.41800000000E+01 0. -1.
        -11    1    1    2    0    0  0.43592895268E+01  0.49693411795E+02 -0.26071141077E+03  0.26544091298E+03  0.00000000000E+00 0. -1.
         11    1    1    2    0    0 -0.65244552230E+02  0.24011283668E+01 -0.15893432097E+03  0.17182181292E+03  0.00000000000E+00 0.  1.
</event>
<event>
 7    1  0.2334784E-009  0.1024720E+03  0.7561462E-02  0.1275182E+00
         -2   -1    0    0    0  501 -0.00000000000E+00  0.00000000000E+00  0.20324957354E+02  0.20324957354E+02  0.00000000000E+00 0.  1.
          2   -1    0    0  501    0  0.00000000000E+00 -0.00000000000E+00 -0.58224564943E+03  0.58224564943E+03  0.00000000000E+00 0. -1.
         25    2    1    2    0    0  0.13462674093E+02  0.11731190485E+01 -0.39641796943E+03  0.41590525240E+03  0.12508937878E+03 0.  0.
          5    1    3    3  502    0 -0.42593612074E+02 -0.38037159901E+02 -0.17651939153E+03  0.18557373011E+03  0.41800000000E+01 0. -1.
         -5    1    3    3    0  502  0.56056286167E+02  0.39210278949E+02 -0.21989857791E+03  0.23033152229E+03  0.41800000000E+01 0. -1.
        -11    1    1    2    0    0  0.19541361710E+02 -0.29682077637E+02 -0.11275750505E+03  0.11822497830E+03  0.00000000000E+00 0. -1.
         11    1    1    2    0    0 -0.33004035803E+02  0.28508958589E+02 -0.52745217601E+02  0.68440376087E+02  0.00000000000E+00 0.  1.
</event>
<event>
 7    1  0.2334784E-009  0.1048639E+03  0.7561462E-02  0.1270388E+00
         -1   -1    0    0    0  501 -0.00000000000E+00  0.00000000000E+00  0.92325761415E+02  0.92325761415E+02  0.00000000000E+00 0.  1.
          1   -1    0    0  501    0  0.00000000000E+00 -0.00000000000E+00 -0.27568424172E+03  0.27568424172E+03  0.00000000000E+00 0. -1.
         25    2    1    2    0    0 -0.72077966158E+01  0.57857932024E+02  0.16914476479E+02  0.13903906028E+03  0.12508504363E+03 0.  0.
          5    1    3    3  502    0 -0.38468158036E+02  0.61851812615E+01 -0.39966321077E+02  0.55971732780E+02  0.41800000000E+01 0.  1.
         -5    1    3    3    0  502  0.31260361421E+02  0.51672750762E+02  0.56880797555E+02  0.83067327500E+02  0.41800000000E+01 0.  1.
        -11    1    1    2    0    0  0.33037653995E+02 -0.72954739782E+02 -0.15856430985E+03  0.17764155200E+03  0.00000000000E+00 0. -1.
         11    1    1    2    0    0 -0.25829857379E+02  0.15096807758E+02 -0.41708646930E+02  0.51329390854E+02  0.00000000000E+00 0.  1.
</event>
<event>
 7    1  0.2334784E-009  0.9760432E+02  0.7561462E-02  0.1285416E+00
          1   -1    0    0  501    0  0.00000000000E+00  0.00000000000E+00  0.36312677863E+03  0.36312677863E+03  0.00000000000E+00 0. -1.
         -1   -1    0    0    0  501 -0.00000000000E+00 -0.00000000000E+00 -0.32440630501E+02  0.32440630501E+02  0.00000000000E+00 0.  1.
         25    2    1    2    0    0 -0.63369032546E+01  0.90014953037E+01  0.26522839498E+03  0.29345455188E+03  0.12509312233E+03 0.  0.
          5    1    3    3  502    0  0.15173390690E+02  0.60332991340E+02  0.89517741822E+02  0.10909262179E+03  0.41800000000E+01 0.  1.
         -5    1    3    3    0  502 -0.21510293945E+02 -0.51331496036E+02  0.17571065316E+03  0.18436193009E+03  0.41800000000E+01 0.  1.
        -11    1    1    2    0    0 -0.14360706729E+01 -0.42566322730E+02  0.45382465060E+02  0.62237627402E+02  0.00000000000E+00 0.  1.
         11    1    1    2    0    0  0.77729739275E+01  0.33564827426E+02  0.20075288089E+02  0.39875229851E+02  0.00000000000E+00 0. -1.
</event>
<event>
 6    1  0.2334784E-009  0.1058397E+03  0.7561462E-02  0.1268474E+00
         -1   -1    0    0    0  501 -0.00000000000E+00  0.00000000000E+00  0.27926787169E+02  0.27926787169E+02  0.00000000000E+00 0.  1.
          1   -1    0    0  501    0  0.00000000000E+00 -0.00000000000E+00 -0.60948935511E+03  0.60948935511E+03  0.00000000000E+00 0. -1.
          5    1    1    2  502    0  0.12193292918E+02 -0.22233003703E+02 -0.42000509209E+01  0.26040270228E+02  0.41800000000E+01 0.  1.
         -5    1    1    2    0  502 -0.76941752938E+02  0.27393908587E+02 -0.27267315268E+03  0.28467275979E+03  0.41800000000E+01 0.  1.
        -11    1    1    2    0    0  0.42659794027E+02  0.37086699108E+02 -0.86256969686E+02  0.10312878404E+03  0.00000000000E+00 0.  1.
         11    1    1    2    0    0  0.22088665993E+02 -0.42247603991E+02 -0.21843239465E+03  0.22357432823E+03  0.00000000000E+00 0. -1.
</event>
<event>
 7    1  0.2334784E-009  0.8678791E+02  0.7561462E-02  0.1310822E+00
          2   -1    0    0  501    0  0.00000000000E+00  0.00000000000E+00  0.24429361171E+03  0.24429361171E+03  0.00000000000E+00 0. -1.
         -2   -1    0    0    0  501 -0.00000000000E+00 -0.00000000000E+00 -0.64928446564E+02  0.64928446564E+02  0.00000000000E+00 0.  1.
         25    2    1    2    0    0 -0.74654534361E+01 -0.36597818875E+02  0.34163899962E+02  0.13494538229E+03  0.12509176951E+03 0.  0.
          5    1    3    3  502    0 -0.10973174028E+02 -0.59370174520E+02  0.69749923952E+02  0.92345830778E+02  0.41800000000E+01 0. -1.
         -5    1    3    3    0  502  0.35077205922E+01  0.22772355645E+02 -0.35586023990E+02  0.42599551509E+02  0.41800000000E+01 0. -1.
        -11    1    1    2    0    0 -0.24631106504E+02  0.49307375871E+02  0.55754556437E+02  0.78399485244E+02  0.00000000000E+00 0.  1.
         11    1    1    2    0    0  0.32096559940E+02 -0.12709556996E+02  0.89446708752E+02  0.95877190747E+02  0.00000000000E+00 0. -1.
</event>
<event>
 7    1  0.2334784E-009  0.6709668E+02  0.7561462E-02  0.1370254E+00
         -1   -1    0    0    0  501 -0.00000000000E+00  0.00000000000E+00  0.81540788544E+02  0.81540788544E+02  0.00000000000E+00 0.  1.
          1   -1    0    0  501    0  0.00000000000E+00 -0.00000000000E+00 -0.13860788792E+03  0.13860788792E+03  0.00000000000E+00 0. -1.
         25    2    1    2    0    0 -0.94452697815E+01  0.12793266061E+02 -0.46544701595E+02  0.13441212374E+03  0.12508928405E+03 0.  0.
          5    1    3    3  502    0  0.37112740683E+01  0.28177310890E+02 -0.85563349934E+02  0.90256820552E+02  0.41800000000E+01 0. -1.
         -5    1    3    3    0  502 -0.13156543850E+02 -0.15384044829E+02  0.39018648339E+02  0.44155303187E+02  0.41800000000E+01 0. -1.
        -11    1    1    2    0    0 -0.29777468427E+02  0.18119519194E+02 -0.84468413834E+00  0.34867292597E+02  0.00000000000E+00 0.  1.
         11    1    1    2    0    0  0.39222738209E+02 -0.30912785254E+02 -0.96777136444E+01  0.50869260130E+02  0.00000000000E+00 0. -1.
</event>
<event>
 7    1  0.2334784E-009  0.5974792E+02  0.7561462E-02  0.1398893E+00
          3   -1    0    0  501    0  0.00000000000E+00  0.00000000000E+00  0.41547388170E+02  0.41547388170E+02  0.00000000000E+00 0. -1.
         -3   -1    0    0    0  501 -0.00000000000E+00 -0.00000000000E+00 -0.50612003248E+03  0.50612003248E+03  0.00000000000E+00 0.  1.
         25    2    1    2    0    0 -0.34799093770E+02  0.21536405756E+01 -0.42088379350E+03  0.44046036716E+03  0.12508617953E+03 0.  0.
          5    1    3    3  502    0  0.19708741634E+02 -0.93794172736E+01 -0.77050792091E+01  0.23521237442E+02  0.41800000000E+01 0. -1.
         -5    1    3    3    0  502 -0.54507835404E+02  0.11533057849E+02 -0.41317871429E+03  0.41693912972E+03  0.41800000000E+01 0. -1.
        -11    1    1    2    0    0  0.24254718046E+02  0.91682592521E+01 -0.71127833336E+02  0.75706783053E+02  0.00000000000E+00 0.  1.
         11    1    1    2    0    0  0.10544375724E+02 -0.11321899828E+02  0.27438982532E+02  0.31500270435E+02  0.00000000000E+00 0. -1.
</event>
<event>
 7    1  0.2334784E-009  0.1726801E+03  0.7561462E-02  0.1175081E+00
         -2   -1    0    0    0  501 -0.00000000000E+00  0.00000000000E+00  0.53027813751E+02  0.53027813751E+02  0.00000000000E+00 0.  1.
          2   -1    0    0  501    0  0.00000000000E+00 -0.00000000000E+00 -0.65029320808E+03  0.65029320808E+03  0.00000000000E+00 0. -1.
         25    2    1    2    0    0 -0.13427925807E+03 -0.56597244230E+02 -0.39771139583E+03  0.44165269584E+03  0.12509429310E+03 0.  0.
          5    1    3    3  502    0 -0.14680592767E+03 -0.77686428083E+02 -0.32895316733E+03  0.36853062316E+03  0.41800000000E+01 0.  1.
         -5    1    3    3    0  502  0.12526669601E+02  0.21089183853E+02 -0.68758228498E+02  0.73122072680E+02  0.41800000000E+01 0.  1.
        -11    1    1    2    0    0  0.85679909520E+02  0.87408258428E+01 -0.16282936593E+03  0.18420328808E+03  0.00000000000E+00 0. -1.
         11    1    1    2    0    0  0.48599348553E+02  0.47856418387E+02 -0.36724632571E+02  0.77465037908E+02  0.00000000000E+00 0.  1.
</event>
<event>
 7    1  0.2334784E-009  0.1403623E+03  0.7561462E-02  0.1212842E+00
         -4   -1    0    0    0  501 -0.00000000000E+00  0.00000000000E+00  0.19332158994E+03  0.19332158994E+03  0.00000000000E+00 0.  1.
          4   -1    0    0  501    0  0.00000000000E+00 -0.00000000000E+00 -0.14776241463E+03  0.14776241463E+03  0.00000000000E+00 0. -1.
         25    2    1    2    0    0  0.25186252208E+02  0.12117646543E+03  0.63175300533E+02  0.18697609820E+03  0.12510339575E+03 0.  0.
          5    1    3    3  502    0 -0.32979613637E+02  0.46035716443E+02 -0.20422598301E+02  0.60344817718E+02  0.41800000000E+01 0.  1.
         -5    1    3    3    0  502  0.58165865846E+02  0.75140748986E+02  0.83597898834E+02  0.12663128048E+03  0.41800000000E+01 0.  1.
        -11    1    1    2    0    0 -0.10569118215E+01 -0.86907363069E+02 -0.50781199882E+02  0.10066149750E+03  0.00000000000E+00 0. -1.
         11    1    1    2    0    0 -0.24129340387E+02 -0.34269102360E+02  0.33165074655E+02  0.53446408869E+02  0.00000000000E+00 0.  1.
</event>
<event>
 7    1  0.2334784E-009  0.9919025E+02  0.7561462E-02  0.1282008E+00
         -1   -1    0    0    0  501 -0.00000000000E+00  0.00000000000E+00  0.57647248788E+02  0.57647248788E+02  0.00000000000E+00 0.  1.
          1   -1    0    0  501    0  0.00000000000E+00 -0.00000000000E+00 -0.25245249013E+03  0.25245249013E+03  0.00000000000E+00 0. -1.
         25    2    1    2    0    0  0.36885230106E+02  0.37186218157E+01 -0.15063001622E+03  0.19927771902E+03  0.12509140323E+03 0.  0.
          5    1    3    3  502    0  0.38482653619E+02  0.45851452890E+02 -0.14450352034E+03  0.15646728142E+03  0.41800000000E+01 0.  1.
         -5    1    3    3    0  502 -0.15974235130E+01 -0.42132831074E+02 -0.61264958764E+01  0.42810437605E+02  0.41800000000E+01 0.  1.
        -11    1    1    2    0    0  0.38716058577E+01  0.37698559767E+02 -0.11215039409E+00  0.37897009357E+02  0.00000000000E+00 0. -1.
         11    1    1    2    0    0 -0.40756835963E+02 -0.41417181583E+02 -0.44063074730E+02  0.72925010543E+02  0.00000000000E+00 0.  1.
</event>
<event>
 7    1  0.2334784E-009  0.1121671E+03  0.7561462E-02  0.1256609E+00
          3   -1    0    0  501    0  0.00000000000E+00  0.00000000000E+00  0.58920085704E+02  0.58920085704E+02  0.00000000000E+00 0. -1.
         -3   -1    0    0    0  501 -0.00000000000E+00 -0.00000000000E+00 -0.37303972323E+03  0.37303972323E+03  0.00000000000E+00 0.  1.
         25    2    1    2    0    0  0.27137122109E+02  0.35979042968E+02 -0.30319508573E+03  0.33106791004E+03  0.12509111127E+03 0.  0.
          5    1    3    3  502    0  0.65877319026E+02 -0.11689735029E+02 -0.19962038211E+03  0.21057597304E+03  0.41800000000E+01 0.  1.
         -5    1    3    3    0  502 -0.38740196917E+02  0.47668777997E+02 -0.10357470362E+03  0.12049193701E+03  0.41800000000E+01 0.  1.
        -11    1    1    2    0    0  0.19285628698E+02  0.16702348824E+02  0.10335934114E+02  0.27526995196E+02  0.00000000000E+00 0. -1.
         11    1    1    2    0    0 -0.46422750807E+02 -0.52681391792E+02 -0.21260485913E+02  0.73364903700E+02  0.00000000000E+00 0.  1.
</event>
<event>
 7    1  0.2334784E-009  0.9829454E+02  0.7561462E-02  0.1283924E+00
          2   -1    0    0  501    0  0.00000000000E+00  0.00000000000E+00  0.31129468907E+03  0.31129468907E+03  0.00000000000E+00 0. -1.
         -2   -1    0    0    0  501 -0.00000000000E+00 -0.00000000000E+00 -0.65401387956E+02  0.65401387956E+02  0.00000000000E+00 0.  1.
         25    2    1    2    0    0 -0.51383710403E+02  0.80698203468E+02  0.15276248217E+03  0.21941763188E+03  0.12512088348E+03 0.  0.
          5    1    3    3  502    0 -0.37511004880E+02  0.46034738185E+02  0.16848383978E+03  0.17869121208E+03  0.41800000000E+01 0. -1.
         -5    1    3    3    0  502 -0.13872705523E+02  0.34663465284E+02 -0.15721357618E+02  0.40726419795E+02  0.41800000000E+01 0. -1.
        -11    1    1    2    0    0  0.15227490711E+02 -0.49318022220E+02 -0.10521777191E+01  0.51626067708E+02  0.00000000000E+00 0.  1.
         11    1    1    2    0    0  0.36156219693E+02 -0.31380181248E+02  0.94182996671E+02  0.10565237744E+03  0.00000000000E+00 0. -1.
</event>
<event>
 7    1  0.2334784E-009  0.1144074E+03  0.7561462E-02  0.1252619E+00
          2   -1    0    0  501    0  0.00000000000E+00  0.00000000000E+00  0.96487442851E+02  0.96487442851E+02  0.00000000000E+00 0. -1.
         -2   -1    0    0    0  501 -0.00000000000E+00 -0.00000000000E+00 -0.16723874963E+03  0.16723874963E+03  0.00000000000E+00 0.  1.
         25    2    1    2    0    0  0.36244017114E+02  0.11606851613E+02 -0.94345235140E+02  0.16121895932E+03  0.12506870779E+03 0.  0.
          5    1    3    3  502    0 -0.35227359580E+02 -0.29824137737E+02 -0.46543896788E+02  0.65682971788E+02  0.41800000000E+01 0. -1.
         -5    1    3    3    0  502  0.71471376694E+02  0.41430989349E+02 -0.47801338352E+02  0.95535987529E+02  0.41800000000E+01 0. -1.
        -11    1    1    2    0    0 -0.32950111302E+02 -0.50729254273E+02  0.14703924266E+02  0.62252489611E+02  0.00000000000E+00 0.  1.
         11    1    1    2    0    0 -0.32939058113E+01  0.39122402661E+02  0.88900040975E+01  0.40254743550E+02  0.00000000000E+00 0. -1.
</event>
<event>
 7    1  0.2334784E-009  0.9021603E+02  0.7561462E-02  0.1302329E+00
          1   -1    0    0  501    0  0.00000000000E+00  0.00000000000E+00  0.10048727579E+04  0.10048727579E+04  0.00000000000E+00 0. -1.
         -1   -1    0    0    0  501 -0.00000000000E+00 -0.00000000000E+00 -0.20503526313E+02  0.20503526313E+02  0.00000000000E+00 0.  1.
         25    2    1    2    0    0 -0.48531024281E+02 -0.54204361820E+02  0.75547115239E+03  0.76920556929E+03  0.12508865889E+03 0.  0.
          5    1    3    3  502    0 -0.40836343544E+02 -0.20961870274E+02  0.76134330942E+02  0.88999526444E+02  0.41800000000E+01 0. -1.
         -5    1    3    3    0  502 -0.76946807369E+01 -0.33242491546E+02  0.67933682145E+03  0.68020604285E+03  0.41800000000E+01 0. -1.
        -11    1    1    2    0    0 -0.11007616682E+02  0.36088275988E+02  0.15515592326E+03  0.15967746182E+03  0.00000000000E+00 0. -1.
         11    1    1    2    0    0  0.59538640963E+02  0.18116085831E+02  0.73742155964E+02  0.96493253131E+02  0.00000000000E+00 0.  1.
</event>
<event>
 7    1  0.2334784E-009  0.1009154E+03  0.7561462E-02  0.1278383E+00
         -1   -1    0    0    0  501 -0.00000000000E+00  0.00000000000E+00  0.80183312068E+02  0.80183312068E+02  0.00000000000E+00 0.  1.
          1   -1    0    0  501    0  0.00000000000E+00 -0.00000000000E+00 -0.18887498326E+03  0.18887498326E+03  0.00000000000E+00 0. -1.
         25    2    1    2    0    0  0.78343511410E+01  0.36442345248E+02 -0.10842196226E+03  0.16968335016E+03  0.12509075040E+03 0.  0.
          5    1    3    3  502    0  0.20091979539E+02  0.67390598589E+02 -0.17239372146E+02  0.72524814870E+02  0.41800000000E+01 0.  1.
         -5    1    3    3    0  502 -0.12257628398E+02 -0.30948253340E+02 -0.91182590118E+02  0.97158535288E+02  0.41800000000E+01 0.  1.
        -11    1    1    2    0    0 -0.36851779378E+02 -0.52904391126E+02 -0.84479890098E+01  0.65025354763E+02  0.00000000000E+00 0.  1.
         11    1    1    2    0    0  0.29017428237E+02  0.16462045877E+02  0.81782800820E+01  0.34349590406E+02  0.00000000000E+00 0. -1.
</event>
<event>
 7    1  0.2334784E-009  0.1088376E+03  0.7561462E-02  0.1262738E+00
         -3   -1    0    0    0  501 -0.00000000000E+00  0.00000000000E+00  0.20140807692E+02  0.20140807692E+02  0.00000000000E+00 0.  1.
          3   -1    0    0  501    0  0.00000000000E+00 -0.00000000000E+00 -0.74467666636E+03  0.74467666636E+03  0.00000000000E+00 0. -1.
         25    2    1    2    0    0 -0.46861715604E+02  0.17132344588E+02 -0.52999030095E+03  0.54683443102E+03  0.12509451718E+03 0.  0.
          5    1    3    3  502    0 -0.15575204706E+02  0.70337507510E+02 -0.25836985914E+03  0.26825810049E+03  0.41800000000E+01 0.  1.
         -5    1    3    3    0  502 -0.31286510898E+02 -0.53205162922E+02 -0.27162044180E+03  0.27857633053E+03  0.41800000000E+01 0.  1.
        -11    1    1    2    0    0  0.63021201923E+02 -0.45804152319E+01 -0.81629597522E+02  0.10322811287E+03  0.00000000000E+00 0.  1.
         11    1    1    2    0    0 -0.16159486319E+02 -0.12551929356E+02 -0.11291596020E+03  0.11475493016E+03  0.00000000000E+00 0. -1.
</event>
<event>
 7    1  0.2334784E-009  0.9538314E+02  0.7561462E-02  0.1290315E+00
          2   -1    0    0  501    0  0.00000000000E+00  0.00000000000E+00  0.28397143701E+03  0.28397143701E+03  0.00000000000E+00 0. -1.
         -2   -1    0    0    0  501 -0.00000000000E+00 -0.00000000000E+00 -0.56479589852E+02  0.56479589852E+02  0.00000000000E+00 0.  1.
         25    2    1    2    0    0 -0.19031160105E+01 -0.26158060069E+02  0.20212037757E+03  0.23914879902E+03  0.12510649497E+03 0.  0.
          5    1    3    3  502    0  0.12359710622E+02 -0.57250907784E+02  0.34672913682E+02  0.68191731405E+02  0.41800000000E+01 0. -1.
         -5    1    3    3    0  502 -0.14262826632E+02  0.31092847715E+02  0.16744746389E+03  0.17095706761E+03  0.41800000000E+01 0. -1.
        -11    1    1    2    0    0  0.39600010167E+02  0.41064488119E+02  0.98327874435E+01  0.57889003262E+02  0.00000000000E+00 0.  1.
         11    1    1    2    0    0 -0.37696894157E+02 -0.14906428050E+02  0.15538682144E+02  0.43413224587E+02  0.00000000000E+00 0. -1.
</event>
<event>
 7    1  0.2334784E-009  0.1364524E+03  0.7561462E-02  0.1218184E+00
          2   -1    0    0  501    0  0.00000000000E+00  0.00000000000E+00  0.51874051335E+03  0.51874051335E+03  0.00000000000E+00 0. -1.
         -2   -1    0    0    0  501 -0.00000000000E+00 -0.00000000000E+00 -0.59736746006E+02  0.59736746006E+02  0.00000000000E+00 0.  1.
         25    2    1    2    0    0  0.91490128436E+02 -0.47049506154E+02  0.39485513260E+03  0.42678115362E+03  0.12508987855E+03 0.  0.
          5    1    3    3  502    0  0.63933364358E+01 -0.56773715496E+02  0.26531899216E+03  0.27143280849E+03  0.41800000000E+01 0. -1.
         -5    1    3    3    0  502  0.85096792000E+02  0.97242093424E+01  0.12953614044E+03  0.15534834513E+03  0.41800000000E+01 0. -1.
        -11    1    1    2    0    0 -0.18533396559E+01  0.39902781605E+02  0.44224017287E+02  0.59593880161E+02  0.00000000000E+00 0. -1.
         11    1    1    2    0    0 -0.89636788780E+02  0.71467245496E+01  0.19924617457E+02  0.92102225572E+02  0.00000000000E+00 0.  1.
</event>
<event>
 7    1  0.2334784E-009  0.1200344E+03  0.7561462E-02  0.1243040E+00
         -1   -1    0    0    0  501 -0.00000000000E+00  0.00000000000E+00  0.14213142450E+02  0.14213142450E+02  0.00000000000E+00 0.  1.
          1   -1    0    0  501    0  0.00000000000E+00 -0.00000000000E+00 -0.10817941666E+04  0.10817941666E+04  0.00000000000E+00 0. -1.
         25    2    1    2    0    0 -0.14955291808E+02  0.48376405368E+02 -0.71724971453E+03  0.72983266538E+03  0.12507849177E+03 0.  0.
          5    1    3    3  502    0 -0.36486375635E+02 -0.33089040882E+02 -0.31228501833E+03  0.31617328367E+03  0.41800000000E+01 0.  1.
         -5    1    3    3    0  502  0.21531083826E+02  0.81465446250E+02 -0.40496469621E+03  0.41365938171E+03  0.41800000000E+01 0.  1.
        -11    1    1    2    0    0 -0.30813699959E+02 -0.51907477668E+02 -0.21191364700E+03  0.22034351392E+03  0.00000000000E+00 0. -1.
         11    1    1    2    0    0  0.45768991768E+02  0.35310723006E+01 -0.13841766258E+03  0.14583112971E+03  0.00000000000E+00 0.  1.
</event>
<event>
 7    1  0.2334784E-009  0.1039374E+03  0.7561462E-02  0.1272227E+00
          1   -1    0    0  501    0  0.00000000000E+00  0.00000000000E+00  0.59940069817E+02  0.59940069817E+02  0.00000000000E+00 0. -1.
         -1   -1    0    0    0  501 -0.00000000000E+00 -0.00000000000E+00 -0.28310359396E+03  0.28310359396E+03  0.00000000000E+00 0.  1.
         25    2    1    2    0    0  0.14119790648E+01  0.28513108340E+02 -0.21200745994E+03  0.24780967583E+03  0.12508989300E+03 0.  0.
          5    1    3    3  502    0 -0.60794399891E+02  0.13266066581E+02 -0.84088758193E+02  0.10469163880E+03  0.41800000000E+01 0. -1.
         -5    1    3    3    0  502  0.62206378956E+02  0.15247041759E+02 -0.12791870175E+03  0.14311803702E+03  0.41800000000E+01 0. -1.
        -11    1    1    2    0    0 -0.34713161721E+02 -0.32789524463E+02 -0.30330947858E+02  0.56569628858E+02  0.00000000000E+00 0.  1.
         11    1    1    2    0    0  0.33301182656E+02  0.42764161233E+01  0.19174883652E+02  0.38664359095E+02  0.00000000000E+00 0. -1.
</event>
<event>
 7    1  0.2334784E-009  0.8551405E+02  0.7561462E-02  0.1314094E+00
          2   -1    0    0  501    0  0.00000000000E+00  0.00000000000E+00  0.27261953873E+03  0.27261953873E+03  0.00000000000E+00 0. -1.
         -2   -1    0    0    0  501 -0.00000000000E+00 -0.00000000000E+00 -0.53617204902E+02  0.53617204902E+02  0.00000000000E+00 0.  1.
         25    2    1    2    0    0  0.97081804597E+01  0.53010751162E+02  0.12948610787E+03  0.18792958394E+03  0.12508592200E+03 0.  0.
          5    1    3    3  502    0  0.55877065965E+02  0.22576020213E+02  0.17385481095E+02  0.62862155089E+02  0.41800000000E+01 0. -1.
         -5    1    3    3    0  502 -0.46168885505E+02  0.30434730949E+02  0.11210062677E+03  0.12506742885E+03  0.41800000000E+01 0. -1.
        -11    1    1    2    0    0 -0.12371691516E+02 -0.39519931029E+02  0.10777054648E+03  0.11545290983E+03  0.00000000000E+00 0. -1.
         11    1    1    2    0    0  0.26635110562E+01 -0.13490820133E+02 -0.18254320521E+02  0.22854249861E+02  0.00000000000E+00 0.  1.
</event>
<event>
 7    1  0.2334784E-009  0.9973911E+02  0.7561462E-02  0.1280846E+00
          1   -1    0    0  501    0  0.00000000000E+00  0.00000000000E+00  0.16874755321E+03  0.16874755321E+03  0.00000000000E+00 0. -1.
         -1   -1    0    0    0  501 -0.00000000000E+00 -0.00000000000E+00 -0.75917716896E+02  0.75917716896E+02  0.00000000000E+00 0.  1.
         25    2    1    2    0    0  0.22826988317E+01  0.21257317584E+02  0.72202470933E+02  0.14603228150E+03  0.12512052656E+03 0.  0.
          5    1    3    3  502    0 -0.25763465230E+02  0.59089178984E+02  0.74614345182E+02  0.98691742920E+02  0.41800000000E+01 0. -1.
         -5    1    3    3    0  502  0.28046164061E+02 -0.37831861400E+02 -0.24118742489E+01  0.47340538579E+02  0.41800000000E+01 0. -1.
        -11    1    1    2    0    0 -0.20547746377E+02  0.28193132347E+02  0.28862115911E+02  0.45277856923E+02  0.00000000000E+00 0. -1.
         11    1    1    2    0    0  0.18265047545E+02 -0.49450449931E+02 -0.82347505330E+01  0.53355131680E+02  0.00000000000E+00 0.  1.
</event>
<event>
 7    1  0.2334784E-009  0.1026219E+03  0.7561462E-02  0.1274877E+00
         -2   -1    0    0    0  501 -0.00000000000E+00  0.00000000000E+00  0.39541930993E+02  0.39541930993E+02  0.00000000000E+00 0.  1.
          2   -1    0    0  501    0  0.00000000000E+00 -0.00000000000E+00 -0.36001399387E+03  0.36001399387E+03  0.00000000000E+00 0. -1.
         25    2    1    2    0    0 -0.75834285953E+01 -0.47616603042E+02 -0.20457017973E+03  0.24458592323E+03  0.12509382932E+03 0.  0.
          5    1    3    3  502    0  0.44681781277E+02 -0.50135328890E+02 -0.16696505909E+03  0.18001337766E+03  0.41800000000E+01 0. -1.
         -5    1    3    3    0  502 -0.52265209873E+02  0.25187258481E+01 -0.37605120639E+02  0.64572545568E+02  0.41800000000E+01 0. -1.
        -11    1    1    2    0    0 -0.23859515102E+02 -0.48028534575E+01 -0.81007884908E+02  0.84584994411E+02  0.00000000000E+00 0. -1.
         11    1    1    2    0    0  0.31442943697E+02  0.52419456500E+02 -0.34893998239E+02  0.70385007219E+02  0.00000000000E+00 0.  1.
</event>
<event>
 7    1  0.2334784E-009  0.1385538E+03  0.7561462E-02  0.1215288E+00
          1   -1    0    0  501    0  0.00000000000E+00  0.00000000000E+00  0.99298436416E+03  0.99298436416E+03  0.00000000000E+00 0. -1.
         -1   -1    0    0    0  501 -0.00000000000E+00 -0.00000000000E+00 -0.35170244016E+02  0.35170244016E+02  0.00000000000E+00 0.  1.
         25    2    1    2    0    0 -0.48352370855E+02 -0.12093638133E+03  0.72090857230E+03  0.74318249360E+03  0.12508992401E+03 0.  0.
          5    1    3    3  502    0 -0.26821770579E+02 -0.12100913744E+03  0.70564814912E+03  0.71646311941E+03  0.41800000000E+01 0.  1.
         -5    1    3    3    0  502 -0.21530600276E+02  0.72756102868E-01  0.15260423179E+02  0.26719374193E+02  0.41800000000E+01 0.  1.
        -11    1    1    2    0    0  0.85110308167E+01  0.40633920188E+02  0.16474086035E+03  0.16989144824E+03  0.00000000000E+00 0.  1.
         11    1    1    2    0    0  0.39841340039E+02  0.80302461146E+02  0.72164687490E+02  0.11508066633E+03  0.00000000000E+00 0. -1.
</event>
<event>
 7    1  0.2334784E-009  0.1406543E+03  0.7561462E-02  0.1212451E+00
          1   -1    0    0  501    0  0.00000000000E+00  0.00000000000E+00  0.31543326495E+03  0.31543326495E+03  0.00000000000E+00 0. -1.
         -1   -1    0    0    0  501 -0.00000000000E+00 -0.00000000000E+00 -0.82353521251E+02  0.82353521251E+02  0.00000000000E+00 0.  1.
         25    2    1    2    0    0 -0.35755019557E+02 -0.91910899885E+02  0.20744550707E+03  0.26155456351E+03  0.12510442179E+03 0.  0.
          5    1    3    3  502    0 -0.38675722752E+02  0.21630774525E+02  0.44980101553E+02  0.63280201269E+02  0.41800000000E+01 0.  1.
         -5    1    3    3    0  502  0.29207031951E+01 -0.11354167441E+03  0.16246540551E+03  0.19827436224E+03  0.41800000000E+01 0.  1.
        -11    1    1    2    0    0 -0.41527201096E+01  0.81890228497E+02 -0.89490775709E+01  0.82482365370E+02  0.00000000000E+00 0.  1.
         11    1    1    2    0    0  0.39907739666E+02  0.10020671388E+02  0.34583314202E+02  0.53749857316E+02  0.00000000000E+00 0. -1.
</event>
<event>
 7    1  0.2334784E-009  0.8377722E+02  0.7561462E-02  0.1318662E+00
          1   -1    0    0  501    0  0.00000000000E+00  0.00000000000E+00  0.41844633746E+03  0.41844633746E+03  0.00000000000E+00 0. -1.
         -1   -1    0    0    0  501 -0.00000000000E+00 -0.00000000000E+00 -0.38680903608E+02  0.38680903608E+02  0.00000000000E+00 0.  1.
         25    2    1    2    0    0 -0.22671762555E+01 -0.25629740594E+02  0.10478069500E+03  0.16519090465E+03  0.12508803798E+03 0.  0.
          5    1    3    3  502    0  0.34179521811E+02 -0.26958520701E+02 -0.98484951016E+01  0.44827076699E+02  0.41800000000E+01 0.  1.
         -5    1    3    3    0  502 -0.36446698066E+02  0.13287801067E+01  0.11462919010E+03  0.12036382795E+03  0.41800000000E+01 0.  1.
        -11    1    1    2    0    0 -0.29787971214E+02 -0.16595398229E+02  0.48228536136E+02  0.59065405858E+02  0.00000000000E+00 0. -1.
         11    1    1    2    0    0  0.32055147469E+02  0.42225138824E+02  0.22675620272E+03  0.23287093056E+03  0.00000000000E+00 0.  1.
</event>
<event>
 7    1  0.2334784E-009  0.1172451E+03  0.7561462E-02  0.1247712E+00
          1   -1    0    0  501    0  0.00000000000E+00  0.00000000000E+00  0.15604125396E+03  0.15604125396E+03  0.00000000000E+00 0. -1.
         -1   -1    0    0    0  501 -0.00000000000E+00 -0.00000000000E+00 -0.26686351545E+03  0.26686351545E+03  0.00000000000E+00 0.  1.
         25    2    1    2    0    0 -0.29960885732E+02  0.99533893321E+02  0.84591913877E+02  0.18333409021E+03  0.12510374154E+03 0.  0.
          5    1    3    3  502    0 -0.21242716576E+02  0.10155597966E+03  0.58795591792E+01  0.10400438273E+03  0.41800000000E+01 0. -1.
         -5    1    3    3    0  502 -0.87181691557E+01 -0.20220863343E+01  0.78712354697E+02  0.79329707478E+02  0.41800000000E+01 0. -1.
        -11    1    1    2    0    0  0.40864735986E+02 -0.10174844536E+03 -0.19955824941E+03  0.22769753553E+03  0.00000000000E+00 0.  1.
         11    1    1    2    0    0 -0.10903850254E+02  0.22145520357E+01  0.41440740415E+01  0.11873143676E+02  0.00000000000E+00 0. -1.
</event>
<event>
 7    1  0.2334784E-009  0.1159988E+03  0.7561462E-02  0.1249848E+00
          2   -1    0    0  501    0  0.00000000000E+00  0.00000000000E+00  0.53216382664E+03  0.53216382664E+03  0.00000000000E+00 0. -1.
         -2   -1    0    0    0  501 -0.00000000000E+00 -0.00000000000E+00 -0.35902871522E+02  0.35902871522E+02  0.00000000000E+00 0.  1.
         25    2    1    2    0    0  0.44838742630E+02  0.49671717334E+01  0.42239662698E+03  0.44283471349E+03  0.12509391414E+03 0.  0.
          5    1    3    3  502    0  0.36301247733E+02  0.63683924693E+02  0.22588331158E+03  0.23751666405E+03  0.41800000000E+01 0.  1.
         -5    1    3    3    0  502  0.85374948971E+01 -0.58716752960E+02  0.19651331540E+03  0.20531804944E+03  0.41800000000E+01 0.  1.
        -11    1    1    2    0    0 -0.49242564236E+02  0.34024566146E+02  0.32071531999E+02  0.67904965936E+02  0.00000000000E+00 0. -1.
         11    1    1    2    0    0  0.44038216058E+01 -0.38991737880E+02  0.41792796134E+02  0.57327018729E+02  0.00000000000E+00 0.  1.
</event>
<event>
 7    1  0.2334784E-009  0.1330651E+03  0.7561462E-02  0.1222977E+00
          2   -1    0    0  501    0  0.00000000000E+00  0.00000000000E+00  0.19935262771E+03  0.19935262771E+03  0.00000000000E+00 0. -1.
         -2   -1    0    0    0  501 -0.00000000000E+00 -0.00000000000E+00 -0.10513628385E+03  0.10513628385E+03  0.00000000000E+00 0.  1.
         25    2    1    2    0    0 -0.10178572494E+02  0.94461030783E+02  0.37112920657E+02  0.16140240944E+03  0.12508748627E+03 0.  0.
          5    1    3    3  502    0  0.57355137416E+02  0.47649597135E+02  0.20770328200E+02  0.77517577546E+02  0.41800000000E+01 0. -1.
         -5    1    3    3    0  502 -0.67533709910E+02  0.46811433648E+02  0.16342592456E+02  0.83884831898E+02  0.41800000000E+01 0. -1.
        -11    1    1    2    0    0 -0.20618725619E+02 -0.20604116049E+02  0.55915271293E+02  0.63056950514E+02  0.00000000000E+00 0. -1.
         11    1    1    2    0    0  0.30797298113E+02 -0.73856914733E+02  0.11881519109E+01  0.80029551604E+02  0.00000000000E+00 0.  1.
</event>
<event>
 7    1  0.2334784E-009  0.1201921E+03  0.7561462E-02  0.1242780E+00
         -2   -1    0    0    0  501 -0.00000000000E+00  0.00000000000E+00  0.54087709139E+02  0.54087709139E+02  0.00000000000E+00 0.  1.
          2   -1    0    0  501    0  0.00000000000E+00 -0.00000000000E+00 -0.45947867433E+03  0.45947867433E+03  0.00000000000E+00 0. -1.
         25    2    1    2    0    0  0.45294888043E+02 -0.59978218630E+02 -0.78338231820E+02  0.16563048544E+03  0.12509022963E+03 0.  0.
          5    1    3    3  502    0 -0.12224252587E+02  0.31066515805E+02 -0.37494750768E+02  0.50377470071E+02  0.41800000000E+01 0. -1.
         -5    1    3    3    0  502  0.57519140630E+02 -0.91044734435E+02 -0.40843481052E+02  0.11525301537E+03  0.41800000000E+01 0. -1.
        -11    1    1    2    0    0 -0.35825131807E+02 -0.23686943013E+01 -0.38788866269E+02  0.52854772046E+02  0.00000000000E+00 0. -1.
         11    1    1    2    0    0 -0.94697562361E+01  0.62346912931E+02 -0.28826386710E+03  0.29508112599E+03  0.00000000000E+00 0.  1.
</event>
<event>
 7    1  0.2334784E-009  0.9126939E+02  0.7561462E-02  0.1299806E+00
          1   -1    0    0  501    0  0.00000000000E+00  0.00000000000E+00  0.15155408204E+03  0.15155408204E+03  0.00000000000E+00 0. -1.
         -1   -1    0    0    0  501 -0.00000000000E+00 -0.00000000000E+00 -0.99303129939E+02  0.99303129939E+02  0.00000000000E+00 0.  1.
         25    2    1    2    0    0  0.16539001957E+02  0.40271719408E+02  0.62979911942E+02  0.14666377185E+03  0.12509373563E+03 0.  0.
          5    1    3    3  502    0  0.41245118603E+02 -0.15023265493E+02 -0.16123924306E+02  0.46950097440E+02  0.41800000000E+01 0. -1.
         -5    1    3    3    0  502 -0.24706116646E+02  0.55294984901E+02  0.79103836248E+02  0.99713674408E+02  0.41800000000E+01 0. -1.
        -11    1    1    2    0    0  0.22751490603E+02 -0.29003437916E+02  0.29220194596E+02  0.47038808529E+02  0.00000000000E+00 0. -1.
         11    1    1    2    0    0 -0.39290492559E+02 -0.11268281492E+02 -0.39949154436E+02  0.57154631601E+02  0.00000000000E+00 0.  1.
</event>
<event>
 7    1  0.3187915E-009  0.1077691E+03  0.7561462E-02  0.1264758E+00
          1   -1    0    0  501    0  0.00000000000E+00  0.00000000000E+00  0.10893834967E+04  0.10893834967E+04  0.00000000000E+00 0. -1.
         -1   -1    0    0    0  501 -0.00000000000E+00 -0.00000000000E+00 -0.23276814223E+02  0.23276814223E+02  0.00000000000E+00 0.  1.
         25    2    1    2    0    0  0.21464824553E+02 -0.78840590357E+02  0.86042537248E+03  0.87330600149E+03  0.12511983554E+03 0.  0.
          5    1    3    3  502    0  0.45952886140E+02 -0.26753219634E+02  0.71294166582E+03  0.71493404854E+03  0.41800000000E+01 0. -1.
         -5    1    3    3    0  502 -0.24488061587E+02 -0.52087370723E+02  0.14748370666E+03  0.15837195295E+03  0.41800000000E+01 0. -1.
        -11    1    1    2    0    0  0.18679490726E+02  0.54343580533E+02  0.48205245292E+02  0.75005958380E+02  0.00000000000E+00 0.  1.
         11    1    1    2    0    0 -0.40144315278E+02  0.24497009824E+02  0.15747606469E+03  0.16434835104E+03  0.00000000000E+00 0. -1.
</event>
<event>
 7    1  0.2334784E-009  0.1122705E+03  0.7561462E-02  0.1256422E+00
         -2   -1    0    0    0  501 -0.00000000000E+00  0.00000000000E+00  0.95694927975E+02  0.95694927975E+02  0.00000000000E+00 0.  1.
          2   -1    0    0  501    0  0.00000000000E+00 -0.00000000000E+00 -0.20649572986E+03  0.20649572986E+03  0.00000000000E+00 0. -1.
         25    2    1    2    0    0  0.42704538470E+02  0.24863691410E+02 -0.13977454657E+03  0.19397497995E+03  0.12508992054E+03 0.  0.
          5    1    3    3  502    0 -0.21596703624E+02 -0.36545419577E+02 -0.64881819728E+02  0.77647332412E+02  0.41800000000E+01 0.  1.
         -5    1    3    3    0  502  0.64301242095E+02  0.61409110987E+02 -0.74892726843E+02  0.11632764754E+03  0.41800000000E+01 0.  1.
        -11    1    1    2    0    0  0.22571906158E+02  0.11579268482E+01  0.30458323242E+02  0.37928105633E+02  0.00000000000E+00 0.  1.
         11    1    1    2    0    0 -0.65276444628E+02 -0.26021618258E+02 -0.14845785577E+01  0.70287572256E+02  0.00000000000E+00 0. -1.
</event>
<event>
 7    1  0.2334784E-009  0.6475142E+02  0.7561462E-02  0.1378909E+00
          2   -1    0    0  501    0  0.00000000000E+00  0.00000000000E+00  0.99155624417E+03  0.99155624417E+03  0.00000000000E+00 0. -1.
         -2   -1    0    0    0  501 -0.00000000000E+00 -0.00000000000E+00 -0.13508624999E+02  0.13508624999E+02  0.00000000000E+00 0.  1.
         25    2    1    2    0    0 -0.26092239624E+02 -0.10955728643E+02  0.66506067181E+03  0.67731094232E+03  0.12507430763E+03 0.  0.
          5    1    3    3  502    0 -0.21700070730E+02 -0.15632562993E+02  0.23916976548E+02  0.36121520768E+02  0.41800000000E+01 0. -1.
         -5    1    3    3    0  502 -0.43921688942E+01  0.46768343496E+01  0.64114369526E+03  0.64118942155E+03  0.41800000000E+01 0. -1.
        -11    1    1    2    0    0 -0.82345702650E+01  0.45404062093E+02  0.11572447862E+03  0.12458527984E+03  0.00000000000E+00 0.  1.
         11    1    1    2    0    0  0.34326809889E+02 -0.34448333450E+02  0.19726246874E+03  0.20316864701E+03  0.00000000000E+00 0. -1.
</event>
<event>
 7    1  0.2641939E-009  0.3643627E+03  0.7561462E-02  0.1056870E+00
         -2   -1    0    0    0  501 -0.00000000000E+00  0.00000000000E+00  0.15723488047E+03  0.15723488047E+03  0.00000000000E+00 0.  1.
          2   -1    0    0  501    0  0.00000000000E+00 -0.00000000000E+00 -0.88294778253E+03  0.88294778253E+03  0.00000000000E+00 0. -1.
         25    2    1    2    0    0 -0.34754788098E+03  0.67907689471E+02 -0.31441972104E+03  0.48980404416E+03  0.12508899564E+03 0.  0.
          5    1    3    3  502    0 -0.68505043117E+02  0.64324693461E+02 -0.10431847351E+03  0.14046502567E+03  0.41800000000E+01 0.  1.
         -5    1    3    3    0  502 -0.27904283787E+03  0.35829960104E+01 -0.21010124752E+03  0.34933901849E+03  0.41800000000E+01 0.  1.
        -11    1    1    2    0    0  0.17233068111E+03 -0.49979933413E+02 -0.27186392903E+03  0.32573893428E+03  0.00000000000E+00 0.  1.
         11    1    1    2    0    0  0.17521719987E+03 -0.17927756058E+02 -0.13942925200E+03  0.22463968456E+03  0.00000000000E+00 0. -1.
</event>
<event>
 7    1  0.2334784E-009  0.1570585E+03  0.7561462E-02  0.1192058E+00
         -2   -1    0    0    0  501 -0.00000000000E+00  0.00000000000E+00  0.54133449974E+02  0.54133449974E+02  0.00000000000E+00 0. -1.
          2   -1    0    0  501    0  0.00000000000E+00 -0.00000000000E+00 -0.61657972155E+03  0.61657972155E+03  0.00000000000E+00 0.  1.
         25    2    1    2    0    0  0.93899256564E+01 -0.15332662118E+03 -0.28444438271E+03  0.34663180301E+03  0.12509107297E+03 0.  0.
          5    1    3    3  502    0  0.14042647265E+02 -0.10293995370E+03 -0.27629035990E+03  0.29520783422E+03  0.41800000000E+01 0. -1.
         -5    1    3    3    0  502 -0.46527216091E+01 -0.50386667480E+02 -0.81540228089E+01  0.51423968790E+02  0.41800000000E+01 0. -1.
        -11    1    1    2    0    0  0.16330609344E+02  0.41003227157E+02 -0.12484784251E+03  0.13241954999E+03  0.00000000000E+00 0.  1.
         11    1    1    2    0    0 -0.25720535000E+02  0.11232339403E+03 -0.15315404635E+03  0.19166181853E+03  0.00000000000E+00 0. -1.
</event>
<event>
 7    1  0.2334784E-009  0.8051692E+02  0.7561462E-02  0.1327591E+00
          2   -1    0    0  501    0  0.00000000000E+00  0.00000000000E+00  0.87716529670E+02  0.87716529670E+02  0.00000000000E+00 0. -1.
         -2   -1    0    0    0  501 -0.00000000000E+00 -0.00000000000E+00 -0.17111827756E+03  0.17111827756E+03  0.00000000000E+00 0.  1.
         25    2    1    2    0    0  0.30810307500E+02 -0.34274571394E+02 -0.11031085768E+02  0.13376694793E+03  0.12509152734E+03 0.  0.
          5    1    3    3  502    0  0.17552212091E+02  0.61699157615E+01  0.53248703973E+02  0.56560099757E+02  0.41800000000E+01 0.  1.
         -5    1    3    3    0  502  0.13258095409E+02 -0.40444487155E+02 -0.64279789740E+02  0.77206848169E+02  0.41800000000E+01 0.  1.
        -11    1    1    2    0    0 -0.21186132052E+02 -0.28599401978E+02 -0.12518455208E+02  0.37729162536E+02  0.00000000000E+00 0.  1.
         11    1    1    2    0    0 -0.96241754482E+01  0.62873973372E+02 -0.59852206916E+02  0.87338696770E+02  0.00000000000E+00 0. -1.
</event>
<event>
 7    1  0.2334784E-009  0.8680165E+02  0.7561462E-02  0.1310787E+00
          3   -1    0    0  501    0  0.00000000000E+00  0.00000000000E+00  0.27553377521E+02  0.27553377521E+02  0.00000000000E+00 0. -1.
         -3   -1    0    0    0  501 -0.00000000000E+00 -0.00000000000E+00 -0.49787110104E+03  0.49787110104E+03  0.00000000000E+00 0.  1.
         25    2    1    2    0    0  0.12970899740E+02  0.37245261855E+02 -0.22274468434E+03  0.25849178244E+03  0.12508938171E+03 0.  0.
          5    1    3    3  502    0 -0.76630093268E+01  0.72458733556E+02 -0.72987591052E+02  0.10321652304E+03  0.41800000000E+01 0. -1.
         -5    1    3    3    0  502  0.20633909067E+02 -0.35213471702E+02 -0.14975709329E+03  0.15527525940E+03  0.41800000000E+01 0. -1.
        -11    1    1    2    0    0  0.74726638813E+01  0.73836265866E+01  0.35254318581E+01  0.11080943860E+02  0.00000000000E+00 0. -1.
         11    1    1    2    0    0 -0.20443563621E+02 -0.44628888441E+02 -0.25109847104E+03  0.25585175226E+03  0.00000000000E+00 0.  1.
</event>
<event>
 7    1  0.2334784E-009  0.7774854E+02  0.7561462E-02  0.1335565E+00
          2   -1    0    0  501    0  0.00000000000E+00  0.00000000000E+00  0.25686130224E+03  0.25686130224E+03  0.00000000000E+00 0. -1.
         -2   -1    0    0    0  501 -0.00000000000E+00 -0.00000000000E+00 -0.59977537218E+02  0.59977537218E+02  0.00000000000E+00 0.  1.
         25    2    1    2    0    0  0.35343420278E+02  0.42527214046E+02  0.81668974657E+02  0.15929682423E+03  0.12509170835E+03 0.  0.
          5    1    3    3  502    0  0.27891540525E+02  0.22051378057E+02  0.11433476083E+03  0.11980864426E+03  0.41800000000E+01 0. -1.
         -5    1    3    3    0  502  0.74518797534E+01  0.20475835989E+02 -0.32665786168E+02  0.39488179970E+02  0.41800000000E+01 0. -1.
        -11    1    1    2    0    0  0.11306393229E+02 -0.49112624954E+02  0.26134321926E+02  0.56770478598E+02  0.00000000000E+00 0.  1.
         11    1    1    2    0    0 -0.46649813507E+02  0.65854109079E+01  0.89080468438E+02  0.10077153663E+03  0.00000000000E+00 0. -1.
</event>
<event>
 7    1  0.2334784E-009  0.2013077E+03  0.7561462E-02  0.1148640E+00
         -2   -1    0    0    0  501 -0.00000000000E+00  0.00000000000E+00  0.32158843261E+02  0.32158843261E+02  0.00000000000E+00 0.  1.
          2   -1    0    0  501    0  0.00000000000E+00 -0.00000000000E+00 -0.14516604399E+04  0.14516604399E+04  0.00000000000E+00 0. -1.
         25    2    1    2    0    0  0.46921160876E+01 -0.18589971012E+03 -0.78031879291E+03  0.81186516604E+03  0.12508761366E+03 0.  0.
          5    1    3    3  502    0  0.69205307794E+01  0.12072804536E+01 -0.23830631600E+03  0.23844648020E+03  0.41800000000E+01 0.  1.
         -5    1    3    3    0  502 -0.22284146918E+01 -0.18710699057E+03 -0.54201247691E+03  0.57341868585E+03  0.41800000000E+01 0.  1.
        -11    1    1    2    0    0  0.42998071210E+02  0.10336532933E+03 -0.34153615525E+03  0.35941643087E+03  0.00000000000E+00 0. -1.
         11    1    1    2    0    0 -0.47690187298E+02  0.82534380786E+02 -0.29764664849E+03  0.31253768626E+03  0.00000000000E+00 0.  1.
</event>
<event>
 7    1  0.2334784E-009  0.1210256E+03  0.7561462E-02  0.1241415E+00
          2   -1    0    0  501    0  0.00000000000E+00  0.00000000000E+00  0.59785789164E+03  0.59785789164E+03  0.00000000000E+00 0.  1.
         -2   -1    0    0    0  501 -0.00000000000E+00 -0.00000000000E+00 -0.25125180436E+02  0.25125180436E+02  0.00000000000E+00 0. -1.
         25    2    1    2    0    0  0.53714197558E+02 -0.15957213075E+02  0.28946980381E+03  0.32028071323E+03  0.12508844984E+03 0.  0.
          5    1    3    3  502    0  0.49331186771E+02  0.50186313386E+02  0.15650037573E+03  0.17164519231E+03  0.41800000000E+01 0. -1.
         -5    1    3    3    0  502  0.43830107877E+01 -0.66143526461E+02  0.13296942808E+03  0.14863552093E+03  0.41800000000E+01 0. -1.
        -11    1    1    2    0    0  0.18597450491E+01 -0.31803330319E+02  0.11149825962E+03  0.11596021891E+03  0.00000000000E+00 0.  1.
         11    1    1    2    0    0 -0.55573942608E+02  0.47760543394E+02  0.17176464777E+03  0.18674213993E+03  0.00000000000E+00 0. -1.
</event>
<event>
 7    1  0.2334784E-009  0.1012342E+03  0.7561462E-02  0.1277722E+00
         -1   -1    0    0    0  501 -0.00000000000E+00  0.00000000000E+00  0.14630983908E+03  0.14630983908E+03  0.00000000000E+00 0.  1.
          1   -1    0    0  501    0  0.00000000000E+00 -0.00000000000E+00 -0.81579081906E+02  0.81579081906E+02  0.00000000000E+00 0. -1.
         25    2    1    2    0    0  0.20741997008E+02 -0.81445556374E+01  0.62249016573E+02  0.14148451894E+03  0.12508543004E+03 0.  0.
          5    1    3    3  502    0 -0.52212673664E+02 -0.11208910331E+02  0.21153431404E+02  0.57591171391E+02  0.41800000000E+01 0.  1.
         -5    1    3    3    0  502  0.72954670672E+02  0.30643546941E+01  0.41095585169E+02  0.83893347549E+02  0.41800000000E+01 0.  1.
        -11    1    1    2    0    0  0.19009670303E+02  0.25982217003E+02  0.21657830137E+02  0.38800834677E+02  0.00000000000E+00 0.  1.
         11    1    1    2    0    0 -0.39751667311E+02 -0.17837661365E+02 -0.19176089531E+02  0.47603567373E+02  0.00000000000E+00 0. -1.
</event>
<event>
 7    1  0.2334784E-009  0.2178091E+03  0.7561462E-02  0.1135527E+00
         -1   -1    0    0    0  501 -0.00000000000E+00  0.00000000000E+00  0.30871881692E+03  0.30871881692E+03  0.00000000000E+00 0.  1.
          1   -1    0    0  501    0  0.00000000000E+00 -0.00000000000E+00 -0.17741775097E+03  0.17741775097E+03  0.00000000000E+00 0. -1.
         25    2    1    2    0    0  0.61008153826E+02  0.18881392436E+03  0.13170565003E+03  0.26900755082E+03  0.12508393696E+03 0.  0.
          5    1    3    3  502    0  0.75320652265E+02  0.84799120572E+02  0.11682815709E+03  0.16288149740E+03  0.41800000000E+01 0. -1.
         -5    1    3    3    0  502 -0.14312498439E+02  0.10401480379E+03  0.14877492942E+02  0.10612605342E+03  0.41800000000E+01 0. -1.
        -11    1    1    2    0    0 -0.67940399180E+02 -0.68323272926E+02  0.28455856711E+01  0.96395356848E+02  0.00000000000E+00 0.  1.
         11    1    1    2    0    0  0.69322453546E+01 -0.12049065143E+03 -0.32501697542E+01  0.12073366023E+03  0.00000000000E+00 0. -1.
</event>
<event>
 7    1  0.2334784E-009  0.1901705E+03  0.7561462E-02  0.1158308E+00
          2   -1    0    0  501    0  0.00000000000E+00  0.00000000000E+00  0.43702560847E+03  0.43702560847E+03  0.00000000000E+00 0. -1.
         -2   -1    0    0    0  501 -0.00000000000E+00 -0.00000000000E+00 -0.10853003787E+03  0.10853003787E+03  0.00000000000E+00 0.  1.
         25    2    1    2    0    0  0.74279744379E+02 -0.17141263761E+03  0.93453978277E+02  0.24347632043E+03  0.12508916738E+03 0.  0.
          5    1    3    3  502    0  0.54665289907E+02 -0.79901153128E+02  0.11186709498E+03  0.14800070112E+03  0.41800000000E+01 0.  1.
         -5    1    3    3    0  502  0.19614454472E+02 -0.91511484478E+02 -0.18413116704E+02  0.95475619308E+02  0.41800000000E+01 0.  1.
        -11    1    1    2    0    0 -0.72265465264E+02  0.13362226141E+03  0.18834991205E+03  0.24197705590E+03  0.00000000000E+00 0.  1.
         11    1    1    2    0    0 -0.20142791154E+01  0.37790376197E+02  0.46691680273E+02  0.60102270008E+02  0.00000000000E+00 0. -1.
</event>
<event>
 7    1  0.2334784E-009  0.8738519E+02  0.7561462E-02  0.1309310E+00
          1   -1    0    0  501    0  0.00000000000E+00  0.00000000000E+00  0.96294534670E+03  0.96294534670E+03  0.00000000000E+00 0. -1.
         -1   -1    0    0    0  501 -0.00000000000E+00 -0.00000000000E+00 -0.24827227996E+02  0.24827227996E+02  0.00000000000E+00 0.  1.
         25    2    1    2    0    0 -0.66869796181E+02  0.15223826443E+02  0.76571277934E+03  0.77888787372E+03  0.12508766867E+03 0.  0.
          5    1    3    3  502    0  0.69441575184E+01  0.10177734403E+02  0.56141080545E+03  0.56156154826E+03  0.41800000000E+01 0. -1.
         -5    1    3    3    0  502 -0.73813953699E+02  0.50460920395E+01  0.20430197389E+03  0.21732632546E+03  0.41800000000E+01 0. -1.
        -11    1    1    2    0    0  0.19909216314E+02  0.20556350878E+02  0.21661892307E+01  0.28699004015E+02  0.00000000000E+00 0.  1.
         11    1    1    2    0    0  0.46960579867E+02 -0.35780177321E+02  0.17023915013E+03  0.18018569696E+03  0.00000000000E+00 0. -1.
</event>
<event>
 7    1  0.2334784E-009  0.1064379E+03  0.7561462E-02  0.1267312E+00
         -1   -1    0    0    0  501 -0.00000000000E+00  0.00000000000E+00  0.73131317322E+02  0.73131317322E+02  0.00000000000E+00 0.  1.
          1   -1    0    0  501    0  0.00000000000E+00 -0.00000000000E+00 -0.23693491414E+03  0.23693491414E+03  0.00000000000E+00 0. -1.
         25    2    1    2    0    0  0.75080677714E+02  0.57115237630E+01 -0.85225540035E+02  0.16905849739E+03  0.12509057996E+03 0.  0.
          5    1    3    3  502    0  0.99434503409E+02  0.20637647283E+02 -0.28741904468E+02  0.10562529255E+03  0.41800000000E+01 0. -1.
         -5    1    3    3    0  502 -0.24353825696E+02 -0.14926123520E+02 -0.56483635567E+02  0.63433204839E+02  0.41800000000E+01 0. -1.
        -11    1    1    2    0    0 -0.26394848416E+02  0.13958944175E+02  0.15218559052E+02  0.33513350847E+02  0.00000000000E+00 0.  1.
         11    1    1    2    0    0 -0.48685829298E+02 -0.19670467938E+02 -0.93796615838E+02  0.10749438323E+03  0.00000000000E+00 0. -1.
</event>
<event>
 7    1  0.2334784E-009  0.3087958E+03  0.7561462E-02  0.1080924E+00
         -1   -1    0    0    0  501 -0.00000000000E+00  0.00000000000E+00  0.14190150181E+03  0.14190150181E+03  0.00000000000E+00 0.  1.
          1   -1    0    0  501    0  0.00000000000E+00 -0.00000000000E+00 -0.68179070084E+03  0.68179070084E+03  0.00000000000E+00 0. -1.
         25    2    1    2    0    0 -0.11243247809E+03 -0.26718171325E+03 -0.29115950259E+03  0.42947497875E+03  0.12509105242E+03 0.  0.
          5    1    3    3  502    0 -0.44341982537E+02 -0.22970792913E+03 -0.18747449308E+03  0.29982678678E+03  0.41800000000E+01 0. -1.
         -5    1    3    3    0  502 -0.68090495551E+02 -0.37473784122E+02 -0.10368500952E+03  0.12964819196E+03  0.41800000000E+01 0. -1.
        -11    1    1    2    0    0  0.12985717410E+03  0.21987502620E+03 -0.20450205066E+03  0.32715287181E+03  0.00000000000E+00 0.  1.
         11    1    1    2    0    0 -0.17424696013E+02  0.47306687052E+02 -0.44227645774E+02  0.67064352093E+02  0.00000000000E+00 0. -1.
</event>
<event>
 7    1  0.2334784E-009  0.1243431E+03  0.7561462E-02  0.1236099E+00
         -2   -1    0    0    0  501 -0.00000000000E+00  0.00000000000E+00  0.19436192498E+02  0.19436192498E+02  0.00000000000E+00 0.  1.
          2   -1    0    0  501    0  0.00000000000E+00 -0.00000000000E+00 -0.11564531743E+04  0.11564531743E+04  0.00000000000E+00 0. -1.
         25    2    1    2    0    0 -0.20713493084E+02 -0.80738778803E+02 -0.84588733935E+03  0.85913965650E+03  0.12509100410E+03 0.  0.
          5    1    3    3  502    0 -0.23496680333E+02  0.15234116541E+02 -0.48022811276E+03  0.48106203859E+03  0.41800000000E+01 0. -1.
         -5    1    3    3    0  502  0.27831872493E+01 -0.95972895344E+02 -0.36565922659E+03  0.37807761791E+03  0.41800000000E+01 0. -1.
        -11    1    1    2    0    0 -0.27090503806E+02  0.70298791135E+02 -0.19044376500E+03  0.20480391368E+03  0.00000000000E+00 0.  1.
         11    1    1    2    0    0  0.47803996890E+02  0.10439987668E+02 -0.10068587746E+03  0.11194579662E+03  0.00000000000E+00 0. -1.
</event>
<event>
 7    1  0.2334784E-009  0.1240025E+03  0.7561462E-02  0.1236636E+00
         -2   -1    0    0    0  501 -0.00000000000E+00  0.00000000000E+00  0.28986240533E+02  0.28986240533E+02  0.00000000000E+00 0.  1.
          2   -1    0    0  501    0  0.00000000000E+00 -0.00000000000E+00 -0.61020817173E+03  0.61020817173E+03  0.00000000000E+00 0. -1.
         25    2    1    2    0    0 -0.50464245389E+02 -0.50950636676E+02 -0.27229520381E+03  0.30811662298E+03  0.12509423609E+03 0.  0.
          5    1    3    3  502    0  0.15865376403E+02  0.33138488587E+02 -0.72683649388E+02  0.81549094922E+02  0.41800000000E+01 0.  1.
         -5    1    3    3    0  502 -0.66329621793E+02 -0.84089125263E+02 -0.19961155442E+03  0.22656752806E+03  0.41800000000E+01 0.  1.
        -11    1    1    2    0    0 -0.52201209949E+00  0.52821849486E+02 -0.75528953370E+02  0.92168557963E+02  0.00000000000E+00 0.  1.
         11    1    1    2    0    0  0.50986257489E+02 -0.18712128107E+01 -0.23339777402E+03  0.23890923131E+03  0.00000000000E+00 0. -1.
</event>
<event>
 7    1  0.2334784E-009  0.2691978E+03  0.7561462E-02  0.1101740E+00
          1   -1    0    0  501    0  0.00000000000E+00  0.00000000000E+00  0.30855692034E+04  0.30855692034E+04  0.00000000000E+00 0. -1.
         -1   -1    0    0    0  501 -0.00000000000E+00 -0.00000000000E+00 -0.39886596620E+02  0.39886596620E+02  0.00000000000E+00 0.  1.
         25    2    1    2    0    0 -0.12069690769E+03  0.22758943806E+03  0.25246089483E+04  0.25407995425E+04  0.12508907759E+03 0.  0.
          5    1    3    3  502    0  0.14412112877E+02  0.33684680523E+02  0.69611145828E+03  0.69708751348E+03  0.41800000000E+01 0.  1.
         -5    1    3    3    0  502 -0.13510902057E+03  0.19390475754E+03  0.18284974901E+04  0.18437120290E+04  0.41800000000E+01 0.  1.
        -11    1    1    2    0    0  0.83068825652E+02 -0.89864869288E+02  0.23937385828E+03  0.26884190253E+03  0.00000000000E+00 0. -1.
         11    1    1    2    0    0  0.37628082041E+02 -0.13772456877E+03  0.28169980014E+03  0.31581435496E+03  0.00000000000E+00 0.  1.
</event>
<event>
 7    1  0.2334784E-009  0.2730551E+03  0.7561462E-02  0.1099544E+00
          1   -1    0    0  501    0  0.00000000000E+00  0.00000000000E+00  0.38571743112E+03  0.38571743112E+03  0.00000000000E+00 0. -1.
         -1   -1    0    0    0  501 -0.00000000000E+00 -0.00000000000E+00 -0.24568739729E+03  0.24568739729E+03  0.00000000000E+00 0.  1.
         25    2    1    2    0    0  0.26461826255E+03  0.67824839272E+01 -0.43959390530E+02  0.29605362894E+03  0.12508595538E+03 0.  0.
          5    1    3    3  502    0  0.43724945877E+02 -0.20005901598E+02 -0.55067306365E+02  0.73225594029E+02  0.41800000000E+01 0.  1.
         -5    1    3    3    0  502  0.22089331667E+03  0.26788385525E+02  0.11107915835E+02  0.22282803491E+03  0.41800000000E+01 0.  1.
        -11    1    1    2    0    0 -0.41580832953E+02  0.27192899958E+02  0.10579445909E+02  0.50797088036E+02  0.00000000000E+00 0.  1.
         11    1    1    2    0    0 -0.22303742959E+03 -0.33975383885E+02  0.17340997845E+03  0.28455411144E+03  0.00000000000E+00 0. -1.
</event>
<event>
 7    1  0.2334784E-009  0.1085878E+03  0.7561462E-02  0.1263208E+00
         -1   -1    0    0    0  501 -0.00000000000E+00  0.00000000000E+00  0.25144110288E+03  0.25144110288E+03  0.00000000000E+00 0.  1.
          1   -1    0    0  501    0  0.00000000000E+00 -0.00000000000E+00 -0.50443686096E+02  0.50443686096E+02  0.00000000000E+00 0. -1.
         25    2    1    2    0    0 -0.26251862090E+02 -0.16561103495E+02  0.12091918523E+03  0.17672687244E+03  0.12508999829E+03 0.  0.
          5    1    3    3  502    0 -0.11697448848E+02  0.54548494348E+02  0.47330529437E+02  0.73280420045E+02  0.41800000000E+01 0.  1.
         -5    1    3    3    0  502 -0.14554413243E+02 -0.71109597843E+02  0.73588655796E+02  0.10344645239E+03  0.41800000000E+01 0.  1.
        -11    1    1    2    0    0  0.17742322836E+02 -0.33413880537E+02  0.10857898773E+02  0.39359514707E+02  0.00000000000E+00 0. -1.
         11    1    1    2    0    0  0.85095392542E+01  0.49974984032E+02  0.69220332780E+02  0.85798401835E+02  0.00000000000E+00 0.  1.
</event>
<event>
 7    1  0.2334784E-009  0.1075934E+03  0.7561462E-02  0.1265093E+00
         -1   -1    0    0    0  501 -0.00000000000E+00  0.00000000000E+00  0.44382913014E+02  0.44382913014E+02  0.00000000000E+00 0.  1.
          1   -1    0    0  501    0  0.00000000000E+00 -0.00000000000E+00 -0.43857460857E+03  0.43857460857E+03  0.00000000000E+00 0. -1.
         25    2    1    2    0    0 -0.42248307926E+02 -0.79406444647E+02 -0.18862076806E+03  0.24354794066E+03  0.12508997674E+03 0.  0.
          5    1    3    3  502    0 -0.60106090274E+02 -0.26566916510E+02 -0.24668249163E+02  0.70317409349E+02  0.41800000000E+01 0.  1.
         -5    1    3    3    0  502  0.17857782347E+02 -0.52839528137E+02 -0.16395251890E+03  0.17323053131E+03  0.41800000000E+01 0.  1.
        -11    1    1    2    0    0  0.25747079703E+02  0.69603309405E+02 -0.20725602574E+03  0.22014221085E+03  0.00000000000E+00 0. -1.
         11    1    1    2    0    0  0.16501228223E+02  0.98031352426E+01  0.16850982455E+01  0.19267370074E+02  0.00000000000E+00 0.  1.
</event>
<event>
 7    1  0.2334784E-009  0.1012388E+03  0.7561462E-02  0.1277712E+00
         -2   -1    0    0    0  501 -0.00000000000E+00  0.00000000000E+00  0.47546775161E+02  0.47546775161E+02  0.00000000000E+00 0.  1.
          2   -1    0    0  501    0  0.00000000000E+00 -0.00000000000E+00 -0.25844595461E+03  0.25844595461E+03  0.00000000000E+00 0. -1.
         25    2    1    2    0    0  0.11178064851E+02  0.20105582385E+02 -0.12607125252E+03  0.17908575890E+03  0.12509422350E+03 0.  0.
          5    1    3    3  502    0  0.55186375558E+02  0.45175915762E+02 -0.48497805216E+02  0.86347605195E+02  0.41800000000E+01 0.  1.
         -5    1    3    3    0  502 -0.44008310707E+02 -0.25070333377E+02 -0.77573447303E+02  0.92738153709E+02  0.41800000000E+01 0.  1.
        -11    1    1    2    0    0 -0.21424150122E+02  0.25596393315E+02 -0.70377511571E+02  0.77892000194E+02  0.00000000000E+00 0. -1.
         11    1    1    2    0    0  0.10246085271E+02 -0.45701975700E+02 -0.14450415361E+02  0.49014970676E+02  0.00000000000E+00 0.  1.
</event>
<event>
 7    1  0.2334784E-009  0.5544077E+02  0.7561462E-02  0.1418026E+00
         -2   -1    0    0    0  501 -0.00000000000E+00  0.00000000000E+00  0.51389117794E+02  0.51389117794E+02  0.00000000000E+00 0.  1.
          2   -1    0    0  501    0  0.00000000000E+00 -0.00000000000E+00 -0.24064404530E+03  0.24064404530E+03  0.00000000000E+00 0. -1.
         25    2    1    2    0    0  0.22565208134E+02  0.11074430291E+02 -0.10886175971E+03  0.16772120509E+03  0.12509072022E+03 0.  0.
          5    1    3    3  502    0  0.35539134679E+01  0.17599781224E+02 -0.13400153433E+03  0.13526369136E+03  0.41800000000E+01 0. -1.
         -5    1    3    3    0  502  0.19011294667E+02 -0.65253509330E+01  0.25139774615E+02  0.32457513728E+02  0.41800000000E+01 0. -1.
        -11    1    1    2    0    0 -0.86216613611E+01  0.28595663320E+02  0.38923347348E+01  0.30119682518E+02  0.00000000000E+00 0.  1.
         11    1    1    2    0    0 -0.13943546773E+02 -0.39670093610E+02 -0.84285502536E+02  0.94192275487E+02  0.00000000000E+00 0. -1.
</event>
<event>
 7    1  0.2334784E-009  0.3016769E+03  0.7561462E-02  0.1084405E+00
          2   -1    0    0  501    0  0.00000000000E+00  0.00000000000E+00  0.12512627057E+04  0.12512627057E+04  0.00000000000E+00 0.  1.
         -2   -1    0    0    0  501 -0.00000000000E+00 -0.00000000000E+00 -0.11549365920E+03  0.11549365920E+03  0.00000000000E+00 0. -1.
         25    2    1    2    0    0 -0.20026291062E+02 -0.28778653828E+03  0.97518674610E+03  0.10246259646E+04  0.12508810351E+03 0.  0.
          5    1    3    3  502    0  0.49091113006E+02 -0.15778731291E+03  0.46005019412E+03  0.48884601564E+03  0.41800000000E+01 0. -1.
         -5    1    3    3    0  502 -0.69117404068E+02 -0.12999922537E+03  0.51513655198E+03  0.53577994898E+03  0.41800000000E+01 0. -1.
        -11    1    1    2    0    0 -0.86835757471E+00  0.21588663257E+03  0.15742418082E+03  0.26718938017E+03  0.00000000000E+00 0. -1.
         11    1    1    2    0    0  0.20894648636E+02  0.71899905709E+02  0.31581196149E+01  0.74941020157E+02  0.00000000000E+00 0.  1.
</event>
<event>
 7    1  0.2454688E-009  0.1072932E+03  0.7561462E-02  0.1265666E+00
         -1   -1    0    0    0  501 -0.00000000000E+00  0.00000000000E+00  0.74758447755E+02  0.74758447755E+02  0.00000000000E+00 0.  1.
          1   -1    0    0  501    0  0.00000000000E+00 -0.00000000000E+00 -0.20828871918E+03  0.20828871918E+03  0.00000000000E+00 0. -1.
         25    2    1    2    0    0 -0.58050156592E+02 -0.20075554631E+02 -0.80904260634E+02  0.16113729511E+03  0.12508748903E+03 0.  0.
          5    1    3    3  502    0  0.20963026713E+02 -0.35195933635E+02  0.71496324554E+01  0.41794639341E+02  0.41800000000E+01 0.  1.
         -5    1    3    3    0  502 -0.79013183305E+02  0.15120379004E+02 -0.88053893090E+02  0.11934265577E+03  0.41800000000E+01 0.  1.
        -11    1    1    2    0    0  0.10742024885E+02 -0.25185138954E+02 -0.49251854511E+02  0.56350931629E+02  0.00000000000E+00 0. -1.
         11    1    1    2    0    0  0.47308131706E+02  0.45260693584E+02 -0.33741562792E+01  0.65558940198E+02  0.00000000000E+00 0.  1.
</event>
<event>
 7    1  0.2334784E-009  0.4197812E+02  0.7561462E-02  0.1494139E+00
          2   -1    0    0  501    0  0.00000000000E+00  0.00000000000E+00  0.21625025320E+03  0.21625025320E+03  0.00000000000E+00 0. -1.
         -2   -1    0    0    0  501 -0.00000000000E+00 -0.00000000000E+00 -0.58201172545E+02  0.58201172545E+02  0.00000000000E+00 0.  1.
         25    2    1    2    0    0  0.22473336448E+02 -0.13589656355E+02  0.92611943480E+02  0.15784098596E+03  0.12508826949E+03 0.  0.
          5    1    3    3  502    0  0.16867446588E+02 -0.83668627815E+01  0.12388269057E+03  0.12537507157E+03  0.41800000000E+01 0.  1.
         -5    1    3    3    0  502  0.56058898606E+01 -0.52227935736E+01 -0.31270747092E+02  0.32465914396E+02  0.41800000000E+01 0.  1.
        -11    1    1    2    0    0 -0.37560710241E+02  0.15694694298E+02 -0.81052161866E+01  0.41506926077E+02  0.00000000000E+00 0.  1.
         11    1    1    2    0    0  0.15087373793E+02 -0.21050379429E+01  0.73542353360E+02  0.75103513702E+02  0.00000000000E+00 0. -1.
</event>
<event>
 7    1  0.2334784E-009  0.1685098E+03  0.7561462E-02  0.1179411E+00
          2   -1    0    0  501    0  0.00000000000E+00  0.00000000000E+00  0.41744879482E+03  0.41744879482E+03  0.00000000000E+00 0.  1.
         -2   -1    0    0    0  501 -0.00000000000E+00 -0.00000000000E+00 -0.78101484122E+02  0.78101484122E+02  0.00000000000E+00 0. -1.
         25    2    1    2    0    0  0.11212710539E+03  0.77617784926E+02  0.11579787088E+03  0.21829778430E+03  0.12509103656E+03 0.  0.
          5    1    3    3  502    0 -0.66205612622E+01  0.61014362560E+02  0.60184132966E+02  0.86059203638E+02  0.41800000000E+01 0.  1.
         -5    1    3    3    0  502  0.11874766665E+03  0.16603422367E+02  0.55613737918E+02  0.13223858066E+03  0.41800000000E+01 0.  1.
        -11    1    1    2    0    0 -0.12338734822E+03 -0.72955516768E+02  0.17015676688E+03  0.22248656239E+03  0.00000000000E+00 0. -1.
         11    1    1    2    0    0  0.11260242837E+02 -0.46622681579E+01  0.53392672935E+02  0.54765932259E+02  0.00000000000E+00 0.  1.
</event>
<event>
 7    1  0.2334784E-009  0.1120985E+03  0.7561462E-02  0.1256732E+00
          1   -1    0    0  501    0  0.00000000000E+00  0.00000000000E+00  0.13209090626E+03  0.13209090626E+03  0.00000000000E+00 0. -1.
         -1   -1    0    0    0  501 -0.00000000000E+00 -0.00000000000E+00 -0.13785551069E+03  0.13785551069E+03  0.00000000000E+00 0.  1.
         25    2    1    2    0    0 -0.25507797311E+02 -0.59294093268E+02  0.44613275444E+02  0.14766217962E+03  0.12508931899E+03 0.  0.
          5    1    3    3  502    0 -0.77441597249E+01 -0.84332189792E+02  0.68125690564E+02  0.10876797488E+03  0.41800000000E+01 0.  1.
         -5    1    3    3    0  502 -0.17763637586E+02  0.25038096524E+02 -0.23512415121E+02  0.38894204744E+02  0.41800000000E+01 0.  1.
        -11    1    1    2    0    0 -0.19539421999E+02  0.60278513485E+02 -0.43118450457E+02  0.76645214918E+02  0.00000000000E+00 0.  1.
         11    1    1    2    0    0  0.45047219310E+02 -0.98442021698E+00 -0.72594294165E+01  0.45639022406E+02  0.00000000000E+00 0. -1.
</event>
<event>
 7    1  0.2334784E-009  0.2109906E+03  0.7561462E-02  0.1140784E+00
          3   -1    0    0  501    0  0.00000000000E+00  0.00000000000E+00  0.30172744166E+03  0.30172744166E+03  0.00000000000E+00 0. -1.
         -3   -1    0    0    0  501 -0.00000000000E+00 -0.00000000000E+00 -0.37146480421E+03  0.37146480421E+03  0.00000000000E+00 0.  1.
         25    2    1    2    0    0 -0.18816095929E+03 -0.25852268290E+02  0.21892043692E+03  0.31566865488E+03  0.12509058955E+03 0.  0.
          5    1    3    3  502    0 -0.55728950198E+02 -0.51991480702E+02  0.13943984670E+03  0.15896469169E+03  0.41800000000E+01 0. -1.
         -5    1    3    3    0  502 -0.13243200910E+03  0.26139212412E+02  0.79480590224E+02  0.15670396320E+03  0.41800000000E+01 0. -1.
        -11    1    1    2    0    0  0.13017032530E+03 -0.26076338014E+02 -0.17189239087E+03  0.21718950949E+03  0.00000000000E+00 0. -1.
         11    1    1    2    0    0  0.57990633991E+02  0.51928606304E+02 -0.11676540860E+03  0.14033408150E+03  0.00000000000E+00 0.  1.
</event>
<event>
 7    1  0.2334784E-009  0.1295525E+03  0.7561462E-02  0.1228121E+00
          2   -1    0    0  501    0  0.00000000000E+00  0.00000000000E+00  0.63880955211E+02  0.63880955211E+02  0.00000000000E+00 0. -1.
         -2   -1    0    0    0  501 -0.00000000000E+00 -0.00000000000E+00 -0.31672586431E+03  0.31672586431E+03  0.00000000000E+00 0.  1.
         25    2    1    2    0    0 -0.71974667543E+02 -0.52252736916E+02 -0.12514313209E+03  0.19803682374E+03  0.12508828388E+03 0.  0.
          5    1    3    3  502    0 -0.10096082512E+03 -0.59654003491E+02 -0.74268595091E+02  0.13887038906E+03  0.41800000000E+01 0. -1.
         -5    1    3    3    0  502  0.28986157574E+02  0.74012665753E+01 -0.50874536997E+02  0.59166434678E+02  0.41800000000E+01 0. -1.
        -11    1    1    2    0    0  0.71639928039E+02  0.13621434417E+02 -0.12387818691E+03  0.14374848854E+03  0.00000000000E+00 0.  1.
         11    1    1    2    0    0  0.33473950371E+00  0.38631302499E+02 -0.38235900995E+01  0.38821507242E+02  0.00000000000E+00 0. -1.
</event>
<event>
 7    1  0.2334784E-009  0.1253886E+03  0.7561462E-02  0.1234463E+00
          2   -1    0    0  501    0  0.00000000000E+00  0.00000000000E+00  0.53552842988E+03  0.53552842988E+03  0.00000000000E+00 0.  1.
         -2   -1    0    0    0  501 -0.00000000000E+00 -0.00000000000E+00 -0.52531144911E+02  0.52531144911E+02  0.00000000000E+00 0. -1.
         25    2    1    2    0    0  0.53924982299E+02  0.10251498671E+03  0.15570869842E+03  0.23088910759E+03  0.12508938812E+03 0.  0.
          5    1    3    3  502    0 -0.15638867826E+02  0.17817067058E+02  0.10908248967E+03  0.11170713504E+03  0.41800000000E+01 0. -1.
         -5    1    3    3    0  502  0.69563850125E+02  0.84697919653E+02  0.46626208753E+02  0.11918197255E+03  0.41800000000E+01 0. -1.
        -11    1    1    2    0    0 -0.19913200112E+02 -0.55724348445E+02  0.26754556703E+03  0.27401162199E+03  0.00000000000E+00 0. -1.
         11    1    1    2    0    0 -0.34011782186E+02 -0.46790638265E+02  0.59743019514E+02  0.83158845214E+02  0.00000000000E+00 0.  1.
</event>
<event>
 7    1  0.2334784E-009  0.1187117E+03  0.7561462E-02  0.1245238E+00
         -1   -1    0    0    0  501 -0.00000000000E+00  0.00000000000E+00  0.40112325548E+02  0.40112325548E+02  0.00000000000E+00 0.  1.
          1   -1    0    0  501    0  0.00000000000E+00 -0.00000000000E+00 -0.85954122194E+03  0.85954122194E+03  0.00000000000E+00 0. -1.
         25    2    1    2    0    0  0.79022364986E+02  0.71104884654E+02 -0.68298672714E+03  0.70243681533E+03  0.12508465652E+03 0.  0.
          5    1    3    3  502    0  0.22830821311E+02  0.52988114232E+02 -0.93241301034E+02  0.10972875316E+03  0.41800000000E+01 0. -1.
         -5    1    3    3    0  502  0.56191543674E+02  0.18116770422E+02 -0.58974542610E+03  0.59270806217E+03  0.41800000000E+01 0. -1.
        -11    1    1    2    0    0  0.90361664290E+01 -0.55199776838E+01  0.97432316357E+01  0.14389337027E+02  0.00000000000E+00 0.  1.
         11    1    1    2    0    0 -0.88058531414E+02 -0.65584906970E+02 -0.14618540089E+03  0.18282739513E+03  0.00000000000E+00 0. -1.
</event>
<event>
 7    1  0.2334784E-009  0.8745029E+02  0.7561462E-02  0.1309146E+00
          2   -1    0    0  501    0  0.00000000000E+00  0.00000000000E+00  0.25854355347E+02  0.25854355347E+02  0.00000000000E+00 0. -1.
         -2   -1    0    0    0  501 -0.00000000000E+00 -0.00000000000E+00 -0.46031594122E+03  0.46031594122E+03  0.00000000000E+00 0.  1.
         25    2    1    2    0    0 -0.31405994661E+02 -0.50951933339E+02 -0.26216710436E+03  0.29658050126E+03  0.12508384031E+03 0.  0.
          5    1    3    3  502    0 -0.19720922628E+02 -0.79432341744E+02 -0.25021574529E+03  0.26329413836E+03  0.41800000000E+01 0. -1.
         -5    1    3    3    0  502 -0.11685072033E+02  0.28480408405E+02 -0.11951359066E+02  0.33286362896E+02  0.41800000000E+01 0. -1.
        -11    1    1    2    0    0  0.14604069162E+02  0.10228294330E+02 -0.80912110600E+01  0.19579697071E+02  0.00000000000E+00 0. -1.
         11    1    1    2    0    0  0.16801925499E+02  0.40723639009E+02 -0.16420327045E+03  0.17001009823E+03  0.00000000000E+00 0.  1.
</event>
<event>
 7    1  0.2334784E-009  0.1085233E+03  0.7561462E-02  0.1263329E+00
          2   -1    0    0  501    0  0.00000000000E+00  0.00000000000E+00  0.81945713545E+03  0.81945713545E+03  0.00000000000E+00 0. -1.
         -2   -1    0    0    0  501 -0.00000000000E+00 -0.00000000000E+00 -0.16228940618E+02  0.16228940618E+02  0.00000000000E+00 0.  1.
         25    2    1    2    0    0 -0.23668342849E+02  0.33033833933E+02  0.45929675993E+03  0.47775814670E+03  0.12509160013E+03 0.  0.
          5    1    3    3  502    0  0.17163570019E+02  0.70794811133E+02  0.30753951980E+03  0.31607676609E+03  0.41800000000E+01 0. -1.
         -5    1    3    3    0  502 -0.40831912868E+02 -0.37760977200E+02  0.15175724012E+03  0.16168138061E+03  0.41800000000E+01 0. -1.
        -11    1    1    2    0    0 -0.15624923403E+02 -0.44673548710E+02  0.10068450799E+03  0.11125301944E+03  0.00000000000E+00 0.  1.
         11    1    1    2    0    0  0.39293266252E+02  0.11639714778E+02  0.24324692692E+03  0.24667490993E+03  0.00000000000E+00 0. -1.
</event>
<event>
 7    1  0.2334784E-009  0.4793078E+03  0.7561462E-02  0.1019326E+00
          1   -1    0    0  501    0  0.00000000000E+00  0.00000000000E+00  0.32526798246E+03  0.32526798246E+03  0.00000000000E+00 0. -1.
         -1   -1    0    0    0  501 -0.00000000000E+00 -0.00000000000E+00 -0.71966798059E+03  0.71966798059E+03  0.00000000000E+00 0.  1.
         25    2    1    2    0    0  0.42917613791E+03  0.19361073235E+03 -0.22176706732E+03  0.53525885316E+03  0.12507651539E+03 0.  0.
          5    1    3    3  502    0  0.30289613701E+03  0.17943399978E+03 -0.20392003442E+03  0.40687035150E+03  0.41800000000E+01 0. -1.
         -5    1    3    3    0  502  0.12628000090E+03  0.14176732567E+02 -0.17847032898E+02  0.12838850165E+03  0.41800000000E+01 0. -1.
        -11    1    1    2    0    0 -0.33587460925E+03 -0.10811945631E+03 -0.13277530541E+03  0.37700245583E+03  0.00000000000E+00 0. -1.
         11    1    1    2    0    0 -0.93301528659E+02 -0.85491276043E+02 -0.39857625392E+02  0.13267465407E+03  0.00000000000E+00 0.  1.
</event>
<event>
 7    1  0.2334784E-009  0.3002719E+03  0.7561462E-02  0.1085105E+00
          2   -1    0    0  501    0  0.00000000000E+00  0.00000000000E+00  0.14183820338E+04  0.14183820338E+04  0.00000000000E+00 0.  1.
         -2   -1    0    0    0  501 -0.00000000000E+00 -0.00000000000E+00 -0.73634279318E+02  0.73634279318E+02  0.00000000000E+00 0. -1.
         25    2    1    2    0    0 -0.85024051467E+02 -0.28768056127E+03  0.57072068292E+03  0.65677905727E+03  0.12508971781E+03 0.  0.
          5    1    3    3  502    0 -0.24134044380E+02 -0.10246593627E+03  0.33320144946E+03  0.34946015297E+03  0.41800000000E+01 0. -1.
         -5    1    3    3    0  502 -0.60890007088E+02 -0.18521462500E+03  0.23751923346E+03  0.30731890430E+03  0.41800000000E+01 0. -1.
        -11    1    1    2    0    0  0.59474268794E+02  0.21781142383E+03  0.45876211537E+03  0.51131368405E+03  0.00000000000E+00 0. -1.
         11    1    1    2    0    0  0.25549782674E+02  0.69869137439E+02  0.31526495615E+03  0.32392357176E+03  0.00000000000E+00 0.  1.
</event>
<event>
 7    1  0.2334784E-009  0.1051647E+03  0.7561462E-02  0.1269795E+00
          2   -1    0    0  501    0  0.00000000000E+00  0.00000000000E+00  0.59903047454E+03  0.59903047454E+03  0.00000000000E+00 0.  1.
         -2   -1    0    0    0  501 -0.00000000000E+00 -0.00000000000E+00 -0.28887425011E+02  0.28887425011E+02  0.00000000000E+00 0. -1.
         25    2    1    2    0    0 -0.59312391497E+02 -0.47587950110E+02  0.29983344016E+03  0.33366164503E+03  0.12508968282E+03 0.  0.
          5    1    3    3  502    0 -0.75700834393E+02 -0.48767223467E+02  0.10625829054E+03  0.13934545246E+03  0.41800000000E+01 0.  1.
         -5    1    3    3    0  502  0.16388442897E+02  0.11792733569E+01  0.19357514962E+03  0.19431619257E+03  0.41800000000E+01 0.  1.
        -11    1    1    2    0    0  0.14922224508E+01  0.45340743069E+02  0.54940391825E+02  0.71249255181E+02  0.00000000000E+00 0. -1.
         11    1    1    2    0    0  0.57820169046E+02  0.22472070404E+01  0.21536921754E+03  0.22300699934E+03  0.00000000000E+00 0.  1.
</event>
<event>
 7    1  0.2334784E-009  0.1229349E+03  0.7561462E-02  0.1238332E+00
          1   -1    0    0  501    0  0.00000000000E+00  0.00000000000E+00  0.18139490427E+03  0.18139490427E+03  0.00000000000E+00 0.  1.
         -1   -1    0    0    0  501 -0.00000000000E+00 -0.00000000000E+00 -0.14677541326E+03  0.14677541326E+03  0.00000000000E+00 0. -1.
         25    2    1    2    0    0 -0.38703987285E+02  0.89446347047E+02  0.89586131975E+02  0.18214097807E+03  0.12510400960E+03 0.  0.
          5    1    3    3  502    0  0.20796026602E+02 -0.16393159273E+02  0.45671318985E+02  0.52958022728E+02  0.41800000000E+01 0. -1.
         -5    1    3    3    0  502 -0.59500013887E+02  0.10583950632E+03  0.43914812990E+02  0.12918295534E+03  0.41800000000E+01 0. -1.
        -11    1    1    2    0    0  0.31180665269E+02 -0.67043963906E+02  0.12097664560E+02  0.74923163779E+02  0.00000000000E+00 0.  1.
         11    1    1    2    0    0  0.75233220165E+01 -0.22402383141E+02 -0.67064305527E+02  0.71106175684E+02  0.00000000000E+00 0. -1.
</event>
<event>
 7    1  0.2456151E-009  0.8069987E+02  0.7561462E-02  0.1327077E+00
         -1   -1    0    0    0  501 -0.00000000000E+00  0.00000000000E+00  0.86566683063E+02  0.86566683063E+02  0.00000000000E+00 0.  1.
          1   -1    0    0  501    0  0.00000000000E+00 -0.00000000000E+00 -0.20384690604E+03  0.20384690604E+03  0.00000000000E+00 0. -1.
         25    2    1    2    0    0 -0.23310639200E+01  0.11242895335E+02 -0.14792799123E+03  0.19407008610E+03  0.12509464888E+03 0.  0.
          5    1    3    3  502    0 -0.11405107855E+02 -0.45552523817E+02 -0.12209528141E+03  0.13088101105E+03  0.41800000000E+01 0.  1.
         -5    1    3    3    0  502  0.90740439346E+01  0.56795419152E+02 -0.25832709821E+02  0.63189075058E+02  0.41800000000E+01 0.  1.
        -11    1    1    2    0    0 -0.10607946368E+02  0.20073439601E+02 -0.23366980365E+02  0.32580473829E+02  0.00000000000E+00 0. -1.
         11    1    1    2    0    0  0.12939010288E+02 -0.31316334936E+02  0.54014748614E+02  0.63763029170E+02  0.00000000000E+00 0.  1.
</event>
<event>
 7    1  0.2334784E-009  0.9081420E+02  0.7561462E-02  0.1300892E+00
          2   -1    0    0  501    0  0.00000000000E+00  0.00000000000E+00  0.12878933890E+03  0.12878933890E+03  0.00000000000E+00 0. -1.
         -2   -1    0    0    0  501 -0.00000000000E+00 -0.00000000000E+00 -0.92064904892E+02  0.92064904892E+02  0.00000000000E+00 0.  1.
         25    2    1    2    0    0  0.61067480118E+01 -0.40199778601E+01  0.11397111583E+02  0.12582211437E+03  0.12509139746E+03 0.  0.
          5    1    3    3  502    0 -0.15748030060E+02 -0.47346031299E+02  0.44454415572E+02  0.66957558157E+02  0.41800000000E+01 0.  1.
         -5    1    3    3    0  502  0.21854778072E+02  0.43326053439E+02 -0.33057303989E+02  0.58864556214E+02  0.41800000000E+01 0.  1.
        -11    1    1    2    0    0 -0.37063336575E+02  0.25661759694E+02 -0.66177940106E+01  0.45563274973E+02  0.00000000000E+00 0.  1.
         11    1    1    2    0    0  0.30956588563E+02 -0.21641781834E+02  0.31945116440E+02  0.49468854452E+02  0.00000000000E+00 0. -1.
</event>
<event>
 7    1  0.2334784E-009  0.1049461E+03  0.7561462E-02  0.1270226E+00
         -1   -1    0    0    0  501 -0.00000000000E+00  0.00000000000E+00  0.30128919380E+03  0.30128919380E+03  0.00000000000E+00 0.  1.
          1   -1    0    0  501    0  0.00000000000E+00 -0.00000000000E+00 -0.69111510710E+02  0.69111510710E+02  0.00000000000E+00 0. -1.
         25    2    1    2    0    0 -0.60349538615E+02 -0.20950437580E+02  0.32784497871E+02  0.14423427740E+03  0.12509083032E+03 0.  0.
          5    1    3    3  502    0  0.17299014332E+02  0.13247731283E+02  0.52528117987E+02  0.57021345655E+02  0.41800000000E+01 0.  1.
         -5    1    3    3    0  502 -0.77648552948E+02 -0.34198168864E+02 -0.19743620116E+02  0.87212931746E+02  0.41800000000E+01 0.  1.
        -11    1    1    2    0    0  0.47180918404E+01 -0.28158512717E+02  0.86310700423E+02  0.90910391247E+02  0.00000000000E+00 0.  1.
         11    1    1    2    0    0  0.55631446775E+02  0.49108950297E+02  0.11308248479E+03  0.13525603586E+03  0.00000000000E+00 0. -1.
</event>
<event>
 7    1  0.2334784E-009  0.9984531E+02  0.7561462E-02  0.1280622E+00
          3   -1    0    0  501    0  0.00000000000E+00  0.00000000000E+00  0.95810002350E+02  0.95810002350E+02  0.00000000000E+00 0. -1.
         -3   -1    0    0    0  501 -0.00000000000E+00 -0.00000000000E+00 -0.17562319912E+03  0.17562319912E+03  0.00000000000E+00 0.  1.
         25    2    1    2    0    0 -0.34771434133E+02 -0.26093538532E+02  0.14081161930E+02  0.13317581957E+03  0.12509034500E+03 0.  0.
          5    1    3    3  502    0 -0.54356118461E+02  0.12253503226E+02  0.51490396604E+02  0.75983348820E+02  0.41800000000E+01 0. -1.
         -5    1    3    3    0  502  0.19584684328E+02 -0.38347041758E+02 -0.37409234674E+02  0.57192470752E+02  0.41800000000E+01 0. -1.
        -11    1    1    2    0    0  0.45331744755E+02  0.54123346803E+02 -0.74138328891E+02  0.10237575671E+03  0.00000000000E+00 0.  1.
         11    1    1    2    0    0 -0.10560310622E+02 -0.28029808271E+02 -0.19756029807E+02  0.35881625184E+02  0.00000000000E+00 0. -1.
</event>
<event>
 7    1  0.2334784E-009  0.1750076E+03  0.7561462E-02  0.1172724E+00
          2   -1    0    0  501    0  0.00000000000E+00  0.00000000000E+00  0.10982989790E+03  0.10982989790E+03  0.00000000000E+00 0. -1.
         -2   -1    0    0    0  501 -0.00000000000E+00 -0.00000000000E+00 -0.33347697637E+03  0.33347697637E+03  0.00000000000E+00 0.  1.
         25    2    1    2    0    0  0.79970640204E+02  0.12504967100E+03 -0.55760548617E+02  0.20196238018E+03  0.12508733235E+03 0.  0.
          5    1    3    3  502    0  0.68954182128E+02  0.14306223033E+03 -0.19860552346E+02  0.16010432511E+03  0.41800000000E+01 0.  1.
         -5    1    3    3    0  502  0.11016458076E+02 -0.18012559329E+02 -0.35899996271E+02  0.41858055072E+02  0.41800000000E+01 0.  1.
        -11    1    1    2    0    0 -0.85192255543E+02 -0.59611541584E+02 -0.12647062462E+03  0.16372560944E+03  0.00000000000E+00 0.  1.
         11    1    1    2    0    0  0.52216153382E+01 -0.65438129417E+02 -0.41415905231E+02  0.77618884650E+02  0.00000000000E+00 0. -1.
</event>
<event>
 7    1  0.2573679E-009  0.1795207E+03  0.7561462E-02  0.1168268E+00
          2   -1    0    0  501    0  0.00000000000E+00  0.00000000000E+00  0.17568471206E+04  0.17568471206E+04  0.00000000000E+00 0. -1.
         -2   -1    0    0    0  501 -0.00000000000E+00 -0.00000000000E+00 -0.20077859513E+02  0.20077859513E+02  0.00000000000E+00 0.  1.
         25    2    1    2    0    0  0.14040017586E+03  0.60339277018E+02  0.90224885115E+03  0.92360885724E+03  0.12508914439E+03 0.  0.
          5    1    3    3  502    0  0.12688958153E+03  0.91990363620E+02  0.63250971750E+03  0.65165113983E+03  0.41800000000E+01 0. -1.
         -5    1    3    3    0  502  0.13510594328E+02 -0.31651086602E+02  0.26973913364E+03  0.27195771741E+03  0.41800000000E+01 0. -1.
        -11    1    1    2    0    0 -0.38676965689E+02  0.14498914767E+02  0.10297605997E+03  0.11095131874E+03  0.00000000000E+00 0.  1.
         11    1    1    2    0    0 -0.10172321017E+03 -0.74838191784E+02  0.73154434995E+03  0.74236480411E+03  0.00000000000E+00 0. -1.
</event>
<event>
 7    1  0.2334784E-009  0.8137785E+02  0.7561462E-02  0.1325186E+00
         -2   -1    0    0    0  501 -0.00000000000E+00  0.00000000000E+00  0.49081553337E+02  0.49081553337E+02  0.00000000000E+00 0. -1.
          2   -1    0    0  501    0  0.00000000000E+00 -0.00000000000E+00 -0.28885814784E+03  0.28885814784E+03  0.00000000000E+00 0.  1.
         25    2    1    2    0    0 -0.55675633078E+01  0.13460812990E+02 -0.71070760453E+02  0.14460495224E+03  0.12508935995E+03 0.  0.
          5    1    3    3  502    0 -0.20572863122E+02 -0.33522762475E+02 -0.84515425806E+02  0.93313171097E+02  0.41800000000E+01 0.  1.
         -5    1    3    3    0  502  0.15005299814E+02  0.46983575465E+02  0.13444665353E+02  0.51291781139E+02  0.41800000000E+01 0.  1.
        -11    1    1    2    0    0 -0.67017273693E+01  0.28866385425E+02 -0.13400644769E+03  0.13724397757E+03  0.00000000000E+00 0.  1.
         11    1    1    2    0    0  0.12269290677E+02 -0.42327198415E+02 -0.34699386367E+02  0.56090771377E+02  0.00000000000E+00 0. -1.
</event>
<event>
 7    1  0.2334784E-009  0.6712607E+02  0.7561462E-02  0.1370148E+00
          3   -1    0    0  501    0  0.00000000000E+00  0.00000000000E+00  0.35484205016E+02  0.35484205016E+02  0.00000000000E+00 0. -1.
         -3   -1    0    0    0  501 -0.00000000000E+00 -0.00000000000E+00 -0.40518276089E+03  0.40518276089E+03  0.00000000000E+00 0.  1.
         25    2    1    2    0    0 -0.20931687683E+02 -0.56152732842E+00 -0.29448554986E+03  0.32063753577E+03  0.12509292309E+03 0.  0.
          5    1    3    3  502    0  0.25996305967E+02  0.13521680734E+02 -0.89846358479E+01  0.30932828114E+02  0.41800000000E+01 0.  1.
         -5    1    3    3    0  502 -0.46927993649E+02 -0.14083208062E+02 -0.28550091402E+03  0.28970470766E+03  0.41800000000E+01 0.  1.
        -11    1    1    2    0    0  0.27234341991E+02  0.20808526393E+02 -0.88568483706E+02  0.94968839418E+02  0.00000000000E+00 0.  1.
         11    1    1    2    0    0 -0.63026543086E+01 -0.20246999064E+02  0.13355477696E+02  0.25060590714E+02  0.00000000000E+00 0. -1.
</event>
<event>
 7    1  0.2334784E-009  0.1050222E+03  0.7561462E-02  0.1270076E+00
          1   -1    0    0  501    0  0.00000000000E+00  0.00000000000E+00  0.34213050407E+03  0.34213050407E+03  0.00000000000E+00 0. -1.
         -1   -1    0    0    0  501 -0.00000000000E+00 -0.00000000000E+00 -0.44839897973E+02  0.44839897973E+02  0.00000000000E+00 0.  1.
         25    2    1    2    0    0  0.38168478429E+02  0.18815648410E+02  0.10005333693E+03  0.16573986623E+03  0.12509265229E+03 0.  0.
          5    1    3    3  502    0  0.35294055001E+02  0.59311875857E+02  0.14070008763E+02  0.70562075385E+02  0.41800000000E+01 0.  1.
         -5    1    3    3    0  502  0.28744234275E+01 -0.40496227447E+02  0.85983328164E+02  0.95177790842E+02  0.41800000000E+01 0.  1.
        -11    1    1    2    0    0 -0.94259483076E+01  0.36527903384E+02  0.69258565214E+02  0.78866248058E+02  0.00000000000E+00 0.  1.
         11    1    1    2    0    0 -0.28742530121E+02 -0.55343551793E+02  0.12797870395E+03  0.14236428776E+03  0.00000000000E+00 0. -1.
</event>
<event>
 7    1  0.2334784E-009  0.9481142E+02  0.7561462E-02  0.1291601E+00
          4   -1    0    0  501    0  0.00000000000E+00  0.00000000000E+00  0.17316054007E+03  0.17316054007E+03  0.00000000000E+00 0. -1.
         -4   -1    0    0    0  501 -0.00000000000E+00 -0.00000000000E+00 -0.89923663223E+02  0.89923663223E+02  0.00000000000E+00 0.  1.
         25    2    1    2    0    0  0.45658670921E+02  0.22572962527E+01  0.25944280093E+01  0.13323588274E+03  0.12512098056E+03 0.  0.
          5    1    3    3  502    0  0.61678012817E+02 -0.17540840160E+02 -0.45443127114E+02  0.78704564928E+02  0.41800000000E+01 0. -1.
         -5    1    3    3    0  502 -0.16019341896E+02  0.19798136413E+02  0.48037555124E+02  0.54531317813E+02  0.41800000000E+01 0. -1.
        -11    1    1    2    0    0 -0.13612577011E+01 -0.40808566424E+02  0.20120947784E+02  0.45519717221E+02  0.00000000000E+00 0. -1.
         11    1    1    2    0    0 -0.44297413220E+02  0.38551270171E+02  0.60521501048E+02  0.84328603326E+02  0.00000000000E+00 0.  1.
</event>
<event>
 7    1  0.2334784E-009  0.7041826E+02  0.7561462E-02  0.1358676E+00
         -2   -1    0    0    0  501 -0.00000000000E+00  0.00000000000E+00  0.11572772740E+03  0.11572772740E+03  0.00000000000E+00 0.  1.
          2   -1    0    0  501    0  0.00000000000E+00 -0.00000000000E+00 -0.11055728034E+03  0.11055728034E+03  0.00000000000E+00 0. -1.
         25    2    1    2    0    0  0.25695421802E+02 -0.40083395657E+01 -0.12551672208E+02  0.12837917683E+03  0.12508935639E+03 0.  0.
          5    1    3    3  502    0 -0.99812194432E+01  0.11769039008E+02 -0.62700748219E+02  0.64706964447E+02  0.41800000000E+01 0. -1.
         -5    1    3    3    0  502  0.35676641245E+02 -0.15777378573E+02  0.50149076011E+02  0.63672212384E+02  0.41800000000E+01 0. -1.
        -11    1    1    2    0    0 -0.29648931640E+02  0.39787148105E+02 -0.12199613583E+02  0.51097033899E+02  0.00000000000E+00 0. -1.
         11    1    1    2    0    0  0.39535098383E+01 -0.35778808539E+02  0.29921732853E+02  0.46808797010E+02  0.00000000000E+00 0.  1.
</event>
<event>
 7    1  0.2334784E-009  0.9736701E+02  0.7561462E-02  0.1285932E+00
         -2   -1    0    0    0  501 -0.00000000000E+00  0.00000000000E+00  0.27456810882E+03  0.27456810882E+03  0.00000000000E+00 0.  1.
          2   -1    0    0  501    0  0.00000000000E+00 -0.00000000000E+00 -0.85028584961E+02  0.85028584961E+02  0.00000000000E+00 0. -1.
         25    2    1    2    0    0 -0.52165856448E+02 -0.19389650729E+02  0.20665357215E+03  0.24789323523E+03  0.12509245403E+03 0.  0.
          5    1    3    3  502    0 -0.60134801515E+02  0.68319207954E+01  0.27500581423E+02  0.66607986560E+02  0.41800000000E+01 0. -1.
         -5    1    3    3    0  502  0.79689450672E+01 -0.26221571525E+02  0.17915299072E+03  0.18128524867E+03  0.41800000000E+01 0. -1.
        -11    1    1    2    0    0 -0.14209979738E+02 -0.23397136974E+02  0.85306682210E+01  0.28672667177E+02  0.00000000000E+00 0.  1.
         11    1    1    2    0    0  0.66375836186E+02  0.42786787704E+02 -0.25644716512E+02  0.83030791375E+02  0.00000000000E+00 0. -1.
</event>
<event>
 7    1  0.2334784E-009  0.1568716E+03  0.7561462E-02  0.1192275E+00
          4   -1    0    0  501    0  0.00000000000E+00  0.00000000000E+00  0.15828538293E+03  0.15828538293E+03  0.00000000000E+00 0. -1.
         -4   -1    0    0    0  501 -0.00000000000E+00 -0.00000000000E+00 -0.17845045653E+03  0.17845045653E+03  0.00000000000E+00 0.  1.
         25    2    1    2    0    0 -0.41398571801E+01  0.12645323835E+03 -0.28856827644E+02  0.18024214445E+03  0.12508778609E+03 0.  0.
          5    1    3    3  502    0  0.39724896675E+01 -0.21627603565E+02  0.13262685086E+02  0.26017400443E+02  0.41800000000E+01 0. -1.
         -5    1    3    3    0  502 -0.81123468476E+01  0.14808084191E+03 -0.42119512730E+02  0.15422474401E+03  0.41800000000E+01 0. -1.
        -11    1    1    2    0    0  0.33943590010E+02 -0.45745126456E+02 -0.27381129564E+02  0.63202137254E+02  0.00000000000E+00 0.  1.
         11    1    1    2    0    0 -0.29803732830E+02 -0.80708111891E+02  0.36072883611E+02  0.93291557751E+02  0.00000000000E+00 0. -1.
</event>
<event>
 7    1  0.2334784E-009  0.6198005E+02  0.7561462E-02  0.1389705E+00
          2   -1    0    0  501    0  0.00000000000E+00  0.00000000000E+00  0.64109777169E+02  0.64109777169E+02  0.00000000000E+00 0. -1.
         -2   -1    0    0    0  501 -0.00000000000E+00 -0.00000000000E+00 -0.18385032537E+03  0.18385032537E+03  0.00000000000E+00 0.  1.
         25    2    1    2    0    0 -0.90743430278E+01  0.64150637512E+01 -0.61519531930E+02  0.13984098335E+03  0.12508937233E+03 0.  0.
          5    1    3    3  502    0 -0.43539002677E+02 -0.17125945778E+02 -0.80967099132E+02  0.93606016446E+02  0.41800000000E+01 0.  1.
         -5    1    3    3    0  502  0.34464659650E+02  0.23541009529E+02  0.19447567202E+02  0.46234966903E+02  0.41800000000E+01 0.  1.
        -11    1    1    2    0    0  0.10237295897E+02 -0.19436862927E+02  0.19458775792E+02  0.29346853717E+02  0.00000000000E+00 0. -1.
         11    1    1    2    0    0 -0.11629528696E+01  0.13021799176E+02 -0.77679792064E+02  0.78772265476E+02  0.00000000000E+00 0.  1.
</event>
<event>
 7    1  0.2334784E-009  0.1597883E+03  0.7561462E-02  0.1188936E+00
         -1   -1    0    0    0  501 -0.00000000000E+00  0.00000000000E+00  0.63983695298E+02  0.63983695298E+02  0.00000000000E+00 0.  1.
          1   -1    0    0  501    0  0.00000000000E+00 -0.00000000000E+00 -0.53661006307E+03  0.53661006307E+03  0.00000000000E+00 0. -1.
         25    2    1    2    0    0  0.10026887687E+03  0.73225803514E+02 -0.11287191690E+03  0.20929252376E+03  0.12508966747E+03 0.  0.
          5    1    3    3  502    0  0.42032856931E+02  0.97770229370E+02 -0.96866018330E+02  0.14396623465E+03  0.41800000000E+01 0. -1.
         -5    1    3    3    0  502  0.58236019940E+02 -0.24544425856E+02 -0.16005898567E+02  0.65326289103E+02  0.41800000000E+01 0. -1.
        -11    1    1    2    0    0 -0.66186567902E+02 -0.90026718419E+02 -0.22390682278E+03  0.25023935959E+03  0.00000000000E+00 0.  1.
         11    1    1    2    0    0 -0.34082308969E+02  0.16800914905E+02 -0.13584762809E+03  0.14106187502E+03  0.00000000000E+00 0. -1.
</event>
<event>
 7    1  0.2334784E-009  0.9937449E+02  0.7561462E-02  0.1281617E+00
          1   -1    0    0  501    0  0.00000000000E+00  0.00000000000E+00  0.16915595555E+03  0.16915595555E+03  0.00000000000E+00 0. -1.
         -1   -1    0    0    0  501 -0.00000000000E+00 -0.00000000000E+00 -0.14095180236E+03  0.14095180236E+03  0.00000000000E+00 0.  1.
         25    2    1    2    0    0 -0.74855936062E+02  0.12705704818E+02 -0.63156290958E+02  0.15937304748E+03  0.12508479155E+03 0.  0.
          5    1    3    3  502    0 -0.52102885399E+01  0.18621128673E+02  0.34165253924E+02  0.39479494873E+02  0.41800000000E+01 0.  1.
         -5    1    3    3    0  502 -0.69645647522E+02 -0.59154238545E+01 -0.97321544882E+02  0.11989355261E+03  0.41800000000E+01 0.  1.
        -11    1    1    2    0    0  0.27980511190E+02 -0.44313796274E+02  0.12805281928E+02  0.53949947098E+02  0.00000000000E+00 0.  1.
         11    1    1    2    0    0  0.46875424872E+02  0.31608091455E+02  0.78555162224E+02  0.96784763338E+02  0.00000000000E+00 0. -1.
</event>
<event>
 7    1  0.2334784E-009  0.9323458E+02  0.7561462E-02  0.1295202E+00
          4   -1    0    0  501    0  0.00000000000E+00  0.00000000000E+00  0.35339485284E+02  0.35339485284E+02  0.00000000000E+00 0.  1.
         -4   -1    0    0    0  501 -0.00000000000E+00 -0.00000000000E+00 -0.34186519904E+03  0.34186519904E+03  0.00000000000E+00 0. -1.
         25    2    1    2    0    0  0.45735124599E+01  0.11905322442E+02 -0.19665419860E+03  0.23341735119E+03  0.12509249493E+03 0.  0.
          5    1    3    3  502    0  0.23434164727E+02 -0.41756832110E+02 -0.28557792980E+02  0.55908971053E+02  0.41800000000E+01 0.  1.
         -5    1    3    3    0  502 -0.18860652267E+02  0.53662154552E+02 -0.16809640562E+03  0.17750838013E+03  0.41800000000E+01 0.  1.
        -11    1    1    2    0    0  0.79397081222E+01  0.33419645849E+02 -0.14168653554E+02  0.37157266278E+02  0.00000000000E+00 0.  1.
         11    1    1    2    0    0 -0.12513220582E+02 -0.45324968291E+02 -0.95702861599E+02  0.10663006686E+03  0.00000000000E+00 0. -1.
</event>
<event>
 7    1  0.2618108E-009  0.1432350E+03  0.7561462E-02  0.1209041E+00
          1   -1    0    0  501    0  0.00000000000E+00  0.00000000000E+00  0.87169110263E+02  0.87169110263E+02  0.00000000000E+00 0. -1.
         -1   -1    0    0    0  501 -0.00000000000E+00 -0.00000000000E+00 -0.29665295787E+03  0.29665295787E+03  0.00000000000E+00 0.  1.
         25    2    1    2    0    0  0.96168375130E+02 -0.62189204788E+02 -0.77068995528E+02  0.18628998208E+03  0.12509385989E+03 0.  0.
          5    1    3    3  502    0  0.11434938879E+03 -0.77357845644E+02 -0.43132847481E+02  0.14469946071E+03  0.41800000000E+01 0. -1.
         -5    1    3    3    0  502 -0.18181013658E+02  0.15168640856E+02 -0.33936148047E+02  0.41590521364E+02  0.41800000000E+01 0. -1.
        -11    1    1    2    0    0 -0.27117453200E+02  0.45973788849E+02 -0.11144556704E+03  0.12356803771E+03  0.00000000000E+00 0.  1.
         11    1    1    2    0    0 -0.69050921931E+02  0.16215415939E+02 -0.20969285038E+02  0.73964048352E+02  0.00000000000E+00 0. -1.
</event>
<event>
 7    1  0.2334784E-009  0.9503674E+02  0.7561462E-02  0.1291093E+00
         -2   -1    0    0    0  501 -0.00000000000E+00  0.00000000000E+00  0.65327143090E+02  0.65327143090E+02  0.00000000000E+00 0.  1.
          2   -1    0    0  501    0  0.00000000000E+00 -0.00000000000E+00 -0.23483546174E+03  0.23483546174E+03  0.00000000000E+00 0. -1.
         25    2    1    2    0    0  0.19333630545E+02  0.40184690534E+02 -0.14989175202E+03  0.20026816000E+03  0.12510475596E+03 0.  0.
          5    1    3    3  502    0 -0.12652005792E+02  0.60997848370E+02 -0.14934935920E+03  0.16187499575E+03  0.41800000000E+01 0.  1.
         -5    1    3    3    0  502  0.31985636337E+02 -0.20813157836E+02 -0.54239281631E+00  0.38393164248E+02  0.41800000000E+01 0.  1.
        -11    1    1    2    0    0 -0.40487326463E+02 -0.51299584763E+02 -0.32237080267E+02  0.72870435330E+02  0.00000000000E+00 0.  1.
         11    1    1    2    0    0  0.21153695918E+02  0.11114894229E+02  0.12620513638E+02  0.27024009495E+02  0.00000000000E+00 0. -1.
</event>
<event>
 6    1  0.2387251E-009  0.1067173E+03  0.7561462E-02  0.1266773E+00
          2   -1    0    0  501    0  0.00000000000E+00  0.00000000000E+00  0.60250322332E+03  0.60250322332E+03  0.00000000000E+00 0. -1.
         -2   -1    0    0    0  501 -0.00000000000E+00 -0.00000000000E+00 -0.20577591263E+02  0.20577591263E+02  0.00000000000E+00 0.  1.
          5    1    1    2  502    0 -0.67787434634E+01 -0.50484830969E+02  0.13924230775E+03  0.14832586487E+03  0.41800000000E+01 0.  1.
         -5    1    1    2    0  502  0.79535926662E+00  0.76731701325E+02  0.19019852489E+03  0.20513736338E+03  0.41800000000E+01 0.  1.
        -11    1    1    2    0    0 -0.13701206398E+02 -0.51594401813E+02  0.95701075238E+02  0.10958285065E+03  0.00000000000E+00 0. -1.
         11    1    1    2    0    0  0.19684590595E+02  0.25347531457E+02  0.15678372417E+03  0.16003473568E+03  0.00000000000E+00 0.  1.
</event>
<event>
 7    1  0.2334784E-009  0.1186357E+03  0.7561462E-02  0.1245365E+00
          2   -1    0    0  501    0  0.00000000000E+00  0.00000000000E+00  0.77492251689E+02  0.77492251689E+02  0.00000000000E+00 0.  1.
         -2   -1    0    0    0  501 -0.00000000000E+00 -0.00000000000E+00 -0.33768242186E+03  0.33768242186E+03  0.00000000000E+00 0. -1.
         25    2    1    2    0    0 -0.85961639336E+02  0.56294538894E+02 -0.21686399737E+03  0.27061777861E+03  0.12508201390E+03 0.  0.
          5    1    3    3  502    0 -0.74767545979E+02  0.69022186819E+01 -0.37188886413E+02  0.83894649574E+02  0.41800000000E+01 0.  1.
         -5    1    3    3    0  502 -0.11194093358E+02  0.49392320212E+02 -0.17967511096E+03  0.18672312904E+03  0.41800000000E+01 0.  1.
        -11    1    1    2    0    0  0.18246069995E+01 -0.19225010931E+02 -0.48770444562E+02  0.52454613703E+02  0.00000000000E+00 0. -1.
         11    1    1    2    0    0  0.84137032337E+02 -0.37069527963E+02  0.54442717555E+01  0.92102281236E+02  0.00000000000E+00 0.  1.
</event>
<event>
 7    1  0.2334784E-009  0.1182270E+03  0.7561462E-02  0.1246051E+00
          2   -1    0    0  501    0  0.00000000000E+00  0.00000000000E+00  0.38590937511E+03  0.38590937511E+03  0.00000000000E+00 0. -1.
         -2   -1    0    0    0  501 -0.00000000000E+00 -0.00000000000E+00 -0.38205134753E+02  0.38205134753E+02  0.00000000000E+00 0.  1.
         25    2    1    2    0    0 -0.28639869827E+02  0.41727757346E+02  0.23502011691E+03  0.27100414972E+03  0.12508935181E+03 0.  0.
          5    1    3    3  502    0 -0.22684702949E+02 -0.43316977846E+02  0.97358983615E+02  0.10902843853E+03  0.41800000000E+01 0.  1.
         -5    1    3    3    0  502 -0.59551668782E+01  0.85044735192E+02  0.13766113329E+03  0.16197571119E+03  0.41800000000E+01 0.  1.
        -11    1    1    2    0    0 -0.32187388444E+02 -0.12382079953E+02  0.51500461289E+02  0.61980976047E+02  0.00000000000E+00 0. -1.
         11    1    1    2    0    0  0.60827258271E+02 -0.29345677393E+02  0.61183662162E+02  0.91129384098E+02  0.00000000000E+00 0.  1.
</event>
<event>
 7    1  0.2334784E-009  0.1045259E+03  0.7561462E-02  0.1271056E+00
         -1   -1    0    0    0  501 -0.00000000000E+00  0.00000000000E+00  0.81564387771E+02  0.81564387771E+02  0.00000000000E+00 0.  1.
          1   -1    0    0  501    0  0.00000000000E+00 -0.00000000000E+00 -0.26784969687E+03  0.26784969687E+03  0.00000000000E+00 0. -1.
         25    2    1    2    0    0  0.57399365250E+02 -0.19759356677E+02 -0.19812805824E+03  0.24205138620E+03  0.12509607025E+03 0.  0.
          5    1    3    3  502    0 -0.15039222839E+02  0.15459361527E+02  0.58261739953E+01  0.22728545616E+02  0.41800000000E+01 0. -1.
         -5    1    3    3    0  502  0.72438588089E+02 -0.35218718204E+02 -0.20395423223E+03  0.21932284058E+03  0.41800000000E+01 0. -1.
        -11    1    1    2    0    0 -0.31790962385E+02  0.54604554121E+02  0.32108977515E+01  0.63266361397E+02  0.00000000000E+00 0.  1.
         11    1    1    2    0    0 -0.25608402865E+02 -0.34845197444E+02  0.86318513880E+01  0.44096337043E+02  0.00000000000E+00 0. -1.
</event>
<event>
 7    1  0.2334784E-009  0.2229757E+03  0.7561462E-02  0.1131684E+00
          1   -1    0    0  501    0  0.00000000000E+00  0.00000000000E+00  0.40720245356E+03  0.40720245356E+03  0.00000000000E+00 0. -1.
         -1   -1    0    0    0  501 -0.00000000000E+00 -0.00000000000E+00 -0.14367548864E+03  0.14367548864E+03  0.00000000000E+00 0.  1.
         25    2    1    2    0    0 -0.17615269897E+03 -0.94885998142E+02  0.23035138245E+03  0.32976069539E+03  0.12508889172E+03 0.  0.
          5    1    3    3  502    0 -0.61673158476E+02  0.28078647971E+02  0.68042602152E+02  0.96121054176E+02  0.41800000000E+01 0.  1.
         -5    1    3    3    0  502 -0.11447954049E+03 -0.12296464611E+03  0.16230878030E+03  0.23363964121E+03  0.41800000000E+01 0.  1.
        -11    1    1    2    0    0  0.35705466439E+02  0.52137889798E+02  0.38884762614E+02  0.74197470643E+02  0.00000000000E+00 0.  1.
         11    1    1    2    0    0  0.14044723253E+03  0.42748108344E+02 -0.57091801490E+01  0.14691977617E+03  0.00000000000E+00 0. -1.
</event>
<event>
 7    1  0.2556114E-009  0.1156747E+03  0.7561462E-02  0.1250408E+00
         -1   -1    0    0    0  501 -0.00000000000E+00  0.00000000000E+00  0.10544815321E+03  0.10544815321E+03  0.00000000000E+00 0.  1.
          1   -1    0    0  501    0  0.00000000000E+00 -0.00000000000E+00 -0.15190349657E+03  0.15190349657E+03  0.00000000000E+00 0. -1.
         25    2    1    2    0    0 -0.37969033080E+02  0.29120315648E+02 -0.70324960256E+02  0.15127305163E+03  0.12509314873E+03 0.  0.
          5    1    3    3  502    0  0.22393282803E+02 -0.37476081543E+02 -0.25770868424E+02  0.50867729081E+02  0.41800000000E+01 0. -1.
         -5    1    3    3    0  502 -0.60362315883E+02  0.66596397191E+02 -0.44554091832E+02  0.10040532255E+03  0.41800000000E+01 0. -1.
        -11    1    1    2    0    0  0.69492460039E+01 -0.56023762653E+02 -0.37740954053E+01  0.56579128643E+02  0.00000000000E+00 0.  1.
         11    1    1    2    0    0  0.31019787076E+02  0.26903447006E+02  0.27643712298E+02  0.49499469499E+02  0.00000000000E+00 0. -1.
</event>
<event>
 7    1  0.2334784E-009  0.1267720E+03  0.7561462E-02  0.1232326E+00
         -1   -1    0    0    0  501 -0.00000000000E+00  0.00000000000E+00  0.30407406236E+02  0.30407406236E+02  0.00000000000E+00 0.  1.
          1   -1    0    0  501    0  0.00000000000E+00 -0.00000000000E+00 -0.70384506659E+03  0.70384506659E+03  0.00000000000E+00 0. -1.
         25    2    1    2    0    0  0.87565302378E+02  0.40293296790E+02 -0.42324903693E+03  0.45175064914E+03  0.12509064626E+03 0.  0.
          5    1    3    3  502    0 -0.31352945062E+02  0.84437194044E+00 -0.67186122433E+02  0.74264174240E+02  0.41800000000E+01 0. -1.
         -5    1    3    3    0  502  0.11891824744E+03  0.39448924850E+02 -0.35606291450E+03  0.37748647490E+03  0.41800000000E+01 0. -1.
        -11    1    1    2    0    0 -0.21563453280E+02 -0.74014229141E+01 -0.12083674036E+01  0.22830324796E+02  0.00000000000E+00 0.  1.
         11    1    1    2    0    0 -0.66001849098E+02 -0.32891873876E+02 -0.24898025601E+03  0.25967149889E+03  0.00000000000E+00 0. -1.
</event>
<event>
 7    1  0.2334784E-009  0.9914669E+02  0.7561462E-02  0.1282101E+00
          2   -1    0    0  501    0  0.00000000000E+00  0.00000000000E+00  0.53402527502E+03  0.53402527502E+03  0.00000000000E+00 0. -1.
         -2   -1    0    0    0  501 -0.00000000000E+00 -0.00000000000E+00 -0.38856422951E+02  0.38856422951E+02  0.00000000000E+00 0.  1.
         25    2    1    2    0    0 -0.16221525493E+02 -0.52345091147E+02  0.11713070161E+03  0.17991463033E+03  0.12508607633E+03 0.  0.
          5    1    3    3  502    0  0.26577599382E+02 -0.40231727216E+02  0.12545713574E+03  0.13446905210E+03  0.41800000000E+01 0.  1.
         -5    1    3    3    0  502 -0.42799124875E+02 -0.12113363931E+02 -0.83264341301E+01  0.45445578235E+02  0.41800000000E+01 0.  1.
        -11    1    1    2    0    0 -0.25316803904E+02 -0.12480751086E+02  0.13895010764E+03  0.14178801826E+03  0.00000000000E+00 0.  1.
         11    1    1    2    0    0  0.41538329397E+02  0.64825842233E+02  0.23908804282E+03  0.25117904939E+03  0.00000000000E+00 0. -1.
</event>
<event>
 7    1  0.2334784E-009  0.1259977E+03  0.7561462E-02  0.1233518E+00
          1   -1    0    0  501    0  0.00000000000E+00  0.00000000000E+00  0.27952658795E+03  0.27952658795E+03  0.00000000000E+00 0. -1.
         -1   -1    0    0    0  501 -0.00000000000E+00 -0.00000000000E+00 -0.62466883425E+02  0.62466883425E+02  0.00000000000E+00 0.  1.
         25    2    1    2    0    0 -0.28325641048E+02  0.59141515628E+02  0.16724630940E+03  0.21889739159E+03  0.12507869213E+03 0.  0.
          5    1    3    3  502    0 -0.54927729179E+01  0.96376352074E+02  0.10442014335E+03  0.14226598515E+03  0.41800000000E+01 0. -1.
         -5    1    3    3    0  502 -0.22832868130E+02 -0.37234836446E+02  0.62826166053E+02  0.76631406441E+02  0.41800000000E+01 0. -1.
        -11    1    1    2    0    0  0.61391032134E+02 -0.40319625461E+02  0.24620304999E+02  0.77464123580E+02  0.00000000000E+00 0. -1.
         11    1    1    2    0    0 -0.33065391086E+02 -0.18821890168E+02  0.25193090122E+02  0.45631956205E+02  0.00000000000E+00 0.  1.
</event>
<event>
 7    1  0.2334784E-009  0.1951628E+03  0.7561462E-02  0.1153886E+00
         -1   -1    0    0    0  501 -0.00000000000E+00  0.00000000000E+00  0.13295066698E+03  0.13295066698E+03  0.00000000000E+00 0.  1.
          1   -1    0    0  501    0  0.00000000000E+00 -0.00000000000E+00 -0.34083389274E+03  0.34083389274E+03  0.00000000000E+00 0. -1.
         25    2    1    2    0    0 -0.82168142235E+02  0.15752907973E+03 -0.15603984212E+03  0.26751296678E+03  0.12509092895E+03 0.  0.
          5    1    3    3  502    0 -0.92032483514E+02  0.10618525136E+03 -0.16226854710E+03  0.21469475868E+03  0.41800000000E+01 0.  1.
         -5    1    3    3    0  502  0.98643412784E+01  0.51343828373E+02  0.62287049783E+01  0.52818208097E+02  0.41800000000E+01 0.  1.
        -11    1    1    2    0    0  0.58226157395E+02 -0.16269720762E+03 -0.34377864758E+02  0.17618883153E+03  0.00000000000E+00 0.  1.
         11    1    1    2    0    0  0.23941984841E+02  0.51681278906E+01 -0.17465518877E+02  0.30082761404E+02  0.00000000000E+00 0. -1.
</event>
<event>
 7    1  0.2334784E-009  0.2043710E+03  0.7561462E-02  0.1146103E+00
          2   -1    0    0  501    0  0.00000000000E+00  0.00000000000E+00  0.14787851969E+04  0.14787851969E+04  0.00000000000E+00 0. -1.
         -2   -1    0    0    0  501 -0.00000000000E+00 -0.00000000000E+00 -0.34331616180E+02  0.34331616180E+02  0.00000000000E+00 0.  1.
         25    2    1    2    0    0 -0.11897599428E+03 -0.13340658867E+03  0.10230270498E+04  0.10460324868E+04  0.12508802429E+03 0.  0.
          5    1    3    3  502    0 -0.13327267087E+03 -0.14642873148E+03  0.94577533000E+03  0.96628744452E+03  0.41800000000E+01 0. -1.
         -5    1    3    3    0  502  0.14296676591E+02  0.13022142808E+02  0.77251719780E+02  0.79745042315E+02  0.41800000000E+01 0. -1.
        -11    1    1    2    0    0  0.31088433738E+02  0.85157556443E+02  0.12685781644E+03  0.15592051091E+03  0.00000000000E+00 0. -1.
         11    1    1    2    0    0  0.87887560538E+02  0.48249032228E+02  0.29456871449E+03  0.31116381532E+03  0.00000000000E+00 0.  1.
</event>
<event>
 7    1  0.2334784E-009  0.2923627E+03  0.7561462E-02  0.1089122E+00
          1   -1    0    0  501    0  0.00000000000E+00  0.00000000000E+00  0.90315236876E+03  0.90315236876E+03  0.00000000000E+00 0. -1.
         -1   -1    0    0    0  501 -0.00000000000E+00 -0.00000000000E+00 -0.10045527116E+03  0.10045527116E+03  0.00000000000E+00 0.  1.
         25    2    1    2    0    0 -0.23484495926E+03 -0.15073673771E+03  0.46401663724E+03  0.55572672470E+03  0.12508810466E+03 0.  0.
          5    1    3    3  502    0 -0.13944369887E+03 -0.15909629588E+02  0.22276053424E+03  0.26331993750E+03  0.41800000000E+01 0.  1.
         -5    1    3    3    0  502 -0.95401260389E+02 -0.13482710812E+03  0.24125610300E+03  0.29240678720E+03  0.41800000000E+01 0.  1.
        -11    1    1    2    0    0  0.48135391272E+02  0.28719016524E+02  0.21295430947E+02  0.59960763689E+02  0.00000000000E+00 0.  1.
         11    1    1    2    0    0  0.18670956799E+03  0.12201772119E+03  0.31738502942E+03  0.38792015153E+03  0.00000000000E+00 0. -1.
</event>
<event>
 7    1  0.2334784E-009  0.8566735E+02  0.7561462E-02  0.1313697E+00
          2   -1    0    0  501    0  0.00000000000E+00  0.00000000000E+00  0.37226118240E+02  0.37226118240E+02  0.00000000000E+00 0. -1.
         -2   -1    0    0    0  501 -0.00000000000E+00 -0.00000000000E+00 -0.32995536495E+03  0.32995536495E+03  0.00000000000E+00 0.  1.
         25    2    1    2    0    0  0.18767441093E+02  0.42758148027E+01 -0.13845205665E+03  0.18758096868E+03  0.12508856217E+03 0.  0.
          5    1    3    3  502    0 -0.21723546635E+02 -0.52343775956E+02 -0.62484630884E+02  0.84460552073E+02  0.41800000000E+01 0. -1.
         -5    1    3    3    0  502  0.40490987728E+02  0.56619590758E+02 -0.75967425762E+02  0.10312041661E+03  0.41800000000E+01 0. -1.
        -11    1    1    2    0    0 -0.31018194299E+02 -0.78822491430E+01 -0.16169506616E+03  0.16483189208E+03  0.00000000000E+00 0.  1.
         11    1    1    2    0    0  0.12250753206E+02  0.36064343403E+01  0.74178760866E+01  0.14768622427E+02  0.00000000000E+00 0. -1.
</event>
<event>
 7    1  0.2334784E-009  0.2257448E+03  0.7561462E-02  0.1129671E+00
         -1   -1    0    0    0  501 -0.00000000000E+00  0.00000000000E+00  0.15885712630E+03  0.15885712630E+03  0.00000000000E+00 0.  1.
          1   -1    0    0  501    0  0.00000000000E+00 -0.00000000000E+00 -0.46180782581E+03  0.46180782581E+03  0.00000000000E+00 0. -1.
         25    2    1    2    0    0 -0.18404094872E+03  0.86092199098E+02 -0.31810416000E+03  0.39764382957E+03  0.12508965197E+03 0.  0.
          5    1    3    3  502    0 -0.14495730608E+02  0.65133730394E+02 -0.10509718504E+03  0.12456090777E+03  0.41800000000E+01 0. -1.
         -5    1    3    3    0  502 -0.16954521811E+03  0.20958468704E+02 -0.21300697496E+03  0.27308292180E+03  0.41800000000E+01 0. -1.
        -11    1    1    2    0    0  0.16895167224E+03 -0.52502578185E+02  0.36229718271E+02  0.18059285909E+03  0.00000000000E+00 0.  1.
         11    1    1    2    0    0  0.15089276480E+02 -0.33589620913E+02 -0.21076257777E+02  0.42428263453E+02  0.00000000000E+00 0. -1.
</event>
<event>
 7    1  0.2334784E-009  0.8890140E+02  0.7561462E-02  0.1305534E+00
          1   -1    0    0  501    0  0.00000000000E+00  0.00000000000E+00  0.32140342693E+03  0.32140342693E+03  0.00000000000E+00 0. -1.
         -1   -1    0    0    0  501 -0.00000000000E+00 -0.00000000000E+00 -0.40115443072E+02  0.40115443072E+02  0.00000000000E+00 0.  1.
         25    2    1    2    0    0  0.45807250215E+01 -0.13452865503E+02  0.20961117113E+03  0.24452145761E+03  0.12510770374E+03 0.  0.
          5    1    3    3  502    0 -0.29829641086E+02 -0.45190442161E+02  0.18218244002E+03  0.19010496417E+03  0.41800000000E+01 0.  1.
         -5    1    3    3    0  502  0.34410366108E+02  0.31737576658E+02  0.27428731111E+02  0.54416493438E+02  0.41800000000E+01 0.  1.
        -11    1    1    2    0    0  0.29671543405E+02  0.26558869982E+02  0.69695642113E+02  0.80269898419E+02  0.00000000000E+00 0.  1.
         11    1    1    2    0    0 -0.34252268426E+02 -0.13106004478E+02  0.19811706139E+01  0.36727513974E+02  0.00000000000E+00 0. -1.
</event>
<event>
 7    1  0.2334784E-009  0.1364626E+03  0.7561462E-02  0.1218170E+00
          1   -1    0    0  501    0  0.00000000000E+00  0.00000000000E+00  0.10078189953E+03  0.10078189953E+03  0.00000000000E+00 0. -1.
         -1   -1    0    0    0  501 -0.00000000000E+00 -0.00000000000E+00 -0.22027638610E+03  0.22027638610E+03  0.00000000000E+00 0.  1.
         25    2    1    2    0    0  0.82067973869E+02 -0.24738497425E+02 -0.11964461618E+03  0.19315745305E+03  0.12509125428E+03 0.  0.
          5    1    3    3  502    0  0.11322977728E+03 -0.13880935581E+02 -0.10999170847E+03  0.15852227341E+03  0.41800000000E+01 0.  1.
         -5    1    3    3    0  502 -0.31161803411E+02 -0.10857561844E+02 -0.96529077055E+01  0.34635179632E+02  0.41800000000E+01 0.  1.
        -11    1    1    2    0    0 -0.75287835623E+02 -0.21877405862E+02 -0.11843601680E+02  0.79291550500E+02  0.00000000000E+00 0.  1.
         11    1    1    2    0    0 -0.67801382462E+01  0.46615903287E+02  0.11993731291E+02  0.48609282079E+02  0.00000000000E+00 0. -1.
</event>
<event>
 7    1  0.2334784E-009  0.8438194E+02  0.7561462E-02  0.1317057E+00
         -1   -1    0    0    0  501 -0.00000000000E+00  0.00000000000E+00  0.21817241519E+02  0.21817241519E+02  0.00000000000E+00 0.  1.
          1   -1    0    0  501    0  0.00000000000E+00 -0.00000000000E+00 -0.61880348386E+03  0.61880348386E+03  0.00000000000E+00 0. -1.
         25    2    1    2    0    0  0.23729171928E+02 -0.10395716724E+02 -0.41715656640E+03  0.43627031718E+03  0.12506416048E+03 0.  0.
          5    1    3    3  502    0 -0.36569935619E+01  0.26877234839E+02 -0.36658167784E+03  0.36760761456E+03  0.41800000000E+01 0.  1.
         -5    1    3    3    0  502  0.27386165490E+02 -0.37272951563E+02 -0.50574888561E+02  0.68662702622E+02  0.41800000000E+01 0.  1.
        -11    1    1    2    0    0  0.28185811840E+02  0.28320079793E+02 -0.97640649355E+02  0.10549958917E+03  0.00000000000E+00 0. -1.
         11    1    1    2    0    0 -0.51914983769E+02 -0.17924363070E+02 -0.82189026585E+02  0.98850819026E+02  0.00000000000E+00 0.  1.
</event>
<event>
 7    1  0.2368606E-009  0.8615967E+02  0.7561462E-02  0.1312427E+00
          1   -1    0    0  501    0  0.00000000000E+00  0.00000000000E+00  0.19990132853E+03  0.19990132853E+03  0.00000000000E+00 0. -1.
         -1   -1    0    0    0  501 -0.00000000000E+00 -0.00000000000E+00 -0.85329079254E+02  0.85329079254E+02  0.00000000000E+00 0.  1.
         25    2    1    2    0    0 -0.24650384142E+02 -0.46652621988E+02  0.11785781139E+03  0.17978379523E+03  0.12509053020E+03 0.  0.
          5    1    3    3  502    0  0.37776655689E+02 -0.13556753374E+02 -0.22020505192E+01  0.40412655240E+02  0.41800000000E+01 0.  1.
         -5    1    3    3    0  502 -0.62427039830E+02 -0.33095868615E+02  0.12005986191E+03  0.13937113999E+03  0.41800000000E+01 0.  1.
        -11    1    1    2    0    0  0.12041552912E+02 -0.81783940111E+00 -0.41497210693E+02  0.43216736956E+02  0.00000000000E+00 0.  1.
         11    1    1    2    0    0  0.12608831229E+02  0.47470461389E+02  0.38211648579E+02  0.62229875595E+02  0.00000000000E+00 0. -1.
</event>
<event>
 7    1  0.2334784E-009  0.1014653E+03  0.7561462E-02  0.1277244E+00
          2   -1    0    0  501    0  0.00000000000E+00  0.00000000000E+00  0.57815422761E+03  0.57815422761E+03  0.00000000000E+00 0. -1.
         -2   -1    0    0    0  501 -0.00000000000E+00 -0.00000000000E+00 -0.35268760987E+02  0.35268760987E+02  0.00000000000E+00 0.  1.
         25    2    1    2    0    0 -0.19834820527E+02  0.89349653601E+02  0.27329330750E+03  0.31418675678E+03  0.12508919021E+03 0.  0.
          5    1    3    3  502    0 -0.14829151957E+02  0.11701969679E+02  0.21747999943E+03  0.21833887055E+03  0.41800000000E+01 0. -1.
         -5    1    3    3    0  502 -0.50056685695E+01  0.77647683922E+02  0.55813308071E+02  0.95847886226E+02  0.41800000000E+01 0. -1.
        -11    1    1    2    0    0  0.31996044397E+02 -0.26205722839E+02  0.29810896738E+02  0.50982117756E+02  0.00000000000E+00 0.  1.
         11    1    1    2    0    0 -0.12161223870E+02 -0.63143930763E+02  0.23978126238E+03  0.24825411406E+03  0.00000000000E+00 0. -1.
</event>
<event>
 7    1  0.2334784E-009  0.1587931E+03  0.7561462E-02  0.1190066E+00
         -2   -1    0    0    0  501 -0.00000000000E+00  0.00000000000E+00  0.70960129459E+02  0.70960129459E+02  0.00000000000E+00 0.  1.
          2   -1    0    0  501    0  0.00000000000E+00 -0.00000000000E+00 -0.48179207005E+03  0.48179207005E+03  0.00000000000E+00 0. -1.
         25    2    1    2    0    0  0.77880937285E+00 -0.13671673102E+03 -0.30643474730E+03  0.35810961935E+03  0.12509266180E+03 0.  0.
          5    1    3    3  502    0 -0.39952951667E+02 -0.55360037955E+02 -0.46575016663E+02  0.82750690187E+02  0.41800000000E+01 0.  1.
         -5    1    3    3    0  502  0.40731761040E+02 -0.81356693064E+02 -0.25985973064E+03  0.27535892917E+03  0.41800000000E+01 0.  1.
        -11    1    1    2    0    0 -0.38865405527E+02  0.88538645571E+02 -0.88791405581E+02  0.13127652194E+03  0.00000000000E+00 0. -1.
         11    1    1    2    0    0  0.38086596155E+02  0.48178085448E+02 -0.15605787704E+02  0.63366058217E+02  0.00000000000E+00 0.  1.
</event>
<event>
 7    1  0.2334784E-009  0.2388706E+03  0.7561462E-02  0.1120547E+00
         -2   -1    0    0    0  501 -0.00000000000E+00  0.00000000000E+00  0.41660493056E+03  0.41660493056E+03  0.00000000000E+00 0.  1.
          2   -1    0    0  501    0  0.00000000000E+00 -0.00000000000E+00 -0.37344041902E+03  0.37344041902E+03  0.00000000000E+00 0. -1.
         25    2    1    2    0    0  0.22463255072E+03  0.48700743950E+02  0.32349555080E+03  0.41608526405E+03  0.12508409279E+03 0.  0.
          5    1    3    3  502    0  0.49439201843E+02  0.51158251326E+02  0.37164619965E+02  0.80374639874E+02  0.41800000000E+01 0. -1.
         -5    1    3    3    0  502  0.17519334887E+03 -0.24575073769E+01  0.28633093084E+03  0.33571062418E+03  0.41800000000E+01 0. -1.
        -11    1    1    2    0    0 -0.79569402123E+02 -0.50642525689E+01 -0.16606213200E+03  0.18421066227E+03  0.00000000000E+00 0. -1.
         11    1    1    2    0    0 -0.14506314859E+03 -0.43636491381E+02 -0.11426890726E+03  0.18974942326E+03  0.00000000000E+00 0.  1.
</event>
<event>
 7    1  0.2334784E-009  0.1860916E+03  0.7561462E-02  0.1162034E+00
          1   -1    0    0  501    0  0.00000000000E+00  0.00000000000E+00  0.72896697073E+03  0.72896697073E+03  0.00000000000E+00 0. -1.
         -1   -1    0    0    0  501 -0.00000000000E+00 -0.00000000000E+00 -0.51721141852E+02  0.51721141852E+02  0.00000000000E+00 0.  1.
         25    2    1    2    0    0  0.72175707949E+02 -0.13330385939E+03  0.46235229315E+03  0.50239402559E+03  0.12510340612E+03 0.  0.
          5    1    3    3  502    0 -0.98987686255E+01 -0.11008853249E+03  0.27915196757E+03  0.30026782046E+03  0.41800000000E+01 0.  1.
         -5    1    3    3    0  502  0.82074476574E+02 -0.23215326899E+02  0.18320032558E+03  0.20212620513E+03  0.41800000000E+01 0.  1.
        -11    1    1    2    0    0 -0.56344568167E+02  0.17078554368E+02  0.60793140215E+02  0.84629742280E+02  0.00000000000E+00 0.  1.
         11    1    1    2    0    0 -0.15831139781E+02  0.11622530502E+03  0.15410039551E+03  0.19366434471E+03  0.00000000000E+00 0. -1.
</event>
<event>
 7    1  0.2334784E-009  0.6749460E+02  0.7561462E-02  0.1368826E+00
          1   -1    0    0  501    0  0.00000000000E+00  0.00000000000E+00  0.53197543816E+03  0.53197543816E+03  0.00000000000E+00 0. -1.
         -1   -1    0    0    0  501 -0.00000000000E+00 -0.00000000000E+00 -0.29145162944E+02  0.29145162944E+02  0.00000000000E+00 0.  1.
         25    2    1    2    0    0 -0.55819235317E+02 -0.97603077189E+01  0.24389649462E+03  0.27990030078E+03  0.12509047787E+03 0.  0.
          5    1    3    3  502    0 -0.73697263960E+01  0.54531930855E+01 -0.13871375962E+02  0.17144610029E+02  0.41800000000E+01 0.  1.
         -5    1    3    3    0  502 -0.48449508921E+02 -0.15213500804E+02  0.25776787058E+03  0.26275569075E+03  0.41800000000E+01 0.  1.
        -11    1    1    2    0    0 -0.49881862720E+01 -0.90291935776E+01 -0.37199275369E+01  0.10965682825E+02  0.00000000000E+00 0.  1.
         11    1    1    2    0    0  0.60807421589E+02  0.18789501297E+02  0.26265370814E+03  0.27025461750E+03  0.00000000000E+00 0. -1.
</event>
<event>
 7    1  0.2334784E-009  0.1066845E+03  0.7561462E-02  0.1266836E+00
         -1   -1    0    0    0  501 -0.00000000000E+00  0.00000000000E+00  0.37328909824E+03  0.37328909824E+03  0.00000000000E+00 0.  1.
          1   -1    0    0  501    0  0.00000000000E+00 -0.00000000000E+00 -0.37059506007E+02  0.37059506007E+02  0.00000000000E+00 0. -1.
         25    2    1    2    0    0  0.28613461881E+01 -0.45929810124E+02  0.19572665781E+03  0.23680209986E+03  0.12509426511E+03 0.  0.
          5    1    3    3  502    0  0.54389942885E+02 -0.13241579377E+02  0.15080312090E+03  0.16091196035E+03  0.41800000000E+01 0.  1.
         -5    1    3    3    0  502 -0.51528596697E+02 -0.32688230748E+02  0.44923536910E+02  0.75890139514E+02  0.41800000000E+01 0.  1.
        -11    1    1    2    0    0  0.27453510760E+01 -0.24883482604E+02  0.66085484081E+02  0.70668351227E+02  0.00000000000E+00 0.  1.
         11    1    1    2    0    0 -0.56066972641E+01  0.70813292728E+02  0.74417450349E+02  0.10287815316E+03  0.00000000000E+00 0. -1.
</event>
<event>
 7    1  0.2334784E-009  0.1635302E+03  0.7561462E-02  0.1184768E+00
         -2   -1    0    0    0  501 -0.00000000000E+00  0.00000000000E+00  0.35062972259E+02  0.35062972259E+02  0.00000000000E+00 0.  1.
          2   -1    0    0  501    0  0.00000000000E+00 -0.00000000000E+00 -0.79876515224E+03  0.79876515224E+03  0.00000000000E+00 0. -1.
         25    2    1    2    0    0  0.33011927752E+02  0.12306798601E+03 -0.43355873800E+03  0.46888875824E+03  0.12509185326E+03 0.  0.
          5    1    3    3  502    0  0.79604814529E+02  0.90887220453E+02 -0.27243952465E+03  0.29805734403E+03  0.41800000000E+01 0. -1.
         -5    1    3    3    0  502 -0.46592886777E+02  0.32180765558E+02 -0.16111921335E+03  0.17083141421E+03  0.41800000000E+01 0. -1.
        -11    1    1    2    0    0 -0.57238423291E+02 -0.65829632832E+02 -0.24070521949E+03  0.25602496040E+03  0.00000000000E+00 0.  1.
         11    1    1    2    0    0  0.24226495539E+02 -0.57238353180E+02 -0.89438222488E+02  0.10891440585E+03  0.00000000000E+00 0. -1.
</event>
<event>
 7    1  0.2334784E-009  0.1115442E+03  0.7561462E-02  0.1257737E+00
         -4   -1    0    0    0  501 -0.00000000000E+00  0.00000000000E+00  0.13664348390E+03  0.13664348390E+03  0.00000000000E+00 0.  1.
          4   -1    0    0  501    0  0.00000000000E+00 -0.00000000000E+00 -0.12372660811E+03  0.12372660811E+03  0.00000000000E+00 0. -1.
         25    2    1    2    0    0 -0.24417919404E+02 -0.66963024576E+02  0.59952039285E+01  0.14409762012E+03  0.12509156728E+03 0.  0.
          5    1    3    3  502    0  0.43775627213E+02  0.49199976678E+01  0.76857598803E+01  0.44911637911E+02  0.41800000000E+01 0. -1.
         -5    1    3    3    0  502 -0.68193546617E+02 -0.71883022244E+02 -0.16905559518E+01  0.99185982208E+02  0.41800000000E+01 0. -1.
        -11    1    1    2    0    0  0.33616437102E+02  0.56424250609E+02  0.42372689921E+02  0.78161408325E+02  0.00000000000E+00 0.  1.
         11    1    1    2    0    0 -0.91985176983E+01  0.10538773967E+02 -0.35451018063E+02  0.38111063568E+02  0.00000000000E+00 0. -1.
</event>
<event>
 7    1  0.2334784E-009  0.1025980E+03  0.7561462E-02  0.1274926E+00
         -2   -1    0    0    0  501 -0.00000000000E+00  0.00000000000E+00  0.48243177753E+02  0.48243177753E+02  0.00000000000E+00 0.  1.
          2   -1    0    0  501    0  0.00000000000E+00 -0.00000000000E+00 -0.47731014753E+03  0.47731014753E+03  0.00000000000E+00 0. -1.
         25    2    1    2    0    0 -0.37068282600E+02 -0.42657209562E+02 -0.38456954484E+03  0.40832635957E+03  0.12507192332E+03 0.  0.
          5    1    3    3  502    0 -0.58698991196E+02 -0.60423721872E+02 -0.36319398293E+03  0.37285914145E+03  0.41800000000E+01 0. -1.
         -5    1    3    3    0  502  0.21630708596E+02  0.17766512310E+02 -0.21375561911E+02  0.35467218118E+02  0.41800000000E+01 0. -1.
        -11    1    1    2    0    0  0.48795647319E+02  0.56336654046E+02 -0.60610043068E+01  0.74776798270E+02  0.00000000000E+00 0.  1.
         11    1    1    2    0    0 -0.11727364719E+02 -0.13679444484E+02 -0.38436420630E+02  0.42450167438E+02  0.00000000000E+00 0. -1.
</event>
<event>
 7    1  0.2334784E-009  0.8496398E+02  0.7561462E-02  0.1315527E+00
          2   -1    0    0  501    0  0.00000000000E+00  0.00000000000E+00  0.54855432937E+02  0.54855432937E+02  0.00000000000E+00 0. -1.
         -2   -1    0    0    0  501 -0.00000000000E+00 -0.00000000000E+00 -0.29226859122E+03  0.29226859122E+03  0.00000000000E+00 0.  1.
         25    2    1    2    0    0  0.10571083062E+02 -0.63458565162E+02 -0.11691370629E+03  0.18290970400E+03  0.12509359619E+03 0.  0.
          5    1    3    3  502    0  0.54054935642E+01 -0.15623050558E+02 -0.13138999773E+03  0.13249189776E+03  0.41800000000E+01 0. -1.
         -5    1    3    3    0  502  0.51655894976E+01 -0.47835514604E+02  0.14476291432E+02  0.50417806239E+02  0.41800000000E+01 0. -1.
        -11    1    1    2    0    0  0.31526482452E+02  0.40738801378E+01 -0.66079881714E+02  0.73328482614E+02  0.00000000000E+00 0.  1.
         11    1    1    2    0    0 -0.42097565513E+02  0.59384685024E+02 -0.54419570280E+02  0.90885837550E+02  0.00000000000E+00 0. -1.
</event>
<event>
 7    1  0.2334784E-009  0.2525829E+03  0.7561462E-02  0.1111683E+00
          1   -1    0    0  501    0  0.00000000000E+00  0.00000000000E+00  0.46001840063E+03  0.46001840063E+03  0.00000000000E+00 0. -1.
         -1   -1    0    0    0  501 -0.00000000000E+00 -0.00000000000E+00 -0.40607629343E+03  0.40607629343E+03  0.00000000000E+00 0.  1.
         25    2    1    2    0    0  0.22775426962E+03 -0.53634203761E+02  0.37210223912E+03  0.45700748778E+03  0.12508849823E+03 0.  0.
          5    1    3    3  502    0  0.15237262773E+01 -0.21628328880E+02  0.21754923526E+01  0.22188094079E+02  0.41800000000E+01 0.  1.
         -5    1    3    3    0  502  0.22623054335E+03 -0.32005874881E+02  0.36992674677E+03  0.43481939370E+03  0.41800000000E+01 0.  1.
        -11    1    1    2    0    0 -0.39157234534E+01  0.29124546067E+02 -0.20413402916E+02  0.35780987862E+02  0.00000000000E+00 0. -1.
         11    1    1    2    0    0 -0.22383854617E+03  0.24509657694E+02 -0.29774672900E+03  0.37330621841E+03  0.00000000000E+00 0.  1.
</event>
<event>
 7    1  0.2921231E-009  0.1886747E+03  0.7561462E-02  0.1159662E+00
         -1   -1    0    0    0  501 -0.00000000000E+00  0.00000000000E+00  0.32215719068E+02  0.32215719068E+02  0.00000000000E+00 0.  1.
          1   -1    0    0  501    0  0.00000000000E+00 -0.00000000000E+00 -0.13539319957E+04  0.13539319957E+04  0.00000000000E+00 0. -1.
         25    2    1    2    0    0 -0.98114877797E+02 -0.13931331521E+03 -0.51866389144E+03  0.56008570973E+03  0.12509612673E+03 0.  0.
          5    1    3    3  502    0 -0.98355641409E+02 -0.87181168755E+02 -0.21556483423E+03  0.25250754155E+03  0.41800000000E+01 0. -1.
         -5    1    3    3    0  502  0.24076361158E+00 -0.52132146453E+02 -0.30309905721E+03  0.30757816818E+03  0.41800000000E+01 0. -1.
        -11    1    1    2    0    0  0.43172858677E+01  0.85107183735E+02 -0.36384275218E+03  0.37368893480E+03  0.00000000000E+00 0.  1.
         11    1    1    2    0    0  0.93797591929E+02  0.54206131474E+02 -0.43920963301E+03  0.45237307023E+03  0.00000000000E+00 0. -1.
</event>
<event>
 7    1  0.2334784E-009  0.3032373E+03  0.7561462E-02  0.1083633E+00
          1   -1    0    0  501    0  0.00000000000E+00  0.00000000000E+00  0.46103644454E+03  0.46103644454E+03  0.00000000000E+00 0. -1.
         -1   -1    0    0    0  501 -0.00000000000E+00 -0.00000000000E+00 -0.21838515181E+03  0.21838515181E+03  0.00000000000E+00 0.  1.
         25    2    1    2    0    0  0.73771614155E+02  0.27628416357E+03  0.21447252903E+03  0.37871331180E+03  0.12510042659E+03 0.  0.
          5    1    3    3  502    0  0.18791400541E+02  0.24236091228E+03  0.14207844471E+03  0.28159489588E+03  0.41800000000E+01 0.  1.
         -5    1    3    3    0  502  0.54980213614E+02  0.33923251294E+02  0.72394084312E+02  0.97118415920E+02  0.41800000000E+01 0.  1.
        -11    1    1    2    0    0 -0.69483814794E+02 -0.97228372074E+02  0.70801093450E+00  0.11950672840E+03  0.00000000000E+00 0.  1.
         11    1    1    2    0    0 -0.42877993613E+01 -0.17905579150E+03  0.27470752769E+02  0.18120155614E+03  0.00000000000E+00 0. -1.
</event>
<event>
 7    1  0.2334784E-009  0.1406169E+03  0.7561462E-02  0.1212501E+00
          1   -1    0    0  501    0  0.00000000000E+00  0.00000000000E+00  0.14900976124E+03  0.14900976124E+03  0.00000000000E+00 0.  1.
         -1   -1    0    0    0  501 -0.00000000000E+00 -0.00000000000E+00 -0.15668038889E+03  0.15668038889E+03  0.00000000000E+00 0. -1.
         25    2    1    2    0    0 -0.99495756263E+02 -0.43160253669E+02  0.67106634651E+01  0.16569709375E+03  0.12509308879E+03 0.  0.
          5    1    3    3  502    0 -0.96933852875E+02 -0.69940444687E+02  0.36781520154E+02  0.12513269062E+03  0.41800000000E+01 0.  1.
         -5    1    3    3    0  502 -0.25619033887E+01  0.26780191018E+02 -0.30070856689E+02  0.40564403138E+02  0.41800000000E+01 0.  1.
        -11    1    1    2    0    0  0.68460516387E+02 -0.13520215727E+02  0.10849549443E+02  0.70621181387E+02  0.00000000000E+00 0.  1.
         11    1    1    2    0    0  0.31035239876E+02  0.56680469395E+02 -0.25230840555E+02  0.69371874993E+02  0.00000000000E+00 0. -1.
</event>
<event>
 7    1  0.2381930E-009  0.9703140E+02  0.7561462E-02  0.1286665E+00
         -2   -1    0    0    0  501 -0.00000000000E+00  0.00000000000E+00  0.78977914672E+02  0.78977914672E+02  0.00000000000E+00 0. -1.
          2   -1    0    0  501    0  0.00000000000E+00 -0.00000000000E+00 -0.17917363072E+03  0.17917363072E+03  0.00000000000E+00 0.  1.
         25    2    1    2    0    0 -0.29868958110E+02 -0.16742783794E+02 -0.92823482717E+02  0.15948684194E+03  0.12508948133E+03 0.  0.
          5    1    3    3  502    0  0.31777309205E+02 -0.40311059570E+02 -0.75030971249E+02  0.91004933660E+02  0.41800000000E+01 0. -1.
         -5    1    3    3    0  502 -0.61646267315E+02  0.23568275775E+02 -0.17792511469E+02  0.68481908277E+02  0.41800000000E+01 0. -1.
        -11    1    1    2    0    0  0.32481886178E+02 -0.20948314080E+02 -0.34774572175E+02  0.51992073073E+02  0.00000000000E+00 0.  1.
         11    1    1    2    0    0 -0.26129280678E+01  0.37691097874E+02  0.27402338848E+02  0.46672630378E+02  0.00000000000E+00 0. -1.
</event>
<event>
 7    1  0.2334784E-009  0.9198666E+02  0.7561462E-02  0.1298111E+00
         -1   -1    0    0    0  501 -0.00000000000E+00  0.00000000000E+00  0.26919753934E+03  0.26919753934E+03  0.00000000000E+00 0.  1.
          1   -1    0    0  501    0  0.00000000000E+00 -0.00000000000E+00 -0.54314612423E+02  0.54314612423E+02  0.00000000000E+00 0. -1.
         25    2    1    2    0    0 -0.37391935131E+02 -0.27624346891E+02  0.15267688421E+03  0.20277664757E+03  0.12508747528E+03 0.  0.
          5    1    3    3  502    0  0.43061480890E+02 -0.29322438713E+02  0.50806263698E+02  0.72889267931E+02  0.41800000000E+01 0.  1.
         -5    1    3    3    0  502 -0.80453416021E+02  0.16980918223E+01  0.10187062052E+03  0.12988737964E+03  0.41800000000E+01 0.  1.
        -11    1    1    2    0    0  0.45345224915E+01  0.15428857167E+02 -0.23308363278E+02  0.28317685753E+02  0.00000000000E+00 0. -1.
         11    1    1    2    0    0  0.32857412640E+02  0.12195489723E+02  0.85514405982E+02  0.92417818442E+02  0.00000000000E+00 0.  1.
</event>
<event>
 7    1  0.2334784E-009  0.1131611E+03  0.7561462E-02  0.1254826E+00
          2   -1    0    0  501    0  0.00000000000E+00  0.00000000000E+00  0.47245079301E+03  0.47245079301E+03  0.00000000000E+00 0. -1.
         -2   -1    0    0    0  501 -0.00000000000E+00 -0.00000000000E+00 -0.92269675373E+02  0.92269675373E+02  0.00000000000E+00 0.  1.
         25    2    1    2    0    0  0.51999533960E+02  0.87714171351E+02  0.39145637044E+03  0.42342094702E+03  0.12509788579E+03 0.  0.
          5    1    3    3  502    0 -0.13256788517E+02  0.51548019774E+01 -0.30181533449E+01  0.15129311777E+02  0.41800000000E+01 0.  1.
         -5    1    3    3    0  502  0.65256322477E+02  0.82559369374E+02  0.39447452378E+03  0.40829163524E+03  0.41800000000E+01 0.  1.
        -11    1    1    2    0    0 -0.11947594932E+02 -0.49141496203E+02 -0.51876365907E+02  0.72448526648E+02  0.00000000000E+00 0.  1.
         11    1    1    2    0    0 -0.40051939028E+02 -0.38572675148E+02  0.40601113106E+02  0.68850994716E+02  0.00000000000E+00 0. -1.
</event>
<event>
 7    1  0.2334784E-009  0.1071788E+03  0.7561462E-02  0.1265885E+00
          2   -1    0    0  501    0  0.00000000000E+00  0.00000000000E+00  0.48712397178E+03  0.48712397178E+03  0.00000000000E+00 0. -1.
         -2   -1    0    0    0  501 -0.00000000000E+00 -0.00000000000E+00 -0.30149304132E+02  0.30149304132E+02  0.00000000000E+00 0.  1.
         25    2    1    2    0    0 -0.64100969354E+01 -0.45569641704E+02  0.32090817984E+03  0.34748713372E+03  0.12509023393E+03 0.  0.
          5    1    3    3  502    0  0.85013181320E+01 -0.84875730507E+02  0.25750894832E+03  0.27130147973E+03  0.41800000000E+01 0.  1.
         -5    1    3    3    0  502 -0.14911415067E+02  0.39306088803E+02  0.63399231516E+02  0.76185653985E+02  0.41800000000E+01 0.  1.
        -11    1    1    2    0    0 -0.31546380932E+02  0.64465566160E+01  0.12157307859E+02  0.34417036137E+02  0.00000000000E+00 0.  1.
         11    1    1    2    0    0  0.37956477867E+02  0.39123085088E+02  0.12390917996E+03  0.13536910606E+03  0.00000000000E+00 0. -1.
</event>
<event>
 7    1  0.2334784E-009  0.1041055E+03  0.7561462E-02  0.1271892E+00
          1   -1    0    0  501    0  0.00000000000E+00  0.00000000000E+00  0.79853423738E+02  0.79853423738E+02  0.00000000000E+00 0. -1.
         -1   -1    0    0    0  501 -0.00000000000E+00 -0.00000000000E+00 -0.19681648238E+03  0.19681648238E+03  0.00000000000E+00 0.  1.
         25    2    1    2    0    0 -0.88056625395E+01 -0.52810885953E+02 -0.30666225826E+02  0.13948788212E+03  0.12509965022E+03 0.  0.
          5    1    3    3  502    0  0.44378545913E+02 -0.39441419571E+01 -0.47447508586E+02  0.65220779389E+02  0.41800000000E+01 0. -1.
         -5    1    3    3    0  502 -0.53184208453E+02 -0.48866743996E+02  0.16781282760E+02  0.74267102735E+02  0.41800000000E+01 0. -1.
        -11    1    1    2    0    0  0.20331744658E+02 -0.13111765923E+02  0.42753329279E+01  0.24567798398E+02  0.00000000000E+00 0. -1.
         11    1    1    2    0    0 -0.11526082119E+02  0.65922651876E+02 -0.90572165746E+02  0.11261422560E+03  0.00000000000E+00 0.  1.
</event>
<event>
 7    1  0.3322138E-009  0.8837929E+02  0.7561462E-02  0.1306825E+00
          1   -1    0    0  501    0  0.00000000000E+00  0.00000000000E+00  0.63576357216E+03  0.63576357216E+03  0.00000000000E+00 0. -1.
         -1   -1    0    0    0  501 -0.00000000000E+00 -0.00000000000E+00 -0.20452552964E+02  0.20452552964E+02  0.00000000000E+00 0.  1.
         25    2    1    2    0    0 -0.18718068310E+01  0.13675544234E+01  0.45391436256E+03  0.47084427754E+03  0.12510280288E+03 0.  0.
          5    1    3    3  502    0  0.22975236617E+01  0.58148692639E+02  0.13821086117E+03  0.15002087727E+03  0.41800000000E+01 0. -1.
         -5    1    3    3    0  502 -0.41693304927E+01 -0.56781138215E+02  0.31570350139E+03  0.32082340027E+03  0.41800000000E+01 0. -1.
        -11    1    1    2    0    0 -0.19241130838E+02 -0.23744889135E+02  0.11988923198E+02  0.32829486067E+02  0.00000000000E+00 0.  1.
         11    1    1    2    0    0  0.21112937669E+02  0.22377334712E+02  0.14940773344E+03  0.15254236151E+03  0.00000000000E+00 0. -1.
</event>
<event>
 7    1  0.2334784E-009  0.1244342E+03  0.7561462E-02  0.1235956E+00
          1   -1    0    0  501    0  0.00000000000E+00  0.00000000000E+00  0.10156209299E+03  0.10156209299E+03  0.00000000000E+00 0. -1.
         -1   -1    0    0    0  501 -0.00000000000E+00 -0.00000000000E+00 -0.26983418020E+03  0.26983418020E+03  0.00000000000E+00 0.  1.
         25    2    1    2    0    0 -0.88175007134E+02  0.61220604311E+02 -0.17193515323E+02  0.16572481292E+03  0.12508518047E+03 0.  0.
          5    1    3    3  502    0  0.44354066864E+01  0.70730517116E+01  0.42070368784E+02  0.43093958075E+02  0.41800000000E+01 0. -1.
         -5    1    3    3    0  502 -0.92610413820E+02  0.54147552599E+02 -0.59263884107E+02  0.12263085484E+03  0.41800000000E+01 0. -1.
        -11    1    1    2    0    0  0.82052210581E+02 -0.12417689014E+02 -0.12489238576E+03  0.14994956580E+03  0.00000000000E+00 0.  1.
         11    1    1    2    0    0  0.61227965526E+01 -0.48802915297E+02 -0.26186186123E+02  0.55721894465E+02  0.00000000000E+00 0. -1.
</event>
<event>
 7    1  0.2334784E-009  0.1764716E+03  0.7561462E-02  0.1171262E+00
         -2   -1    0    0    0  501 -0.00000000000E+00  0.00000000000E+00  0.16256578204E+03  0.16256578204E+03  0.00000000000E+00 0. -1.
          2   -1    0    0  501    0  0.00000000000E+00 -0.00000000000E+00 -0.22879677620E+03  0.22879677620E+03  0.00000000000E+00 0.  1.
         25    2    1    2    0    0 -0.99409357978E+02  0.11797840242E+03 -0.58733811971E+02  0.20711743869E+03  0.12508736487E+03 0.  0.
          5    1    3    3  502    0 -0.12677213586E+03  0.11342534297E+03 -0.54949956384E+02  0.17881122159E+03  0.41800000000E+01 0. -1.
         -5    1    3    3    0  502  0.27362777880E+02  0.45530594447E+01 -0.37838555872E+01  0.28306217103E+02  0.41800000000E+01 0. -1.
        -11    1    1    2    0    0  0.16085363799E+02 -0.12853267306E+02 -0.41090251275E+02  0.45960354207E+02  0.00000000000E+00 0.  1.
         11    1    1    2    0    0  0.83323994179E+02 -0.10512513511E+03  0.33593069085E+02  0.13828476535E+03  0.00000000000E+00 0. -1.
</event>
<event>
 7    1  0.2334784E-009  0.2858941E+03  0.7561462E-02  0.1092513E+00
          1   -1    0    0  501    0  0.00000000000E+00  0.00000000000E+00  0.13364093910E+04  0.13364093910E+04  0.00000000000E+00 0. -1.
         -1   -1    0    0    0  501 -0.00000000000E+00 -0.00000000000E+00 -0.97710845506E+02  0.97710845506E+02  0.00000000000E+00 0.  1.
         25    2    1    2    0    0 -0.10210908286E+03 -0.26043220472E+03  0.22853016623E+03  0.38225691557E+03  0.12507243726E+03 0.  0.
          5    1    3    3  502    0 -0.15825107579E+02 -0.25960962011E+02  0.93120772554E+02  0.98047724397E+02  0.41800000000E+01 0. -1.
         -5    1    3    3    0  502 -0.86283975283E+02 -0.23447124271E+03  0.13540939368E+03  0.28420919117E+03  0.41800000000E+01 0. -1.
        -11    1    1    2    0    0  0.30615643017E+01  0.11627371984E+03  0.46488784869E+03  0.47921776152E+03  0.00000000000E+00 0.  1.
         11    1    1    2    0    0  0.99047518560E+02  0.14415848489E+03  0.54528053061E+03  0.57264555945E+03  0.00000000000E+00 0. -1.
</event>
<event>
 7    1  0.2334784E-009  0.1091483E+03  0.7561462E-02  0.1262155E+00
         -2   -1    0    0    0  501 -0.00000000000E+00  0.00000000000E+00  0.46299307911E+02  0.46299307911E+02  0.00000000000E+00 0.  1.
          2   -1    0    0  501    0  0.00000000000E+00 -0.00000000000E+00 -0.36466674172E+03  0.36466674172E+03  0.00000000000E+00 0. -1.
         25    2    1    2    0    0 -0.52668049258E+02  0.21655331052E+02 -0.10871907702E+03  0.17524445830E+03  0.12509158917E+03 0.  0.
          5    1    3    3  502    0 -0.67065927068E+02 -0.34854464497E+02 -0.42130922224E+02  0.86632322353E+02  0.41800000000E+01 0. -1.
         -5    1    3    3    0  502  0.14397877810E+02  0.56509795548E+02 -0.66588154799E+02  0.88612135952E+02  0.41800000000E+01 0. -1.
        -11    1    1    2    0    0  0.17852193787E+02  0.21976664266E+02 -0.15513809113E+03  0.15770067189E+03  0.00000000000E+00 0. -1.
         11    1    1    2    0    0  0.34815855471E+02 -0.43631995318E+02 -0.54510265652E+02  0.78020919432E+02  0.00000000000E+00 0.  1.
</event>
<event>
 7    1  0.3023938E-009  0.1388505E+03  0.7561462E-02  0.1214884E+00
         -1   -1    0    0    0  501 -0.00000000000E+00  0.00000000000E+00  0.43090594830E+02  0.43090594830E+02  0.00000000000E+00 0.  1.
          1   -1    0    0  501    0  0.00000000000E+00 -0.00000000000E+00 -0.54915186534E+03  0.54915186534E+03  0.00000000000E+00 0. -1.
         25    2    1    2    0    0  0.78226174405E+02 -0.73918248162E+02 -0.24390481706E+03  0.29448117376E+03  0.12508541139E+03 0.  0.
          5    1    3    3  502    0 -0.82495584115E+01 -0.75644354791E+02 -0.13836202254E+03  0.15796089803E+03  0.41800000000E+01 0.  1.
         -5    1    3    3    0  502  0.86475732817E+02  0.17261066286E+01 -0.10554279452E+03  0.13652027573E+03  0.41800000000E+01 0.  1.
        -11    1    1    2    0    0 -0.24978945515E+02  0.51278908095E+02 -0.43931853806E+02  0.71996402085E+02  0.00000000000E+00 0.  1.
         11    1    1    2    0    0 -0.53247228891E+02  0.22639340067E+02 -0.21822459964E+03  0.22576488432E+03  0.00000000000E+00 0. -1.
</event>
<event>
 7    1  0.2334784E-009  0.1244185E+03  0.7561462E-02  0.1235981E+00
          1   -1    0    0  501    0  0.00000000000E+00  0.00000000000E+00  0.58655789799E+03  0.58655789799E+03  0.00000000000E+00 0. -1.
         -1   -1    0    0    0  501 -0.00000000000E+00 -0.00000000000E+00 -0.35138304666E+02  0.35138304666E+02  0.00000000000E+00 0.  1.
         25    2    1    2    0    0 -0.58365642116E+02  0.38951779119E+02  0.43354417094E+03  0.45665289290E+03  0.12509007620E+03 0.  0.
          5    1    3    3  502    0 -0.41465984122E+02 -0.42851551846E+02  0.18406885427E+03  0.19353164818E+03  0.41800000000E+01 0.  1.
         -5    1    3    3    0  502 -0.16899657993E+02  0.81803330965E+02  0.24947531667E+03  0.26312124472E+03  0.41800000000E+01 0.  1.
        -11    1    1    2    0    0  0.73244409198E+02 -0.11417802975E+02  0.47551499622E+02  0.88069602133E+02  0.00000000000E+00 0.  1.
         11    1    1    2    0    0 -0.14878767082E+02 -0.27533976144E+02  0.70323922757E+02  0.76973707615E+02  0.00000000000E+00 0. -1.
</event>
<event>
 7    1  0.2334784E-009  0.7725625E+02  0.7561462E-02  0.1337023E+00
          1   -1    0    0  501    0  0.00000000000E+00  0.00000000000E+00  0.18405033802E+04  0.18405033802E+04  0.00000000000E+00 0. -1.
         -1   -1    0    0    0  501 -0.00000000000E+00 -0.00000000000E+00 -0.13076654611E+02  0.13076654611E+02  0.00000000000E+00 0.  1.
         25    2    1    2    0    0 -0.17740925553E+02  0.44777187262E+02  0.15759603486E+04  0.15816504036E+04  0.12508893642E+03 0.  0.
          5    1    3    3  502    0 -0.12635696045E+02  0.10751938526E+02  0.14713201007E+04  0.14714195785E+04  0.41800000000E+01 0. -1.
         -5    1    3    3    0  502 -0.51052295072E+01  0.34025248736E+02  0.10464024794E+03  0.11023082513E+03  0.41800000000E+01 0. -1.
        -11    1    1    2    0    0 -0.27134593119E+02 -0.50674874310E+02  0.12427920395E+03  0.13692899461E+03  0.00000000000E+00 0.  1.
         11    1    1    2    0    0  0.44875518671E+02  0.58976870483E+01  0.12718717305E+03  0.13500063658E+03  0.00000000000E+00 0. -1.
</event>
<event>
 7    1  0.2334784E-009  0.1147639E+03  0.7561462E-02  0.1251994E+00
          2   -1    0    0  501    0  0.00000000000E+00  0.00000000000E+00  0.29771010494E+02  0.29771010494E+02  0.00000000000E+00 0. -1.
         -2   -1    0    0    0  501 -0.00000000000E+00 -0.00000000000E+00 -0.54248577633E+03  0.54248577633E+03  0.00000000000E+00 0.  1.
         25    2    1    2    0    0 -0.94488771251E+01  0.61979566680E+02 -0.22887382674E+03  0.26826103282E+03  0.12509998079E+03 0.  0.
          5    1    3    3  502    0  0.41759757566E+02  0.65690036155E+02 -0.84460040120E+02  0.11493489017E+03  0.41800000000E+01 0.  1.
         -5    1    3    3    0  502 -0.51208634691E+02 -0.37104694745E+01 -0.14441378662E+03  0.15332614264E+03  0.41800000000E+01 0.  1.
        -11    1    1    2    0    0  0.43495673017E+02 -0.26714027926E+02 -0.20415879319E+03  0.21044316501E+03  0.00000000000E+00 0.  1.
         11    1    1    2    0    0 -0.34046795892E+02 -0.35265538754E+02 -0.79682145903E+02  0.93552589006E+02  0.00000000000E+00 0. -1.
</event>
<event>
 7    1  0.2334784E-009  0.2621159E+03  0.7561462E-02  0.1105879E+00
          1   -1    0    0  501    0  0.00000000000E+00  0.00000000000E+00  0.29337910873E+03  0.29337910873E+03  0.00000000000E+00 0. -1.
         -1   -1    0    0    0  501 -0.00000000000E+00 -0.00000000000E+00 -0.26276237128E+03  0.26276237128E+03  0.00000000000E+00 0.  1.
         25    2    1    2    0    0 -0.83067703033E+02  0.23672419517E+03 -0.36593760658E+02  0.28271009714E+03  0.12508919953E+03 0.  0.
          5    1    3    3  502    0 -0.32425954840E+02  0.21553329008E+03 -0.26173844874E+01  0.21801459763E+03  0.41800000000E+01 0.  1.
         -5    1    3    3    0  502 -0.50641748193E+02  0.21190905089E+02 -0.33976376170E+02  0.64695499505E+02  0.41800000000E+01 0.  1.
        -11    1    1    2    0    0  0.62360083359E+02 -0.16045650793E+03  0.85652027940E+02  0.19227933021E+03  0.00000000000E+00 0. -1.
         11    1    1    2    0    0  0.20707619674E+02 -0.76267687239E+02 -0.18441529829E+02  0.81152052665E+02  0.00000000000E+00 0.  1.
</event>
<event>
 7    1  0.2334784E-009  0.8859836E+02  0.7561462E-02  0.1306282E+00
          2   -1    0    0  501    0  0.00000000000E+00  0.00000000000E+00  0.95793209431E+03  0.95793209431E+03  0.00000000000E+00 0. -1.
         -2   -1    0    0    0  501 -0.00000000000E+00 -0.00000000000E+00 -0.25477571540E+02  0.25477571540E+02  0.00000000000E+00 0.  1.
         25    2    1    2    0    0 -0.22223498519E+02  0.75719644198E+02  0.75651139453E+03  0.77083335207E+03  0.12508884122E+03 0.  0.
          5    1    3    3  502    0 -0.35588251602E+02  0.65263906678E+02  0.74744771562E+03  0.75114676406E+03  0.41800000000E+01 0. -1.
         -5    1    3    3    0  502  0.13364753083E+02  0.10455737520E+02  0.90636789101E+01  0.19686588009E+02  0.41800000000E+01 0. -1.
        -11    1    1    2    0    0  0.82283878798E+00 -0.56489772136E+02  0.17488699776E+03  0.18378583571E+03  0.00000000000E+00 0. -1.
         11    1    1    2    0    0  0.21400659731E+02 -0.19229872062E+02  0.10561304771E+01  0.28790478079E+02  0.00000000000E+00 0.  1.
</event>
<event>
 7    1  0.2334784E-009  0.1055391E+03  0.7561462E-02  0.1269061E+00
          1   -1    0    0  501    0  0.00000000000E+00  0.00000000000E+00  0.13641350443E+04  0.13641350443E+04  0.00000000000E+00 0. -1.
         -1   -1    0    0    0  501 -0.00000000000E+00 -0.00000000000E+00 -0.10128537124E+02  0.10128537124E+02  0.00000000000E+00 0.  1.
         25    2    1    2    0    0 -0.64233081791E+01 -0.15726597578E+02  0.10144989715E+04  0.10223226531E+04  0.12508740541E+03 0.  0.
          5    1    3    3  502    0 -0.44267795751E+02 -0.52105773038E+02  0.42597230419E+03  0.43144469595E+03  0.41800000000E+01 0. -1.
         -5    1    3    3    0  502  0.37844487572E+02  0.36379175459E+02  0.58852666733E+03  0.59087795712E+03  0.41800000000E+01 0. -1.
        -11    1    1    2    0    0  0.26902953614E+02  0.46046871183E+02  0.24170261274E+03  0.24751613334E+03  0.00000000000E+00 0. -1.
         11    1    1    2    0    0 -0.20479645435E+02 -0.30320273605E+02  0.97804922952E+02  0.10442479506E+03  0.00000000000E+00 0.  1.
</event>
<event>
 7    1  0.2334784E-009  0.1334711E+03  0.7561462E-02  0.1222394E+00
         -2   -1    0    0    0  501 -0.00000000000E+00  0.00000000000E+00  0.24527834003E+02  0.24527834003E+02  0.00000000000E+00 0.  1.
          2   -1    0    0  501    0  0.00000000000E+00 -0.00000000000E+00 -0.93592447644E+03  0.93592447644E+03  0.00000000000E+00 0. -1.
         25    2    1    2    0    0  0.54039769237E+02  0.59399718958E+02 -0.27618541913E+03  0.31364669579E+03  0.12508893144E+03 0.  0.
          5    1    3    3  502    0 -0.38867333596E+02  0.10173845874E+02 -0.50753260864E+02  0.64865573682E+02  0.41800000000E+01 0.  1.
         -5    1    3    3    0  502  0.92907102832E+02  0.49225873084E+02 -0.22543215827E+03  0.24878112211E+03  0.41800000000E+01 0.  1.
        -11    1    1    2    0    0  0.14479933284E+02 -0.50129790986E+02 -0.30524919792E+03  0.30967682710E+03  0.00000000000E+00 0. -1.
         11    1    1    2    0    0 -0.68519702520E+02 -0.92699279716E+01 -0.32996202539E+03  0.33712878755E+03  0.00000000000E+00 0.  1.
</event>
<event>
 7    1  0.2334784E-009  0.1299302E+03  0.7561462E-02  0.1227559E+00
         -1   -1    0    0    0  501 -0.00000000000E+00  0.00000000000E+00  0.12618882116E+02  0.12618882116E+02  0.00000000000E+00 0.  1.
          1   -1    0    0  501    0  0.00000000000E+00 -0.00000000000E+00 -0.13560450339E+04  0.13560450339E+04  0.00000000000E+00 0. -1.
         25    2    1    2    0    0  0.55902286633E+02 -0.43110115959E+02 -0.78462434352E+03  0.79766250774E+03  0.12508624250E+03 0.  0.
          5    1    3    3  502    0  0.87127421127E+02  0.22496517695E+01 -0.52816674746E+03  0.53532591379E+03  0.41800000000E+01 0. -1.
         -5    1    3    3    0  502 -0.31225134494E+02 -0.45359767728E+02 -0.25645759605E+03  0.26233659395E+03  0.41800000000E+01 0. -1.
        -11    1    1    2    0    0 -0.45952285238E+02  0.72785716486E+02 -0.41491593532E+03  0.42375064180E+03  0.00000000000E+00 0. -1.
         11    1    1    2    0    0 -0.99500013946E+01 -0.29675600527E+02 -0.14388587293E+03  0.14725076646E+03  0.00000000000E+00 0.  1.
</event>
<event>
 7    1  0.2334784E-009  0.1375967E+03  0.7561462E-02  0.1216600E+00
          1   -1    0    0  501    0  0.00000000000E+00  0.00000000000E+00  0.36550286144E+03  0.36550286144E+03  0.00000000000E+00 0. -1.
         -1   -1    0    0    0  501 -0.00000000000E+00 -0.00000000000E+00 -0.55638318953E+02  0.55638318953E+02  0.00000000000E+00 0.  1.
         25    2    1    2    0    0  0.83043404388E+02  0.34951666304E+02  0.19361714950E+03  0.24749355476E+03  0.12509049954E+03 0.  0.
          5    1    3    3  502    0 -0.23888740263E+02  0.34821897283E+02  0.85062670299E+02  0.95059806017E+02  0.41800000000E+01 0. -1.
         -5    1    3    3    0  502  0.10693214465E+03  0.12976902010E+00  0.10855447920E+03  0.15243374874E+03  0.41800000000E+01 0. -1.
        -11    1    1    2    0    0 -0.24030739014E+02  0.29703812045E+02  0.54355094180E+02  0.66439966367E+02  0.00000000000E+00 0. -1.
         11    1    1    2    0    0 -0.59012665375E+02 -0.64655478348E+02  0.61892298808E+02  0.10720765927E+03  0.00000000000E+00 0.  1.
</event>
<event>
 7    1  0.2334784E-009  0.2340549E+03  0.7561462E-02  0.1123818E+00
          3   -1    0    0  501    0  0.00000000000E+00  0.00000000000E+00  0.15671962976E+03  0.15671962976E+03  0.00000000000E+00 0. -1.
         -3   -1    0    0    0  501 -0.00000000000E+00 -0.00000000000E+00 -0.58148163505E+03  0.58148163505E+03  0.00000000000E+00 0.  1.
         25    2    1    2    0    0 -0.19306120354E+03  0.10937659683E+03 -0.42719264257E+03  0.49737120997E+03  0.12509475764E+03 0.  0.
          5    1    3    3  502    0 -0.47713330117E+02  0.84522640554E+02 -0.10520419478E+03  0.14319927945E+03  0.41800000000E+01 0.  1.
         -5    1    3    3    0  502 -0.14534787342E+03  0.24853956281E+02 -0.32198844780E+03  0.35417193052E+03  0.41800000000E+01 0.  1.
        -11    1    1    2    0    0  0.58910333062E+02 -0.19860130333E+02 -0.40178286752E+02  0.74021259410E+02  0.00000000000E+00 0.  1.
         11    1    1    2    0    0  0.13415087048E+03 -0.89516466502E+02  0.42608924030E+02  0.16680879543E+03  0.00000000000E+00 0. -1.
</event>
<event>
 7    1  0.2334784E-009  0.1622344E+03  0.7561462E-02  0.1186197E+00
         -1   -1    0    0    0  501 -0.00000000000E+00  0.00000000000E+00  0.24167794012E+03  0.24167794012E+03  0.00000000000E+00 0.  1.
          1   -1    0    0  501    0  0.00000000000E+00 -0.00000000000E+00 -0.14676567629E+03  0.14676567629E+03  0.00000000000E+00 0. -1.
         25    2    1    2    0    0  0.17830186812E+02 -0.14838463805E+03  0.97964513867E+01  0.19510547667E+03  0.12503703529E+03 0.  0.
          5    1    3    3  502    0 -0.19719037238E+02 -0.12048163550E+03 -0.38162255380E+02  0.12797849451E+03  0.41800000000E+01 0. -1.
         -5    1    3    3    0  502  0.37549224050E+02 -0.27903002556E+02  0.47958706767E+02  0.67126982155E+02  0.41800000000E+01 0. -1.
        -11    1    1    2    0    0 -0.31287630294E+02  0.85724821101E+02  0.91131867133E+02  0.12896774003E+03  0.00000000000E+00 0.  1.
         11    1    1    2    0    0  0.13457443482E+02  0.62659816954E+02 -0.60160546887E+01  0.64370399717E+02  0.00000000000E+00 0. -1.
</event>
<event>
 7    1  0.2334784E-009  0.6993173E+02  0.7561462E-02  0.1360325E+00
         -1   -1    0    0    0  501 -0.00000000000E+00  0.00000000000E+00  0.30307678662E+03  0.30307678662E+03  0.00000000000E+00 0.  1.
          1   -1    0    0  501    0  0.00000000000E+00 -0.00000000000E+00 -0.39388427651E+02  0.39388427651E+02  0.00000000000E+00 0. -1.
         25    2    1    2    0    0  0.59112857792E+01 -0.12354788354E+01  0.13577221731E+03  0.18471099419E+03  0.12509031407E+03 0.  0.
          5    1    3    3  502    0  0.23880780047E+02  0.15127317920E+02 -0.14766418799E+02  0.32165928049E+02  0.41800000000E+01 0. -1.
         -5    1    3    3    0  502 -0.17969494268E+02 -0.16362796756E+02  0.15053863611E+03  0.15254506614E+03  0.41800000000E+01 0. -1.
        -11    1    1    2    0    0 -0.45625430200E+02  0.80573981589E+01  0.40659679551E+02  0.61642607725E+02  0.00000000000E+00 0.  1.
         11    1    1    2    0    0  0.39714144421E+02 -0.68219193235E+01  0.87256462114E+02  0.96111612362E+02  0.00000000000E+00 0. -1.
</event>
<event>
 7    1  0.2334784E-009  0.8585870E+02  0.7561462E-02  0.1313202E+00
          4   -1    0    0  501    0  0.00000000000E+00  0.00000000000E+00  0.83711217797E+03  0.83711217797E+03  0.00000000000E+00 0. -1.
         -4   -1    0    0    0  501 -0.00000000000E+00 -0.00000000000E+00 -0.15667172231E+02  0.15667172231E+02  0.00000000000E+00 0.  1.
         25    2    1    2    0    0  0.69267189349E+01  0.34333411735E+02  0.51167747033E+03  0.52790934531E+03  0.12509068959E+03 0.  0.
          5    1    3    3  502    0  0.64100407300E+01 -0.21227638160E+02  0.12825482434E+02  0.25955088975E+02  0.41800000000E+01 0. -1.
         -5    1    3    3    0  502  0.51667820486E+00  0.55561049895E+02  0.49885198790E+03  0.50195425633E+03  0.41800000000E+01 0. -1.
        -11    1    1    2    0    0 -0.32558095165E+02  0.16501373883E+02  0.17148600154E+03  0.17532761798E+03  0.00000000000E+00 0. -1.
         11    1    1    2    0    0  0.25631376230E+02 -0.50834785617E+02  0.13828153387E+03  0.14954238692E+03  0.00000000000E+00 0.  1.
</event>
<event>
 7    1  0.2414239E-009  0.1589165E+03  0.7561462E-02  0.1189925E+00
          1   -1    0    0  501    0  0.00000000000E+00  0.00000000000E+00  0.22589300219E+03  0.22589300219E+03  0.00000000000E+00 0. -1.
         -1   -1    0    0    0  501 -0.00000000000E+00 -0.00000000000E+00 -0.12198531803E+03  0.12198531803E+03  0.00000000000E+00 0.  1.
         25    2    1    2    0    0 -0.10501122900E+03 -0.53041022060E+02  0.10072189769E+03  0.19908288706E+03  0.12509351305E+03 0.  0.
          5    1    3    3  502    0 -0.34519564897E+02 -0.85008468476E+02  0.38101396140E+02  0.99434545612E+02  0.41800000000E+01 0.  1.
         -5    1    3    3    0  502 -0.70491664103E+02  0.31967446416E+02  0.62620501552E+02  0.99648341447E+02  0.41800000000E+01 0.  1.
        -11    1    1    2    0    0  0.57258292771E+02  0.76269822889E+02  0.64776875793E+01  0.95590576998E+02  0.00000000000E+00 0. -1.
         11    1    1    2    0    0  0.47752936229E+02 -0.23228800829E+02 -0.32919011122E+01  0.53204856163E+02  0.00000000000E+00 0.  1.
</event>
<event>
 7    1  0.2334784E-009  0.1152446E+03  0.7561462E-02  0.1251155E+00
         -2   -1    0    0    0  501 -0.00000000000E+00  0.00000000000E+00  0.40719204858E+03  0.40719204858E+03  0.00000000000E+00 0.  1.
          2   -1    0    0  501    0  0.00000000000E+00 -0.00000000000E+00 -0.40295629324E+02  0.40295629324E+02  0.00000000000E+00 0. -1.
         25    2    1    2    0    0 -0.36117225431E+02  0.54941380411E+02  0.16546945260E+03  0.21760650879E+03  0.12509773648E+03 0.  0.
          5    1    3    3  502    0 -0.78967714931E+02  0.31207072080E+02  0.69613540171E+02  0.10987856353E+03  0.41800000000E+01 0.  1.
         -5    1    3    3    0  502  0.42850489500E+02  0.23734308331E+02  0.95855912429E+02  0.10772794526E+03  0.41800000000E+01 0.  1.
        -11    1    1    2    0    0  0.57352227957E+02 -0.35033696760E+02  0.77497008827E+02  0.10257886886E+03  0.00000000000E+00 0. -1.
         11    1    1    2    0    0 -0.21235002525E+02 -0.19907683651E+02  0.12392995783E+03  0.12730230025E+03  0.00000000000E+00 0.  1.
</event>
<event>
 7    1  0.2334784E-009  0.1189967E+03  0.7561462E-02  0.1244761E+00
          2   -1    0    0  501    0  0.00000000000E+00  0.00000000000E+00  0.89822543620E+03  0.89822543620E+03  0.00000000000E+00 0. -1.
         -2   -1    0    0    0  501 -0.00000000000E+00 -0.00000000000E+00 -0.33289543116E+02  0.33289543116E+02  0.00000000000E+00 0.  1.
         25    2    1    2    0    0  0.74679074992E+02 -0.62459926135E+02  0.71063427943E+03  0.72809844552E+03  0.12509220863E+03 0.  0.
          5    1    3    3  502    0  0.67993587984E+02 -0.76189884461E+02  0.29573631922E+03  0.31289849697E+03  0.41800000000E+01 0. -1.
         -5    1    3    3    0  502  0.66854870083E+01  0.13729958326E+02  0.41489796021E+03  0.41519994856E+03  0.41800000000E+01 0. -1.
        -11    1    1    2    0    0 -0.31125429711E+02  0.69206928366E+02  0.13591061483E+03  0.15566016360E+03  0.00000000000E+00 0. -1.
         11    1    1    2    0    0 -0.43553645281E+02 -0.67470022306E+01  0.18390998828E+02  0.47756370196E+02  0.00000000000E+00 0.  1.
</event>
<event>
 7    1  0.2334784E-009  0.1903076E+03  0.7561462E-02  0.1158184E+00
          1   -1    0    0  501    0  0.00000000000E+00  0.00000000000E+00  0.37589368453E+03  0.37589368453E+03  0.00000000000E+00 0. -1.
         -1   -1    0    0    0  501 -0.00000000000E+00 -0.00000000000E+00 -0.11573165013E+03  0.11573165013E+03  0.00000000000E+00 0.  1.
         25    2    1    2    0    0  0.85261177651E+01  0.16291142845E+03  0.21436594110E+03  0.29700687862E+03  0.12508997178E+03 0.  0.
          5    1    3    3  502    0 -0.28192458128E+02  0.16060085494E+03  0.14438959416E+03  0.21783772998E+03  0.41800000000E+01 0. -1.
         -5    1    3    3    0  502  0.36718575893E+02  0.23105735161E+01  0.69976346937E+02  0.79169148639E+02  0.41800000000E+01 0. -1.
        -11    1    1    2    0    0  0.26797446144E+02 -0.12813631034E+03  0.58595238581E+02  0.14342391409E+03  0.00000000000E+00 0.  1.
         11    1    1    2    0    0 -0.35323563909E+02 -0.34775118109E+02 -0.12799145276E+02  0.51194541960E+02  0.00000000000E+00 0. -1.
</event>
<event>
 7    1  0.2334784E-009  0.9689267E+02  0.7561462E-02  0.1286969E+00
         -1   -1    0    0    0  501 -0.00000000000E+00  0.00000000000E+00  0.43227745820E+02  0.43227745820E+02  0.00000000000E+00 0.  1.
          1   -1    0    0  501    0  0.00000000000E+00 -0.00000000000E+00 -0.38472299356E+03  0.38472299356E+03  0.00000000000E+00 0. -1.
         25    2    1    2    0    0 -0.78632180760E+01 -0.68884744296E+02 -0.19400773700E+03  0.24102543390E+03  0.12508924644E+03 0.  0.
          5    1    3    3  502    0 -0.22543211195E+02 -0.22162071032E+02 -0.18894028587E+03  0.19161225897E+03  0.41800000000E+01 0. -1.
         -5    1    3    3    0  502  0.14679993119E+02 -0.46722673264E+02 -0.50674511258E+01  0.49413174922E+02  0.41800000000E+01 0. -1.
        -11    1    1    2    0    0 -0.40413647525E+02  0.37728441154E+02 -0.54602848515E+02  0.77705657736E+02  0.00000000000E+00 0.  1.
         11    1    1    2    0    0  0.48276865601E+02  0.31156303141E+02 -0.92884662227E+02  0.10921964775E+03  0.00000000000E+00 0. -1.
</event>
<event>
 7    1  0.2462407E-009  0.1206946E+03  0.7561462E-02  0.1241956E+00
         -2   -1    0    0    0  501 -0.00000000000E+00  0.00000000000E+00  0.19355538969E+02  0.19355538969E+02  0.00000000000E+00 0.  1.
          2   -1    0    0  501    0  0.00000000000E+00 -0.00000000000E+00 -0.89140461416E+03  0.89140461416E+03  0.00000000000E+00 0. -1.
         25    2    1    2    0    0 -0.33202625598E+02 -0.62319778191E+02 -0.40856363463E+03  0.43308101224E+03  0.12509496603E+03 0.  0.
          5    1    3    3  502    0 -0.55598096989E+02  0.38020605515E+01 -0.82798372372E+02  0.99893177548E+02  0.41800000000E+01 0. -1.
         -5    1    3    3    0  502  0.22395471391E+02 -0.66121838742E+02 -0.32576526225E+03  0.33318783470E+03  0.41800000000E+01 0. -1.
        -11    1    1    2    0    0 -0.18054716705E+01  0.77420832192E+02 -0.31371137228E+03  0.32312856588E+03  0.00000000000E+00 0.  1.
         11    1    1    2    0    0  0.35008097268E+02 -0.15101054002E+02 -0.14977406828E+03  0.15455057501E+03  0.00000000000E+00 0. -1.
</event>
<event>
 7    1  0.2334784E-009  0.9236941E+02  0.7561462E-02  0.1297213E+00
         -1   -1    0    0    0  501 -0.00000000000E+00  0.00000000000E+00  0.15749109182E+03  0.15749109182E+03  0.00000000000E+00 0.  1.
          1   -1    0    0  501    0  0.00000000000E+00 -0.00000000000E+00 -0.98081755875E+02  0.98081755875E+02  0.00000000000E+00 0. -1.
         25    2    1    2    0    0  0.21493445109E+02 -0.49695965669E+02  0.34912308651E+00  0.13630472141E+03  0.12508876051E+03 0.  0.
          5    1    3    3  502    0  0.12201009341E+02 -0.72319355723E+02 -0.43896804009E+02  0.85576606870E+02  0.41800000000E+01 0.  1.
         -5    1    3    3    0  502  0.92924357680E+01  0.22623390054E+02  0.44245927096E+02  0.50728114538E+02  0.41800000000E+01 0.  1.
        -11    1    1    2    0    0  0.12096883483E+02  0.51427854294E+02  0.66388085725E+02  0.84844190806E+02  0.00000000000E+00 0.  1.
         11    1    1    2    0    0 -0.33590328592E+02 -0.17318886249E+01 -0.73278728684E+01  0.34423935479E+02  0.00000000000E+00 0. -1.
</event>
<event>
 7    1  0.2334784E-009  0.1384468E+03  0.7561462E-02  0.1215434E+00
         -1   -1    0    0    0  501 -0.00000000000E+00  0.00000000000E+00  0.18815404127E+02  0.18815404127E+02  0.00000000000E+00 0.  1.
          1   -1    0    0  501    0  0.00000000000E+00 -0.00000000000E+00 -0.24019517525E+04  0.24019517525E+04  0.00000000000E+00 0. -1.
         25    2    1    2    0    0 -0.11518651034E+03 -0.39945850703E+02 -0.20137824771E+04  0.20213424482E+04  0.12506728088E+03 0.  0.
          5    1    3    3  502    0 -0.84665632880E+02 -0.14504644457E+02 -0.52292323636E+03  0.52994795747E+03  0.41800000000E+01 0. -1.
         -5    1    3    3    0  502 -0.30520877459E+02 -0.25441206246E+02 -0.14908592408E+04  0.14913944908E+04  0.41800000000E+01 0. -1.
        -11    1    1    2    0    0  0.37729225226E+02  0.60047297638E+02 -0.19769442837E+03  0.21002918701E+03  0.00000000000E+00 0. -1.
         11    1    1    2    0    0  0.77457285113E+02 -0.20101446935E+02 -0.17165944292E+03  0.18939552141E+03  0.00000000000E+00 0.  1.
</event>
<event>
 7    1  0.2334784E-009  0.1734185E+03  0.7561462E-02  0.1174329E+00
         -3   -1    0    0    0  501 -0.00000000000E+00  0.00000000000E+00  0.47677884215E+02  0.47677884215E+02  0.00000000000E+00 0.  1.
          3   -1    0    0  501    0  0.00000000000E+00 -0.00000000000E+00 -0.68273094835E+03  0.68273094835E+03  0.00000000000E+00 0. -1.
         25    2    1    2    0    0 -0.13935467377E+03 -0.89364834277E+01 -0.41461623751E+03  0.45503132317E+03  0.12508914752E+03 0.  0.
          5    1    3    3  502    0  0.23535461908E+02  0.17767587990E+01 -0.46216495890E+02  0.52062575152E+02  0.41800000000E+01 0. -1.
         -5    1    3    3    0  502 -0.16289013567E+03 -0.10713242227E+02 -0.36839974162E+03  0.40296874802E+03  0.41800000000E+01 0. -1.
        -11    1    1    2    0    0  0.24234010210E+02  0.34001456793E+02 -0.92319988894E+02  0.10132308061E+03  0.00000000000E+00 0. -1.
         11    1    1    2    0    0  0.11512066356E+03 -0.25064973365E+02 -0.12811683773E+03  0.17405442878E+03  0.00000000000E+00 0.  1.
</event>
<event>
 7    1  0.2334784E-009  0.3223950E+03  0.7561462E-02  0.1074552E+00
         -2   -1    0    0    0  501 -0.00000000000E+00  0.00000000000E+00  0.93934743762E+02  0.93934743762E+02  0.00000000000E+00 0. -1.
          2   -1    0    0  501    0  0.00000000000E+00 -0.00000000000E+00 -0.13812872600E+04  0.13812872600E+04  0.00000000000E+00 0.  1.
         25    2    1    2    0    0  0.19689654550E+03  0.24107375274E+03 -0.94812236636E+03  0.10057179620E+04  0.12509114120E+03 0.  0.
          5    1    3    3  502    0  0.21209355797E+03  0.21153969786E+03 -0.88397756084E+03  0.93336301703E+03  0.41800000000E+01 0. -1.
         -5    1    3    3    0  502 -0.15197012465E+02  0.29534054882E+02 -0.64144805528E+02  0.72354944972E+02  0.41800000000E+01 0. -1.
        -11    1    1    2    0    0 -0.13867867476E+03 -0.18171214371E+03 -0.30108724274E+03  0.37802725530E+03  0.00000000000E+00 0.  1.
         11    1    1    2    0    0 -0.58217870745E+02 -0.59361609030E+02 -0.38142907164E+02  0.91476786496E+02  0.00000000000E+00 0. -1.
</event>
<event>
 7    1  0.2334784E-009  0.1012882E+03  0.7561462E-02  0.1277610E+00
          1   -1    0    0  501    0  0.00000000000E+00  0.00000000000E+00  0.48058094461E+02  0.48058094461E+02  0.00000000000E+00 0. -1.
         -1   -1    0    0    0  501 -0.00000000000E+00 -0.00000000000E+00 -0.38758724165E+03  0.38758724165E+03  0.00000000000E+00 0.  1.
         25    2    1    2    0    0  0.22043304223E+02 -0.82182606271E+02 -0.18053168158E+03  0.23553925809E+03  0.12508863262E+03 0.  0.
          5    1    3    3  502    0  0.94623458729E+01 -0.56234036172E+02 -0.47674340303E+01  0.57375984879E+02  0.41800000000E+01 0. -1.
         -5    1    3    3    0  502  0.12580958350E+02 -0.25948570099E+02 -0.17576424755E+03  0.17816327321E+03  0.41800000000E+01 0. -1.
        -11    1    1    2    0    0  0.24456954197E+02  0.59891609575E+02 -0.58819867818E+02  0.87435258084E+02  0.00000000000E+00 0. -1.
         11    1    1    2    0    0 -0.46500258420E+02  0.22290996696E+02 -0.10017759779E+03  0.11267081994E+03  0.00000000000E+00 0.  1.
</event>
<event>
 7    1  0.2334784E-009  0.1238185E+03  0.7561462E-02  0.1236927E+00
         -2   -1    0    0    0  501 -0.00000000000E+00  0.00000000000E+00  0.97747714940E+02  0.97747714940E+02  0.00000000000E+00 0.  1.
          2   -1    0    0  501    0  0.00000000000E+00 -0.00000000000E+00 -0.25989772777E+03  0.25989772777E+03  0.00000000000E+00 0. -1.
         25    2    1    2    0    0  0.10743558722E+03  0.16076697601E+02 -0.14958837379E+03  0.22321566333E+03  0.12509070778E+03 0.  0.
          5    1    3    3  502    0  0.43360996169E+02  0.38764317404E+02  0.59279051174E+00  0.58315281815E+02  0.41800000000E+01 0.  1.
         -5    1    3    3    0  502  0.64074591051E+02 -0.22687619803E+02 -0.15018116431E+03  0.16490038151E+03  0.41800000000E+01 0.  1.
        -11    1    1    2    0    0 -0.10724711001E+02 -0.21850461954E+02 -0.27139989301E+02  0.36456016416E+02  0.00000000000E+00 0.  1.
         11    1    1    2    0    0 -0.96710876219E+02  0.57737643525E+01  0.14578350264E+02  0.97973762969E+02  0.00000000000E+00 0. -1.
</event>
<event>
 7    1  0.2334784E-009  0.1216005E+03  0.7561462E-02  0.1240480E+00
          1   -1    0    0  501    0  0.00000000000E+00  0.00000000000E+00  0.85169000946E+02  0.85169000946E+02  0.00000000000E+00 0. -1.
         -1   -1    0    0    0  501 -0.00000000000E+00 -0.00000000000E+00 -0.28179070170E+03  0.28179070170E+03  0.00000000000E+00 0.  1.
         25    2    1    2    0    0 -0.62270366458E+02  0.52621474286E+02 -0.16035070130E+02  0.15016958415E+03  0.12508861832E+03 0.  0.
          5    1    3    3  502    0  0.24074486878E+02 -0.17785725673E+01  0.29494875441E+02  0.38342721814E+02  0.41800000000E+01 0.  1.
         -5    1    3    3    0  502 -0.86344853336E+02  0.54400046853E+02 -0.45529945571E+02  0.11182686233E+03  0.41800000000E+01 0.  1.
        -11    1    1    2    0    0 -0.17356582174E+02 -0.28488745081E+02 -0.77069695151E+02  0.83979744294E+02  0.00000000000E+00 0.  1.
         11    1    1    2    0    0  0.79626948632E+02 -0.24132729204E+02 -0.10351693548E+03  0.13281037421E+03  0.00000000000E+00 0. -1.
</event>
<event>
 7    1  0.2334784E-009  0.1055037E+03  0.7561462E-02  0.1269130E+00
         -2   -1    0    0    0  501 -0.00000000000E+00  0.00000000000E+00  0.10906586212E+03  0.10906586212E+03  0.00000000000E+00 0.  1.
          2   -1    0    0  501    0  0.00000000000E+00 -0.00000000000E+00 -0.12057229056E+03  0.12057229056E+03  0.00000000000E+00 0. -1.
         25    2    1    2    0    0 -0.19041971233E+02  0.26826323358E+02 -0.90072489526E+01  0.12965703959E+03  0.12509024377E+03 0.  0.
          5    1    3    3  502    0  0.91246095545E+01  0.63746613066E+02  0.27789036097E+02  0.70260886019E+02  0.41800000000E+01 0.  1.
         -5    1    3    3    0  502 -0.28166580787E+02 -0.36920289708E+02 -0.36796285049E+02  0.59396153569E+02  0.41800000000E+01 0.  1.
        -11    1    1    2    0    0 -0.17604229383E+02  0.28493582075E+02  0.12701986404E+01  0.33517256991E+02  0.00000000000E+00 0. -1.
         11    1    1    2    0    0  0.36646200616E+02 -0.55319905433E+02 -0.37693781218E+01  0.66463856103E+02  0.00000000000E+00 0.  1.
</event>
<event>
 7    1  0.2334784E-009  0.1921163E+03  0.7561462E-02  0.1156566E+00
          2   -1    0    0  501    0  0.00000000000E+00  0.00000000000E+00  0.17720968627E+04  0.17720968627E+04  0.00000000000E+00 0. -1.
         -2   -1    0    0    0  501 -0.00000000000E+00 -0.00000000000E+00 -0.21731140379E+02  0.21731140379E+02  0.00000000000E+00 0.  1.
         25    2    1    2    0    0 -0.12603075891E+03  0.10324583882E+03  0.93942297509E+03  0.96161674823E+03  0.12509112245E+03 0.  0.
          5    1    3    3  502    0 -0.55925766475E+01  0.78377422458E+02  0.45839405978E+03  0.46509878920E+03  0.41800000000E+01 0.  1.
         -5    1    3    3    0  502 -0.12043818227E+03  0.24868416360E+02  0.48102891531E+03  0.49651795903E+03  0.41800000000E+01 0.  1.
        -11    1    1    2    0    0  0.10482357284E+03 -0.34193617356E+02  0.57431889895E+03  0.58480713281E+03  0.00000000000E+00 0.  1.
         11    1    1    2    0    0  0.21207186077E+02 -0.69052221462E+02  0.23662384826E+03  0.24740412203E+03  0.00000000000E+00 0. -1.
</event>
<event>
 7    1  0.2334784E-009  0.1336755E+03  0.7561462E-02  0.1222102E+00
          3   -1    0    0  501    0  0.00000000000E+00  0.00000000000E+00  0.10875418170E+03  0.10875418170E+03  0.00000000000E+00 0. -1.
         -3   -1    0    0    0  501 -0.00000000000E+00 -0.00000000000E+00 -0.19157904895E+03  0.19157904895E+03  0.00000000000E+00 0.  1.
         25    2    1    2    0    0  0.20750356806E+01 -0.93608294985E+02 -0.50351688109E+02  0.16416307797E+03  0.12508958793E+03 0.  0.
          5    1    3    3  502    0 -0.39036834862E+02 -0.84946301568E+02 -0.70708599224E+02  0.11728992723E+03  0.41800000000E+01 0.  1.
         -5    1    3    3    0  502  0.41111870543E+02 -0.86619934177E+01  0.20356911114E+02  0.46873150733E+02  0.41800000000E+01 0.  1.
        -11    1    1    2    0    0  0.23111608448E+02 -0.98104701362E+01 -0.81670750050E+00  0.25120883354E+02  0.00000000000E+00 0. -1.
         11    1    1    2    0    0 -0.25186644129E+02  0.10341876512E+03 -0.31656471641E+02  0.11104926933E+03  0.00000000000E+00 0.  1.
</event>
<event>
 7    1  0.2334784E-009  0.1001479E+03  0.7561462E-02  0.1279985E+00
         -2   -1    0    0    0  501 -0.00000000000E+00  0.00000000000E+00  0.56462955314E+02  0.56462955314E+02  0.00000000000E+00 0.  1.
          2   -1    0    0  501    0  0.00000000000E+00 -0.00000000000E+00 -0.23587451033E+03  0.23587451033E+03  0.00000000000E+00 0. -1.
         25    2    1    2    0    0  0.44849528205E+01  0.33682034246E+02 -0.10181954306E+03  0.16485486045E+03  0.12512118699E+03 0.  0.
          5    1    3    3  502    0 -0.60145334775E+02  0.19324527755E+02 -0.50341445260E+02  0.80886538923E+02  0.41800000000E+01 0. -1.
         -5    1    3    3    0  502  0.64630287595E+02  0.14357506491E+02 -0.51478097802E+02  0.83968321530E+02  0.41800000000E+01 0. -1.
        -11    1    1    2    0    0  0.22403637916E+02  0.55533173686E+01  0.12024211395E+02  0.26025833038E+02  0.00000000000E+00 0.  1.
         11    1    1    2    0    0 -0.26888590736E+02 -0.39235351615E+02 -0.89616223348E+02  0.10145677215E+03  0.00000000000E+00 0. -1.
</event>
<event>
 7    1  0.2334784E-009  0.8901299E+02  0.7561462E-02  0.1305260E+00
          3   -1    0    0  501    0  0.00000000000E+00  0.00000000000E+00  0.31058193753E+03  0.31058193753E+03  0.00000000000E+00 0. -1.
         -3   -1    0    0    0  501 -0.00000000000E+00 -0.00000000000E+00 -0.41835926468E+02  0.41835926468E+02  0.00000000000E+00 0.  1.
         25    2    1    2    0    0 -0.28779471110E+02  0.22856546318E+02  0.16313484269E+03  0.20883248469E+03  0.12508936843E+03 0.  0.
          5    1    3    3  502    0 -0.48664068650E+02  0.32101443600E+02  0.16813792272E+02  0.60818338265E+02  0.41800000000E+01 0.  1.
         -5    1    3    3    0  502  0.19884597540E+02 -0.92448972827E+01  0.14632105042E+03  0.14801414642E+03  0.41800000000E+01 0.  1.
        -11    1    1    2    0    0 -0.28953070491E+02 -0.26712456728E+02  0.41228611077E+02  0.57023100641E+02  0.00000000000E+00 0.  1.
         11    1    1    2    0    0  0.57732541601E+02  0.38559104100E+01  0.64382557289E+02  0.86562278666E+02  0.00000000000E+00 0. -1.
</event>
<event>
 7    1  0.2334784E-009  0.1199534E+03  0.7561462E-02  0.1243174E+00
         -2   -1    0    0    0  501 -0.00000000000E+00  0.00000000000E+00  0.38566658542E+02  0.38566658542E+02  0.00000000000E+00 0. -1.
          2   -1    0    0  501    0  0.00000000000E+00 -0.00000000000E+00 -0.45494687170E+03  0.45494687170E+03  0.00000000000E+00 0.  1.
         25    2    1    2    0    0  0.39906435347E+02  0.36822516937E+02 -0.13177739390E+03  0.18963463721E+03  0.12509033836E+03 0.  0.
          5    1    3    3  502    0  0.53810361012E+02  0.75359601675E+02 -0.73614947528E+02  0.11836915737E+03  0.41800000000E+01 0. -1.
         -5    1    3    3    0  502 -0.13903925665E+02 -0.38537084738E+02 -0.58162446370E+02  0.71265479840E+02  0.41800000000E+01 0. -1.
        -11    1    1    2    0    0 -0.67373392991E+02 -0.10872266577E+02 -0.16908641887E+03  0.18233923689E+03  0.00000000000E+00 0. -1.
         11    1    1    2    0    0  0.27466957644E+02 -0.25950250360E+02 -0.11551640039E+03  0.12153965614E+03  0.00000000000E+00 0.  1.
</event>
<event>
 7    1  0.2334784E-009  0.1718218E+03  0.7561462E-02  0.1175961E+00
         -2   -1    0    0    0  501 -0.00000000000E+00  0.00000000000E+00  0.26160017449E+03  0.26160017449E+03  0.00000000000E+00 0.  1.
          2   -1    0    0  501    0  0.00000000000E+00 -0.00000000000E+00 -0.16597651583E+03  0.16597651583E+03  0.00000000000E+00 0. -1.
         25    2    1    2    0    0 -0.15540088054E+03 -0.49948719528E+01  0.13846012948E+03  0.24288618610E+03  0.12509240393E+03 0.  0.
          5    1    3    3  502    0  0.87206549892E+01  0.19880132724E+02  0.50168686026E+02  0.54823707993E+02  0.41800000000E+01 0. -1.
         -5    1    3    3    0  502 -0.16412153553E+03 -0.24875004677E+02  0.88291443456E+02  0.18806247810E+03  0.41800000000E+01 0. -1.
        -11    1    1    2    0    0  0.12477223825E+03  0.45748826667E+01 -0.70526823309E+02  0.14339830472E+03  0.00000000000E+00 0. -1.
         11    1    1    2    0    0  0.30628642292E+02  0.41998928613E+00  0.27690352488E+02  0.41292199512E+02  0.00000000000E+00 0.  1.
</event>
<event>
 7    1  0.2334784E-009  0.1193288E+03  0.7561462E-02  0.1244208E+00
          1   -1    0    0  501    0  0.00000000000E+00  0.00000000000E+00  0.54381416079E+03  0.54381416079E+03  0.00000000000E+00 0. -1.
         -1   -1    0    0    0  501 -0.00000000000E+00 -0.00000000000E+00 -0.40046901872E+02  0.40046901872E+02  0.00000000000E+00 0.  1.
         25    2    1    2    0    0  0.90966262925E+02  0.97791022771E+01  0.20603697782E+03  0.25781542812E+03  0.12508823652E+03 0.  0.
          5    1    3    3  502    0  0.74413734373E+02 -0.19337502916E+02  0.36973792126E+02  0.85415903593E+02  0.41800000000E+01 0. -1.
         -5    1    3    3    0  502  0.16552528551E+02  0.29116605193E+02  0.16906318570E+03  0.17239952453E+03  0.41800000000E+01 0. -1.
        -11    1    1    2    0    0  0.12832425106E+02 -0.19832297352E+02  0.26725112514E+02  0.35668232242E+02  0.00000000000E+00 0.  1.
         11    1    1    2    0    0 -0.10379868803E+03  0.10053195075E+02  0.27100516858E+03  0.29037740229E+03  0.00000000000E+00 0. -1.
</event>
<event>
 7    1  0.2334784E-009  0.9905562E+02  0.7561462E-02  0.1282294E+00
          1   -1    0    0  501    0  0.00000000000E+00  0.00000000000E+00  0.25686326489E+03  0.25686326489E+03  0.00000000000E+00 0. -1.
         -1   -1    0    0    0  501 -0.00000000000E+00 -0.00000000000E+00 -0.46389990003E+02  0.46389990003E+02  0.00000000000E+00 0.  1.
         25    2    1    2    0    0  0.56114950135E+01  0.29477127003E+01  0.10628298127E+03  0.16426709083E+03  0.12508967638E+03 0.  0.
          5    1    3    3  502    0 -0.58508110462E+02 -0.61435825267E+01  0.38528966770E+02  0.70447826627E+02  0.41800000000E+01 0.  1.
         -5    1    3    3    0  502  0.64119605476E+02  0.90912952270E+01  0.67754014501E+02  0.93819264207E+02  0.41800000000E+01 0.  1.
        -11    1    1    2    0    0  0.17998565941E+02  0.29230067176E+02  0.90502343015E+02  0.96793694496E+02  0.00000000000E+00 0. -1.
         11    1    1    2    0    0 -0.23610060955E+02 -0.32177779876E+02  0.13687950600E+02  0.42192469561E+02  0.00000000000E+00 0.  1.
</event>
<event>
 7    1  0.2334784E-009  0.9186902E+02  0.7561462E-02  0.1298388E+00
          1   -1    0    0  501    0  0.00000000000E+00  0.00000000000E+00  0.36270176701E+02  0.36270176701E+02  0.00000000000E+00 0. -1.
         -1   -1    0    0    0  501 -0.00000000000E+00 -0.00000000000E+00 -0.49767120038E+03  0.49767120038E+03  0.00000000000E+00 0.  1.
         25    2    1    2    0    0 -0.36635132938E+02 -0.27821307082E+02 -0.37896129889E+03  0.40171766607E+03  0.12509699868E+03 0.  0.
          5    1    3    3  502    0 -0.38068354165E+02  0.13879700970E+02 -0.34597335330E+03  0.34836314283E+03  0.41800000000E+01 0.  1.
         -5    1    3    3    0  502  0.14332212276E+01 -0.41701008052E+02 -0.32987945592E+02  0.53354523239E+02  0.41800000000E+01 0.  1.
        -11    1    1    2    0    0  0.49851723875E+02  0.52920002135E+02 -0.71053613010E+02  0.10165794077E+03  0.00000000000E+00 0.  1.
         11    1    1    2    0    0 -0.13216590937E+02 -0.25098695053E+02 -0.11386111778E+02  0.30565770247E+02  0.00000000000E+00 0. -1.
</event>
<event>
 7    1  0.2334784E-009  0.1506659E+03  0.7561462E-02  0.1199657E+00
          1   -1    0    0  501    0  0.00000000000E+00  0.00000000000E+00  0.47068613080E+03  0.47068613080E+03  0.00000000000E+00 0. -1.
         -1   -1    0    0    0  501 -0.00000000000E+00 -0.00000000000E+00 -0.72255645507E+02  0.72255645507E+02  0.00000000000E+00 0.  1.
         25    2    1    2    0    0  0.13427953826E+03  0.47878909486E+02  0.14754031791E+03  0.24029187618E+03  0.12509458813E+03 0.  0.
          5    1    3    3  502    0  0.13377527500E+03  0.44129135902E+02  0.16787709466E+03  0.21918803833E+03  0.41800000000E+01 0. -1.
         -5    1    3    3    0  502  0.50426326531E+00  0.37497735839E+01 -0.20336776750E+02  0.21103837848E+02  0.41800000000E+01 0. -1.
        -11    1    1    2    0    0 -0.88478508472E+02 -0.60587068011E+02  0.22324357097E+03  0.24766293880E+03  0.00000000000E+00 0. -1.
         11    1    1    2    0    0 -0.45801029793E+02  0.12708158525E+02  0.27646596405E+02  0.54986961327E+02  0.00000000000E+00 0.  1.
</event>
<event>
 7    1  0.2334784E-009  0.1712363E+03  0.7561462E-02  0.1176565E+00
         -1   -1    0    0    0  501 -0.00000000000E+00  0.00000000000E+00  0.38454223315E+02  0.38454223315E+02  0.00000000000E+00 0.  1.
          1   -1    0    0  501    0  0.00000000000E+00 -0.00000000000E+00 -0.85088176876E+03  0.85088176876E+03  0.00000000000E+00 0. -1.
         25    2    1    2    0    0 -0.23185937571E+02 -0.13911821502E+03 -0.37312702724E+03  0.41804543771E+03  0.12508694608E+03 0.  0.
          5    1    3    3  502    0  0.22303550007E+02 -0.13487573792E+03 -0.22838728047E+03  0.26620881898E+03  0.41800000000E+01 0. -1.
         -5    1    3    3    0  502 -0.45489487578E+02 -0.42424771027E+01 -0.14473974677E+03  0.15183661873E+03  0.41800000000E+01 0. -1.
        -11    1    1    2    0    0 -0.27294838386E+02  0.60806665160E+02 -0.26936726657E+03  0.27749087017E+03  0.00000000000E+00 0. -1.
         11    1    1    2    0    0  0.50480775957E+02  0.78311549858E+02 -0.16993325163E+03  0.19379968419E+03  0.00000000000E+00 0.  1.
</event>
<event>
 7    1  0.2823457E-009  0.8847707E+02  0.7561462E-02  0.1306582E+00
          1   -1    0    0  501    0  0.00000000000E+00  0.00000000000E+00  0.16041260541E+03  0.16041260541E+03  0.00000000000E+00 0. -1.
         -1   -1    0    0    0  501 -0.00000000000E+00 -0.00000000000E+00 -0.10663840829E+03  0.10663840829E+03  0.00000000000E+00 0.  1.
         25    2    1    2    0    0 -0.18361048311E+02  0.33150966924E+02 -0.33628577797E+02  0.13496062249E+03  0.12508946268E+03 0.  0.
          5    1    3    3  502    0 -0.71499324208E+02  0.19484610296E+02 -0.29180960135E+02  0.79754650241E+02  0.41800000000E+01 0.  1.
         -5    1    3    3    0  502  0.53138275897E+02  0.13666356629E+02 -0.44476176619E+01  0.55205972246E+02  0.41800000000E+01 0.  1.
        -11    1    1    2    0    0  0.24678865419E+02 -0.15964900445E+02 -0.11458940201E+02  0.31547293943E+02  0.00000000000E+00 0.  1.
         11    1    1    2    0    0 -0.63178171077E+01 -0.17186066480E+02  0.98861715119E+02  0.10054309728E+03  0.00000000000E+00 0. -1.
</event>
<event>
 7    1  0.2334784E-009  0.1047963E+03  0.7561462E-02  0.1270522E+00
          1   -1    0    0  501    0  0.00000000000E+00  0.00000000000E+00  0.47965122418E+03  0.47965122418E+03  0.00000000000E+00 0. -1.
         -1   -1    0    0    0  501 -0.00000000000E+00 -0.00000000000E+00 -0.54928781705E+02  0.54928781705E+02  0.00000000000E+00 0.  1.
         25    2    1    2    0    0  0.38469571498E+02 -0.58971649830E+02  0.38347235526E+03  0.40945916057E+03  0.12509273966E+03 0.  0.
          5    1    3    3  502    0  0.56817955057E+02 -0.19471962604E+02  0.67409577361E+02  0.90382303934E+02  0.41800000000E+01 0.  1.
         -5    1    3    3    0  502 -0.18348383558E+02 -0.39499687226E+02  0.31606277790E+03  0.31907685664E+03  0.41800000000E+01 0.  1.
        -11    1    1    2    0    0 -0.46558613074E+02  0.74656140556E+02  0.54103963525E+02  0.10328834708E+03  0.00000000000E+00 0. -1.
         11    1    1    2    0    0  0.80890415751E+01 -0.15684490725E+02 -0.12853876306E+02  0.21832498231E+02  0.00000000000E+00 0.  1.
</event>
<event>
 7    1  0.2334784E-009  0.1813149E+03  0.7561462E-02  0.1166536E+00
         -3   -1    0    0    0  501 -0.00000000000E+00  0.00000000000E+00  0.13890648592E+04  0.13890648592E+04  0.00000000000E+00 0.  1.
          3   -1    0    0  501    0  0.00000000000E+00 -0.00000000000E+00 -0.27211948604E+02  0.27211948604E+02  0.00000000000E+00 0. -1.
         25    2    1    2    0    0  0.12572344880E+03  0.98009333279E+02  0.75969802696E+03  0.78625732154E+03  0.12508904235E+03 0.  0.
          5    1    3    3  502    0  0.10217291513E+03  0.27596788074E+02  0.25518004403E+03  0.27628828163E+03  0.41800000000E+01 0.  1.
         -5    1    3    3    0  502  0.23550533670E+02  0.70412545205E+02  0.50451798293E+03  0.50996903990E+03  0.41800000000E+01 0.  1.
        -11    1    1    2    0    0 -0.11470317643E+03 -0.37252666630E+02  0.34213718994E+03  0.36277050127E+03  0.00000000000E+00 0.  1.
         11    1    1    2    0    0 -0.11020272372E+02 -0.60756666648E+02  0.26001769370E+03  0.26724898499E+03  0.00000000000E+00 0. -1.
</event>
<event>
 7    1  0.2334784E-009  0.1567934E+03  0.7561462E-02  0.1192365E+00
          1   -1    0    0  501    0  0.00000000000E+00  0.00000000000E+00  0.65198615250E+02  0.65198615250E+02  0.00000000000E+00 0. -1.
         -1   -1    0    0    0  501 -0.00000000000E+00 -0.00000000000E+00 -0.39260335116E+03  0.39260335116E+03  0.00000000000E+00 0.  1.
         25    2    1    2    0    0  0.51347557272E+02  0.10473325545E+03 -0.19134930909E+03  0.25664583636E+03  0.12508757251E+03 0.  0.
          5    1    3    3  502    0 -0.31997681731E+02  0.70600474466E+00 -0.66702548648E+02  0.74101636116E+02  0.41800000000E+01 0. -1.
         -5    1    3    3    0  502  0.83345239003E+02  0.10402725070E+03 -0.12464676044E+03  0.18254420024E+03  0.41800000000E+01 0. -1.
        -11    1    1    2    0    0 -0.42522419544E+02  0.32002073096E+00 -0.44123450491E+02  0.61279176401E+02  0.00000000000E+00 0.  1.
         11    1    1    2    0    0 -0.88251377279E+01 -0.10505327618E+03 -0.91931976326E+02  0.13987695365E+03  0.00000000000E+00 0. -1.
</event>
<event>
 7    1  0.2334784E-009  0.9705251E+02  0.7561462E-02  0.1286619E+00
         -2   -1    0    0    0  501 -0.00000000000E+00  0.00000000000E+00  0.22242839736E+02  0.22242839736E+02  0.00000000000E+00 0.  1.
          2   -1    0    0  501    0  0.00000000000E+00 -0.00000000000E+00 -0.61777221706E+03  0.61777221706E+03  0.00000000000E+00 0. -1.
         25    2    1    2    0    0 -0.47364841968E+00  0.29700143423E+02 -0.44243441119E+03  0.46073652691E+03  0.12509043194E+03 0.  0.
          5    1    3    3  502    0  0.51576415156E+02 -0.20752074029E+01 -0.31698613990E+03  0.32118860250E+03  0.41800000000E+01 0. -1.
         -5    1    3    3    0  502 -0.52050063576E+02  0.31775350826E+02 -0.12544827130E+03  0.13954792442E+03  0.41800000000E+01 0. -1.
        -11    1    1    2    0    0 -0.27904984807E+02 -0.41867798258E+02 -0.13360388502E+03  0.14276413695E+03  0.00000000000E+00 0. -1.
         11    1    1    2    0    0  0.28378633227E+02  0.12167654835E+02 -0.19491081110E+02  0.36514392927E+02  0.00000000000E+00 0.  1.
</event>
<event>
 7    1  0.2334784E-009  0.1201037E+03  0.7561462E-02  0.1242926E+00
          1   -1    0    0  501    0  0.00000000000E+00  0.00000000000E+00  0.93636731098E+03  0.93636731098E+03  0.00000000000E+00 0. -1.
         -1   -1    0    0    0  501 -0.00000000000E+00 -0.00000000000E+00 -0.17033083937E+02  0.17033083937E+02  0.00000000000E+00 0.  1.
         25    2    1    2    0    0  0.56089987551E+02 -0.12731840737E+02  0.41160974669E+03  0.43402599319E+03  0.12509113764E+03 0.  0.
          5    1    3    3  502    0  0.55582595368E+02 -0.60856439146E+02  0.31987278985E+03  0.33034679532E+03  0.41800000000E+01 0. -1.
         -5    1    3    3    0  502  0.50739218277E+00  0.48124598409E+02  0.91736956844E+02  0.10367919786E+03  0.41800000000E+01 0. -1.
        -11    1    1    2    0    0 -0.59380633978E+02 -0.29990803875E+02  0.30477230741E+03  0.31194818059E+03  0.00000000000E+00 0.  1.
         11    1    1    2    0    0  0.32906464273E+01  0.42722644611E+02  0.20295217294E+03  0.20742622114E+03  0.00000000000E+00 0. -1.
</event>
<event>
 7    1  0.2334784E-009  0.1192695E+03  0.7561462E-02  0.1244307E+00
          2   -1    0    0  501    0  0.00000000000E+00  0.00000000000E+00  0.82764185228E+03  0.82764185228E+03  0.00000000000E+00 0. -1.
         -2   -1    0    0    0  501 -0.00000000000E+00 -0.00000000000E+00 -0.21194066120E+02  0.21194066120E+02  0.00000000000E+00 0.  1.
         25    2    1    2    0    0  0.32106110019E+02 -0.50763419078E+02  0.29720214943E+03  0.32800227175E+03  0.12509454677E+03 0.  0.
          5    1    3    3  502    0  0.36796986038E+02  0.36059052297E+02  0.10750705424E+03  0.11928752049E+03  0.41800000000E+01 0.  1.
         -5    1    3    3    0  502 -0.46908760189E+01 -0.86822471375E+02  0.18969509520E+03  0.20871475126E+03  0.41800000000E+01 0.  1.
        -11    1    1    2    0    0  0.42436268959E+01 -0.19893888732E+02  0.39655280568E+02  0.44568110293E+02  0.00000000000E+00 0.  1.
         11    1    1    2    0    0 -0.36349736915E+02  0.70657307810E+02  0.46959035615E+03  0.47626553635E+03  0.00000000000E+00 0. -1.
</event>
<event>
 7    1  0.2334784E-009  0.9132392E+02  0.7561462E-02  0.1299677E+00
         -1   -1    0    0    0  501 -0.00000000000E+00  0.00000000000E+00  0.25685423143E+03  0.25685423143E+03  0.00000000000E+00 0.  1.
          1   -1    0    0  501    0  0.00000000000E+00 -0.00000000000E+00 -0.56669725481E+02  0.56669725481E+02  0.00000000000E+00 0. -1.
         25    2    1    2    0    0  0.21959153897E+02  0.16022838991E+02  0.52993732864E+02  0.13852261298E+03  0.12506495422E+03 0.  0.
          5    1    3    3  502    0  0.49147730554E+02 -0.19343506475E+02  0.72383365053E+02  0.89702255254E+02  0.41800000000E+01 0. -1.
         -5    1    3    3    0  502 -0.27188576657E+02  0.35366345466E+02 -0.19389632188E+02  0.48820357727E+02  0.41800000000E+01 0. -1.
        -11    1    1    2    0    0 -0.48242380562E+02  0.84159692154E+01  0.44315967994E+02  0.66045899490E+02  0.00000000000E+00 0. -1.
         11    1    1    2    0    0  0.26283226666E+02 -0.24438808206E+02  0.10287480509E+03  0.10895544444E+03  0.00000000000E+00 0.  1.
</event>
<event>
 7    1  0.2334784E-009  0.9355081E+02  0.7561462E-02  0.1294474E+00
          3   -1    0    0  501    0  0.00000000000E+00  0.00000000000E+00  0.19166124949E+03  0.19166124949E+03  0.00000000000E+00 0. -1.
         -3   -1    0    0    0  501 -0.00000000000E+00 -0.00000000000E+00 -0.81648921370E+02  0.81648921370E+02  0.00000000000E+00 0.  1.
         25    2    1    2    0    0  0.47750266457E+02  0.67677485620E+01  0.16081021848E+02  0.13504363307E+03  0.12510912518E+03 0.  0.
          5    1    3    3  502    0 -0.11070301621E+02  0.32735738958E+02  0.51007542460E+02  0.61752910628E+02  0.41800000000E+01 0. -1.
         -5    1    3    3    0  502  0.58820568078E+02 -0.25967990396E+02 -0.34926520612E+02  0.73290722444E+02  0.41800000000E+01 0. -1.
        -11    1    1    2    0    0  0.41423259650E+01 -0.30512416505E+02  0.30358051878E+01  0.30941598835E+02  0.00000000000E+00 0.  1.
         11    1    1    2    0    0 -0.51892592422E+02  0.23744667943E+02  0.90895501083E+02  0.10732493895E+03  0.00000000000E+00 0. -1.
</event>
<event>
 7    1  0.2334784E-009  0.1704268E+03  0.7561462E-02  0.1177404E+00
         -1   -1    0    0    0  501 -0.00000000000E+00  0.00000000000E+00  0.53378815699E+02  0.53378815699E+02  0.00000000000E+00 0.  1.
          1   -1    0    0  501    0  0.00000000000E+00 -0.00000000000E+00 -0.10877085347E+04  0.10877085347E+04  0.00000000000E+00 0. -1.
         25    2    1    2    0    0  0.11433388870E+03 -0.12246171438E+03 -0.85344838232E+03  0.87868652337E+03  0.12508699165E+03 0.  0.
          5    1    3    3  502    0  0.49261986770E+02 -0.31303062356E+02 -0.91991647108E+02  0.10902550431E+03  0.41800000000E+01 0.  1.
         -5    1    3    3    0  502  0.65071901929E+02 -0.91158652021E+02 -0.76145673521E+03  0.76966101906E+03  0.41800000000E+01 0.  1.
        -11    1    1    2    0    0 -0.93908419867E+02  0.80903669191E+02 -0.70264280183E+02  0.14248250447E+03  0.00000000000E+00 0.  1.
         11    1    1    2    0    0 -0.20425468832E+02  0.41558045187E+02 -0.11061705652E+03  0.11991832258E+03  0.00000000000E+00 0. -1.
</event>
<event>
 7    1  0.2334784E-009  0.1362584E+03  0.7561462E-02  0.1218454E+00
          2   -1    0    0  501    0  0.00000000000E+00  0.00000000000E+00  0.92257801003E+03  0.92257801003E+03  0.00000000000E+00 0. -1.
         -2   -1    0    0    0  501 -0.00000000000E+00 -0.00000000000E+00 -0.31406949299E+02  0.31406949299E+02  0.00000000000E+00 0.  1.
         25    2    1    2    0    0 -0.66593917235E+02  0.10104683807E+03  0.33008995915E+03  0.37316568143E+03  0.12509209156E+03 0.  0.
          5    1    3    3  502    0 -0.73868977479E+02  0.11170250013E+03  0.33330557918E+03  0.35922716474E+03  0.41800000000E+01 0.  1.
         -5    1    3    3    0  502  0.72750602434E+01 -0.10655662061E+02 -0.32156200325E+01  0.13938516697E+02  0.41800000000E+01 0.  1.
        -11    1    1    2    0    0  0.43478943417E+02 -0.88657556877E+02  0.53425387438E+03  0.54330266261E+03  0.00000000000E+00 0. -1.
         11    1    1    2    0    0  0.23114973818E+02 -0.12389281197E+02  0.26827227205E+02  0.37516615289E+02  0.00000000000E+00 0.  1.
</event>
<event>
 7    1  0.2334784E-009  0.1046264E+03  0.7561462E-02  0.1270858E+00
         -3   -1    0    0    0  501 -0.00000000000E+00  0.00000000000E+00  0.39887668406E+02  0.39887668406E+02  0.00000000000E+00 0.  1.
          3   -1    0    0  501    0  0.00000000000E+00 -0.00000000000E+00 -0.44249845068E+03  0.44249845068E+03  0.00000000000E+00 0. -1.
         25    2    1    2    0    0  0.28862342696E+02  0.31857637854E+02 -0.30844118239E+03  0.33560592440E+03  0.12508968615E+03 0.  0.
          5    1    3    3  502    0 -0.59223996848E+01  0.72641949744E+02 -0.22309739946E+03  0.23473783191E+03  0.41800000000E+01 0. -1.
         -5    1    3    3    0  502  0.34784742381E+02 -0.40784311890E+02 -0.85343782932E+02  0.10086809250E+03  0.41800000000E+01 0. -1.
        -11    1    1    2    0    0 -0.33399405532E+02 -0.52018955681E+02 -0.13195778671E+02  0.63210921642E+02  0.00000000000E+00 0.  1.
         11    1    1    2    0    0  0.45370628360E+01  0.20161317827E+02 -0.80973821209E+02  0.83569273043E+02  0.00000000000E+00 0. -1.
</event>
<event>
 7    1  0.2334784E-009  0.1025173E+03  0.7561462E-02  0.1275090E+00
         -1   -1    0    0    0  501 -0.00000000000E+00  0.00000000000E+00  0.21382635006E+02  0.21382635006E+02  0.00000000000E+00 0.  1.
          1   -1    0    0  501    0  0.00000000000E+00 -0.00000000000E+00 -0.84094349023E+03  0.84094349023E+03  0.00000000000E+00 0. -1.
         25    2    1    2    0    0 -0.73132047985E+02  0.14614257342E+02 -0.51455364313E+03  0.53476632546E+03  0.12509075998E+03 0.  0.
          5    1    3    3  502    0 -0.63863822784E+02  0.32364273835E+02 -0.12082664704E+03  0.14050830978E+03  0.41800000000E+01 0.  1.
         -5    1    3    3    0  502 -0.92682252015E+01 -0.17750016494E+02 -0.39372699609E+03  0.39425801569E+03  0.41800000000E+01 0.  1.
        -11    1    1    2    0    0  0.36066489741E+02 -0.49976980571E+02 -0.21846086849E+03  0.22698819646E+03  0.00000000000E+00 0.  1.
         11    1    1    2    0    0  0.37065558244E+02  0.35362723229E+02 -0.86546343601E+02  0.10057160331E+03  0.00000000000E+00 0. -1.
</event>
<event>
 6    1  0.2334784E-009  0.1058822E+03  0.7561462E-02  0.1268391E+00
         -1   -1    0    0    0  501 -0.00000000000E+00  0.00000000000E+00  0.75350545534E+02  0.75350545534E+02  0.00000000000E+00 0.  1.
          1   -1    0    0  501    0  0.00000000000E+00 -0.00000000000E+00 -0.32576521185E+03  0.32576521185E+03  0.00000000000E+00 0. -1.
          5    1    1    2  502    0 -0.18584452860E+02 -0.16003509215E+01 -0.19299704950E+03  0.19394142551E+03  0.41800000000E+01 0. -1.
         -5    1    1    2    0  502 -0.31024938028E+02 -0.66313468835E+02 -0.40207299219E+02  0.83630868937E+02  0.41800000000E+01 0. -1.
        -11    1    1    2    0    0  0.66508123510E+00  0.70310963868E+02  0.33686352277E+01  0.70394756029E+02  0.00000000000E+00 0. -1.
         11    1    1    2    0    0  0.48944309653E+02 -0.23971441112E+01 -0.20578952828E+02  0.53148706916E+02  0.00000000000E+00 0.  1.
</event>
<event>
 7    1  0.2334784E-009  0.1222458E+03  0.7561462E-02  0.1239437E+00
         -2   -1    0    0    0  501 -0.00000000000E+00  0.00000000000E+00  0.20455545453E+02  0.20455545453E+02  0.00000000000E+00 0.  1.
          2   -1    0    0  501    0  0.00000000000E+00 -0.00000000000E+00 -0.11510064456E+04  0.11510064456E+04  0.00000000000E+00 0. -1.
         25    2    1    2    0    0 -0.35429067455E+02  0.96292570563E+02 -0.46493084155E+03  0.49227687234E+03  0.12509337974E+03 0.  0.
          5    1    3    3  502    0 -0.43365695407E+02  0.84305108297E+02 -0.15335688544E+03  0.18034339892E+03  0.41800000000E+01 0.  1.
         -5    1    3    3    0  502  0.79366279522E+01  0.11987462266E+02 -0.31157395611E+03  0.31193347342E+03  0.41800000000E+01 0.  1.
        -11    1    1    2    0    0 -0.27530213515E+02 -0.47769299319E+02 -0.29998279414E+03  0.30500736941E+03  0.00000000000E+00 0. -1.
         11    1    1    2    0    0  0.62959280970E+02 -0.48523271244E+02 -0.36563726449E+03  0.37417774934E+03  0.00000000000E+00 0.  1.
</event>
<event>
 7    1  0.2334784E-009  0.1085556E+03  0.7561462E-02  0.1263268E+00
          2   -1    0    0  501    0  0.00000000000E+00  0.00000000000E+00  0.56676042981E+03  0.56676042981E+03  0.00000000000E+00 0. -1.
         -2   -1    0    0    0  501 -0.00000000000E+00 -0.00000000000E+00 -0.95560142162E+02  0.95560142162E+02  0.00000000000E+00 0.  1.
         25    2    1    2    0    0  0.63772998640E+02  0.72200671681E+02  0.50188561833E+03  0.52613518042E+03  0.12509645017E+03 0.  0.
          5    1    3    3  502    0  0.53862124419E+02  0.25508548527E+02  0.71873099133E+02  0.93461378514E+02  0.41800000000E+01 0. -1.
         -5    1    3    3    0  502  0.99108742211E+01  0.46692123154E+02  0.43001251920E+03  0.43267380191E+03  0.41800000000E+01 0. -1.
        -11    1    1    2    0    0 -0.13709302966E+01 -0.38514233037E+02 -0.49580811716E+02  0.62797153492E+02  0.00000000000E+00 0.  1.
         11    1    1    2    0    0 -0.62402068343E+02 -0.33686438644E+02  0.18895481041E+02  0.73388238062E+02  0.00000000000E+00 0. -1.
</event>
<event>
 7    1  0.2334784E-009  0.2072762E+03  0.7561462E-02  0.1143741E+00
         -1   -1    0    0    0  501 -0.00000000000E+00  0.00000000000E+00  0.66411756521E+03  0.66411756521E+03  0.00000000000E+00 0. -1.
          1   -1    0    0  501    0  0.00000000000E+00 -0.00000000000E+00 -0.79289041832E+02  0.79289041832E+02  0.00000000000E+00 0.  1.
         25    2    1    2    0    0 -0.16028768657E+03 -0.81873421726E+02  0.15497097598E+03  0.26843707458E+03  0.12508820872E+03 0.  0.
          5    1    3    3  502    0 -0.89033977963E+00 -0.49855514317E+02  0.66725984217E+02  0.83403803166E+02  0.41800000000E+01 0.  1.
         -5    1    3    3    0  502 -0.15939734679E+03 -0.32017907409E+02  0.88244991759E+02  0.18503327141E+03  0.41800000000E+01 0.  1.
        -11    1    1    2    0    0  0.56743086042E+02 -0.16460036310E+02  0.11742541681E+03  0.13145128041E+03  0.00000000000E+00 0.  1.
         11    1    1    2    0    0  0.10354460053E+03  0.98333458036E+02  0.31243213059E+03  0.34351825205E+03  0.00000000000E+00 0. -1.
</event>
<event>
 7    1  0.2334784E-009  0.1091275E+03  0.7561462E-02  0.1262194E+00
         -1   -1    0    0    0  501 -0.00000000000E+00  0.00000000000E+00  0.31169920908E+02  0.31169920908E+02  0.00000000000E+00 0.  1.
          1   -1    0    0  501    0  0.00000000000E+00 -0.00000000000E+00 -0.63274056132E+03  0.63274056132E+03  0.00000000000E+00 0. -1.
         25    2    1    2    0    0 -0.18892828012E+02 -0.86364384179E+02 -0.29346938692E+03  0.33104196783E+03  0.12509499430E+03 0.  0.
          5    1    3    3  502    0 -0.24748446939E+02 -0.58029416427E+02 -0.29506663171E+03  0.30176429269E+03  0.41800000000E+01 0.  1.
         -5    1    3    3    0  502  0.58556189274E+01 -0.28334967751E+02  0.15972447876E+01  0.29277675137E+02  0.41800000000E+01 0.  1.
        -11    1    1    2    0    0 -0.98077956275E+01 -0.16394604477E+02 -0.53872478607E+02  0.57159599914E+02  0.00000000000E+00 0. -1.
         11    1    1    2    0    0  0.28700623640E+02  0.10275898866E+03 -0.25422877489E+03  0.27570891449E+03  0.00000000000E+00 0.  1.
</event>
<event>
 7    1  0.2334784E-009  0.1276975E+03  0.7561462E-02  0.1230913E+00
         -4   -1    0    0    0  501 -0.00000000000E+00  0.00000000000E+00  0.52679429070E+03  0.52679429070E+03  0.00000000000E+00 0.  1.
          4   -1    0    0  501    0  0.00000000000E+00 -0.00000000000E+00 -0.35604209659E+02  0.35604209659E+02  0.00000000000E+00 0. -1.
         25    2    1    2    0    0  0.71870619933E+02 -0.38086939403E+02  0.23183185415E+03  0.27569599657E+03  0.12508506293E+03 0.  0.
          5    1    3    3  502    0  0.43636762950E+02 -0.83108723382E+02  0.16839633550E+03  0.19283678381E+03  0.41800000000E+01 0. -1.
         -5    1    3    3    0  502  0.28233856983E+02  0.45021783979E+02  0.63435518649E+02  0.82859212759E+02  0.41800000000E+01 0. -1.
        -11    1    1    2    0    0 -0.55906140686E+02 -0.10589062533E+02  0.20171182479E+03  0.20958359925E+03  0.00000000000E+00 0.  1.
         11    1    1    2    0    0 -0.15964479247E+02  0.48676001936E+02  0.57646402099E+02  0.77118904537E+02  0.00000000000E+00 0. -1.
</event>
<event>
 7    1  0.2506009E-009  0.2102325E+03  0.7561462E-02  0.1141382E+00
          2   -1    0    0  501    0  0.00000000000E+00  0.00000000000E+00  0.45601190434E+03  0.45601190434E+03  0.00000000000E+00 0. -1.
         -2   -1    0    0    0  501 -0.00000000000E+00 -0.00000000000E+00 -0.10812695057E+03  0.10812695057E+03  0.00000000000E+00 0.  1.
         25    2    1    2    0    0  0.54014060060E+02  0.18556062452E+03  0.18670693151E+03  0.29640630362E+03  0.12508778715E+03 0.  0.
          5    1    3    3  502    0 -0.27445679363E+02  0.11816745774E+03  0.75716129727E+02  0.14306368542E+03  0.41800000000E+01 0.  1.
         -5    1    3    3    0  502  0.81459739423E+02  0.67393166781E+02  0.11099080179E+03  0.15334261820E+03  0.41800000000E+01 0.  1.
        -11    1    1    2    0    0 -0.40136186961E+02 -0.14110463888E+03  0.64165988179E+02  0.16012091261E+03  0.00000000000E+00 0.  1.
         11    1    1    2    0    0 -0.13877873099E+02 -0.44455985645E+02  0.97012034082E+02  0.10761163867E+03  0.00000000000E+00 0. -1.
</event>
<event>
 7    1  0.2334784E-009  0.1057738E+03  0.7561462E-02  0.1268603E+00
          2   -1    0    0  501    0  0.00000000000E+00  0.00000000000E+00  0.11529407797E+03  0.11529407797E+03  0.00000000000E+00 0. -1.
         -2   -1    0    0    0  501 -0.00000000000E+00 -0.00000000000E+00 -0.15500261703E+03  0.15500261703E+03  0.00000000000E+00 0.  1.
         25    2    1    2    0    0 -0.15305697596E+02  0.69764021313E+02 -0.63785935880E+02  0.15753782616E+03  0.12509291749E+03 0.  0.
          5    1    3    3  502    0  0.33252999343E+02  0.76861132582E+02 -0.68206010265E+02  0.10808759366E+03  0.41800000000E+01 0. -1.
         -5    1    3    3    0  502 -0.48558696939E+02 -0.70971112696E+01  0.44200743842E+01  0.49450232501E+02  0.41800000000E+01 0. -1.
        -11    1    1    2    0    0 -0.34613443821E+01 -0.53497797642E+02 -0.23929888251E+02  0.58708047227E+02  0.00000000000E+00 0.  1.
         11    1    1    2    0    0  0.18767041978E+02 -0.16266223671E+02  0.48007285073E+02  0.54050821615E+02  0.00000000000E+00 0. -1.
</event>
<event>
 7    1  0.2334784E-009  0.1156754E+03  0.7561462E-02  0.1250407E+00
         -1   -1    0    0    0  501 -0.00000000000E+00  0.00000000000E+00  0.29018686452E+03  0.29018686452E+03  0.00000000000E+00 0.  1.
          1   -1    0    0  501    0  0.00000000000E+00 -0.00000000000E+00 -0.70729364090E+02  0.70729364090E+02  0.00000000000E+00 0. -1.
         25    2    1    2    0    0 -0.32064355141E+02  0.63144569162E+02  0.54211029166E+02  0.15363328203E+03  0.12509592391E+03 0.  0.
          5    1    3    3  502    0  0.41397853415E+02 -0.62713201401E+01  0.21932255435E+02  0.47451111179E+02  0.41800000000E+01 0.  1.
         -5    1    3    3    0  502 -0.73462208556E+02  0.69415889302E+02  0.32278773731E+02  0.10618217085E+03  0.41800000000E+01 0.  1.
        -11    1    1    2    0    0 -0.13847331923E+02 -0.24333028776E+02 -0.34362556528E+01  0.28207317202E+02  0.00000000000E+00 0. -1.
         11    1    1    2    0    0  0.45911687065E+02 -0.38811540385E+02  0.16868272692E+03  0.17907562938E+03  0.00000000000E+00 0.  1.
</event>
<event>
 7    1  0.2334784E-009  0.1137748E+03  0.7561462E-02  0.1253735E+00
          2   -1    0    0  501    0  0.00000000000E+00  0.00000000000E+00  0.89149013994E+03  0.89149013994E+03  0.00000000000E+00 0. -1.
         -2   -1    0    0    0  501 -0.00000000000E+00 -0.00000000000E+00 -0.30374239863E+02  0.30374239863E+02  0.00000000000E+00 0.  1.
         25    2    1    2    0    0 -0.96314974677E+01  0.65707575771E+02  0.74892380799E+03  0.76219683675E+03  0.12508755545E+03 0.  0.
          5    1    3    3  502    0  0.46155641920E+02  0.17627090026E+01  0.41702009453E+03  0.41959108911E+03  0.41800000000E+01 0.  1.
         -5    1    3    3    0  502 -0.55787139388E+02  0.63944866768E+02  0.33190371346E+03  0.34260574764E+03  0.41800000000E+01 0.  1.
        -11    1    1    2    0    0  0.30328177803E+01  0.14963920702E+02  0.63279666369E+02  0.65095568837E+02  0.00000000000E+00 0. -1.
         11    1    1    2    0    0  0.65986796874E+01 -0.80671496473E+02  0.48912425722E+02  0.94571974215E+02  0.00000000000E+00 0.  1.
</event>
<event>
 7    1  0.2334784E-009  0.9696644E+02  0.7561462E-02  0.1286808E+00
          2   -1    0    0  501    0  0.00000000000E+00  0.00000000000E+00  0.46406278422E+02  0.46406278422E+02  0.00000000000E+00 0. -1.
         -2   -1    0    0    0  501 -0.00000000000E+00 -0.00000000000E+00 -0.50006401088E+03  0.50006401088E+03  0.00000000000E+00 0.  1.
         25    2    1    2    0    0 -0.27320345928E+02 -0.16537443199E+02 -0.62991155846E+02  0.14365417230E+03  0.12509495264E+03 0.  0.
          5    1    3    3  502    0 -0.29194851627E+02  0.37083998682E+02 -0.74812125297E+02  0.88554439816E+02  0.41800000000E+01 0. -1.
         -5    1    3    3    0  502  0.18745056984E+01 -0.53621441880E+02  0.11820969451E+02  0.55099732483E+02  0.41800000000E+01 0. -1.
        -11    1    1    2    0    0  0.38226615017E+02 -0.27677275410E+02 -0.13227349597E+03  0.14044067575E+03  0.00000000000E+00 0. -1.
         11    1    1    2    0    0 -0.10906269089E+02  0.44214718608E+02 -0.25839308065E+03  0.26237544125E+03  0.00000000000E+00 0.  1.
</event>
<event>
 7    1  0.2334784E-009  0.2226267E+03  0.7561462E-02  0.1131940E+00
          1   -1    0    0  501    0  0.00000000000E+00  0.00000000000E+00  0.76681655126E+03  0.76681655126E+03  0.00000000000E+00 0. -1.
         -1   -1    0    0    0  501 -0.00000000000E+00 -0.00000000000E+00 -0.82367715792E+02  0.82367715792E+02  0.00000000000E+00 0.  1.
         25    2    1    2    0    0  0.12032773353E+03 -0.16589505576E+03  0.51388930026E+03  0.56721168954E+03  0.12508778856E+03 0.  0.
          5    1    3    3  502    0  0.78847836193E+02 -0.17504677778E+03  0.45995146506E+03  0.49842870934E+03  0.41800000000E+01 0.  1.
         -5    1    3    3    0  502  0.41479897340E+02  0.91517220204E+01  0.53937835203E+02  0.68782980203E+02  0.41800000000E+01 0.  1.
        -11    1    1    2    0    0 -0.55448437067E+02  0.11641562925E+03  0.54241665368E+02  0.13989026474E+03  0.00000000000E+00 0.  1.
         11    1    1    2    0    0 -0.64879296467E+02  0.49479426511E+02  0.11631786984E+03  0.14208231277E+03  0.00000000000E+00 0. -1.
</event>
<event>
 7    1  0.2334784E-009  0.1154981E+03  0.7561462E-02  0.1250714E+00
         -1   -1    0    0    0  501 -0.00000000000E+00  0.00000000000E+00  0.48116569468E+02  0.48116569468E+02  0.00000000000E+00 0.  1.
          1   -1    0    0  501    0  0.00000000000E+00 -0.00000000000E+00 -0.36117312828E+03  0.36117312828E+03  0.00000000000E+00 0. -1.
         25    2    1    2    0    0 -0.62006106578E+02 -0.34702343707E+02 -0.14109239092E+03  0.20150385033E+03  0.12509088301E+03 0.  0.
          5    1    3    3  502    0 -0.66627370209E+02  0.19710907508E+02 -0.12720057599E+03  0.14500063886E+03  0.41800000000E+01 0. -1.
         -5    1    3    3    0  502  0.46212636317E+01 -0.54413251215E+02 -0.13891814927E+02  0.56503211478E+02  0.41800000000E+01 0. -1.
        -11    1    1    2    0    0  0.75990179530E+02  0.45837159894E+02 -0.16719107099E+03  0.18928393178E+03  0.00000000000E+00 0. -1.
         11    1    1    2    0    0 -0.13984072953E+02 -0.11134816187E+02 -0.47730968976E+01  0.18501915627E+02  0.00000000000E+00 0.  1.
</event>
<event>
 7    1  0.2334784E-009  0.1464558E+03  0.7561462E-02  0.1204897E+00
         -2   -1    0    0    0  501 -0.00000000000E+00  0.00000000000E+00  0.53396363875E+02  0.53396363875E+02  0.00000000000E+00 0.  1.
          2   -1    0    0  501    0  0.00000000000E+00 -0.00000000000E+00 -0.53601097194E+03  0.53601097194E+03  0.00000000000E+00 0. -1.
         25    2    1    2    0    0 -0.11451444415E+03 -0.12621763553E+02 -0.39565407346E+03  0.43065299232E+03  0.12508791754E+03 0.  0.
          5    1    3    3  502    0 -0.27025361230E+02  0.52049815235E+02 -0.17472669024E+03  0.18435412146E+03  0.41800000000E+01 0.  1.
         -5    1    3    3    0  502 -0.87489082918E+02 -0.64671578788E+02 -0.22092738322E+03  0.24629887087E+03  0.41800000000E+01 0.  1.
        -11    1    1    2    0    0  0.87289711917E+02 -0.12516330325E+02 -0.83658468500E+02  0.12155201225E+03  0.00000000000E+00 0. -1.
         11    1    1    2    0    0  0.27224732231E+02  0.25138093877E+02 -0.33020660997E+01  0.37202331235E+02  0.00000000000E+00 0.  1.
</event>
<event>
 7    1  0.2334784E-009  0.1110591E+03  0.7561462E-02  0.1258621E+00
          1   -1    0    0  501    0  0.00000000000E+00  0.00000000000E+00  0.29495392013E+03  0.29495392013E+03  0.00000000000E+00 0. -1.
         -1   -1    0    0    0  501 -0.00000000000E+00 -0.00000000000E+00 -0.50186905229E+02  0.50186905229E+02  0.00000000000E+00 0.  1.
         25    2    1    2    0    0 -0.37587169064E+02 -0.30228169847E+02  0.17485088548E+03  0.22033318262E+03  0.12508933479E+03 0.  0.
          5    1    3    3  502    0 -0.69510482928E+02  0.16968295421E+02  0.12691439897E+03  0.14575447627E+03  0.41800000000E+01 0. -1.
         -5    1    3    3    0  502  0.31923313864E+02 -0.47196465268E+02  0.47936486506E+02  0.74578706347E+02  0.41800000000E+01 0. -1.
        -11    1    1    2    0    0  0.21522794141E+02  0.57647265542E+02  0.69770535576E+02  0.93028842446E+02  0.00000000000E+00 0. -1.
         11    1    1    2    0    0  0.16064374923E+02 -0.27419095696E+02  0.14559384190E+00  0.31778800292E+02  0.00000000000E+00 0.  1.
</event>
<event>
 7    1  0.2806866E-009  0.1349542E+03  0.7561462E-02  0.1220284E+00
         -2   -1    0    0    0  501 -0.00000000000E+00  0.00000000000E+00  0.17361437289E+02  0.17361437289E+02  0.00000000000E+00 0.  1.
          2   -1    0    0  501    0  0.00000000000E+00 -0.00000000000E+00 -0.13926229869E+04  0.13926229869E+04  0.00000000000E+00 0. -1.
         25    2    1    2    0    0  0.10295561406E+03  0.34245163732E+02 -0.83190080808E+03  0.84822172680E+03  0.12509417901E+03 0.  0.
          5    1    3    3  502    0  0.95691140158E+02 -0.29103734708E+01 -0.76705053375E+03  0.77301310358E+03  0.41800000000E+01 0. -1.
         -5    1    3    3    0  502  0.72644739022E+01  0.37155537203E+02 -0.64850274333E+02  0.75208623222E+02  0.41800000000E+01 0. -1.
        -11    1    1    2    0    0 -0.60130426087E+02 -0.60873103251E+02 -0.25357560931E+03  0.26762248126E+03  0.00000000000E+00 0.  1.
         11    1    1    2    0    0 -0.42825187973E+02  0.26627939519E+02 -0.28978513226E+03  0.29414021617E+03  0.00000000000E+00 0. -1.
</event>
<event>
 7    1  0.2647994E-009  0.8378211E+02  0.7561462E-02  0.1318649E+00
         -1   -1    0    0    0  501 -0.00000000000E+00  0.00000000000E+00  0.54453577652E+02  0.54453577652E+02  0.00000000000E+00 0.  1.
          1   -1    0    0  501    0  0.00000000000E+00 -0.00000000000E+00 -0.44266252741E+03  0.44266252741E+03  0.00000000000E+00 0. -1.
         25    2    1    2    0    0 -0.39124740406E+02  0.66500140073E+02 -0.33519302422E+03  0.36599256598E+03  0.12507270258E+03 0.  0.
          5    1    3    3  502    0 -0.32794368001E+01  0.12496186809E+02 -0.28120475720E+03  0.28153240890E+03  0.41800000000E+01 0. -1.
         -5    1    3    3    0  502 -0.35845303606E+02  0.54003953265E+02 -0.53988267014E+02  0.84460157080E+02  0.41800000000E+01 0. -1.
        -11    1    1    2    0    0  0.21785067950E+02 -0.68214871853E+02  0.37861252385E+01  0.71709083607E+02  0.00000000000E+00 0.  1.
         11    1    1    2    0    0  0.17339672455E+02  0.17147317797E+01 -0.56802050782E+02  0.59414455472E+02  0.00000000000E+00 0. -1.
</event>
<event>
 7    1  0.2467643E-009  0.1395968E+03  0.7561462E-02  0.1213872E+00
         -1   -1    0    0    0  501 -0.00000000000E+00  0.00000000000E+00  0.12471982344E+03  0.12471982344E+03  0.00000000000E+00 0.  1.
          1   -1    0    0  501    0  0.00000000000E+00 -0.00000000000E+00 -0.20475918587E+03  0.20475918587E+03  0.00000000000E+00 0. -1.
         25    2    1    2    0    0 -0.38389047235E+02 -0.10800198577E+03 -0.17771274644E+02  0.17059120029E+03  0.12508953408E+03 0.  0.
          5    1    3    3  502    0 -0.54814469316E+02 -0.12716383641E+03 -0.30743486390E+02  0.14190807480E+03  0.41800000000E+01 0. -1.
         -5    1    3    3    0  502  0.16425422081E+02  0.19161850641E+02  0.12972211746E+02  0.28683125494E+02  0.41800000000E+01 0. -1.
        -11    1    1    2    0    0  0.16208449846E+02  0.31560565217E+02  0.22969578339E+02  0.42265643876E+02  0.00000000000E+00 0.  1.
         11    1    1    2    0    0  0.22180597388E+02  0.76441420558E+02 -0.85237666120E+02  0.11662216514E+03  0.00000000000E+00 0. -1.
</event>
<event>
 7    1  0.2334784E-009  0.8855191E+02  0.7561462E-02  0.1306397E+00
         -1   -1    0    0    0  501 -0.00000000000E+00  0.00000000000E+00  0.10231855724E+04  0.10231855724E+04  0.00000000000E+00 0.  1.
          1   -1    0    0  501    0  0.00000000000E+00 -0.00000000000E+00 -0.13261491013E+02  0.13261491013E+02  0.00000000000E+00 0. -1.
         25    2    1    2    0    0 -0.39238166512E+02 -0.73621798018E+01  0.60989837760E+03  0.62387358794E+03  0.12509351434E+03 0.  0.
          5    1    3    3  502    0  0.22701022275E+01 -0.31050112160E+02  0.52818382825E+03  0.52911708691E+03  0.41800000000E+01 0. -1.
         -5    1    3    3    0  502 -0.41508268740E+02  0.23687932358E+02  0.81714549343E+02  0.94756501030E+02  0.41800000000E+01 0. -1.
        -11    1    1    2    0    0 -0.16754668166E+02 -0.27178418225E+02  0.18408501773E+03  0.18683329221E+03  0.00000000000E+00 0.  1.
         11    1    1    2    0    0  0.55992834678E+02  0.34540598026E+02  0.21594068603E+03  0.22574018324E+03  0.00000000000E+00 0. -1.
</event>
<event>
 7    1  0.2334784E-009  0.9882291E+02  0.7561462E-02  0.1282791E+00
         -4   -1    0    0    0  501 -0.00000000000E+00  0.00000000000E+00  0.31323739649E+02  0.31323739649E+02  0.00000000000E+00 0.  1.
          4   -1    0    0  501    0  0.00000000000E+00 -0.00000000000E+00 -0.40976830126E+03  0.40976830126E+03  0.00000000000E+00 0. -1.
         25    2    1    2    0    0  0.26726516542E+02  0.10552822577E+02 -0.18603848688E+03  0.22601668613E+03  0.12509018770E+03 0.  0.
          5    1    3    3  502    0  0.48979832417E+02  0.44774348832E+02 -0.47998034137E+02  0.82006402055E+02  0.41800000000E+01 0. -1.
         -5    1    3    3    0  502 -0.22253315875E+02 -0.34221526255E+02 -0.13804045274E+03  0.14401028407E+03  0.41800000000E+01 0. -1.
        -11    1    1    2    0    0  0.27332833228E+02  0.14041159721E+02 -0.33627142352E+02  0.45552416416E+02  0.00000000000E+00 0.  1.
         11    1    1    2    0    0 -0.54059349770E+02 -0.24593982298E+02 -0.15877893238E+03  0.16952293836E+03  0.00000000000E+00 0. -1.
</event>
<event>
 7    1  0.2334784E-009  0.1286415E+03  0.7561462E-02  0.1229486E+00
         -1   -1    0    0    0  501 -0.00000000000E+00  0.00000000000E+00  0.87836439040E+03  0.87836439040E+03  0.00000000000E+00 0.  1.
          1   -1    0    0  501    0  0.00000000000E+00 -0.00000000000E+00 -0.37443287433E+02  0.37443287433E+02  0.00000000000E+00 0. -1.
         25    2    1    2    0    0  0.92538521892E+02  0.20899831401E+02  0.74444544093E+03  0.76082013168E+03  0.12509227500E+03 0.  0.
          5    1    3    3  502    0  0.11670166068E+03  0.86016047203E+01  0.68988231596E+03  0.69974877455E+03  0.41800000000E+01 0.  1.
         -5    1    3    3    0  502 -0.24163138788E+02  0.12298226681E+02  0.54563124968E+02  0.61071357131E+02  0.41800000000E+01 0.  1.
        -11    1    1    2    0    0 -0.70275497060E+02  0.13714562651E+02  0.87144934868E+02  0.11278729711E+03  0.00000000000E+00 0.  1.
         11    1    1    2    0    0 -0.22263024832E+02 -0.34614394052E+02  0.93307271754E+01  0.42200249050E+02  0.00000000000E+00 0. -1.
</event>
<event>
 7    1  0.2334784E-009  0.8756118E+02  0.7561462E-02  0.1308867E+00
          2   -1    0    0  501    0  0.00000000000E+00  0.00000000000E+00  0.10185849679E+03  0.10185849679E+03  0.00000000000E+00 0. -1.
         -2   -1    0    0    0  501 -0.00000000000E+00 -0.00000000000E+00 -0.13570539071E+03  0.13570539071E+03  0.00000000000E+00 0.  1.
         25    2    1    2    0    0 -0.26392739070E+02 -0.35044664903E+02 -0.34796732639E+01  0.13261179822E+03  0.12509626568E+03 0.  0.
          5    1    3    3  502    0  0.56214185622E+01 -0.48648423890E+02 -0.52786128781E+02  0.72125704748E+02  0.41800000000E+01 0.  1.
         -5    1    3    3    0  502 -0.32014157632E+02  0.13603758987E+02  0.49306455517E+02  0.60486093469E+02  0.41800000000E+01 0.  1.
        -11    1    1    2    0    0 -0.29606409956E+01  0.55232568293E+02  0.39941241340E+01  0.55455883574E+02  0.00000000000E+00 0.  1.
         11    1    1    2    0    0  0.29353380065E+02 -0.20187903390E+02 -0.34361344790E+02  0.49496205716E+02  0.00000000000E+00 0. -1.
</event>
<event>
 7    1  0.2334784E-009  0.9137803E+02  0.7561462E-02  0.1299549E+00
         -2   -1    0    0    0  501 -0.00000000000E+00  0.00000000000E+00  0.69533610089E+02  0.69533610089E+02  0.00000000000E+00 0. -1.
          2   -1    0    0  501    0  0.00000000000E+00 -0.00000000000E+00 -0.23707489316E+03  0.23707489316E+03  0.00000000000E+00 0.  1.
         25    2    1    2    0    0  0.22197784274E+02 -0.26240124730E+02 -0.16516154563E+03  0.21001500138E+03  0.12508668545E+03 0.  0.
          5    1    3    3  502    0 -0.11717625542E+02 -0.45359628226E+02 -0.16424514832E+03  0.17084712397E+03  0.41800000000E+01 0. -1.
         -5    1    3    3    0  502  0.33915409816E+02  0.19119503496E+02 -0.91639731040E+00  0.39167877412E+02  0.41800000000E+01 0. -1.
        -11    1    1    2    0    0 -0.12557871704E+01 -0.33364202911E+02 -0.76774794500E+00  0.33396653638E+02  0.00000000000E+00 0. -1.
         11    1    1    2    0    0 -0.20941997104E+02  0.59604327640E+02 -0.16119894932E+01  0.63196848231E+02  0.00000000000E+00 0.  1.
</event>
<event>
 7    1  0.3736645E-009  0.2605315E+03  0.7561462E-02  0.1106824E+00
          1   -1    0    0  501    0  0.00000000000E+00  0.00000000000E+00  0.11640376322E+04  0.11640376322E+04  0.00000000000E+00 0. -1.
         -1   -1    0    0    0  501 -0.00000000000E+00 -0.00000000000E+00 -0.62235937360E+02  0.62235937360E+02  0.00000000000E+00 0.  1.
         25    2    1    2    0    0  0.14394780023E+03  0.19743679466E+03  0.50035871344E+03  0.57070644346E+03  0.12507895674E+03 0.  0.
          5    1    3    3  502    0  0.37312818705E+02  0.13988452668E+03  0.34086090025E+03  0.37035598140E+03  0.41800000000E+01 0. -1.
         -5    1    3    3    0  502  0.10663498152E+03  0.57552267979E+02  0.15949781319E+03  0.20035046206E+03  0.41800000000E+01 0. -1.
        -11    1    1    2    0    0 -0.12029118543E+03 -0.10534425570E+03  0.44066038499E+03  0.46877388622E+03  0.00000000000E+00 0.  1.
         11    1    1    2    0    0 -0.23656614798E+02 -0.92092538965E+02  0.16078259644E+03  0.18679323990E+03  0.00000000000E+00 0. -1.
</event>
<event>
 7    1  0.2334784E-009  0.1799418E+03  0.7561462E-02  0.1167859E+00
          2   -1    0    0  501    0  0.00000000000E+00  0.00000000000E+00  0.63359986280E+03  0.63359986280E+03  0.00000000000E+00 0. -1.
         -2   -1    0    0    0  501 -0.00000000000E+00 -0.00000000000E+00 -0.77474353697E+02  0.77474353697E+02  0.00000000000E+00 0.  1.
         25    2    1    2    0    0  0.77903361886E+02  0.12678873269E+03  0.91708117335E+02  0.21494214169E+03  0.12508168915E+03 0.  0.
          5    1    3    3  502    0 -0.35315499485E-02  0.11388201846E+03  0.66498294529E+02  0.13194169059E+03  0.41800000000E+01 0. -1.
         -5    1    3    3    0  502  0.77906893436E+02  0.12906714233E+02  0.25209822806E+02  0.83000451102E+02  0.41800000000E+01 0. -1.
        -11    1    1    2    0    0 -0.10220254820E+02 -0.88489696623E+02  0.17391291067E+03  0.19539851718E+03  0.00000000000E+00 0.  1.
         11    1    1    2    0    0 -0.67683107066E+02 -0.38299036069E+02  0.29050448109E+03  0.30073355762E+03  0.00000000000E+00 0. -1.
</event>
<event>
 7    1  0.2334784E-009  0.1154272E+03  0.7561462E-02  0.1250837E+00
         -1   -1    0    0    0  501 -0.00000000000E+00  0.00000000000E+00  0.68905534212E+02  0.68905534212E+02  0.00000000000E+00 0.  1.
          1   -1    0    0  501    0  0.00000000000E+00 -0.00000000000E+00 -0.36036094189E+03  0.36036094189E+03  0.00000000000E+00 0. -1.
         25    2    1    2    0    0  0.90834728940E+02  0.46427697768E+02 -0.23386939682E+03  0.28416334349E+03  0.12508969547E+03 0.  0.
          5    1    3    3  502    0  0.84103279416E+02  0.32018320849E+02 -0.24713001750E+03  0.26303849990E+03  0.41800000000E+01 0.  1.
         -5    1    3    3    0  502  0.67314495237E+01  0.14409376918E+02  0.13260620683E+02  0.21124843591E+02  0.41800000000E+01 0.  1.
        -11    1    1    2    0    0 -0.71532234546E+02 -0.65641662764E+02 -0.65049473487E+02  0.11686369184E+03  0.00000000000E+00 0. -1.
         11    1    1    2    0    0 -0.19302494394E+02  0.19213964997E+02  0.74634626276E+01  0.28239440772E+02  0.00000000000E+00 0.  1.
</event>
<event>
 7    1  0.2334784E-009  0.1001914E+03  0.7561462E-02  0.1279894E+00
          4   -1    0    0  501    0  0.00000000000E+00  0.00000000000E+00  0.37042723400E+03  0.37042723400E+03  0.00000000000E+00 0.  1.
         -4   -1    0    0    0  501 -0.00000000000E+00 -0.00000000000E+00 -0.46331086260E+02  0.46331086260E+02  0.00000000000E+00 0. -1.
         25    2    1    2    0    0 -0.49692526485E+02 -0.53928543288E+02  0.20574437162E+03  0.25170431807E+03  0.12508669917E+03 0.  0.
          5    1    3    3  502    0 -0.40936345623E+02 -0.70444468552E+02  0.51943243364E+02  0.96714944418E+02  0.41800000000E+01 0.  1.
         -5    1    3    3    0  502 -0.87561808624E+01  0.16515925265E+02  0.15380112826E+03  0.15498937365E+03  0.41800000000E+01 0.  1.
        -11    1    1    2    0    0  0.64335268481E+02  0.55436763775E+02  0.12313067556E+03  0.14957748766E+03  0.00000000000E+00 0.  1.
         11    1    1    2    0    0 -0.14642741996E+02 -0.15082204878E+01 -0.47788994493E+01  0.15476514535E+02  0.00000000000E+00 0. -1.
</event>
<event>
 7    1  0.2386554E-009  0.1209610E+03  0.7561462E-02  0.1241520E+00
         -1   -1    0    0    0  501 -0.00000000000E+00  0.00000000000E+00  0.21014185420E+02  0.21014185420E+02  0.00000000000E+00 0.  1.
          1   -1    0    0  501    0  0.00000000000E+00 -0.00000000000E+00 -0.77634306736E+03  0.77634306736E+03  0.00000000000E+00 0. -1.
         25    2    1    2    0    0  0.40985689248E+02  0.48412359633E+02 -0.35832071570E+03  0.38479223627E+03  0.12509095294E+03 0.  0.
          5    1    3    3  502    0  0.53305368323E+02 -0.29548416196E+02 -0.16431698262E+03  0.17530577392E+03  0.41800000000E+01 0. -1.
         -5    1    3    3    0  502 -0.12319679075E+02  0.77960775829E+02 -0.19400373308E+03  0.20948646236E+03  0.41800000000E+01 0. -1.
        -11    1    1    2    0    0  0.23416612291E+02 -0.22177726645E+02 -0.56760227478E+02  0.65283326460E+02  0.00000000000E+00 0.  1.
         11    1    1    2    0    0 -0.64402301539E+02 -0.26234632988E+02 -0.34024793876E+03  0.34728169005E+03  0.00000000000E+00 0. -1.
</event>
<event>
 7    1  0.2334784E-009  0.1281319E+03  0.7561462E-02  0.1230254E+00
         -2   -1    0    0    0  501 -0.00000000000E+00  0.00000000000E+00  0.88430471893E+02  0.88430471893E+02  0.00000000000E+00 0.  1.
          2   -1    0    0  501    0  0.00000000000E+00 -0.00000000000E+00 -0.20197264925E+03  0.20197264925E+03  0.00000000000E+00 0. -1.
         25    2    1    2    0    0  0.34017180463E+02 -0.65005833795E+02 -0.88401246746E+02  0.16983892336E+03  0.12509017735E+03 0.  0.
          5    1    3    3  502    0 -0.39748329642E+02 -0.58329103492E+02 -0.39610570837E+02  0.81047416649E+02  0.41800000000E+01 0. -1.
         -5    1    3    3    0  502  0.73765510106E+02 -0.66767303034E+01 -0.48790675909E+02  0.88791506713E+02  0.41800000000E+01 0. -1.
        -11    1    1    2    0    0 -0.60507496955E+02  0.58345283874E+02 -0.92497167050E+00  0.84060602607E+02  0.00000000000E+00 0.  1.
         11    1    1    2    0    0  0.26490316492E+02  0.66605499216E+01 -0.24215958936E+02  0.36503595169E+02  0.00000000000E+00 0. -1.
</event>
<event>
 7    1  0.2334784E-009  0.1089592E+03  0.7561462E-02  0.1262510E+00
          3   -1    0    0  501    0  0.00000000000E+00  0.00000000000E+00  0.39917030831E+03  0.39917030831E+03  0.00000000000E+00 0. -1.
         -3   -1    0    0    0  501 -0.00000000000E+00 -0.00000000000E+00 -0.34504752917E+02  0.34504752917E+02  0.00000000000E+00 0.  1.
         25    2    1    2    0    0 -0.11400552817E+02  0.37893630055E+02  0.23208956057E+03  0.26660084440E+03  0.12507816079E+03 0.  0.
          5    1    3    3  502    0  0.48678075491E+02  0.26945270789E+02  0.51538054156E+02  0.75955553303E+02  0.41800000000E+01 0.  1.
         -5    1    3    3    0  502 -0.60078628308E+02  0.10948359266E+02  0.18055150641E+03  0.19064529110E+03  0.41800000000E+01 0.  1.
        -11    1    1    2    0    0  0.39578500820E+02 -0.55141206849E+02  0.98412448801E+02  0.11954923881E+03  0.00000000000E+00 0.  1.
         11    1    1    2    0    0 -0.28177948003E+02  0.17247576794E+02  0.34163546020E+02  0.47524978017E+02  0.00000000000E+00 0. -1.
</event>
<event>
 7    1  0.2334784E-009  0.7772474E+02  0.7561462E-02  0.1335635E+00
          2   -1    0    0  501    0  0.00000000000E+00  0.00000000000E+00  0.64878265841E+02  0.64878265841E+02  0.00000000000E+00 0.  1.
         -2   -1    0    0    0  501 -0.00000000000E+00 -0.00000000000E+00 -0.20606985410E+03  0.20606985410E+03  0.00000000000E+00 0. -1.
         25    2    1    2    0    0  0.12171741571E+02 -0.28185836190E+02 -0.41103214104E+02  0.13518265271E+03  0.12506911181E+03 0.  0.
          5    1    3    3  502    0  0.11141334597E+02  0.16254912965E+02  0.38761953192E+02  0.43684241407E+02  0.41800000000E+01 0. -1.
         -5    1    3    3    0  502  0.10304069734E+01 -0.44440749154E+02 -0.79865167296E+02  0.91498411304E+02  0.41800000000E+01 0. -1.
        -11    1    1    2    0    0  0.26463881847E+02  0.41985225110E+02 -0.65001137926E+02  0.81781685612E+02  0.00000000000E+00 0. -1.
         11    1    1    2    0    0 -0.38635623418E+02 -0.13799388920E+02 -0.35087236226E+02  0.53983781614E+02  0.00000000000E+00 0.  1.
</event>
<event>
 7    1  0.2334784E-009  0.1018336E+03  0.7561462E-02  0.1276487E+00
         -2   -1    0    0    0  501 -0.00000000000E+00  0.00000000000E+00  0.10818187016E+02  0.10818187016E+02  0.00000000000E+00 0.  1.
          2   -1    0    0  501    0  0.00000000000E+00 -0.00000000000E+00 -0.12223323131E+04  0.12223323131E+04  0.00000000000E+00 0. -1.
         25    2    1    2    0    0  0.69047327654E+01 -0.27823028658E+01 -0.83072728976E+03  0.84012524928E+03  0.12508872049E+03 0.  0.
          5    1    3    3  502    0  0.56751480089E+02 -0.18358505469E+02 -0.62416714735E+03  0.62702461311E+03  0.41800000000E+01 0. -1.
         -5    1    3    3    0  502 -0.49846747324E+02  0.15576202603E+02 -0.20656014240E+03  0.21310063617E+03  0.41800000000E+01 0. -1.
        -11    1    1    2    0    0  0.58910159813E+01  0.46018130330E+02 -0.12579189351E+03  0.13407450489E+03  0.00000000000E+00 0. -1.
         11    1    1    2    0    0 -0.12795748747E+02 -0.43235827464E+02 -0.25499494286E+03  0.25895074599E+03  0.00000000000E+00 0.  1.
</event>
<event>
 7    1  0.2334784E-009  0.1313015E+03  0.7561462E-02  0.1225537E+00
         -1   -1    0    0    0  501 -0.00000000000E+00  0.00000000000E+00  0.33195669162E+02  0.33195669162E+02  0.00000000000E+00 0.  1.
          1   -1    0    0  501    0  0.00000000000E+00 -0.00000000000E+00 -0.81588678821E+03  0.81588678821E+03  0.00000000000E+00 0. -1.
         25    2    1    2    0    0 -0.46116048172E+02 -0.91826537379E+02 -0.23670054296E+03  0.28676228886E+03  0.12508661163E+03 0.  0.
          5    1    3    3  502    0  0.19788069593E+02 -0.38838144577E+02 -0.10209247569E+02  0.44962988205E+02  0.41800000000E+01 0. -1.
         -5    1    3    3    0  502 -0.65904117765E+02 -0.52988392802E+02 -0.22649129539E+03  0.24179930066E+03  0.41800000000E+01 0. -1.
        -11    1    1    2    0    0  0.71618457587E+02  0.60498440296E+02 -0.36149959802E+03  0.37345846370E+03  0.00000000000E+00 0.  1.
         11    1    1    2    0    0 -0.25502409415E+02  0.31328097083E+02 -0.18449097807E+03  0.18886170481E+03  0.00000000000E+00 0. -1.
</event>
<event>
 7    1  0.2334784E-009  0.1177891E+03  0.7561462E-02  0.1246790E+00
          1   -1    0    0  501    0  0.00000000000E+00  0.00000000000E+00  0.74114627446E+02  0.74114627446E+02  0.00000000000E+00 0. -1.
         -1   -1    0    0    0  501 -0.00000000000E+00 -0.00000000000E+00 -0.26118134058E+03  0.26118134058E+03  0.00000000000E+00 0.  1.
         25    2    1    2    0    0 -0.73166270214E+01 -0.79537839640E+02 -0.14615135841E+03  0.20829548542E+03  0.12508792395E+03 0.  0.
          5    1    3    3  502    0 -0.25784144894E+02  0.17162905493E+02  0.91699897696E+00  0.31268206537E+02  0.41800000000E+01 0.  1.
         -5    1    3    3    0  502  0.18467517873E+02 -0.96700745133E+02 -0.14706835739E+03  0.17702727889E+03  0.41800000000E+01 0.  1.
        -11    1    1    2    0    0  0.38360036152E+02  0.38713857052E+02  0.92262865277E+01  0.55275487013E+02  0.00000000000E+00 0. -1.
         11    1    1    2    0    0 -0.31043409131E+02  0.40823982589E+02 -0.50141641255E+02  0.71724995592E+02  0.00000000000E+00 0.  1.
</event>
<event>
 7    1  0.2334784E-009  0.1020438E+03  0.7561462E-02  0.1276056E+00
         -1   -1    0    0    0  501 -0.00000000000E+00  0.00000000000E+00  0.58769642236E+02  0.58769642236E+02  0.00000000000E+00 0.  1.
          1   -1    0    0  501    0  0.00000000000E+00 -0.00000000000E+00 -0.30231414459E+03  0.30231414459E+03  0.00000000000E+00 0. -1.
         25    2    1    2    0    0 -0.20038598037E+02  0.39785139431E+02 -0.46353398146E+02  0.14064499884E+03  0.12509186803E+03 0.  0.
          5    1    3    3  502    0 -0.30983622536E+02 -0.30759718157E+02  0.15069943870E+02  0.46375863710E+02  0.41800000000E+01 0.  1.
         -5    1    3    3    0  502  0.10945024499E+02  0.70544857588E+02 -0.61423342016E+02  0.94269135128E+02  0.41800000000E+01 0.  1.
        -11    1    1    2    0    0  0.25981008842E+02 -0.61203667090E+02 -0.95626082897E+02  0.11646995070E+03  0.00000000000E+00 0. -1.
         11    1    1    2    0    0 -0.59424108042E+01  0.21418527659E+02 -0.10156502131E+03  0.10396883729E+03  0.00000000000E+00 0.  1.
</event>
<event>
 7    1  0.2334784E-009  0.9631989E+02  0.7561462E-02  0.1288231E+00
          2   -1    0    0  501    0  0.00000000000E+00  0.00000000000E+00  0.32364246060E+03  0.32364246060E+03  0.00000000000E+00 0. -1.
         -2   -1    0    0    0  501 -0.00000000000E+00 -0.00000000000E+00 -0.53489581667E+02  0.53489581667E+02  0.00000000000E+00 0.  1.
         25    2    1    2    0    0  0.13631291679E+02 -0.46512417594E+02  0.23161732192E+03  0.26766245226E+03  0.12508951768E+03 0.  0.
          5    1    3    3  502    0  0.34990927138E+02 -0.56878794081E+02  0.47701561029E+02  0.82173435627E+02  0.41800000000E+01 0.  1.
         -5    1    3    3    0  502 -0.21359635459E+02  0.10366376487E+02  0.18391576089E+03  0.18548901663E+03  0.41800000000E+01 0.  1.
        -11    1    1    2    0    0 -0.36121294182E+02  0.63759095129E+02  0.21359624963E+02  0.76329572799E+02  0.00000000000E+00 0. -1.
         11    1    1    2    0    0  0.22490002504E+02 -0.17246677535E+02  0.17175932051E+02  0.33140017206E+02  0.00000000000E+00 0.  1.
</event>
<event>
 7    1  0.2334784E-009  0.1457468E+03  0.7561462E-02  0.1205799E+00
         -1   -1    0    0    0  501 -0.00000000000E+00  0.00000000000E+00  0.28719872274E+02  0.28719872274E+02  0.00000000000E+00 0.  1.
          1   -1    0    0  501    0  0.00000000000E+00 -0.00000000000E+00 -0.10188493716E+04  0.10188493716E+04  0.00000000000E+00 0. -1.
         25    2    1    2    0    0  0.37569242991E+02 -0.11161237328E+03 -0.71875341439E+03  0.73899918415E+03  0.12507818990E+03 0.  0.
          5    1    3    3  502    0  0.23365756042E+02 -0.12355689869E+03 -0.70337022056E+03  0.71453439760E+03  0.41800000000E+01 0. -1.
         -5    1    3    3    0  502  0.14203486950E+02  0.11944525414E+02 -0.15383193829E+02  0.24464786557E+02  0.41800000000E+01 0. -1.
        -11    1    1    2    0    0 -0.60429398370E+02  0.42550581981E+02 -0.12841497392E+03  0.14816433357E+03  0.00000000000E+00 0.  1.
         11    1    1    2    0    0  0.22860155378E+02  0.69061791300E+02 -0.14296111101E+03  0.16040572615E+03  0.00000000000E+00 0. -1.
</event>
<event>
 7    1  0.2334784E-009  0.1608165E+03  0.7561462E-02  0.1187778E+00
          1   -1    0    0  501    0  0.00000000000E+00  0.00000000000E+00  0.30043691094E+03  0.30043691094E+03  0.00000000000E+00 0. -1.
         -1   -1    0    0    0  501 -0.00000000000E+00 -0.00000000000E+00 -0.10160681058E+03  0.10160681058E+03  0.00000000000E+00 0.  1.
         25    2    1    2    0    0 -0.13488267721E+03 -0.14888609972E+02  0.12076878388E+03  0.22055760480E+03  0.12508217521E+03 0.  0.
          5    1    3    3  502    0 -0.15167839343E+03 -0.36256387751E+02  0.93763655721E+02  0.18201636250E+03  0.41800000000E+01 0. -1.
         -5    1    3    3    0  502  0.16795716217E+02  0.21367777779E+02  0.27005128161E+02  0.38541242292E+02  0.41800000000E+01 0. -1.
        -11    1    1    2    0    0  0.88246190726E+02  0.22011693305E+02  0.79256040428E+00  0.90953465969E+02  0.00000000000E+00 0.  1.
         11    1    1    2    0    0  0.46636486482E+02 -0.71230833328E+01  0.77268756078E+02  0.90532650759E+02  0.00000000000E+00 0. -1.
</event>
<event>
 7    1  0.2939172E-009  0.9692168E+02  0.7561462E-02  0.1286906E+00
          3   -1    0    0  501    0  0.00000000000E+00  0.00000000000E+00  0.11186450536E+03  0.11186450536E+03  0.00000000000E+00 0. -1.
         -3   -1    0    0    0  501 -0.00000000000E+00 -0.00000000000E+00 -0.16688401940E+03  0.16688401940E+03  0.00000000000E+00 0.  1.
         25    2    1    2    0    0 -0.34384796793E+02  0.40869620616E+02  0.33805518268E+02  0.14015505236E+03  0.12509190820E+03 0.  0.
          5    1    3    3  502    0 -0.59365081152E+02 -0.22555531915E+02 -0.68061360328E+00  0.63646685028E+02  0.41800000000E+01 0.  1.
         -5    1    3    3    0  502  0.24980284359E+02  0.63425152530E+02  0.34486131871E+02  0.76508367331E+02  0.41800000000E+01 0.  1.
        -11    1    1    2    0    0 -0.38441623051E+01 -0.15630023474E+02 -0.91309068906E+02  0.92716887794E+02  0.00000000000E+00 0.  1.
         11    1    1    2    0    0  0.38228959098E+02 -0.25239597142E+02  0.24840366033E+01  0.45876584610E+02  0.00000000000E+00 0. -1.
</event>
<event>
 7    1  0.2334784E-009  0.1105034E+03  0.7561462E-02  0.1259640E+00
         -1   -1    0    0    0  501 -0.00000000000E+00  0.00000000000E+00  0.17952660030E+03  0.17952660030E+03  0.00000000000E+00 0.  1.
          1   -1    0    0  501    0  0.00000000000E+00 -0.00000000000E+00 -0.11025866015E+03  0.11025866015E+03  0.00000000000E+00 0. -1.
         25    2    1    2    0    0 -0.19733198525E+02  0.68173865906E+02 -0.18833455841E+02  0.14504806832E+03  0.12508864036E+03 0.  0.
          5    1    3    3  502    0 -0.13419713215E+02 -0.32084989772E+02 -0.26921520622E+02  0.44178908362E+02  0.41800000000E+01 0. -1.
         -5    1    3    3    0  502 -0.63134853101E+01  0.10025885568E+03  0.80880647802E+01  0.10086915996E+03  0.41800000000E+01 0. -1.
        -11    1    1    2    0    0  0.17792141483E+02 -0.56917978695E+00 -0.13737852678E+02  0.22485836884E+02  0.00000000000E+00 0. -1.
         11    1    1    2    0    0  0.19410570425E+01 -0.67604686119E+02  0.10183924868E+03  0.12225135524E+03  0.00000000000E+00 0.  1.
</event>
<event>
 7    1  0.3891624E-009  0.1232038E+03  0.7561462E-02  0.1237903E+00
         -1   -1    0    0    0  501 -0.00000000000E+00  0.00000000000E+00  0.92089016283E+02  0.92089016283E+02  0.00000000000E+00 0.  1.
          1   -1    0    0  501    0  0.00000000000E+00 -0.00000000000E+00 -0.23987454971E+03  0.23987454971E+03  0.00000000000E+00 0. -1.
         25    2    1    2    0    0 -0.61136780179E+02 -0.64868497107E+02 -0.25762858893E+02  0.15574680592E+03  0.12509082639E+03 0.  0.
          5    1    3    3  502    0  0.22180077012E+01 -0.71338215762E+02 -0.50251566830E+02  0.87388517296E+02  0.41800000000E+01 0. -1.
         -5    1    3    3    0  502 -0.63354787880E+02  0.64697186555E+01  0.24488707937E+02  0.68358288621E+02  0.41800000000E+01 0. -1.
        -11    1    1    2    0    0  0.48648372407E+02  0.38416098809E+01 -0.12752866506E+02  0.50438652921E+02  0.00000000000E+00 0. -1.
         11    1    1    2    0    0  0.12488407772E+02  0.61026887226E+02 -0.10926980803E+03  0.12577810716E+03  0.00000000000E+00 0.  1.
</event>
<event>
 7    1  0.2334784E-009  0.1031392E+03  0.7561462E-02  0.1273830E+00
          2   -1    0    0  501    0  0.00000000000E+00  0.00000000000E+00  0.51828562109E+03  0.51828562109E+03  0.00000000000E+00 0. -1.
         -2   -1    0    0    0  501 -0.00000000000E+00 -0.00000000000E+00 -0.24379158634E+02  0.24379158634E+02  0.00000000000E+00 0.  1.
         25    2    1    2    0    0  0.28748810316E+02  0.86141642771E+00  0.31175539646E+03  0.33714432654E+03  0.12509050147E+03 0.  0.
          5    1    3    3  502    0  0.36062550902E+02  0.59032734533E+02  0.17959961880E+03  0.19250679675E+03  0.41800000000E+01 0.  1.
         -5    1    3    3    0  502 -0.73137405860E+01 -0.58171318105E+02  0.13215577767E+03  0.14463752979E+03  0.41800000000E+01 0.  1.
        -11    1    1    2    0    0 -0.33512752214E+02 -0.32214256336E+02  0.16056438967E+03  0.16715796751E+03  0.00000000000E+00 0. -1.
         11    1    1    2    0    0  0.47639418984E+01  0.31352839908E+02  0.21586676322E+02  0.38362485678E+02  0.00000000000E+00 0.  1.
</event>
<event>
 7    1  0.2334784E-009  0.2260980E+03  0.7561462E-02  0.1129417E+00
          2   -1    0    0  501    0  0.00000000000E+00  0.00000000000E+00  0.46385982944E+03  0.46385982944E+03  0.00000000000E+00 0.  1.
         -2   -1    0    0    0  501 -0.00000000000E+00 -0.00000000000E+00 -0.12448788136E+03  0.12448788136E+03  0.00000000000E+00 0. -1.
         25    2    1    2    0    0  0.21274698288E+03  0.13864398374E+02  0.15847965887E+03  0.29362629811E+03  0.12508837038E+03 0.  0.
          5    1    3    3  502    0  0.11811697606E+02 -0.22992706330E+02 -0.10760011301E+02  0.28309556476E+02  0.41800000000E+01 0. -1.
         -5    1    3    3    0  502  0.20093528527E+03  0.36857104704E+02  0.16923967017E+03  0.26531674164E+03  0.41800000000E+01 0. -1.
        -11    1    1    2    0    0 -0.15780151873E+03 -0.36970534251E+02  0.16858696399E+03  0.23385829929E+03  0.00000000000E+00 0.  1.
         11    1    1    2    0    0 -0.54945464143E+02  0.23106135877E+02  0.12305325218E+02  0.60863113408E+02  0.00000000000E+00 0. -1.
</event>
<event>
 6    1  0.2334784E-009  0.2494623E+03  0.7561462E-02  0.1113645E+00
          2   -1    0    0  501    0  0.00000000000E+00  0.00000000000E+00  0.24991488428E+03  0.24991488428E+03  0.00000000000E+00 0. -1.
         -2   -1    0    0    0  501 -0.00000000000E+00 -0.00000000000E+00 -0.28498623878E+03  0.28498623878E+03  0.00000000000E+00 0.  1.
          5    1    1    2  502    0  0.85686975819E+01  0.11012362141E+02  0.16551412554E+02  0.22048046528E+02  0.41800000000E+01 0. -1.
         -5    1    1    2    0  502 -0.23890351884E+03 -0.62713380592E+02  0.23522857322E+02  0.24815047176E+03  0.41800000000E+01 0. -1.
        -11    1    1    2    0    0  0.17640733528E+03  0.28825341721E+02 -0.12875985698E+02  0.17921004234E+03  0.00000000000E+00 0.  1.
         11    1    1    2    0    0  0.53927485977E+02  0.22875676730E+02 -0.62269638678E+02  0.85492562430E+02  0.00000000000E+00 0. -1.
</event>
<event>
 7    1  0.2334784E-009  0.9181005E+02  0.7561462E-02  0.1298527E+00
          2   -1    0    0  501    0  0.00000000000E+00  0.00000000000E+00  0.65205051992E+03  0.65205051992E+03  0.00000000000E+00 0.  1.
         -2   -1    0    0    0  501 -0.00000000000E+00 -0.00000000000E+00 -0.27573783477E+02  0.27573783477E+02  0.00000000000E+00 0. -1.
         25    2    1    2    0    0  0.18375740043E+02  0.34414815684E+02  0.52377736188E+03  0.53991913884E+03  0.12509158368E+03 0.  0.
          5    1    3    3  502    0  0.27291167486E+02 -0.34513516524E+02  0.86547383513E+02  0.97179795423E+02  0.41800000000E+01 0. -1.
         -5    1    3    3    0  502 -0.89154274423E+01  0.68928332207E+02  0.43722997837E+03  0.44273934342E+03  0.41800000000E+01 0. -1.
        -11    1    1    2    0    0 -0.39546595452E+02 -0.22669079042E+02  0.10558664829E+03  0.11500591573E+03  0.00000000000E+00 0.  1.
         11    1    1    2    0    0  0.21170855409E+02 -0.11745736642E+02 -0.48872737253E+01  0.24699248824E+02  0.00000000000E+00 0. -1.
</event>
<event>
 7    1  0.2334784E-009  0.2426164E+03  0.7561462E-02  0.1118062E+00
          1   -1    0    0  501    0  0.00000000000E+00  0.00000000000E+00  0.39595556474E+03  0.39595556474E+03  0.00000000000E+00 0. -1.
         -1   -1    0    0    0  501 -0.00000000000E+00 -0.00000000000E+00 -0.16783991181E+03  0.16783991181E+03  0.00000000000E+00 0.  1.
         25    2    1    2    0    0 -0.67407113942E+02 -0.22117158814E+03  0.12195432348E+03  0.28979332938E+03  0.12508687511E+03 0.  0.
          5    1    3    3  502    0 -0.88978098038E+02 -0.19745536503E+03  0.13465367553E+03  0.25505844006E+03  0.41800000000E+01 0. -1.
         -5    1    3    3    0  502  0.21570984096E+02 -0.23716223108E+02 -0.12699352052E+02  0.34734889318E+02  0.41800000000E+01 0. -1.
        -11    1    1    2    0    0  0.17067493176E+02  0.13810432859E+03  0.13577703591E+02  0.13981580359E+03  0.00000000000E+00 0.  1.
         11    1    1    2    0    0  0.50339620766E+02  0.83067259547E+02  0.92583625857E+02  0.13418634358E+03  0.00000000000E+00 0. -1.
</event>
<event>
 7    1  0.2334784E-009  0.8854007E+02  0.7561462E-02  0.1306426E+00
         -1   -1    0    0    0  501 -0.00000000000E+00  0.00000000000E+00  0.34293537167E+03  0.34293537167E+03  0.00000000000E+00 0.  1.
          1   -1    0    0  501    0  0.00000000000E+00 -0.00000000000E+00 -0.60202520589E+02  0.60202520589E+02  0.00000000000E+00 0. -1.
         25    2    1    2    0    0  0.68073951437E+02  0.47602789704E+02  0.91662047568E+02  0.17594792681E+03  0.12512255406E+03 0.  0.
          5    1    3    3  502    0  0.73352018383E+02  0.46894803565E+02  0.31926428673E+01  0.87219874861E+02  0.41800000000E+01 0. -1.
         -5    1    3    3    0  502 -0.52780669457E+01  0.70798613885E+00  0.88469404701E+02  0.88728051952E+02  0.41800000000E+01 0. -1.
        -11    1    1    2    0    0 -0.10869076383E+02 -0.92998463775E+01 -0.81124288572E+01  0.16444922196E+02  0.00000000000E+00 0. -1.
         11    1    1    2    0    0 -0.57204875054E+02 -0.38302943327E+02  0.19918323237E+03  0.21074504325E+03  0.00000000000E+00 0.  1.
</event>
<event>
 7    1  0.2726639E-009  0.1897655E+03  0.7561462E-02  0.1158673E+00
          2   -1    0    0  501    0  0.00000000000E+00  0.00000000000E+00  0.62679525819E+03  0.62679525819E+03  0.00000000000E+00 0.  1.
         -2   -1    0    0    0  501 -0.00000000000E+00 -0.00000000000E+00 -0.88150912858E+02  0.88150912858E+02  0.00000000000E+00 0. -1.
         25    2    1    2    0    0 -0.24327335965E+02 -0.17690458577E+03  0.11583986621E+03  0.24688821063E+03  0.12509141539E+03 0.  0.
          5    1    3    3  502    0 -0.10362090248E+01  0.27303187706E+01 -0.19869351438E+02  0.20513212725E+02  0.41800000000E+01 0.  1.
         -5    1    3    3    0  502 -0.23291126940E+02 -0.17963490454E+03  0.13570921764E+03  0.22637499791E+03  0.41800000000E+01 0.  1.
        -11    1    1    2    0    0  0.50423602253E+02  0.99274610171E+02  0.17839847192E+03  0.21029503720E+03  0.00000000000E+00 0. -1.
         11    1    1    2    0    0 -0.26096266288E+02  0.77629975599E+02  0.24440600721E+03  0.25776292322E+03  0.00000000000E+00 0.  1.
</event>
<event>
 7    1  0.2334784E-009  0.1086607E+03  0.7561462E-02  0.1263070E+00
          1   -1    0    0  501    0  0.00000000000E+00  0.00000000000E+00  0.38855640280E+03  0.38855640280E+03  0.00000000000E+00 0. -1.
         -1   -1    0    0    0  501 -0.00000000000E+00 -0.00000000000E+00 -0.48248007203E+02  0.48248007203E+02  0.00000000000E+00 0.  1.
         25    2    1    2    0    0 -0.24533768353E+02  0.62617174186E+02  0.26590472757E+03  0.30145633890E+03  0.12509110210E+03 0.  0.
          5    1    3    3  502    0  0.15348576229E+01  0.75038525431E+02  0.26132479937E+03  0.27192142110E+03  0.41800000000E+01 0.  1.
         -5    1    3    3    0  502 -0.26068625976E+02 -0.12421351245E+02  0.45799281986E+01  0.29534917798E+02  0.41800000000E+01 0.  1.
        -11    1    1    2    0    0 -0.34556720483E+02 -0.18244566544E+02  0.23191849591E+02  0.45441094027E+02  0.00000000000E+00 0. -1.
         11    1    1    2    0    0  0.59090488836E+02 -0.44372607642E+02  0.51211818437E+02  0.89906977079E+02  0.00000000000E+00 0.  1.
</event>
<event>
 7    1  0.2334784E-009  0.1698425E+03  0.7561462E-02  0.1178012E+00
          3   -1    0    0  501    0  0.00000000000E+00  0.00000000000E+00  0.15627079933E+03  0.15627079933E+03  0.00000000000E+00 0. -1.
         -3   -1    0    0    0  501 -0.00000000000E+00 -0.00000000000E+00 -0.23759893877E+03  0.23759893877E+03  0.00000000000E+00 0.  1.
         25    2    1    2    0    0 -0.15301360406E+03  0.42864810339E+02 -0.37207510706E+02  0.20562699222E+03  0.12508999193E+03 0.  0.
          5    1    3    3  502    0 -0.16330841446E+03  0.43742771722E+02 -0.24590980825E+01  0.16913482159E+03  0.41800000000E+01 0. -1.
         -5    1    3    3    0  502  0.10294810393E+02 -0.87796138215E+00 -0.34748412624E+02  0.36492170627E+02  0.41800000000E+01 0. -1.
        -11    1    1    2    0    0  0.64943020372E+02 -0.11625075637E+02 -0.64864439060E+02  0.92520990770E+02  0.00000000000E+00 0.  1.
         11    1    1    2    0    0  0.88070583693E+02 -0.31239734702E+02  0.20743810329E+02  0.95721755120E+02  0.00000000000E+00 0. -1.
</event>
<event>
 7    1  0.2334784E-009  0.9952014E+02  0.7561462E-02  0.1281308E+00
         -2   -1    0    0    0  501 -0.00000000000E+00  0.00000000000E+00  0.12636388996E+03  0.12636388996E+03  0.00000000000E+00 0.  1.
          2   -1    0    0  501    0  0.00000000000E+00 -0.00000000000E+00 -0.10137327774E+03  0.10137327774E+03  0.00000000000E+00 0. -1.
         25    2    1    2    0    0 -0.94165054003E+01 -0.31260403967E+02  0.16898822372E+01  0.12929242548E+03  0.12509113539E+03 0.  0.
          5    1    3    3  502    0  0.55042110937E+02 -0.24338363447E+02  0.16741257790E+02  0.62607763289E+02  0.41800000000E+01 0.  1.
         -5    1    3    3    0  502 -0.64458616337E+02 -0.69220405199E+01 -0.15051375552E+02  0.66684662188E+02  0.41800000000E+01 0.  1.
        -11    1    1    2    0    0 -0.61670966243E+01  0.49428965563E+02  0.44255638965E+02  0.66631954028E+02  0.00000000000E+00 0.  1.
         11    1    1    2    0    0  0.15583602025E+02 -0.18168561597E+02 -0.20954908983E+02  0.31812788199E+02  0.00000000000E+00 0. -1.
</event>
<event>
 7    1  0.2334784E-009  0.1412482E+03  0.7561462E-02  0.1211659E+00
         -1   -1    0    0    0  501 -0.00000000000E+00  0.00000000000E+00  0.60622263087E+02  0.60622263087E+02  0.00000000000E+00 0.  1.
          1   -1    0    0  501    0  0.00000000000E+00 -0.00000000000E+00 -0.47339738730E+03  0.47339738730E+03  0.00000000000E+00 0. -1.
         25    2    1    2    0    0 -0.10650141175E+03  0.65504268332E+02 -0.18008325994E+03  0.25240997655E+03  0.12508979126E+03 0.  0.
          5    1    3    3  502    0 -0.67078438117E+01 -0.42435530191E+01  0.17857796563E+02  0.19984399139E+02  0.41800000000E+01 0. -1.
         -5    1    3    3    0  502 -0.99793567942E+02  0.69747821351E+02 -0.19794105650E+03  0.23242557741E+03  0.41800000000E+01 0. -1.
        -11    1    1    2    0    0  0.32097615823E+02 -0.70159121634E+02 -0.15928064153E+03  0.17698271683E+03  0.00000000000E+00 0. -1.
         11    1    1    2    0    0  0.74403795930E+02  0.46548533018E+01 -0.73411222748E+02  0.10462695701E+03  0.00000000000E+00 0.  1.
</event>
<event>
 7    1  0.2334784E-009  0.9049850E+02  0.7561462E-02  0.1301649E+00
         -1   -1    0    0    0  501 -0.00000000000E+00  0.00000000000E+00  0.35651186990E+03  0.35651186990E+03  0.00000000000E+00 0.  1.
          1   -1    0    0  501    0  0.00000000000E+00 -0.00000000000E+00 -0.53362309594E+02  0.53362309594E+02  0.00000000000E+00 0. -1.
         25    2    1    2    0    0 -0.24205329350E+02 -0.86291358466E+01  0.43754521829E+02  0.13497327407E+03  0.12507184566E+03 0.  0.
          5    1    3    3  502    0 -0.68320283577E+02  0.47451878524E+01  0.54301124902E+02  0.87500071551E+02  0.41800000000E+01 0. -1.
         -5    1    3    3    0  502  0.44114954227E+02 -0.13374323699E+02 -0.10546603072E+02  0.47473202517E+02  0.41800000000E+01 0. -1.
        -11    1    1    2    0    0  0.43103066132E+02  0.15767930589E+02  0.24693947606E+03  0.25116848286E+03  0.00000000000E+00 0.  1.
         11    1    1    2    0    0 -0.18897736782E+02 -0.71387947428E+01  0.12455562420E+02  0.23732422571E+02  0.00000000000E+00 0. -1.
</event>
<event>
 7    1  0.2334784E-009  0.1098770E+03  0.7561462E-02  0.1260798E+00
          1   -1    0    0  501    0  0.00000000000E+00  0.00000000000E+00  0.89074681244E+02  0.89074681244E+02  0.00000000000E+00 0. -1.
         -1   -1    0    0    0  501 -0.00000000000E+00 -0.00000000000E+00 -0.20589688828E+03  0.20589688828E+03  0.00000000000E+00 0.  1.
         25    2    1    2    0    0 -0.39539960965E+02  0.66101711651E+02 -0.48905651798E+02  0.15482825660E+03  0.12508869440E+03 0.  0.
          5    1    3    3  502    0  0.37667543228E+02  0.43724796164E+02  0.48014880784E+01  0.58062279495E+02  0.41800000000E+01 0.  1.
         -5    1    3    3    0  502 -0.77207504193E+02  0.22376915487E+02 -0.53707139877E+02  0.96765977100E+02  0.41800000000E+01 0.  1.
        -11    1    1    2    0    0  0.37098566821E+02 -0.37705492857E+02 -0.89792533898E+02  0.10421471583E+03  0.00000000000E+00 0.  1.
         11    1    1    2    0    0  0.24413941446E+01 -0.28396218794E+02  0.21875978660E+02  0.35928597099E+02  0.00000000000E+00 0. -1.
</event>
<event>
 7    1  0.2334784E-009  0.1403762E+03  0.7561462E-02  0.1212824E+00
          1   -1    0    0  501    0  0.00000000000E+00  0.00000000000E+00  0.54315437625E+02  0.54315437625E+02  0.00000000000E+00 0. -1.
         -1   -1    0    0    0  501 -0.00000000000E+00 -0.00000000000E+00 -0.42040430263E+03  0.42040430263E+03  0.00000000000E+00 0.  1.
         25    2    1    2    0    0  0.64973778740E+02 -0.79194403684E+02 -0.16877866678E+03  0.23372434707E+03  0.12508991387E+03 0.  0.
          5    1    3    3  502    0  0.83918808247E+02 -0.25855608664E+02 -0.15014177194E+03  0.17398535271E+03  0.41800000000E+01 0.  1.
         -5    1    3    3    0  502 -0.18945029507E+02 -0.53338795021E+02 -0.18636894846E+02  0.59738994357E+02  0.41800000000E+01 0.  1.
        -11    1    1    2    0    0 -0.71609779982E+02  0.17083204427E+02 -0.12823837188E+03  0.14786776689E+03  0.00000000000E+00 0.  1.
         11    1    1    2    0    0  0.66360012427E+01  0.62111199257E+02 -0.69071826340E+02  0.93127626296E+02  0.00000000000E+00 0. -1.
</event>
<event>
 7    1  0.2334784E-009  0.1122052E+03  0.7561462E-02  0.1256540E+00
         -1   -1    0    0    0  501 -0.00000000000E+00  0.00000000000E+00  0.55782552541E+02  0.55782552541E+02  0.00000000000E+00 0.  1.
          1   -1    0    0  501    0  0.00000000000E+00 -0.00000000000E+00 -0.26425716955E+03  0.26425716955E+03  0.00000000000E+00 0. -1.
         25    2    1    2    0    0  0.41204055459E+02 -0.36169247547E+02 -0.11327027741E+03  0.17743486966E+03  0.12508792336E+03 0.  0.
          5    1    3    3  502    0  0.24961617598E+02  0.39014478269E+02 -0.83110718858E+01  0.47241487949E+02  0.41800000000E+01 0. -1.
         -5    1    3    3    0  502  0.16242437861E+02 -0.75183725816E+02 -0.10495920553E+03  0.13019338171E+03  0.41800000000E+01 0. -1.
        -11    1    1    2    0    0 -0.48471728452E+02 -0.13785123598E+02 -0.69805650324E+02  0.86095103861E+02  0.00000000000E+00 0. -1.
         11    1    1    2    0    0  0.72676729933E+01  0.49954371145E+02 -0.25398689274E+02  0.56509748575E+02  0.00000000000E+00 0.  1.
</event>
<event>
 7    1  0.2334784E-009  0.4867595E+02  0.7561462E-02  0.1452617E+00
         -1   -1    0    0    0  501 -0.00000000000E+00  0.00000000000E+00  0.12322191077E+03  0.12322191077E+03  0.00000000000E+00 0.  1.
          1   -1    0    0  501    0  0.00000000000E+00 -0.00000000000E+00 -0.93940715000E+02  0.93940715000E+02  0.00000000000E+00 0. -1.
         25    2    1    2    0    0 -0.10481817519E+02 -0.14526717253E+02  0.22119491933E+02  0.12827902023E+03  0.12508133792E+03 0.  0.
          5    1    3    3  502    0 -0.13952186703E+02 -0.23128648473E+02 -0.49175910875E+02  0.56261358892E+02  0.41800000000E+01 0. -1.
         -5    1    3    3    0  502  0.34703691838E+01  0.86019312196E+01  0.71295402808E+02  0.72017661338E+02  0.41800000000E+01 0. -1.
        -11    1    1    2    0    0  0.25308972042E+02  0.29434680271E+02  0.36168680764E+02  0.53057684992E+02  0.00000000000E+00 0.  1.
         11    1    1    2    0    0 -0.14827154522E+02 -0.14907963018E+02 -0.29006976928E+02  0.35825920547E+02  0.00000000000E+00 0. -1.
</event>
<event>
 7    1  0.2334784E-009  0.2724228E+03  0.7561462E-02  0.1099901E+00
          2   -1    0    0  501    0  0.00000000000E+00  0.00000000000E+00  0.92138285996E+02  0.92138285996E+02  0.00000000000E+00 0. -1.
         -2   -1    0    0    0  501 -0.00000000000E+00 -0.00000000000E+00 -0.90615498541E+03  0.90615498541E+03  0.00000000000E+00 0.  1.
         25    2    1    2    0    0  0.57241004826E+02  0.25135888234E+03 -0.30624088115E+03  0.41939165378E+03  0.12509221244E+03 0.  0.
          5    1    3    3  502    0  0.77747620037E+02  0.23528240446E+03 -0.30496889472E+03  0.39297073862E+03  0.41800000000E+01 0.  1.
         -5    1    3    3    0  502 -0.20506615211E+02  0.16076477882E+02 -0.12719864298E+01  0.26420915162E+02  0.41800000000E+01 0.  1.
        -11    1    1    2    0    0  0.21122066485E+02 -0.40531580593E+02 -0.14524591064E+03  0.15226728236E+03  0.00000000000E+00 0.  1.
         11    1    1    2    0    0 -0.78363071311E+02 -0.21082730174E+03 -0.36252990762E+03  0.42663433527E+03  0.00000000000E+00 0. -1.
</event>
<event>
 7    1  0.2334784E-009  0.1206478E+03  0.7561462E-02  0.1242032E+00
         -1   -1    0    0    0  501 -0.00000000000E+00  0.00000000000E+00  0.13807624059E+03  0.13807624059E+03  0.00000000000E+00 0.  1.
          1   -1    0    0  501    0  0.00000000000E+00 -0.00000000000E+00 -0.23869428295E+03  0.23869428295E+03  0.00000000000E+00 0. -1.
         25    2    1    2    0    0 -0.66255150155E+02  0.61121515281E+02 -0.17142030312E+03  0.23056310351E+03  0.12509532296E+03 0.  0.
          5    1    3    3  502    0  0.30776327478E+02  0.37327739262E+02 -0.29048266263E+02  0.56584597059E+02  0.41800000000E+01 0.  1.
         -5    1    3    3    0  502 -0.97031477633E+02  0.23793776018E+02 -0.14237203685E+03  0.17397850645E+03  0.41800000000E+01 0.  1.
        -11    1    1    2    0    0  0.38374336474E+02 -0.20594806000E+02  0.84570671785E+02  0.95125886384E+02  0.00000000000E+00 0.  1.
         11    1    1    2    0    0  0.27880813681E+02 -0.40526709281E+02 -0.13768411025E+02  0.51081533638E+02  0.00000000000E+00 0. -1.
</event>
<event>
 7    1  0.2334784E-009  0.8404065E+02  0.7561462E-02  0.1317961E+00
         -2   -1    0    0    0  501 -0.00000000000E+00  0.00000000000E+00  0.35014714678E+03  0.35014714678E+03  0.00000000000E+00 0.  1.
          2   -1    0    0  501    0  0.00000000000E+00 -0.00000000000E+00 -0.60342002380E+02  0.60342002380E+02  0.00000000000E+00 0. -1.
         25    2    1    2    0    0  0.65006180542E+01 -0.10812444797E+01  0.29314232158E+03  0.31878434934E+03  0.12509042153E+03 0.  0.
          5    1    3    3  502    0  0.25481690942E+02  0.57281197134E+02  0.16736082153E+03  0.17876680090E+03  0.41800000000E+01 0. -1.
         -5    1    3    3    0  502 -0.18981072887E+02 -0.58362441613E+02  0.12578150005E+03  0.14001754845E+03  0.41800000000E+01 0. -1.
        -11    1    1    2    0    0 -0.97686911191E+01  0.21205436444E+02  0.38578817519E+02  0.45093492015E+02  0.00000000000E+00 0.  1.
         11    1    1    2    0    0  0.32680730648E+01 -0.20124191964E+02 -0.41915994698E+02  0.46611307805E+02  0.00000000000E+00 0. -1.
</event>
<event>
 7    1  0.2334784E-009  0.1935026E+03  0.7561462E-02  0.1155340E+00
          2   -1    0    0  501    0  0.00000000000E+00  0.00000000000E+00  0.92776971942E+03  0.92776971942E+03  0.00000000000E+00 0. -1.
         -2   -1    0    0    0  501 -0.00000000000E+00 -0.00000000000E+00 -0.55896315570E+02  0.55896315570E+02  0.00000000000E+00 0.  1.
         25    2    1    2    0    0 -0.16213008208E+03 -0.71251601811E+02  0.25163587798E+03  0.33216167875E+03  0.12509121260E+03 0.  0.
          5    1    3    3  502    0 -0.12007723549E+02 -0.57381336869E+02  0.35684915846E+02  0.68758191255E+02  0.41800000000E+01 0.  1.
         -5    1    3    3    0  502 -0.15012235853E+03 -0.13870264942E+02  0.21595096214E+03  0.26340348750E+03  0.41800000000E+01 0.  1.
        -11    1    1    2    0    0  0.54086620494E+02  0.18364866075E+02  0.81646696634E+02  0.99643433771E+02  0.00000000000E+00 0.  1.
         11    1    1    2    0    0  0.10804346158E+03  0.52886735736E+02  0.53859082924E+03  0.55186092246E+03  0.00000000000E+00 0. -1.
</event>
<event>
 7    1  0.2334784E-009  0.9026194E+02  0.7561462E-02  0.1302219E+00
         -1   -1    0    0    0  501 -0.00000000000E+00  0.00000000000E+00  0.52594719298E+02  0.52594719298E+02  0.00000000000E+00 0.  1.
          1   -1    0    0  501    0  0.00000000000E+00 -0.00000000000E+00 -0.24366250664E+03  0.24366250664E+03  0.00000000000E+00 0. -1.
         25    2    1    2    0    0 -0.14033278798E+02 -0.71138348847E+01 -0.14723095144E+03  0.19383486159E+03  0.12508981152E+03 0.  0.
          5    1    3    3  502    0 -0.46004545734E+02  0.21299464012E+02 -0.14163904447E+03  0.15049643422E+03  0.41800000000E+01 0.  1.
         -5    1    3    3    0  502  0.31971266936E+02 -0.28413298897E+02 -0.55919069742E+01  0.43338427375E+02  0.41800000000E+01 0.  1.
        -11    1    1    2    0    0  0.15694594430E+02  0.45565216576E+02 -0.61972970043E+01  0.48589255460E+02  0.00000000000E+00 0.  1.
         11    1    1    2    0    0 -0.16613156323E+01 -0.38451381692E+02 -0.37639538894E+02  0.53833108881E+02  0.00000000000E+00 0. -1.
</event>
<event>
 7    1  0.2334784E-009  0.1187388E+03  0.7561462E-02  0.1245192E+00
          2   -1    0    0  501    0  0.00000000000E+00  0.00000000000E+00  0.37403936632E+03  0.37403936632E+03  0.00000000000E+00 0. -1.
         -2   -1    0    0    0  501 -0.00000000000E+00 -0.00000000000E+00 -0.63163025127E+02  0.63163025127E+02  0.00000000000E+00 0.  1.
         25    2    1    2    0    0  0.10202526307E+03 -0.17193477088E+02  0.12148034067E+03  0.20275475498E+03  0.12508895850E+03 0.  0.
          5    1    3    3  502    0 -0.66397747631E+01 -0.54300900306E+01 -0.21038264587E+02  0.23100940749E+02  0.41800000000E+01 0. -1.
         -5    1    3    3    0  502  0.10866503784E+03 -0.11763387058E+02  0.14251860525E+03  0.17965381423E+03  0.41800000000E+01 0. -1.
        -11    1    1    2    0    0 -0.36871454267E+01 -0.14715618122E+02 -0.35214752267E+01  0.15573864192E+02  0.00000000000E+00 0.  1.
         11    1    1    2    0    0 -0.98338117648E+02  0.31909095210E+02  0.19291747575E+03  0.21887377227E+03  0.00000000000E+00 0. -1.
</event>
<event>
 7    1  0.2334784E-009  0.1111265E+03  0.7561462E-02  0.1258498E+00
         -2   -1    0    0    0  501 -0.00000000000E+00  0.00000000000E+00  0.18335721885E+02  0.18335721885E+02  0.00000000000E+00 0.  1.
          2   -1    0    0  501    0  0.00000000000E+00 -0.00000000000E+00 -0.69272275092E+03  0.69272275092E+03  0.00000000000E+00 0. -1.
         25    2    1    2    0    0  0.53467840512E+01  0.28305177628E+02 -0.33878554463E+03  0.36228893291E+03  0.12509138452E+03 0.  0.
          5    1    3    3  502    0  0.62123850274E+02  0.33698583597E+02 -0.20117066377E+03  0.21326527066E+03  0.41800000000E+01 0. -1.
         -5    1    3    3    0  502 -0.56777066223E+02 -0.53934059691E+01 -0.13761488086E+03  0.14902366225E+03  0.41800000000E+01 0. -1.
        -11    1    1    2    0    0 -0.29467475818E+02  0.23128524690E+02 -0.15396250405E+03  0.15845413671E+03  0.00000000000E+00 0.  1.
         11    1    1    2    0    0  0.24120691767E+02 -0.51433702317E+02 -0.18163898036E+03  0.19031540319E+03  0.00000000000E+00 0. -1.
</event>
<event>
 7    1  0.2334784E-009  0.7606800E+02  0.7561462E-02  0.1340595E+00
         -2   -1    0    0    0  501 -0.00000000000E+00  0.00000000000E+00  0.45593991773E+02  0.45593991773E+02  0.00000000000E+00 0.  1.
          2   -1    0    0  501    0  0.00000000000E+00 -0.00000000000E+00 -0.40825744875E+03  0.40825744875E+03  0.00000000000E+00 0. -1.
         25    2    1    2    0    0  0.92739773154E+01  0.13919189485E+02 -0.62340513766E+02  0.14076234499E+03  0.12509175680E+03 0.  0.
          5    1    3    3  502    0  0.31271544540E+02 -0.83311599490E+01 -0.91897034682E+02  0.97518485977E+02  0.41800000000E+01 0. -1.
         -5    1    3    3    0  502 -0.21997567225E+02  0.22250349433E+02  0.29556520916E+02  0.43243859014E+02  0.41800000000E+01 0. -1.
        -11    1    1    2    0    0  0.35412144154E+02  0.10603705791E+02 -0.14381135092E+03  0.14848623904E+03  0.00000000000E+00 0.  1.
         11    1    1    2    0    0 -0.44686121470E+02 -0.24522895275E+02 -0.15651159229E+03  0.16460285649E+03  0.00000000000E+00 0. -1.
</event>
<event>
 7    1  0.2334784E-009  0.2689135E+03  0.7561462E-02  0.1101903E+00
          2   -1    0    0  501    0  0.00000000000E+00  0.00000000000E+00  0.16065073952E+03  0.16065073952E+03  0.00000000000E+00 0. -1.
         -2   -1    0    0    0  501 -0.00000000000E+00 -0.00000000000E+00 -0.49928539849E+03  0.49928539849E+03  0.00000000000E+00 0.  1.
         25    2    1    2    0    0  0.22854202403E+02  0.25698903423E+03 -0.12499075438E+03  0.31278841807E+03  0.12509287557E+03 0.  0.
          5    1    3    3  502    0  0.55119300600E+02  0.14425040725E+03 -0.11952785977E+03  0.19532203908E+03  0.41800000000E+01 0.  1.
         -5    1    3    3    0  502 -0.32265098197E+02  0.11273862698E+03 -0.54628946062E+01  0.11746637899E+03  0.41800000000E+01 0.  1.
        -11    1    1    2    0    0  0.19956091692E+02 -0.14034352765E+03 -0.15403623776E+03  0.20933636543E+03  0.00000000000E+00 0.  1.
         11    1    1    2    0    0 -0.42810294095E+02 -0.11664550658E+03 -0.59607666831E+02  0.13781135450E+03  0.00000000000E+00 0. -1.
</event>
<event>
 7    1  0.2334784E-009  0.7984562E+02  0.7561462E-02  0.1329490E+00
         -2   -1    0    0    0  501 -0.00000000000E+00  0.00000000000E+00  0.37699767930E+02  0.37699767930E+02  0.00000000000E+00 0. -1.
          2   -1    0    0  501    0  0.00000000000E+00 -0.00000000000E+00 -0.36433880186E+03  0.36433880186E+03  0.00000000000E+00 0.  1.
         25    2    1    2    0    0 -0.12934171540E+02 -0.36982847768E+01 -0.25872054918E+03  0.28769022771E+03  0.12509346286E+03 0.  0.
          5    1    3    3  502    0 -0.44183101481E+02  0.24253544226E+02 -0.38730667174E+02  0.63701788388E+02  0.41800000000E+01 0. -1.
         -5    1    3    3    0  502  0.31248929941E+02 -0.27951829003E+02 -0.21998988201E+03  0.22398843933E+03  0.41800000000E+01 0. -1.
        -11    1    1    2    0    0 -0.12981238892E+02  0.28371155219E+02  0.64134813787E+01  0.31852280217E+02  0.00000000000E+00 0. -1.
         11    1    1    2    0    0  0.25915410432E+02 -0.24672870443E+02 -0.74331966131E+02  0.82496061861E+02  0.00000000000E+00 0.  1.
</event>
<event>
 7    1  0.2334784E-009  0.1057883E+03  0.7561462E-02  0.1268574E+00
         -1   -1    0    0    0  501 -0.00000000000E+00  0.00000000000E+00  0.79297626776E+02  0.79297626776E+02  0.00000000000E+00 0.  1.
          1   -1    0    0  501    0  0.00000000000E+00 -0.00000000000E+00 -0.18372739119E+03  0.18372739119E+03  0.00000000000E+00 0. -1.
         25    2    1    2    0    0  0.44378042294E+02  0.73951120694E+01 -0.29010874347E+02  0.13607107022E+03  0.12509838927E+03 0.  0.
          5    1    3    3  502    0  0.55207142717E+02 -0.35252619984E+02 -0.54267502558E+02  0.85164605657E+02  0.41800000000E+01 0.  1.
         -5    1    3    3    0  502 -0.10829100423E+02  0.42647732054E+02  0.25256628211E+02  0.50906464559E+02  0.41800000000E+01 0.  1.
        -11    1    1    2    0    0 -0.58836978922E+02 -0.36502913039E+02 -0.46105272911E+02  0.83186230466E+02  0.00000000000E+00 0.  1.
         11    1    1    2    0    0  0.14458936628E+02  0.29107800969E+02 -0.29313617161E+02  0.43767717289E+02  0.00000000000E+00 0. -1.
</event>
<event>
 7    1  0.3381812E-009  0.1288364E+03  0.7561462E-02  0.1229193E+00
         -2   -1    0    0    0  501 -0.00000000000E+00  0.00000000000E+00  0.41721360868E+02  0.41721360868E+02  0.00000000000E+00 0. -1.
          2   -1    0    0  501    0  0.00000000000E+00 -0.00000000000E+00 -0.61271245943E+03  0.61271245943E+03  0.00000000000E+00 0.  1.
         25    2    1    2    0    0 -0.79426452571E+02 -0.79656507543E+02 -0.23806024552E+03  0.29149590581E+03  0.12507382638E+03 0.  0.
          5    1    3    3  502    0 -0.59113441861E+02 -0.63807735149E+02 -0.47574448811E+02  0.99230170076E+02  0.41800000000E+01 0. -1.
         -5    1    3    3    0  502 -0.20313010710E+02 -0.15848772394E+02 -0.19048579671E+03  0.19226573574E+03  0.41800000000E+01 0. -1.
        -11    1    1    2    0    0  0.85487129289E+02  0.24399347265E+02 -0.20720929039E+03  0.22547520361E+03  0.00000000000E+00 0.  1.
         11    1    1    2    0    0 -0.60606767172E+01  0.55257160277E+02 -0.12572156265E+03  0.13746271087E+03  0.00000000000E+00 0. -1.
</event>
<event>
 7    1  0.2334784E-009  0.8610591E+02  0.7561462E-02  0.1312566E+00
         -1   -1    0    0    0  501 -0.00000000000E+00  0.00000000000E+00  0.63808662525E+02  0.63808662525E+02  0.00000000000E+00 0.  1.
          1   -1    0    0  501    0  0.00000000000E+00 -0.00000000000E+00 -0.21253701931E+03  0.21253701931E+03  0.00000000000E+00 0. -1.
         25    2    1    2    0    0 -0.22265338865E+02  0.24524030392E+02 -0.45254999767E+02  0.13708750199E+03  0.12509114604E+03 0.  0.
          5    1    3    3  502    0 -0.96505228580E+01 -0.37105328757E+02 -0.60941088830E+02  0.72119530790E+02  0.41800000000E+01 0.  1.
         -5    1    3    3    0  502 -0.12614816007E+02  0.61629359149E+02  0.15686089062E+02  0.64967971202E+02  0.41800000000E+01 0.  1.
        -11    1    1    2    0    0  0.36974805510E+02  0.52923464796E+01 -0.98874337167E+02  0.10569427479E+03  0.00000000000E+00 0. -1.
         11    1    1    2    0    0 -0.14709466645E+02 -0.29816376872E+02 -0.45990198530E+01  0.33563905052E+02  0.00000000000E+00 0.  1.
</event>
<event>
 7    1  0.2334784E-009  0.1518402E+03  0.7561462E-02  0.1198230E+00
         -3   -1    0    0    0  501 -0.00000000000E+00  0.00000000000E+00  0.29663720908E+03  0.29663720908E+03  0.00000000000E+00 0.  1.
          3   -1    0    0  501    0  0.00000000000E+00 -0.00000000000E+00 -0.12124684518E+03  0.12124684518E+03  0.00000000000E+00 0. -1.
         25    2    1    2    0    0  0.53012209402E+02 -0.12502861430E+03  0.10058435365E+02  0.18490499043E+03  0.12508490966E+03 0.  0.
          5    1    3    3  502    0  0.17642720407E+02 -0.80478136156E+02 -0.54413448919E+02  0.98824550623E+02  0.41800000000E+01 0. -1.
         -5    1    3    3    0  502  0.35369488995E+02 -0.44550478141E+02  0.64471884284E+02  0.86080439807E+02  0.41800000000E+01 0. -1.
        -11    1    1    2    0    0  0.59129444078E+01  0.99922620540E+02  0.10074256399E+03  0.14201604559E+03  0.00000000000E+00 0.  1.
         11    1    1    2    0    0 -0.58925153810E+02  0.25105993758E+02  0.64589364544E+02  0.90963018234E+02  0.00000000000E+00 0. -1.
</event>
<event>
 7    1  0.2334784E-009  0.1282297E+03  0.7561462E-02  0.1230106E+00
         -3   -1    0    0    0  501 -0.00000000000E+00  0.00000000000E+00  0.19796197136E+03  0.19796197136E+03  0.00000000000E+00 0.  1.
          3   -1    0    0  501    0  0.00000000000E+00 -0.00000000000E+00 -0.10466142862E+03  0.10466142862E+03  0.00000000000E+00 0. -1.
         25    2    1    2    0    0  0.28192594165E+02 -0.61358084839E+02  0.11839211565E+03  0.18497790110E+03  0.12506196027E+03 0.  0.
          5    1    3    3  502    0  0.62161523903E+01  0.38578127370E+02  0.26628425508E+02  0.47470600449E+02  0.41800000000E+01 0. -1.
         -5    1    3    3    0  502  0.21976441774E+02 -0.99936212209E+02  0.91763690144E+02  0.13750730065E+03  0.41800000000E+01 0. -1.
        -11    1    1    2    0    0  0.22665725941E+02  0.59708960624E+02 -0.10625142287E+02  0.64744024896E+02  0.00000000000E+00 0.  1.
         11    1    1    2    0    0 -0.50858320105E+02  0.16491242151E+01 -0.14466430627E+02  0.52901473984E+02  0.00000000000E+00 0. -1.
</event>
<event>
 7    1  0.2334784E-009  0.2607710E+03  0.7561462E-02  0.1106681E+00
         -1   -1    0    0    0  501 -0.00000000000E+00  0.00000000000E+00  0.28888434006E+03  0.28888434006E+03  0.00000000000E+00 0.  1.
          1   -1    0    0  501    0  0.00000000000E+00 -0.00000000000E+00 -0.69141286589E+03  0.69141286589E+03  0.00000000000E+00 0. -1.
         25    2    1    2    0    0  0.22944760619E+03  0.86949952356E+02  0.18909371922E+03  0.33408092025E+03  0.12508848240E+03 0.  0.
          5    1    3    3  502    0  0.82875575355E+02  0.79821591696E+02  0.13546667444E+03  0.17778790672E+03  0.41800000000E+01 0.  1.
         -5    1    3    3    0  502  0.14657203083E+03  0.71283606606E+01  0.53627044776E+02  0.15629301353E+03  0.41800000000E+01 0.  1.
        -11    1    1    2    0    0 -0.98428770877E+02 -0.82617575373E+02 -0.27582892540E+03  0.30429505876E+03  0.00000000000E+00 0.  1.
         11    1    1    2    0    0 -0.13101883531E+03 -0.43323769838E+01 -0.31579331965E+03  0.34192122694E+03  0.00000000000E+00 0. -1.
</event>
<event>
 7    1  0.2334784E-009  0.1540945E+03  0.7561462E-02  0.1195530E+00
          2   -1    0    0  501    0  0.00000000000E+00  0.00000000000E+00  0.20510103623E+03  0.20510103623E+03  0.00000000000E+00 0.  1.
         -2   -1    0    0    0  501 -0.00000000000E+00 -0.00000000000E+00 -0.18179546688E+03  0.18179546688E+03  0.00000000000E+00 0. -1.
         25    2    1    2    0    0  0.35535557497E+02  0.12641482446E+03  0.10274827726E+03  0.20844308503E+03  0.12509127678E+03 0.  0.
          5    1    3    3  502    0  0.83299228588E+01  0.14364082100E+03  0.10115830836E+03  0.17593336473E+03  0.41800000000E+01 0.  1.
         -5    1    3    3    0  502  0.27205634638E+02 -0.17225996544E+02  0.15899688957E+01  0.32509720301E+02  0.41800000000E+01 0.  1.
        -11    1    1    2    0    0 -0.22767689830E+02 -0.98220022006E+02 -0.99434116061E+02  0.14160749931E+03  0.00000000000E+00 0. -1.
         11    1    1    2    0    0 -0.12767867667E+02 -0.28194802454E+02  0.19991408156E+02  0.36845918773E+02  0.00000000000E+00 0.  1.
</event>
<event>
 7    1  0.2334784E-009  0.1149792E+03  0.7561462E-02  0.1251617E+00
         -2   -1    0    0    0  501 -0.00000000000E+00  0.00000000000E+00  0.17143594048E+02  0.17143594048E+02  0.00000000000E+00 0. -1.
          2   -1    0    0  501    0  0.00000000000E+00 -0.00000000000E+00 -0.22406033023E+04  0.22406033023E+04  0.00000000000E+00 0.  1.
         25    2    1    2    0    0 -0.36841153502E+02 -0.34974049197E+02 -0.20539658542E+04  0.20583974354E+04  0.12507524525E+03 0.  0.
          5    1    3    3  502    0  0.27299635684E+02  0.28263933030E+02 -0.92175667172E+03  0.92260335696E+03  0.41800000000E+01 0.  1.
         -5    1    3    3    0  502 -0.64140789187E+02 -0.63237982227E+02 -0.11322091825E+04  0.11357940784E+04  0.41800000000E+01 0.  1.
        -11    1    1    2    0    0 -0.28560561219E+02  0.98821796292E+01 -0.26818813623E+02  0.40405592379E+02  0.00000000000E+00 0.  1.
         11    1    1    2    0    0  0.65401714721E+02  0.25091869568E+02 -0.14267504045E+03  0.15894386863E+03  0.00000000000E+00 0. -1.
</event>
<event>
 7    1  0.2334784E-009  0.9108434E+02  0.7561462E-02  0.1300247E+00
         -1   -1    0    0    0  501 -0.00000000000E+00  0.00000000000E+00  0.38913615863E+02  0.38913615863E+02  0.00000000000E+00 0.  1.
          1   -1    0    0  501    0  0.00000000000E+00 -0.00000000000E+00 -0.35734863165E+03  0.35734863165E+03  0.00000000000E+00 0. -1.
         25    2    1    2    0    0 -0.32346306374E+02  0.13802201163E+02 -0.24175359873E+03  0.27446233058E+03  0.12509190268E+03 0.  0.
          5    1    3    3  502    0 -0.71113883591E+02 -0.96327091229E+01 -0.20069682749E+03  0.21318222836E+03  0.41800000000E+01 0.  1.
         -5    1    3    3    0  502  0.38767577218E+02  0.23434910285E+02 -0.41056771243E+02  0.61280102222E+02  0.41800000000E+01 0.  1.
        -11    1    1    2    0    0  0.14540034340E+02  0.21090856479E+02  0.93495331249E+01  0.27269957743E+02  0.00000000000E+00 0.  1.
         11    1    1    2    0    0  0.17806272033E+02 -0.34893057642E+02 -0.86030950183E+02  0.94529959192E+02  0.00000000000E+00 0. -1.
</event>
<event>
 7    1  0.2334784E-009  0.8983710E+02  0.7561462E-02  0.1303247E+00
         -2   -1    0    0    0  501 -0.00000000000E+00  0.00000000000E+00  0.40416771222E+02  0.40416771222E+02  0.00000000000E+00 0.  1.
          2   -1    0    0  501    0  0.00000000000E+00 -0.00000000000E+00 -0.38154153020E+03  0.38154153020E+03  0.00000000000E+00 0. -1.
         25    2    1    2    0    0  0.70296161813E+00  0.14790018797E+02 -0.29311997803E+03  0.31903934061E+03  0.12509012962E+03 0.  0.
          5    1    3    3  502    0  0.35444368293E+02  0.41481573477E+02 -0.57627075662E+02  0.79469342713E+02  0.41800000000E+01 0. -1.
         -5    1    3    3    0  502 -0.34741406675E+02 -0.26691554680E+02 -0.23549290236E+03  0.23956999790E+03  0.41800000000E+01 0. -1.
        -11    1    1    2    0    0  0.35834452287E+02 -0.24165305944E+02 -0.17817871067E+01  0.43257886534E+02  0.00000000000E+00 0.  1.
         11    1    1    2    0    0 -0.36537413905E+02  0.93752871472E+01 -0.46222993848E+02  0.59661074280E+02  0.00000000000E+00 0. -1.
</event>
<event>
 7    1  0.2334784E-009  0.1318193E+03  0.7561462E-02  0.1224781E+00
         -2   -1    0    0    0  501 -0.00000000000E+00  0.00000000000E+00  0.46180873106E+02  0.46180873106E+02  0.00000000000E+00 0.  1.
          2   -1    0    0  501    0  0.00000000000E+00 -0.00000000000E+00 -0.57871975439E+03  0.57871975439E+03  0.00000000000E+00 0. -1.
         25    2    1    2    0    0  0.81302103890E+02  0.60986661230E+02 -0.15144119654E+03  0.22116211075E+03  0.12509531677E+03 0.  0.
          5    1    3    3  502    0  0.38472284862E+02  0.93437833704E+02 -0.12598239193E+03  0.16155426626E+03  0.41800000000E+01 0. -1.
         -5    1    3    3    0  502  0.42829819028E+02 -0.32451172473E+02 -0.25458804609E+02  0.59607844492E+02  0.41800000000E+01 0. -1.
        -11    1    1    2    0    0 -0.30010943287E+02 -0.46438532751E+02 -0.75815845383E+02  0.93836221430E+02  0.00000000000E+00 0.  1.
         11    1    1    2    0    0 -0.51291160603E+02 -0.14548128480E+02 -0.30528183936E+03  0.30990229531E+03  0.00000000000E+00 0. -1.
</event>
<event>
 7    1  0.2334784E-009  0.1186523E+03  0.7561462E-02  0.1245337E+00
          2   -1    0    0  501    0  0.00000000000E+00  0.00000000000E+00  0.29607971759E+03  0.29607971759E+03  0.00000000000E+00 0. -1.
         -2   -1    0    0    0  501 -0.00000000000E+00 -0.00000000000E+00 -0.77088380241E+02  0.77088380241E+02  0.00000000000E+00 0.  1.
         25    2    1    2    0    0  0.24883498598E+02  0.55494431072E+02  0.22578835252E+03  0.26519358233E+03  0.12509370725E+03 0.  0.
          5    1    3    3  502    0  0.22533578982E+02 -0.33437640053E+02  0.12132559610E+03  0.12791876572E+03  0.41800000000E+01 0.  1.
         -5    1    3    3    0  502  0.23499196163E+01  0.88932071125E+02  0.10446275642E+03  0.13727481661E+03  0.41800000000E+01 0.  1.
        -11    1    1    2    0    0  0.28315729166E+02 -0.45476537513E+02 -0.16605972774E+01  0.53597141395E+02  0.00000000000E+00 0.  1.
         11    1    1    2    0    0 -0.53199227764E+02 -0.10017893559E+02 -0.51364178931E+01  0.54377374108E+02  0.00000000000E+00 0. -1.
</event>
<event>
 7    1  0.2334784E-009  0.2132947E+03  0.7561462E-02  0.1138983E+00
         -1   -1    0    0    0  501 -0.00000000000E+00  0.00000000000E+00  0.61091722402E+02  0.61091722402E+02  0.00000000000E+00 0.  1.
          1   -1    0    0  501    0  0.00000000000E+00 -0.00000000000E+00 -0.84725567686E+03  0.84725567686E+03  0.00000000000E+00 0. -1.
         25    2    1    2    0    0 -0.72439793971E+02 -0.18025224006E+03 -0.50249128654E+03  0.55306734811E+03  0.12509038613E+03 0.  0.
          5    1    3    3  502    0  0.25415329288E+02 -0.25476499445E+02 -0.16648386463E+03  0.17037998875E+03  0.41800000000E+01 0. -1.
         -5    1    3    3    0  502 -0.97855123259E+02 -0.15477574061E+03 -0.33600742191E+03  0.38268735936E+03  0.41800000000E+01 0. -1.
        -11    1    1    2    0    0 -0.53374415976E+01  0.80650735262E+02 -0.69473756140E+02  0.10658157521E+03  0.00000000000E+00 0.  1.
         11    1    1    2    0    0  0.77777235568E+02  0.99601504798E+02 -0.21419891177E+03  0.24869847594E+03  0.00000000000E+00 0. -1.
</event>
<event>
 7    1  0.2334784E-009  0.1134390E+03  0.7561462E-02  0.1254331E+00
          2   -1    0    0  501    0  0.00000000000E+00  0.00000000000E+00  0.10954618628E+03  0.10954618628E+03  0.00000000000E+00 0. -1.
         -2   -1    0    0    0  501 -0.00000000000E+00 -0.00000000000E+00 -0.13687185289E+03  0.13687185289E+03  0.00000000000E+00 0.  1.
         25    2    1    2    0    0 -0.34238353960E+02  0.38172182398E+02 -0.16879890927E+02  0.13624089276E+03  0.12508904729E+03 0.  0.
          5    1    3    3  502    0  0.26450514228E+02 -0.20003574079E+02  0.25461921719E+02  0.42018502312E+02  0.41800000000E+01 0. -1.
         -5    1    3    3    0  502 -0.60688868188E+02  0.58175756477E+02 -0.42341812647E+02  0.94222390449E+02  0.41800000000E+01 0. -1.
        -11    1    1    2    0    0  0.45325829141E+02  0.20373202102E+02 -0.94394908919E+01  0.50582626854E+02  0.00000000000E+00 0.  1.
         11    1    1    2    0    0 -0.11087475180E+02 -0.58545384500E+02 -0.10062847841E+01  0.59594519557E+02  0.00000000000E+00 0. -1.
</event>
<event>
 7    1  0.2334784E-009  0.6018144E+02  0.7561462E-02  0.1397072E+00
         -1   -1    0    0    0  501 -0.00000000000E+00  0.00000000000E+00  0.28015454738E+02  0.28015454738E+02  0.00000000000E+00 0.  1.
          1   -1    0    0  501    0  0.00000000000E+00 -0.00000000000E+00 -0.43252358330E+03  0.43252358330E+03  0.00000000000E+00 0. -1.
         25    2    1    2    0    0  0.21634156365E+00 -0.10321089714E+02 -0.25587928652E+03  0.28500268209E+03  0.12508296378E+03 0.  0.
          5    1    3    3  502    0 -0.82234554165E+01 -0.32665947451E+02 -0.66403393925E+01  0.34586931768E+02  0.41800000000E+01 0. -1.
         -5    1    3    3    0  502  0.84397969801E+01  0.22344857738E+02 -0.24923894713E+03  0.25041575032E+03  0.41800000000E+01 0. -1.
        -11    1    1    2    0    0  0.18849920437E+02  0.29576685171E+02 -0.13281966923E+02  0.37503472526E+02  0.00000000000E+00 0.  1.
         11    1    1    2    0    0 -0.19066262001E+02 -0.19255595457E+02 -0.13534687512E+03  0.13803288343E+03  0.00000000000E+00 0. -1.
</event>
<event>
 7    1  0.2334784E-009  0.1167799E+03  0.7561462E-02  0.1248506E+00
         -1   -1    0    0    0  501 -0.00000000000E+00  0.00000000000E+00  0.39648411757E+02  0.39648411757E+02  0.00000000000E+00 0.  1.
          1   -1    0    0  501    0  0.00000000000E+00 -0.00000000000E+00 -0.59786075761E+03  0.59786075761E+03  0.00000000000E+00 0. -1.
         25    2    1    2    0    0 -0.44288702087E+02 -0.53746485890E+01 -0.50181137079E+03  0.51908904436E+03  0.12509359751E+03 0.  0.
          5    1    3    3  502    0  0.25176140146E+02 -0.45710738495E+02 -0.19310864219E+03  0.20007930861E+03  0.41800000000E+01 0.  1.
         -5    1    3    3    0  502 -0.69464842233E+02  0.40336089906E+02 -0.30870272860E+03  0.31900973575E+03  0.41800000000E+01 0.  1.
        -11    1    1    2    0    0 -0.23574872953E+02 -0.17277016252E+02 -0.34885206427E+01  0.29435347825E+02  0.00000000000E+00 0.  1.
         11    1    1    2    0    0  0.67863575040E+02  0.22651664841E+02 -0.52912454419E+02  0.88984777181E+02  0.00000000000E+00 0. -1.
</event>
<event>
 7    1  0.2334784E-009  0.8157975E+02  0.7561462E-02  0.1324627E+00
         -1   -1    0    0    0  501 -0.00000000000E+00  0.00000000000E+00  0.66516612476E+02  0.66516612476E+02  0.00000000000E+00 0.  1.
          1   -1    0    0  501    0  0.00000000000E+00 -0.00000000000E+00 -0.19304067008E+03  0.19304067008E+03  0.00000000000E+00 0. -1.
         25    2    1    2    0    0  0.16922166217E+02  0.18823343922E+02 -0.10164168785E+03  0.16315393822E+03  0.12508995509E+03 0.  0.
          5    1    3    3  502    0 -0.35260362209E+02 -0.76658558366E+01 -0.97834536662E+02  0.10436056464E+03  0.41800000000E+01 0.  1.
         -5    1    3    3    0  502  0.52182528426E+02  0.26489199758E+02 -0.38071511864E+01  0.58793373580E+02  0.41800000000E+01 0.  1.
        -11    1    1    2    0    0 -0.20921353957E+02 -0.40786813452E+02  0.17042465463E+02  0.48905141162E+02  0.00000000000E+00 0.  1.
         11    1    1    2    0    0  0.39991877404E+01  0.21963469531E+02 -0.41924835220E+02  0.47498203173E+02  0.00000000000E+00 0. -1.
</event>
<event>
 7    1  0.2334784E-009  0.1385104E+03  0.7561462E-02  0.1215348E+00
         -4   -1    0    0    0  501 -0.00000000000E+00  0.00000000000E+00  0.36480748215E+03  0.36480748215E+03  0.00000000000E+00 0.  1.
          4   -1    0    0  501    0  0.00000000000E+00 -0.00000000000E+00 -0.64906849488E+02  0.64906849488E+02  0.00000000000E+00 0. -1.
         25    2    1    2    0    0  0.10396868238E+03  0.17257007172E+02  0.21501371711E+03  0.27016150816E+03  0.12509616595E+03 0.  0.
          5    1    3    3  502    0 -0.22289385306E+01  0.40488784894E+02  0.16871304955E+02  0.44118286459E+02  0.41800000000E+01 0. -1.
         -5    1    3    3    0  502  0.10619762091E+03 -0.23231777723E+02  0.19814241215E+03  0.22604322170E+03  0.41800000000E+01 0. -1.
        -11    1    1    2    0    0  0.46642330803E+01 -0.18242161711E+02  0.35568502772E+02  0.40244874501E+02  0.00000000000E+00 0.  1.
         11    1    1    2    0    0 -0.10863291546E+03  0.98515453941E+00  0.49318412781E+02  0.11930794898E+03  0.00000000000E+00 0. -1.
</event>
<event>
 7    1  0.2334784E-009  0.5721187E+02  0.7561462E-02  0.1409919E+00
          1   -1    0    0  501    0  0.00000000000E+00  0.00000000000E+00  0.31337198632E+02  0.31337198632E+02  0.00000000000E+00 0. -1.
         -1   -1    0    0    0  501 -0.00000000000E+00 -0.00000000000E+00 -0.39463753389E+03  0.39463753389E+03  0.00000000000E+00 0.  1.
         25    2    1    2    0    0 -0.16682680465E+02  0.10783073200E+02 -0.24512654218E+03  0.27591436490E+03  0.12508848302E+03 0.  0.
          5    1    3    3  502    0 -0.27757478870E+02  0.31070049835E+01  0.20680491817E+01  0.28317491778E+02  0.41800000000E+01 0. -1.
         -5    1    3    3    0  502  0.11074798405E+02  0.76760682167E+01 -0.24719459136E+03  0.24759687313E+03  0.41800000000E+01 0. -1.
        -11    1    1    2    0    0  0.43209094160E+02  0.58680454620E+00 -0.11267954798E+03  0.12068160875E+03  0.00000000000E+00 0.  1.
         11    1    1    2    0    0 -0.26526413695E+02 -0.11369877746E+02 -0.54942451004E+01  0.29378758869E+02  0.00000000000E+00 0. -1.
</event>
<event>
 7    1  0.2334784E-009  0.3341953E+03  0.7561462E-02  0.1069296E+00
         -1   -1    0    0    0  501 -0.00000000000E+00  0.00000000000E+00  0.11466341913E+03  0.11466341913E+03  0.00000000000E+00 0.  1.
          1   -1    0    0  501    0  0.00000000000E+00 -0.00000000000E+00 -0.10399445157E+04  0.10399445157E+04  0.00000000000E+00 0. -1.
         25    2    1    2    0    0 -0.14166312404E+03  0.29323870497E+03 -0.40726829593E+03  0.53626235693E+03  0.12510983889E+03 0.  0.
          5    1    3    3  502    0 -0.27896838638E+02  0.16981639000E+03 -0.14614586059E+03  0.22581391651E+03  0.41800000000E+01 0.  1.
         -5    1    3    3    0  502 -0.11376628540E+03  0.12342231496E+03 -0.26112243534E+03  0.31044844043E+03  0.41800000000E+01 0.  1.
        -11    1    1    2    0    0  0.10833438696E+03 -0.25806864757E+03 -0.37909773534E+03  0.47122272780E+03  0.00000000000E+00 0.  1.
         11    1    1    2    0    0  0.33328737075E+02 -0.35170057402E+02 -0.13891506533E+03  0.14712285012E+03  0.00000000000E+00 0. -1.
</event>
<event>
 7    1  0.2334784E-009  0.1350917E+03  0.7561462E-02  0.1220090E+00
          1   -1    0    0  501    0  0.00000000000E+00  0.00000000000E+00  0.10748035600E+03  0.10748035600E+03  0.00000000000E+00 0. -1.
         -1   -1    0    0    0  501 -0.00000000000E+00 -0.00000000000E+00 -0.22690909019E+03  0.22690909019E+03  0.00000000000E+00 0.  1.
         25    2    1    2    0    0  0.33122595127E+02  0.94048260519E+02 -0.11853836169E+03  0.19909690273E+03  0.12508417914E+03 0.  0.
          5    1    3    3  502    0 -0.19661016016E+02 -0.20454507180E+02 -0.44146619527E+02  0.52643507011E+02  0.41800000000E+01 0.  1.
         -5    1    3    3    0  502  0.52783611143E+02  0.11450276770E+03 -0.74391742163E+02  0.14645339572E+03  0.41800000000E+01 0.  1.
        -11    1    1    2    0    0  0.17362576843E+01 -0.76146431401E+02  0.33450332307E+02  0.83187849698E+02  0.00000000000E+00 0. -1.
         11    1    1    2    0    0 -0.34858852811E+02 -0.17901829118E+02 -0.34340704811E+02  0.52104693762E+02  0.00000000000E+00 0.  1.
</event>
<event>
 7    1  0.2334784E-009  0.1016030E+03  0.7561462E-02  0.1276961E+00
         -1   -1    0    0    0  501 -0.00000000000E+00  0.00000000000E+00  0.12192107928E+03  0.12192107928E+03  0.00000000000E+00 0.  1.
          1   -1    0    0  501    0  0.00000000000E+00 -0.00000000000E+00 -0.22694587688E+03  0.22694587688E+03  0.00000000000E+00 0. -1.
         25    2    1    2    0    0 -0.11697412753E+02 -0.35698235436E+01 -0.18723968752E+03  0.22551500562E+03  0.12509494025E+03 0.  0.
          5    1    3    3  502    0  0.38804886228E+02 -0.34425354820E+02 -0.36630377314E+02  0.63641033868E+02  0.41800000000E+01 0. -1.
         -5    1    3    3    0  502 -0.50502298981E+02  0.30855531276E+02 -0.15060931020E+03  0.16187397176E+03  0.41800000000E+01 0. -1.
        -11    1    1    2    0    0  0.49755875580E+02 -0.11215847816E+02  0.42457709332E+02  0.66363389596E+02  0.00000000000E+00 0.  1.
         11    1    1    2    0    0 -0.38058462827E+02  0.14785671359E+02  0.39757180578E+02  0.56988560938E+02  0.00000000000E+00 0. -1.
</event>
<event>
 7    1  0.2334784E-009  0.1062084E+03  0.7561462E-02  0.1267757E+00
         -2   -1    0    0    0  501 -0.00000000000E+00  0.00000000000E+00  0.48721209238E+02  0.48721209238E+02  0.00000000000E+00 0.  1.
          2   -1    0    0  501    0  0.00000000000E+00 -0.00000000000E+00 -0.43646891712E+03  0.43646891712E+03  0.00000000000E+00 0. -1.
         25    2    1    2    0    0  0.41452490120E+02 -0.33190687109E+02 -0.73272863816E+02  0.15439076227E+03  0.12509062416E+03 0.  0.
          5    1    3    3  502    0  0.26634578759E+02  0.36458915107E+02 -0.69469245900E+02  0.82958434184E+02  0.41800000000E+01 0.  1.
         -5    1    3    3    0  502  0.14817911361E+02 -0.69649602216E+02 -0.38036179161E+01  0.71432328082E+02  0.41800000000E+01 0.  1.
        -11    1    1    2    0    0 -0.66410356812E+01  0.54514742146E+02 -0.23640801611E+03  0.24270292653E+03  0.00000000000E+00 0. -1.
         11    1    1    2    0    0 -0.34811454439E+02 -0.21324055037E+02 -0.78066827953E+02  0.88096437556E+02  0.00000000000E+00 0.  1.
</event>
<event>
 7    1  0.2334784E-009  0.1130296E+03  0.7561462E-02  0.1255060E+00
          4   -1    0    0  501    0  0.00000000000E+00  0.00000000000E+00  0.10512977162E+03  0.10512977162E+03  0.00000000000E+00 0. -1.
         -4   -1    0    0    0  501 -0.00000000000E+00 -0.00000000000E+00 -0.15201811877E+03  0.15201811877E+03  0.00000000000E+00 0.  1.
         25    2    1    2    0    0 -0.10261469891E+02 -0.62672882065E+02 -0.24644578541E+02  0.14243563927E+03  0.12508944069E+03 0.  0.
          5    1    3    3  502    0 -0.28756669962E+02  0.18033090249E+02 -0.45528105886E+02  0.56942244746E+02  0.41800000000E+01 0. -1.
         -5    1    3    3    0  502  0.18495200072E+02 -0.80705972314E+02  0.20883527344E+02  0.85493394524E+02  0.41800000000E+01 0. -1.
        -11    1    1    2    0    0  0.48421437160E+02  0.47681300416E+02  0.23053851324E+00  0.67957303758E+02  0.00000000000E+00 0. -1.
         11    1    1    2    0    0 -0.38159967270E+02  0.14991581649E+02 -0.22474307127E+02  0.46754947366E+02  0.00000000000E+00 0.  1.
</event>
<event>
 7    1  0.2334784E-009  0.8615979E+02  0.7561462E-02  0.1312427E+00
         -4   -1    0    0    0  501 -0.00000000000E+00  0.00000000000E+00  0.71338371041E+02  0.71338371041E+02  0.00000000000E+00 0.  1.
          4   -1    0    0  501    0  0.00000000000E+00 -0.00000000000E+00 -0.17989955978E+03  0.17989955978E+03  0.00000000000E+00 0. -1.
         25    2    1    2    0    0  0.72795270752E+01 -0.30918219610E+01 -0.87003083645E+02  0.15257713905E+03  0.12509075074E+03 0.  0.
          5    1    3    3  502    0  0.42191404388E+02 -0.56632251276E+01  0.14468706922E+02  0.45155316443E+02  0.41800000000E+01 0.  1.
         -5    1    3    3    0  502 -0.34911877312E+02  0.25714031666E+01 -0.10147179057E+03  0.10742182261E+03  0.41800000000E+01 0.  1.
        -11    1    1    2    0    0  0.32471787611E+02 -0.28740435739E+02 -0.10851746484E-01  0.43363922273E+02  0.00000000000E+00 0.  1.
         11    1    1    2    0    0 -0.39751314686E+02  0.31832257700E+02 -0.21547253352E+02  0.55296869501E+02  0.00000000000E+00 0. -1.
</event>
<event>
 7    1  0.2334784E-009  0.8800577E+02  0.7561462E-02  0.1307754E+00
          2   -1    0    0  501    0  0.00000000000E+00  0.00000000000E+00  0.65549774749E+02  0.65549774749E+02  0.00000000000E+00 0. -1.
         -2   -1    0    0    0  501 -0.00000000000E+00 -0.00000000000E+00 -0.18228994888E+03  0.18228994888E+03  0.00000000000E+00 0.  1.
         25    2    1    2    0    0 -0.77736520501E+01  0.14806369676E+02 -0.74369151934E+02  0.14648253996E+03  0.12508679189E+03 0.  0.
          5    1    3    3  502    0  0.27970111235E+02 -0.28468099459E+02  0.13323628968E+02  0.42281808123E+02  0.41800000000E+01 0.  1.
         -5    1    3    3    0  502 -0.35743763285E+02  0.43274469135E+02 -0.87692780902E+02  0.10420073184E+03  0.41800000000E+01 0.  1.
        -11    1    1    2    0    0  0.25478149024E+02 -0.40829215746E+02  0.55365483040E+00  0.48129694262E+02  0.00000000000E+00 0. -1.
         11    1    1    2    0    0 -0.17704496973E+02  0.26022846070E+02 -0.42924677024E+02  0.53227489404E+02  0.00000000000E+00 0.  1.
</event>
<event>
 7    1  0.2334784E-009  0.1036410E+03  0.7561462E-02  0.1272821E+00
          1   -1    0    0  501    0  0.00000000000E+00  0.00000000000E+00  0.22064926638E+02  0.22064926638E+02  0.00000000000E+00 0. -1.
         -1   -1    0    0    0  501 -0.00000000000E+00 -0.00000000000E+00 -0.71282649908E+03  0.71282649908E+03  0.00000000000E+00 0.  1.
         25    2    1    2    0    0  0.39130633226E+02 -0.12486197247E+02 -0.51907026214E+03  0.53550707560E+03  0.12508708730E+03 0.  0.
          5    1    3    3  502    0 -0.42456944189E+02  0.14309910817E+01 -0.10727367427E+03  0.11545455139E+03  0.41800000000E+01 0. -1.
         -5    1    3    3    0  502  0.81587577414E+02 -0.13917188329E+02 -0.41179658787E+03  0.42005252421E+03  0.41800000000E+01 0. -1.
        -11    1    1    2    0    0 -0.24072403212E+02 -0.28941745516E+02 -0.22586834176E+02  0.43900686874E+02  0.00000000000E+00 0. -1.
         11    1    1    2    0    0 -0.15058230014E+02  0.41427942763E+02 -0.14910447613E+03  0.15548366324E+03  0.00000000000E+00 0.  1.
</event>
<event>
 7    1  0.2334784E-009  0.2328003E+03  0.7561462E-02  0.1124684E+00
         -2   -1    0    0    0  501 -0.00000000000E+00  0.00000000000E+00  0.19781490352E+02  0.19781490352E+02  0.00000000000E+00 0.  1.
          2   -1    0    0  501    0  0.00000000000E+00 -0.00000000000E+00 -0.30436151300E+04  0.30436151300E+04  0.00000000000E+00 0. -1.
         25    2    1    2    0    0 -0.68414228400E+02  0.20115672638E+03 -0.19169992623E+04  0.19327903783E+04  0.12509172510E+03 0.  0.
          5    1    3    3  502    0 -0.81049622088E+02  0.71144379185E+02 -0.63056472285E+03  0.63973424641E+03  0.41800000000E+01 0. -1.
         -5    1    3    3    0  502  0.12635393688E+02  0.13001234719E+03 -0.12864345395E+04  0.12930561319E+04  0.41800000000E+01 0. -1.
        -11    1    1    2    0    0 -0.10958746323E+02 -0.88482141188E+02 -0.34065694041E+03  0.35213113250E+03  0.00000000000E+00 0. -1.
         11    1    1    2    0    0  0.79372974723E+02 -0.11267458519E+03 -0.76617743692E+03  0.77847510950E+03  0.00000000000E+00 0.  1.
</event>
<event>
 7    1  0.2334784E-009  0.1044323E+03  0.7561462E-02  0.1271242E+00
          2   -1    0    0  501    0  0.00000000000E+00  0.00000000000E+00  0.64632628699E+02  0.64632628699E+02  0.00000000000E+00 0. -1.
         -2   -1    0    0    0  501 -0.00000000000E+00 -0.00000000000E+00 -0.26243306850E+03  0.26243306850E+03  0.00000000000E+00 0.  1.
         25    2    1    2    0    0  0.11884689775E+01 -0.16111398981E+02 -0.19769378433E+03  0.23450087616E+03  0.12508732517E+03 0.  0.
          5    1    3    3  502    0  0.60957856843E+02  0.60603888998E+00 -0.12265130328E+03  0.13702934792E+03  0.41800000000E+01 0.  1.
         -5    1    3    3    0  502 -0.59769387866E+02 -0.16717437871E+02 -0.75042481055E+02  0.97471528241E+02  0.41800000000E+01 0.  1.
        -11    1    1    2    0    0  0.11386050152E+02 -0.32974869056E+02  0.17361971513E+02  0.38966937039E+02  0.00000000000E+00 0. -1.
         11    1    1    2    0    0 -0.12574519129E+02  0.49086268038E+02 -0.17468626982E+02  0.53597884005E+02  0.00000000000E+00 0.  1.
</event>
<event>
 7    1  0.2334784E-009  0.1628169E+03  0.7561462E-02  0.1185553E+00
          1   -1    0    0  501    0  0.00000000000E+00  0.00000000000E+00  0.18199508021E+03  0.18199508021E+03  0.00000000000E+00 0.  1.
         -1   -1    0    0    0  501 -0.00000000000E+00 -0.00000000000E+00 -0.23648463004E+03  0.23648463004E+03  0.00000000000E+00 0. -1.
         25    2    1    2    0    0  0.12537434307E+02 -0.62689655965E+02  0.13385639073E+02  0.14111692649E+03  0.12509049279E+03 0.  0.
          5    1    3    3  502    0  0.64791881729E+01 -0.33361933166E+02 -0.55881375010E+02  0.65537767257E+02  0.41800000000E+01 0. -1.
         -5    1    3    3    0  502  0.60582461344E+01 -0.29327722799E+02  0.69267014083E+02  0.75579159236E+02  0.41800000000E+01 0. -1.
        -11    1    1    2    0    0  0.43919321848E+02 -0.89029030934E+02 -0.58459558743E+02  0.11520674975E+03  0.00000000000E+00 0.  1.
         11    1    1    2    0    0 -0.56456756155E+02  0.15171868690E+03 -0.94156301620E+01  0.16215603400E+03  0.00000000000E+00 0. -1.
</event>
<event>
 7    1  0.2334784E-009  0.1349999E+03  0.7561462E-02  0.1220220E+00
         -1   -1    0    0    0  501 -0.00000000000E+00  0.00000000000E+00  0.11452473794E+03  0.11452473794E+03  0.00000000000E+00 0.  1.
          1   -1    0    0  501    0  0.00000000000E+00 -0.00000000000E+00 -0.22019268638E+03  0.22019268638E+03  0.00000000000E+00 0. -1.
         25    2    1    2    0    0 -0.43599023272E+02 -0.86743572822E+02 -0.12444538865E+03  0.20139911585E+03  0.12509846863E+03 0.  0.
          5    1    3    3  502    0 -0.81934510156E+02 -0.76073692046E+02 -0.11467204098E+03  0.16021117301E+03  0.41800000000E+01 0. -1.
         -5    1    3    3    0  502  0.38335486884E+02 -0.10669880776E+02 -0.97733476713E+01  0.41187942836E+02  0.41800000000E+01 0. -1.
        -11    1    1    2    0    0  0.61861218685E+02  0.65648546804E+02  0.39590823279E+02  0.98508757796E+02  0.00000000000E+00 0.  1.
         11    1    1    2    0    0 -0.18262195413E+02  0.21095026018E+02 -0.20813383066E+02  0.34809550681E+02  0.00000000000E+00 0. -1.
</event>
<event>
 7    1  0.2334784E-009  0.1177680E+03  0.7561462E-02  0.1246825E+00
         -1   -1    0    0    0  501 -0.00000000000E+00  0.00000000000E+00  0.52646267891E+02  0.52646267891E+02  0.00000000000E+00 0.  1.
          1   -1    0    0  501    0  0.00000000000E+00 -0.00000000000E+00 -0.29129118996E+03  0.29129118996E+03  0.00000000000E+00 0. -1.
         25    2    1    2    0    0 -0.12844425482E+02 -0.51439089370E+02 -0.18216971769E+03  0.22724515070E+03  0.12507435105E+03 0.  0.
          5    1    3    3  502    0  0.55191821638E+02 -0.34884762883E+02 -0.80696241478E+02  0.10388666732E+03  0.41800000000E+01 0.  1.
         -5    1    3    3    0  502 -0.68036247120E+02 -0.16554326486E+02 -0.10147347621E+03  0.12335848338E+03  0.41800000000E+01 0.  1.
        -11    1    1    2    0    0 -0.33500402219E+02  0.40100415365E+02 -0.41369251052E+02  0.66646344190E+02  0.00000000000E+00 0.  1.
         11    1    1    2    0    0  0.46344827701E+02  0.11338674005E+02 -0.15105953322E+02  0.50045962960E+02  0.00000000000E+00 0. -1.
</event>
<event>
 7    1  0.2334784E-009  0.2236354E+03  0.7561462E-02  0.1131201E+00
          1   -1    0    0  501    0  0.00000000000E+00  0.00000000000E+00  0.13129189939E+04  0.13129189939E+04  0.00000000000E+00 0. -1.
         -1   -1    0    0    0  501 -0.00000000000E+00 -0.00000000000E+00 -0.49964653830E+02  0.49964653830E+02  0.00000000000E+00 0.  1.
         25    2    1    2    0    0 -0.19728902677E+03  0.69396196264E+02  0.91836511149E+03  0.95014714000E+03  0.12508524097E+03 0.  0.
          5    1    3    3  502    0 -0.99586583627E+02  0.91817608660E+02  0.64165451811E+03  0.65580938840E+03  0.41800000000E+01 0.  1.
         -5    1    3    3    0  502 -0.97702443140E+02 -0.22421412396E+02  0.27671059338E+03  0.29433775160E+03  0.41800000000E+01 0.  1.
        -11    1    1    2    0    0  0.48532231055E+02 -0.31686116138E+02  0.36370947198E+02  0.68426845661E+02  0.00000000000E+00 0.  1.
         11    1    1    2    0    0  0.14875679571E+03 -0.37710080126E+02  0.30821828134E+03  0.34430966203E+03  0.00000000000E+00 0. -1.
</event>
<event>
 7    1  0.2334784E-009  0.2838300E+03  0.7561462E-02  0.1093615E+00
         -1   -1    0    0    0  501 -0.00000000000E+00  0.00000000000E+00  0.20727329178E+03  0.20727329178E+03  0.00000000000E+00 0.  1.
          1   -1    0    0  501    0  0.00000000000E+00 -0.00000000000E+00 -0.82446650669E+03  0.82446650669E+03  0.00000000000E+00 0. -1.
         25    2    1    2    0    0  0.34643521877E+02 -0.26899964938E+03  0.52594429359E+02  0.30327615166E+03  0.12509702311E+03 0.  0.
          5    1    3    3  502    0  0.53452251618E+02 -0.40853973041E+02  0.28037207331E+02  0.73005121129E+02  0.41800000000E+01 0.  1.
         -5    1    3    3    0  502 -0.18808729741E+02 -0.22814567634E+03  0.24557222029E+02  0.23027103053E+03  0.41800000000E+01 0.  1.
        -11    1    1    2    0    0 -0.13812053389E+02  0.84194619551E+02 -0.11403976745E+03  0.14242392825E+03  0.00000000000E+00 0.  1.
         11    1    1    2    0    0 -0.20831468488E+02  0.18480502983E+03 -0.55574787682E+03  0.58603971855E+03  0.00000000000E+00 0. -1.
</event>
<event>
 7    1  0.2334784E-009  0.7681946E+02  0.7561462E-02  0.1338328E+00
         -1   -1    0    0    0  501 -0.00000000000E+00  0.00000000000E+00  0.67167240092E+02  0.67167240092E+02  0.00000000000E+00 0.  1.
          1   -1    0    0  501    0  0.00000000000E+00 -0.00000000000E+00 -0.22312298948E+03  0.22312298948E+03  0.00000000000E+00 0. -1.
         25    2    1    2    0    0  0.28697888932E+02  0.22251527170E+02 -0.35439041886E+02  0.13498574811E+03  0.12508607921E+03 0.  0.
          5    1    3    3  502    0  0.44366797194E+02  0.34101461789E+02  0.32015241723E+02  0.64604724997E+02  0.41800000000E+01 0. -1.
         -5    1    3    3    0  502 -0.15668908262E+02 -0.11849934619E+02 -0.67454283609E+02  0.70381023109E+02  0.41800000000E+01 0. -1.
        -11    1    1    2    0    0 -0.11468221186E+02 -0.46387998190E+02 -0.11580625090E+03  0.12527750883E+03  0.00000000000E+00 0. -1.
         11    1    1    2    0    0 -0.17229667746E+02  0.24136471020E+02 -0.47104566065E+01  0.30026972631E+02  0.00000000000E+00 0.  1.
</event>
<event>
 7    1  0.2334784E-009  0.1029740E+03  0.7561462E-02  0.1274163E+00
         -2   -1    0    0    0  501 -0.00000000000E+00  0.00000000000E+00  0.50737361317E+03  0.50737361317E+03  0.00000000000E+00 0.  1.
          2   -1    0    0  501    0  0.00000000000E+00 -0.00000000000E+00 -0.24381145087E+02  0.24381145087E+02  0.00000000000E+00 0. -1.
         25    2    1    2    0    0 -0.19218387137E+02 -0.43716240453E+01  0.25463180005E+03  0.28440657342E+03  0.12514506744E+03 0.  0.
          5    1    3    3  502    0 -0.23068487589E+02 -0.59037961741E+02  0.18558925571E+03  0.19615932371E+03  0.41800000000E+01 0.  1.
         -5    1    3    3    0  502  0.38501004516E+01  0.54666337696E+02  0.69042544343E+02  0.88247249702E+02  0.41800000000E+01 0.  1.
        -11    1    1    2    0    0 -0.33783589426E+02  0.65725405402E+01  0.46136306870E+02  0.57559430289E+02  0.00000000000E+00 0.  1.
         11    1    1    2    0    0  0.53001976563E+02 -0.22009164949E+01  0.18222436116E+03  0.18978875455E+03  0.00000000000E+00 0. -1.
</event>
<event>
 7    1  0.2334784E-009  0.1037598E+03  0.7561462E-02  0.1272582E+00
         -1   -1    0    0    0  501 -0.00000000000E+00  0.00000000000E+00  0.16295795298E+03  0.16295795298E+03  0.00000000000E+00 0.  1.
          1   -1    0    0  501    0  0.00000000000E+00 -0.00000000000E+00 -0.10309752530E+03  0.10309752530E+03  0.00000000000E+00 0. -1.
         25    2    1    2    0    0  0.88593972676E+01 -0.24516699455E+02  0.10236161152E+03  0.16372084302E+03  0.12508819869E+03 0.  0.
          5    1    3    3  502    0  0.26028034262E+02 -0.65413597186E+02  0.95386123629E+02  0.11862707214E+03  0.41800000000E+01 0. -1.
         -5    1    3    3    0  502 -0.17168636995E+02  0.40896897731E+02  0.69754878926E+01  0.45093770873E+02  0.41800000000E+01 0. -1.
        -11    1    1    2    0    0 -0.29081215695E+02  0.51248186222E+02 -0.21209763744E+02  0.62625456289E+02  0.00000000000E+00 0. -1.
         11    1    1    2    0    0  0.20221818427E+02 -0.26731486767E+02 -0.21291420100E+02  0.39709178979E+02  0.00000000000E+00 0.  1.
</event>
<event>
 7    1  0.2334784E-009  0.3861364E+03  0.7561462E-02  0.1048689E+00
          2   -1    0    0  501    0  0.00000000000E+00  0.00000000000E+00  0.30291223170E+04  0.30291223170E+04  0.00000000000E+00 0. -1.
         -2   -1    0    0    0  501 -0.00000000000E+00 -0.00000000000E+00 -0.72453904168E+02  0.72453904168E+02  0.00000000000E+00 0.  1.
         25    2    1    2    0    0 -0.34859397577E+03  0.14581457784E+03  0.23324841907E+04  0.23662015924E+04  0.12509126689E+03 0.  0.
          5    1    3    3  502    0 -0.22919659104E+03  0.13559393595E+03  0.18483282955E+04  0.18674184729E+04  0.41800000000E+01 0. -1.
         -5    1    3    3    0  502 -0.11939738473E+03  0.10220641895E+02  0.48415589523E+03  0.49878311949E+03  0.41800000000E+01 0. -1.
        -11    1    1    2    0    0  0.98692884905E+02 -0.81480133249E+02  0.16710972021E+03  0.21048742536E+03  0.00000000000E+00 0. -1.
         11    1    1    2    0    0  0.24990109087E+03 -0.64334444591E+02  0.45707450193E+03  0.52488720340E+03  0.00000000000E+00 0.  1.
</event>
<event>
 6    1  0.2334784E-009  0.1160943E+03  0.7561462E-02  0.1249683E+00
         -1   -1    0    0    0  501 -0.00000000000E+00  0.00000000000E+00  0.27587715140E+03  0.27587715140E+03  0.00000000000E+00 0.  1.
          1   -1    0    0  501    0  0.00000000000E+00 -0.00000000000E+00 -0.69177992188E+02  0.69177992188E+02  0.00000000000E+00 0. -1.
          5    1    1    2  502    0  0.23961263771E+02 -0.90803529422E+01  0.88803697199E+02  0.92521154377E+02  0.41800000000E+01 0. -1.
         -5    1    1    2    0  502 -0.77572358075E+02  0.65292613358E+02  0.65808599439E+02  0.12094974269E+03  0.41800000000E+01 0. -1.
        -11    1    1    2    0    0  0.63209320712E+01 -0.57099119736E+02 -0.47467503006E+01  0.57643692589E+02  0.00000000000E+00 0. -1.
         11    1    1    2    0    0  0.47290162232E+02  0.88685931938E+00  0.56833612870E+02  0.73940553929E+02  0.00000000000E+00 0.  1.
</event>
<event>
 7    1  0.2334784E-009  0.7995566E+02  0.7561462E-02  0.1329177E+00
          2   -1    0    0  501    0  0.00000000000E+00  0.00000000000E+00  0.20829532772E+03  0.20829532772E+03  0.00000000000E+00 0.  1.
         -2   -1    0    0    0  501 -0.00000000000E+00 -0.00000000000E+00 -0.75268960800E+02  0.75268960800E+02  0.00000000000E+00 0. -1.
         25    2    1    2    0    0  0.28286488079E+02 -0.13610275898E+01  0.14639912494E+02  0.12908742636E+03  0.12508900353E+03 0.  0.
          5    1    3    3  502    0  0.48008766025E+02 -0.47846792580E+02 -0.16141721428E+02  0.69801036855E+02  0.41800000000E+01 0. -1.
         -5    1    3    3    0  502 -0.19722277946E+02  0.46485764990E+02  0.30781633922E+02  0.59286389509E+02  0.41800000000E+01 0. -1.
        -11    1    1    2    0    0 -0.33647786565E+01  0.13285900541E+02 -0.13790960385E+02  0.19442928712E+02  0.00000000000E+00 0. -1.
         11    1    1    2    0    0 -0.24921709423E+02 -0.11924872951E+02  0.13217741481E+03  0.13503393344E+03  0.00000000000E+00 0.  1.
</event>
<event>
 7    1  0.2334784E-009  0.1318761E+03  0.7561462E-02  0.1224698E+00
         -1   -1    0    0    0  501 -0.00000000000E+00  0.00000000000E+00  0.26856974294E+02  0.26856974294E+02  0.00000000000E+00 0.  1.
          1   -1    0    0  501    0  0.00000000000E+00 -0.00000000000E+00 -0.79519802382E+03  0.79519802382E+03  0.00000000000E+00 0. -1.
         25    2    1    2    0    0 -0.39633551387E+02 -0.87512267692E+02 -0.35915732120E+03  0.39226383540E+03  0.12509084620E+03 0.  0.
          5    1    3    3  502    0 -0.27958555274E+02  0.13331755235E+02 -0.20671547360E+03  0.20906500410E+03  0.41800000000E+01 0.  1.
         -5    1    3    3    0  502 -0.11674996113E+02 -0.10084402293E+03 -0.15244184759E+03  0.18319883131E+03  0.41800000000E+01 0.  1.
        -11    1    1    2    0    0 -0.20344191899E+02  0.62819334112E+02 -0.18598896377E+03  0.19736273591E+03  0.00000000000E+00 0. -1.
         11    1    1    2    0    0  0.59977743286E+02  0.24692933580E+02 -0.22319476456E+03  0.23242842680E+03  0.00000000000E+00 0.  1.
</event>
<event>
 7    1  0.2334784E-009  0.1142795E+03  0.7561462E-02  0.1252844E+00
         -1   -1    0    0    0  501 -0.00000000000E+00  0.00000000000E+00  0.28971979237E+02  0.28971979237E+02  0.00000000000E+00 0.  1.
          1   -1    0    0  501    0  0.00000000000E+00 -0.00000000000E+00 -0.56152839628E+03  0.56152839628E+03  0.00000000000E+00 0. -1.
         25    2    1    2    0    0  0.15755819904E+02 -0.62674068054E+02 -0.25802695801E+03  0.29394372644E+03  0.12509483837E+03 0.  0.
          5    1    3    3  502    0  0.35656753755E+02 -0.92050236478E+02 -0.22300957176E+03  0.24391677192E+03  0.41800000000E+01 0. -1.
         -5    1    3    3    0  502 -0.19900933850E+02  0.29376168424E+02 -0.35017386245E+02  0.50026954523E+02  0.41800000000E+01 0. -1.
        -11    1    1    2    0    0  0.27092579125E+02  0.21282541947E+02 -0.19026501048E+03  0.19335906663E+03  0.00000000000E+00 0. -1.
         11    1    1    2    0    0 -0.42848399030E+02  0.41391526107E+02 -0.84264448556E+02  0.10319758245E+03  0.00000000000E+00 0.  1.
</event>
<event>
 7    1  0.2334784E-009  0.1009856E+03  0.7561462E-02  0.1278237E+00
          1   -1    0    0  501    0  0.00000000000E+00  0.00000000000E+00  0.49682874094E+02  0.49682874094E+02  0.00000000000E+00 0. -1.
         -1   -1    0    0    0  501 -0.00000000000E+00 -0.00000000000E+00 -0.27071885028E+03  0.27071885028E+03  0.00000000000E+00 0.  1.
         25    2    1    2    0    0 -0.48100332025E+01 -0.22866083910E+02 -0.85777707492E+02  0.15346479646E+03  0.12509050499E+03 0.  0.
          5    1    3    3  502    0  0.27023939982E+02  0.36861586341E+02 -0.23536522881E+01  0.45957392863E+02  0.41800000000E+01 0. -1.
         -5    1    3    3    0  502 -0.31833973185E+02 -0.59727670251E+02 -0.83424055204E+02  0.10750740360E+03  0.41800000000E+01 0. -1.
        -11    1    1    2    0    0  0.34575873462E+02 -0.16985473440E+02 -0.24852654502E+02  0.45843775689E+02  0.00000000000E+00 0. -1.
         11    1    1    2    0    0 -0.29765840259E+02  0.39851557351E+02 -0.11040561419E+03  0.12109315222E+03  0.00000000000E+00 0.  1.
</event>
<event>
 7    1  0.2334784E-009  0.9929125E+02  0.7561462E-02  0.1281793E+00
         -3   -1    0    0    0  501 -0.00000000000E+00  0.00000000000E+00  0.48187255205E+03  0.48187255205E+03  0.00000000000E+00 0.  1.
          3   -1    0    0  501    0  0.00000000000E+00 -0.00000000000E+00 -0.26075004235E+02  0.26075004235E+02  0.00000000000E+00 0. -1.
         25    2    1    2    0    0  0.23501065458E+02 -0.15183692290E+02  0.23716090448E+03  0.26958540660E+03  0.12509257471E+03 0.  0.
          5    1    3    3  502    0  0.23204252130E+02 -0.68021064301E+02  0.16525761066E+03  0.18025773988E+03  0.41800000000E+01 0. -1.
         -5    1    3    3    0  502  0.29681332773E+00  0.52837372011E+02  0.71903293816E+02  0.89327666715E+02  0.41800000000E+01 0. -1.
        -11    1    1    2    0    0 -0.39344041043E+02 -0.12848008056E+02  0.42563238060E+02  0.59368797450E+02  0.00000000000E+00 0. -1.
         11    1    1    2    0    0  0.15842975585E+02  0.28031700346E+02  0.17607340528E+03  0.17899335224E+03  0.00000000000E+00 0.  1.
</event>
<event>
 7    1  0.2334784E-009  0.1252829E+03  0.7561462E-02  0.1234628E+00
         -1   -1    0    0    0  501 -0.00000000000E+00  0.00000000000E+00  0.28417879317E+02  0.28417879317E+02  0.00000000000E+00 0.  1.
          1   -1    0    0  501    0  0.00000000000E+00 -0.00000000000E+00 -0.62833778217E+03  0.62833778217E+03  0.00000000000E+00 0. -1.
         25    2    1    2    0    0 -0.57836545930E+02  0.43070939318E+02 -0.26356224703E+03  0.30049571807E+03  0.12502978310E+03 0.  0.
          5    1    3    3  502    0 -0.90842881926E+02  0.18686526395E+02 -0.22746820012E+03  0.24568449266E+03  0.41800000000E+01 0. -1.
         -5    1    3    3    0  502  0.33006335996E+02  0.24384412923E+02 -0.36094046911E+02  0.54811225419E+02  0.41800000000E+01 0. -1.
        -11    1    1    2    0    0  0.65905378824E+02  0.65267726979E+01 -0.21305990835E+03  0.22311575978E+03  0.00000000000E+00 0. -1.
         11    1    1    2    0    0 -0.80688328936E+01 -0.49597712016E+02 -0.12329774747E+03  0.13314418362E+03  0.00000000000E+00 0.  1.
</event>
<event>
 7    1  0.2334784E-009  0.2900984E+03  0.7561462E-02  0.1090298E+00
         -2   -1    0    0    0  501 -0.00000000000E+00  0.00000000000E+00  0.35210116797E+03  0.35210116797E+03  0.00000000000E+00 0. -1.
          2   -1    0    0  501    0  0.00000000000E+00 -0.00000000000E+00 -0.25185395225E+03  0.25185395225E+03  0.00000000000E+00 0.  1.
         25    2    1    2    0    0 -0.84565138386E+02  0.26334168234E+03  0.36650542051E+02  0.30576267332E+03  0.12508975128E+03 0.  0.
          5    1    3    3  502    0 -0.11112481286E+03  0.24953124370E+03  0.35802385165E+02  0.27552467911E+03  0.41800000000E+01 0.  1.
         -5    1    3    3    0  502  0.26559674476E+02  0.13810438640E+02  0.84815688631E+00  0.30237994209E+02  0.41800000000E+01 0.  1.
        -11    1    1    2    0    0  0.66650424779E+02 -0.22028080873E+03  0.14688516004E+02  0.23061150517E+03  0.00000000000E+00 0.  1.
         11    1    1    2    0    0  0.17914713607E+02 -0.43060873611E+02  0.48908157656E+02  0.67580941729E+02  0.00000000000E+00 0. -1.
</event>
<event>
 7    1  0.2334784E-009  0.8268709E+02  0.7561462E-02  0.1321594E+00
         -2   -1    0    0    0  501 -0.00000000000E+00  0.00000000000E+00  0.16262526159E+03  0.16262526159E+03  0.00000000000E+00 0.  1.
          2   -1    0    0  501    0  0.00000000000E+00 -0.00000000000E+00 -0.81311986161E+02  0.81311986161E+02  0.00000000000E+00 0. -1.
         25    2    1    2    0    0 -0.43141114357E+01 -0.29410032613E+02  0.25793688062E+02  0.13113710064E+03  0.12509221896E+03 0.  0.
          5    1    3    3  502    0 -0.34457418590E+02 -0.21849542216E+02 -0.40600135389E+02  0.57711000551E+02  0.41800000000E+01 0.  1.
         -5    1    3    3    0  502  0.30143307154E+02 -0.75604903964E+01  0.66393823451E+02  0.73426100085E+02  0.41800000000E+01 0.  1.
        -11    1    1    2    0    0 -0.35589874447E+02  0.38128336681E+02  0.48758858497E+02  0.71399128168E+02  0.00000000000E+00 0.  1.
         11    1    1    2    0    0  0.39903985882E+02 -0.87183040683E+01  0.67607288715E+01  0.41401018949E+02  0.00000000000E+00 0. -1.
</event>
<event>
 7    1  0.2334784E-009  0.1522975E+03  0.7561462E-02  0.1197678E+00
         -4   -1    0    0    0  501 -0.00000000000E+00  0.00000000000E+00  0.24146806444E+03  0.24146806444E+03  0.00000000000E+00 0.  1.
          4   -1    0    0  501    0  0.00000000000E+00 -0.00000000000E+00 -0.24569090555E+03  0.24569090555E+03  0.00000000000E+00 0. -1.
         25    2    1    2    0    0 -0.21661532224E+01 -0.14535067174E+03  0.15959890947E+03  0.24950130931E+03  0.12509029319E+03 0.  0.
          5    1    3    3  502    0 -0.25643830386E+02 -0.64006602824E+02  0.14879458738E+03  0.16404802003E+03  0.41800000000E+01 0. -1.
         -5    1    3    3    0  502  0.23477677164E+02 -0.81344068919E+02  0.10804322086E+02  0.85453289281E+02  0.41800000000E+01 0. -1.
        -11    1    1    2    0    0 -0.10246404431E+02  0.13245044423E+03 -0.17253053358E+03  0.21774961309E+03  0.00000000000E+00 0. -1.
         11    1    1    2    0    0  0.12412557653E+02  0.12900227509E+02  0.87087830060E+01  0.19908047587E+02  0.00000000000E+00 0.  1.
</event>
<event>
 7    1  0.2503393E-009  0.1884817E+03  0.7561462E-02  0.1159838E+00
         -1   -1    0    0    0  501 -0.00000000000E+00  0.00000000000E+00  0.43144032408E+02  0.43144032408E+02  0.00000000000E+00 0.  1.
          1   -1    0    0  501    0  0.00000000000E+00 -0.00000000000E+00 -0.85659931616E+03  0.85659931616E+03  0.00000000000E+00 0. -1.
         25    2    1    2    0    0  0.88636907364E+02 -0.13071991965E+03 -0.45845905125E+03  0.50077615189E+03  0.12509138217E+03 0.  0.
          5    1    3    3  502    0 -0.15099409618E+02 -0.77446329699E+02 -0.12915329549E+03  0.15140664546E+03  0.41800000000E+01 0. -1.
         -5    1    3    3    0  502  0.10373631698E+03 -0.53273589955E+02 -0.32930575576E+03  0.34936950643E+03  0.41800000000E+01 0. -1.
        -11    1    1    2    0    0 -0.27314139439E+02  0.11465707210E+03 -0.21230639625E+03  0.24282980107E+03  0.00000000000E+00 0.  1.
         11    1    1    2    0    0 -0.61322767925E+02  0.16062847549E+02 -0.14268983625E+03  0.15613739561E+03  0.00000000000E+00 0. -1.
</event>
<event>
 7    1  0.2660804E-009  0.1019527E+03  0.7561462E-02  0.1276242E+00
         -2   -1    0    0    0  501 -0.00000000000E+00  0.00000000000E+00  0.40545969118E+02  0.40545969118E+02  0.00000000000E+00 0.  1.
          2   -1    0    0  501    0  0.00000000000E+00 -0.00000000000E+00 -0.50462232844E+03  0.50462232844E+03  0.00000000000E+00 0. -1.
         25    2    1    2    0    0  0.32434110578E+02 -0.85296110301E+02 -0.28541227578E+03  0.32470750906E+03  0.12508957316E+03 0.  0.
          5    1    3    3  502    0 -0.40205586581E+00 -0.22131214080E+02  0.71073811437E+01  0.23620744110E+02  0.41800000000E+01 0.  1.
         -5    1    3    3    0  502  0.32836166443E+02 -0.63164896221E+02 -0.29251965692E+03  0.30108676495E+03  0.41800000000E+01 0.  1.
        -11    1    1    2    0    0 -0.62920595283E+00  0.77259655962E+02 -0.16968917607E+03  0.18645070881E+03  0.00000000000E+00 0.  1.
         11    1    1    2    0    0 -0.31804904625E+02  0.80364543398E+01 -0.89749074744E+01  0.34010079693E+02  0.00000000000E+00 0. -1.
</event>
<event>
 7    1  0.2334784E-009  0.1126625E+03  0.7561462E-02  0.1255717E+00
         -1   -1    0    0    0  501 -0.00000000000E+00  0.00000000000E+00  0.10244813424E+03  0.10244813424E+03  0.00000000000E+00 0.  1.
          1   -1    0    0  501    0  0.00000000000E+00 -0.00000000000E+00 -0.18617336160E+03  0.18617336160E+03  0.00000000000E+00 0. -1.
         25    2    1    2    0    0  0.54191065433E+02  0.48024785948E+02  0.18039085464E+01  0.14454699712E+03  0.12509008215E+03 0.  0.
          5    1    3    3  502    0 -0.19018036107E+02 -0.65026954927E+01  0.40426374451E+02  0.45340212806E+02  0.41800000000E+01 0.  1.
         -5    1    3    3    0  502  0.73209101540E+02  0.54527481441E+02 -0.38622465905E+02  0.99206784310E+02  0.41800000000E+01 0.  1.
        -11    1    1    2    0    0 -0.48301192238E+02 -0.73123284225E+02 -0.52437565342E+02  0.10212599143E+03  0.00000000000E+00 0.  1.
         11    1    1    2    0    0 -0.58898731950E+01  0.25098498277E+02 -0.33091570566E+02  0.41948507298E+02  0.00000000000E+00 0. -1.
</event>
<event>
 7    1  0.2334784E-009  0.1687145E+03  0.7561462E-02  0.1179195E+00
          2   -1    0    0  501    0  0.00000000000E+00  0.00000000000E+00  0.72354339757E+02  0.72354339757E+02  0.00000000000E+00 0. -1.
         -2   -1    0    0    0  501 -0.00000000000E+00 -0.00000000000E+00 -0.48011207055E+03  0.48011207055E+03  0.00000000000E+00 0.  1.
         25    2    1    2    0    0  0.13723490810E+03  0.46559556918E+02 -0.28274316193E+03  0.34145622484E+03  0.12508974986E+03 0.  0.
          5    1    3    3  502    0  0.13867271388E+03  0.66091434754E+02 -0.17953353165E+03  0.23632173135E+03  0.41800000000E+01 0.  1.
         -5    1    3    3    0  502 -0.14378057837E+01 -0.19531877837E+02 -0.10320963028E+03  0.10513449348E+03  0.41800000000E+01 0.  1.
        -11    1    1    2    0    0 -0.14152296443E+03 -0.56901477048E+02 -0.12832702884E+03  0.19933477841E+03  0.00000000000E+00 0.  1.
         11    1    1    2    0    0  0.42880563290E+01  0.10341920130E+02  0.33124599780E+01  0.11675407066E+02  0.00000000000E+00 0. -1.
</event>
<event>
 7    1  0.2334784E-009  0.8435527E+02  0.7561462E-02  0.1317127E+00
         -2   -1    0    0    0  501 -0.00000000000E+00  0.00000000000E+00  0.27866449613E+02  0.27866449613E+02  0.00000000000E+00 0.  1.
          2   -1    0    0  501    0  0.00000000000E+00 -0.00000000000E+00 -0.62072677546E+03  0.62072677546E+03  0.00000000000E+00 0. -1.
         25    2    1    2    0    0  0.17290743731E+02 -0.56502322702E+02 -0.45081249224E+03  0.47156213957E+03  0.12508983183E+03 0.  0.
          5    1    3    3  502    0  0.11827594502E+02 -0.48144427513E+01  0.38042412191E+01  0.13964795092E+02  0.41800000000E+01 0.  1.
         -5    1    3    3    0  502  0.54631492288E+01 -0.51687879951E+02 -0.45461673346E+03  0.45759734448E+03  0.41800000000E+01 0.  1.
        -11    1    1    2    0    0 -0.42624228583E+02  0.15876257730E+01 -0.40379370343E+02  0.58735329804E+02  0.00000000000E+00 0.  1.
         11    1    1    2    0    0  0.25333484852E+02  0.54914696929E+02 -0.10166846326E+03  0.11829575570E+03  0.00000000000E+00 0. -1.
</event>
<event>
 7    1  0.2334784E-009  0.2099401E+03  0.7561462E-02  0.1141613E+00
         -2   -1    0    0    0  501 -0.00000000000E+00  0.00000000000E+00  0.51631905891E+03  0.51631905891E+03  0.00000000000E+00 0.  1.
          2   -1    0    0  501    0  0.00000000000E+00 -0.00000000000E+00 -0.94092137945E+02  0.94092137945E+02  0.00000000000E+00 0. -1.
         25    2    1    2    0    0  0.15805159470E+03  0.97257315332E+02  0.15503541339E+03  0.27225355181E+03  0.12508687020E+03 0.  0.
          5    1    3    3  502    0  0.98211077068E+02 -0.10891751010E+02  0.83128281806E+02  0.12919686349E+03  0.41800000000E+01 0.  1.
         -5    1    3    3    0  502  0.59840517631E+02  0.10814906634E+03  0.71907131580E+02  0.14305668832E+03  0.41800000000E+01 0.  1.
        -11    1    1    2    0    0  0.17206705511E+01 -0.19576419383E+02  0.70158039936E+02  0.72858407000E+02  0.00000000000E+00 0.  1.
         11    1    1    2    0    0 -0.15977226525E+03 -0.77680895949E+02  0.19703346765E+03  0.26529923805E+03  0.00000000000E+00 0. -1.
</event>
<event>
 7    1  0.2334784E-009  0.1048242E+03  0.7561462E-02  0.1270466E+00
         -1   -1    0    0    0  501 -0.00000000000E+00  0.00000000000E+00  0.15282965186E+03  0.15282965186E+03  0.00000000000E+00 0.  1.
          1   -1    0    0  501    0  0.00000000000E+00 -0.00000000000E+00 -0.13260779575E+03  0.13260779575E+03  0.00000000000E+00 0. -1.
         25    2    1    2    0    0 -0.68547140694E+02 -0.61315567573E+02  0.10197763136E+02  0.15559478192E+03  0.12508969768E+03 0.  0.
          5    1    3    3  502    0 -0.52310525310E+02 -0.60003555259E+02 -0.49326058455E+02  0.93740866993E+02  0.41800000000E+01 0.  1.
         -5    1    3    3    0  502 -0.16236615384E+02 -0.13120123143E+01  0.59523821591E+02  0.61853914930E+02  0.41800000000E+01 0.  1.
        -11    1    1    2    0    0 -0.20445028197E+01  0.39041351155E+02  0.34230500209E+02  0.51962815901E+02  0.00000000000E+00 0.  1.
         11    1    1    2    0    0  0.70591643514E+02  0.22274216418E+02 -0.24206407233E+02  0.77879849782E+02  0.00000000000E+00 0. -1.
</event>
<event>
 7    1  0.2334784E-009  0.1227594E+03  0.7561462E-02  0.1238613E+00
         -1   -1    0    0    0  501 -0.00000000000E+00  0.00000000000E+00  0.78660304987E+02  0.78660304987E+02  0.00000000000E+00 0.  1.
          1   -1    0    0  501    0  0.00000000000E+00 -0.00000000000E+00 -0.25302782456E+03  0.25302782456E+03  0.00000000000E+00 0. -1.
         25    2    1    2    0    0  0.83850692400E+02  0.29917810891E+02 -0.16073555504E+03  0.22228245581E+03  0.12509019739E+03 0.  0.
          5    1    3    3  502    0 -0.18620278269E+02  0.35343273237E+02 -0.87090953388E+02  0.95907081532E+02  0.41800000000E+01 0. -1.
         -5    1    3    3    0  502  0.10247097067E+03 -0.54254623455E+01 -0.73644601653E+02  0.12637537428E+03  0.41800000000E+01 0. -1.
        -11    1    1    2    0    0 -0.35892473474E+02  0.13119643977E+02 -0.22521396418E+02  0.44357727701E+02  0.00000000000E+00 0. -1.
         11    1    1    2    0    0 -0.47958218926E+02 -0.43037454868E+02  0.88894318867E+01  0.65047946034E+02  0.00000000000E+00 0.  1.
</event>
<event>
 7    1  0.2334784E-009  0.1053475E+03  0.7561462E-02  0.1269437E+00
          1   -1    0    0  501    0  0.00000000000E+00  0.00000000000E+00  0.13775397611E+04  0.13775397611E+04  0.00000000000E+00 0. -1.
         -1   -1    0    0    0  501 -0.00000000000E+00 -0.00000000000E+00 -0.18649064485E+02  0.18649064485E+02  0.00000000000E+00 0.  1.
         25    2    1    2    0    0 -0.56792196090E+02  0.89688002450E+01  0.11729569314E+04  0.11810085418E+04  0.12508964797E+03 0.  0.
          5    1    3    3  502    0 -0.33092492373E+02  0.66123602689E+02  0.72650206075E+03  0.73026718436E+03  0.41800000000E+01 0. -1.
         -5    1    3    3    0  502 -0.23699703716E+02 -0.57154802444E+02  0.44645487063E+03  0.45074135744E+03  0.41800000000E+01 0. -1.
        -11    1    1    2    0    0  0.19036973000E+02 -0.26794150898E+02  0.99937490858E+01  0.34354153812E+02  0.00000000000E+00 0.  1.
         11    1    1    2    0    0  0.37755223090E+02  0.17825350653E+02  0.17594001610E+03  0.18082612992E+03  0.00000000000E+00 0. -1.
</event>
<event>
 7    1  0.2334784E-009  0.1613330E+03  0.7561462E-02  0.1187200E+00
         -2   -1    0    0    0  501 -0.00000000000E+00  0.00000000000E+00  0.43570451580E+03  0.43570451580E+03  0.00000000000E+00 0.  1.
          2   -1    0    0  501    0  0.00000000000E+00 -0.00000000000E+00 -0.83668569063E+02  0.83668569063E+02  0.00000000000E+00 0. -1.
         25    2    1    2    0    0  0.14103234172E+03 -0.66782015279E+02  0.19719813752E+03  0.28086374558E+03  0.12508948462E+03 0.  0.
          5    1    3    3  502    0  0.11505184782E+03 -0.53971724558E+02  0.21265252701E+03  0.24776691543E+03  0.41800000000E+01 0.  1.
         -5    1    3    3    0  502  0.25980493899E+02 -0.12810290721E+02 -0.15454389487E+02  0.33096830151E+02  0.41800000000E+01 0.  1.
        -11    1    1    2    0    0 -0.18183092364E+02 -0.10611093214E+02 -0.59386779025E+01  0.21874369530E+02  0.00000000000E+00 0. -1.
         11    1    1    2    0    0 -0.12284924935E+03  0.77393108493E+02  0.16077648711E+03  0.21663496975E+03  0.00000000000E+00 0.  1.
</event>
<event>
 7    1  0.2334784E-009  0.9248511E+02  0.7561462E-02  0.1296943E+00
         -1   -1    0    0    0  501 -0.00000000000E+00  0.00000000000E+00  0.17531408611E+02  0.17531408611E+02  0.00000000000E+00 0.  1.
          1   -1    0    0  501    0  0.00000000000E+00 -0.00000000000E+00 -0.70954278979E+03  0.70954278979E+03  0.00000000000E+00 0. -1.
         25    2    1    2    0    0 -0.76248915537E+01  0.38923261968E+02 -0.45135493800E+03  0.47004482000E+03  0.12509074090E+03 0.  0.
          5    1    3    3  502    0  0.33083999571E+02 -0.14378278903E+02 -0.43385046052E+02  0.56577562273E+02  0.41800000000E+01 0. -1.
         -5    1    3    3    0  502 -0.40708891125E+02  0.53301540871E+02 -0.40796989195E+03  0.41346725773E+03  0.41800000000E+01 0. -1.
        -11    1    1    2    0    0  0.13945829795E+02  0.18788935730E+02 -0.27498867273E+02  0.36106758035E+02  0.00000000000E+00 0.  1.
         11    1    1    2    0    0 -0.63209382412E+01 -0.57712197698E+02 -0.21315757590E+03  0.22092262036E+03  0.00000000000E+00 0. -1.
</event>
<event>
 7    1  0.2334784E-009  0.1819279E+03  0.7561462E-02  0.1165950E+00
          1   -1    0    0  501    0  0.00000000000E+00  0.00000000000E+00  0.61048037876E+03  0.61048037876E+03  0.00000000000E+00 0. -1.
         -1   -1    0    0    0  501 -0.00000000000E+00 -0.00000000000E+00 -0.65467198801E+02  0.65467198801E+02  0.00000000000E+00 0.  1.
         25    2    1    2    0    0 -0.17670305302E+02  0.15973213682E+03  0.36652386037E+03  0.41930160260E+03  0.12508996162E+03 0.  0.
          5    1    3    3  502    0 -0.27066455361E+02  0.17890124199E+03  0.31354670464E+03  0.36203211982E+03  0.41800000000E+01 0. -1.
         -5    1    3    3    0  502  0.93961500589E+01 -0.19169105164E+02  0.52977155732E+02  0.57269482783E+02  0.41800000000E+01 0. -1.
        -11    1    1    2    0    0  0.16417237615E+02 -0.97528393681E+02  0.16593922824E+03  0.19317644974E+03  0.00000000000E+00 0. -1.
         11    1    1    2    0    0  0.12530676872E+01 -0.62203743140E+02  0.12550091351E+02  0.63469525224E+02  0.00000000000E+00 0.  1.
</event>
<event>
 7    1  0.2334784E-009  0.6435963E+02  0.7561462E-02  0.1380397E+00
          2   -1    0    0  501    0  0.00000000000E+00  0.00000000000E+00  0.87079451393E+02  0.87079451393E+02  0.00000000000E+00 0.  1.
         -2   -1    0    0    0  501 -0.00000000000E+00 -0.00000000000E+00 -0.15332690660E+03  0.15332690660E+03  0.00000000000E+00 0. -1.
         25    2    1    2    0    0 -0.13168423268E+02  0.21315771731E+02 -0.37465809444E+01  0.12763028085E+03  0.12509069600E+03 0.  0.
          5    1    3    3  502    0 -0.18180566845E+02  0.49185448016E+02 -0.50428593587E+02  0.72871508551E+02  0.41800000000E+01 0. -1.
         -5    1    3    3    0  502  0.50121435774E+01 -0.27869676285E+02  0.46682012643E+02  0.54758772300E+02  0.41800000000E+01 0. -1.
        -11    1    1    2    0    0  0.25242319959E+02 -0.24317165556E+02  0.12149579013E+02  0.37095977245E+02  0.00000000000E+00 0.  1.
         11    1    1    2    0    0 -0.12073896691E+02  0.30013938247E+01 -0.74650453274E+02  0.75680099895E+02  0.00000000000E+00 0. -1.
</event>
<event>
 7    1  0.2334784E-009  0.1095598E+03  0.7561462E-02  0.1261387E+00
          1   -1    0    0  501    0  0.00000000000E+00  0.00000000000E+00  0.56424198483E+03  0.56424198483E+03  0.00000000000E+00 0. -1.
         -1   -1    0    0    0  501 -0.00000000000E+00 -0.00000000000E+00 -0.41589067740E+02  0.41589067740E+02  0.00000000000E+00 0.  1.
         25    2    1    2    0    0  0.34560917529E+02 -0.27442360493E+02  0.47539722916E+03  0.49356274148E+03  0.12511640226E+03 0.  0.
          5    1    3    3  502    0  0.42191111706E+02  0.34577174530E+02  0.34012141784E+03  0.34449342836E+03  0.41800000000E+01 0.  1.
         -5    1    3    3    0  502 -0.76301941766E+01 -0.62019535023E+02  0.13527581132E+03  0.14906931312E+03  0.41800000000E+01 0.  1.
        -11    1    1    2    0    0  0.56141021603E+01 -0.30645615718E+02  0.16180668388E+02  0.35106779051E+02  0.00000000000E+00 0. -1.
         11    1    1    2    0    0 -0.40175019690E+02  0.58087976211E+02  0.31075019545E+02  0.77161532042E+02  0.00000000000E+00 0.  1.
</event>
<event>
 7    1  0.2334784E-009  0.1636275E+03  0.7561462E-02  0.1184661E+00
         -1   -1    0    0    0  501 -0.00000000000E+00  0.00000000000E+00  0.30144635741E+02  0.30144635741E+02  0.00000000000E+00 0.  1.
          1   -1    0    0  501    0  0.00000000000E+00 -0.00000000000E+00 -0.10407669814E+04  0.10407669814E+04  0.00000000000E+00 0. -1.
         25    2    1    2    0    0  0.11066963120E+03  0.76922084328E+02 -0.45978931917E+03  0.49519631406E+03  0.12509355341E+03 0.  0.
          5    1    3    3  502    0  0.28065676107E+02  0.71689595983E+02 -0.34563950731E+03  0.35413446847E+03  0.41800000000E+01 0. -1.
         -5    1    3    3    0  502  0.82603955097E+02  0.52324883451E+01 -0.11414981186E+03  0.14106184558E+03  0.41800000000E+01 0. -1.
        -11    1    1    2    0    0 -0.22008574234E+02 -0.75462015714E+02 -0.24687910730E+03  0.25909107815E+03  0.00000000000E+00 0.  1.
         11    1    1    2    0    0 -0.88661056970E+02 -0.14600686135E+01 -0.30395391915E+03  0.31662422489E+03  0.00000000000E+00 0. -1.
</event>
<event>
 7    1  0.2334784E-009  0.1114430E+03  0.7561462E-02  0.1257921E+00
         -1   -1    0    0    0  501 -0.00000000000E+00  0.00000000000E+00  0.10241687202E+03  0.10241687202E+03  0.00000000000E+00 0.  1.
          1   -1    0    0  501    0  0.00000000000E+00 -0.00000000000E+00 -0.20432796468E+03  0.20432796468E+03  0.00000000000E+00 0. -1.
         25    2    1    2    0    0 -0.77149465539E+02  0.52628857005E+02 -0.81661505251E+02  0.17617387151E+03  0.12508714938E+03 0.  0.
          5    1    3    3  502    0  0.10029460142E+02 -0.10471982900E+02  0.22008598369E+02  0.26685263700E+02  0.41800000000E+01 0. -1.
         -5    1    3    3    0  502 -0.87178925680E+02  0.63100839905E+02 -0.10367010362E+03  0.14948860781E+03  0.41800000000E+01 0. -1.
        -11    1    1    2    0    0  0.44719987016E+02 -0.88070022210E+01 -0.50660378438E+02  0.68146272607E+02  0.00000000000E+00 0. -1.
         11    1    1    2    0    0  0.32429478523E+02 -0.43821854784E+02  0.30410791025E+02  0.62424692589E+02  0.00000000000E+00 0.  1.
</event>
<event>
 7    1  0.2334784E-009  0.8466447E+02  0.7561462E-02  0.1316312E+00
         -2   -1    0    0    0  501 -0.00000000000E+00  0.00000000000E+00  0.50341899401E+02  0.50341899401E+02  0.00000000000E+00 0. -1.
          2   -1    0    0  501    0  0.00000000000E+00 -0.00000000000E+00 -0.16661888408E+03  0.16661888408E+03  0.00000000000E+00 0.  1.
         25    2    1    2    0    0 -0.62019744326E+01  0.21654689253E+02 -0.99532377763E+02  0.16143241341E+03  0.12508533016E+03 0.  0.
          5    1    3    3  502    0  0.50284184005E+02  0.30726629741E+02 -0.18029306275E+02  0.61766926595E+02  0.41800000000E+01 0.  1.
         -5    1    3    3    0  502 -0.56486158438E+02 -0.90719404878E+01 -0.81503071488E+02  0.99665486811E+02  0.41800000000E+01 0.  1.
        -11    1    1    2    0    0 -0.12525082093E+02 -0.29907635473E+02 -0.90385878220E+01  0.33660665633E+02  0.00000000000E+00 0.  1.
         11    1    1    2    0    0  0.18727056526E+02  0.82529462199E+01 -0.77060190987E+01  0.21867704447E+02  0.00000000000E+00 0. -1.
</event>
<event>
 7    1  0.2334784E-009  0.1040878E+03  0.7561462E-02  0.1271927E+00
          4   -1    0    0  501    0  0.00000000000E+00  0.00000000000E+00  0.14147112104E+02  0.14147112104E+02  0.00000000000E+00 0. -1.
         -4   -1    0    0    0  501 -0.00000000000E+00 -0.00000000000E+00 -0.87280802334E+03  0.87280802334E+03  0.00000000000E+00 0.  1.
         25    2    1    2    0    0 -0.92516749511E+01  0.21078305396E+02 -0.53295522846E+03  0.54792176285E+03  0.12508834566E+03 0.  0.
          5    1    3    3  502    0 -0.58670432129E+02  0.26804078564E+02 -0.41244684904E+03  0.41748120187E+03  0.41800000000E+01 0. -1.
         -5    1    3    3    0  502  0.49418757178E+02 -0.57257731687E+01 -0.12050837942E+03  0.13044056099E+03  0.41800000000E+01 0. -1.
        -11    1    1    2    0    0  0.36943755830E+02  0.21556994835E+02 -0.16656933557E+03  0.17197351155E+03  0.00000000000E+00 0. -1.
         11    1    1    2    0    0 -0.27692080879E+02 -0.42635300230E+02 -0.15913634721E+03  0.16705986104E+03  0.00000000000E+00 0.  1.
</event>
<event>
 7    1  0.2334784E-009  0.1836756E+03  0.7561462E-02  0.1164292E+00
         -2   -1    0    0    0  501 -0.00000000000E+00  0.00000000000E+00  0.37968674635E+02  0.37968674635E+02  0.00000000000E+00 0.  1.
          2   -1    0    0  501    0  0.00000000000E+00 -0.00000000000E+00 -0.10006147017E+04  0.10006147017E+04  0.00000000000E+00 0. -1.
         25    2    1    2    0    0  0.14750500354E+03  0.64183201399E+02 -0.42706875110E+03  0.47319324540E+03  0.12508764893E+03 0.  0.
          5    1    3    3  502    0  0.13768872484E+03  0.87619248101E+02 -0.28192436041E+03  0.32578234296E+03  0.41800000000E+01 0.  1.
         -5    1    3    3    0  502  0.98162787001E+01 -0.23436046702E+02 -0.14514439069E+03  0.14741090245E+03  0.41800000000E+01 0.  1.
        -11    1    1    2    0    0 -0.69684822975E+02  0.10516113454E+02 -0.16470069055E+03  0.17914485944E+03  0.00000000000E+00 0.  1.
         11    1    1    2    0    0 -0.77820180569E+02 -0.74699314853E+02 -0.37087658542E+03  0.38624527150E+03  0.00000000000E+00 0. -1.
</event>
<event>
 7    1  0.2334784E-009  0.7667748E+02  0.7561462E-02  0.1338754E+00
          4   -1    0    0  501    0  0.00000000000E+00  0.00000000000E+00  0.24340972090E+02  0.24340972090E+02  0.00000000000E+00 0.  1.
         -4   -1    0    0    0  501 -0.00000000000E+00 -0.00000000000E+00 -0.65678140504E+03  0.65678140504E+03  0.00000000000E+00 0. -1.
         25    2    1    2    0    0  0.10870685778E+02 -0.62310897509E+02 -0.40936498204E+03  0.43269815186E+03  0.12508869791E+03 0.  0.
          5    1    3    3  502    0  0.45911473258E+00 -0.11683250584E+02 -0.36277337455E+03  0.36298581627E+03  0.41800000000E+01 0. -1.
         -5    1    3    3    0  502  0.10411571045E+02 -0.50627646924E+02 -0.46591607487E+02  0.69712335587E+02  0.41800000000E+01 0. -1.
        -11    1    1    2    0    0  0.17872695773E+02  0.57149433752E+02 -0.67927776561E+02  0.90552050562E+02  0.00000000000E+00 0.  1.
         11    1    1    2    0    0 -0.28743381551E+02  0.51614637562E+01 -0.15514767435E+03  0.15787217471E+03  0.00000000000E+00 0. -1.
</event>
<event>
 6    1  0.2334784E-009  0.1599112E+03  0.7561462E-02  0.1188797E+00
          1   -1    0    0  501    0  0.00000000000E+00  0.00000000000E+00  0.70855760306E+03  0.70855760306E+03  0.00000000000E+00 0. -1.
         -1   -1    0    0    0  501 -0.00000000000E+00 -0.00000000000E+00 -0.44857725228E+02  0.44857725228E+02  0.00000000000E+00 0.  1.
          5    1    1    2  502    0  0.53922023200E+02  0.11650355703E+03  0.16412829868E+03  0.20841361332E+03  0.41800000000E+01 0. -1.
         -5    1    1    2    0  502  0.23138632294E+02  0.14034352964E+01  0.20148369727E+03  0.20285590600E+03  0.41800000000E+01 0. -1.
        -11    1    1    2    0    0 -0.75162123834E+02 -0.31665610336E+02  0.15155159853E+03  0.17210445303E+03  0.00000000000E+00 0.  1.
         11    1    1    2    0    0 -0.18985316602E+01 -0.86241381991E+02  0.14653628335E+03  0.17004135594E+03  0.00000000000E+00 0. -1.
</event>
<event>
 7    1  0.2334784E-009  0.9202370E+02  0.7561462E-02  0.1298024E+00
         -3   -1    0    0    0  501 -0.00000000000E+00  0.00000000000E+00  0.71581513336E+02  0.71581513336E+02  0.00000000000E+00 0.  1.
          3   -1    0    0  501    0  0.00000000000E+00 -0.00000000000E+00 -0.14729145746E+03  0.14729145746E+03  0.00000000000E+00 0. -1.
         25    2    1    2    0    0  0.13798250606E+02  0.85890724016E+01 -0.68866760303E+02  0.14371737657E+03  0.12509152557E+03 0.  0.
          5    1    3    3  502    0  0.55010547136E+01 -0.57230418414E+02 -0.19269915955E+02  0.60781448285E+02  0.41800000000E+01 0.  1.
         -5    1    3    3    0  502  0.82971958923E+01  0.65819490815E+02 -0.49596844348E+02  0.82935928283E+02  0.41800000000E+01 0.  1.
        -11    1    1    2    0    0  0.21366399938E+02  0.54749498353E+01 -0.24844211169E+02  0.33222476588E+02  0.00000000000E+00 0.  1.
         11    1    1    2    0    0 -0.35164650544E+02 -0.14064022237E+02  0.18001027349E+02  0.41933117640E+02  0.00000000000E+00 0. -1.
</event>
<event>
 7    1  0.2334784E-009  0.2665095E+03  0.7561462E-02  0.1103294E+00
         -1   -1    0    0    0  501 -0.00000000000E+00  0.00000000000E+00  0.43867720906E+03  0.43867720906E+03  0.00000000000E+00 0.  1.
          1   -1    0    0  501    0  0.00000000000E+00 -0.00000000000E+00 -0.20158024641E+03  0.20158024641E+03  0.00000000000E+00 0. -1.
         25    2    1    2    0    0 -0.24217867955E+03 -0.71090984098E+02  0.24312359185E+03  0.37210371560E+03  0.12509058078E+03 0.  0.
          5    1    3    3  502    0 -0.10162841174E+03  0.17330322688E+02  0.14884350257E+03  0.18110917926E+03  0.41800000000E+01 0.  1.
         -5    1    3    3    0  502 -0.14055026781E+03 -0.88421306786E+02  0.94280089287E+02  0.19099453634E+03  0.41800000000E+01 0.  1.
        -11    1    1    2    0    0  0.11802935227E+03  0.74437351194E+02 -0.27198766749E+02  0.14216757774E+03  0.00000000000E+00 0. -1.
         11    1    1    2    0    0  0.12414932729E+03 -0.33463670959E+01  0.21172137545E+02  0.12598616212E+03  0.00000000000E+00 0.  1.
</event>
<event>
 7    1  0.2334784E-009  0.1898976E+03  0.7561462E-02  0.1158554E+00
         -3   -1    0    0    0  501 -0.00000000000E+00  0.00000000000E+00  0.60585449587E+03  0.60585449587E+03  0.00000000000E+00 0.  1.
          3   -1    0    0  501    0  0.00000000000E+00 -0.00000000000E+00 -0.67481154188E+02  0.67481154188E+02  0.00000000000E+00 0. -1.
         25    2    1    2    0    0  0.84365507853E+02 -0.14474779073E+03  0.32900290304E+03  0.38981918140E+03  0.12508645866E+03 0.  0.
          5    1    3    3  502    0  0.17473091677E+02  0.21203550370E+02  0.26881854298E+02  0.38665307080E+02  0.41800000000E+01 0. -1.
         -5    1    3    3    0  502  0.66892416176E+02 -0.16595134110E+03  0.30212104874E+03  0.35115387432E+03  0.41800000000E+01 0. -1.
        -11    1    1    2    0    0 -0.51768246597E+02  0.46754876909E+02  0.28734268645E+02  0.75442879486E+02  0.00000000000E+00 0. -1.
         11    1    1    2    0    0 -0.32597261256E+02  0.97992913823E+02  0.18063616999E+03  0.20807358917E+03  0.00000000000E+00 0.  1.
</event>
<event>
 7    1  0.2334784E-009  0.1090790E+03  0.7561462E-02  0.1262285E+00
          2   -1    0    0  501    0  0.00000000000E+00  0.00000000000E+00  0.42042367063E+02  0.42042367063E+02  0.00000000000E+00 0. -1.
         -2   -1    0    0    0  501 -0.00000000000E+00 -0.00000000000E+00 -0.37805348072E+03  0.37805348072E+03  0.00000000000E+00 0.  1.
         25    2    1    2    0    0  0.25001898584E+02  0.31979357509E+01 -0.92298233814E+02  0.15748399896E+03  0.12508766621E+03 0.  0.
          5    1    3    3  502    0  0.33682308293E+02 -0.54939137583E+02 -0.67893201925E+02  0.93700405538E+02  0.41800000000E+01 0. -1.
         -5    1    3    3    0  502 -0.86804097088E+01  0.58137073334E+02 -0.24405031889E+02  0.63783593424E+02  0.41800000000E+01 0. -1.
        -11    1    1    2    0    0 -0.13194118234E+02  0.44032227900E+02 -0.85432607603E+02  0.97013670643E+02  0.00000000000E+00 0. -1.
         11    1    1    2    0    0 -0.11807780350E+02 -0.47230163651E+02 -0.15828027224E+03  0.16559817818E+03  0.00000000000E+00 0.  1.
</event>
<event>
 7    1  0.2334784E-009  0.1365063E+03  0.7561462E-02  0.1218109E+00
         -1   -1    0    0    0  501 -0.00000000000E+00  0.00000000000E+00  0.14099493945E+03  0.14099493945E+03  0.00000000000E+00 0.  1.
          1   -1    0    0  501    0  0.00000000000E+00 -0.00000000000E+00 -0.25031950597E+03  0.25031950597E+03  0.00000000000E+00 0. -1.
         25    2    1    2    0    0 -0.89171080615E+02  0.59878157602E+02  0.55903416577E+02  0.17409737755E+03  0.12509128470E+03 0.  0.
          5    1    3    3  502    0  0.15569929998E+02 -0.70144942686E+01  0.46127346658E+02  0.49364261969E+02  0.41800000000E+01 0. -1.
         -5    1    3    3    0  502 -0.10474101061E+03  0.66892651870E+02  0.97760699195E+01  0.12473311558E+03  0.41800000000E+01 0. -1.
        -11    1    1    2    0    0  0.41115771790E+02  0.13580930470E+02 -0.96370370050E+02  0.10565129713E+03  0.00000000000E+00 0. -1.
         11    1    1    2    0    0  0.48055308825E+02 -0.73459088071E+02 -0.68857613050E+02  0.11156577074E+03  0.00000000000E+00 0.  1.
</event>
<event>
 7    1  0.2334784E-009  0.1074702E+03  0.7561462E-02  0.1265328E+00
          2   -1    0    0  501    0  0.00000000000E+00  0.00000000000E+00  0.29423601284E+03  0.29423601284E+03  0.00000000000E+00 0. -1.
         -2   -1    0    0    0  501 -0.00000000000E+00 -0.00000000000E+00 -0.42541487105E+02  0.42541487105E+02  0.00000000000E+00 0.  1.
         25    2    1    2    0    0  0.16413184616E+02  0.91698375243E+01  0.18790901021E+03  0.22651647726E+03  0.12508572981E+03 0.  0.
          5    1    3    3  502    0  0.66031270155E+02 -0.18072053258E+02  0.11779839575E+03  0.13631090267E+03  0.41800000000E+01 0. -1.
         -5    1    3    3    0  502 -0.49618085539E+02  0.27241890782E+02  0.70110614462E+02  0.90205574585E+02  0.41800000000E+01 0. -1.
        -11    1    1    2    0    0 -0.51991025698E+02  0.27748989274E+01  0.32274628264E+02  0.61256986922E+02  0.00000000000E+00 0. -1.
         11    1    1    2    0    0  0.35577841082E+02 -0.11944736452E+02  0.31510887260E+02  0.49004035761E+02  0.00000000000E+00 0.  1.
</event>
<event>
 7    1  0.2334784E-009  0.1803819E+03  0.7561462E-02  0.1167434E+00
          3   -1    0    0  501    0  0.00000000000E+00  0.00000000000E+00  0.30297997236E+02  0.30297997236E+02  0.00000000000E+00 0. -1.
         -3   -1    0    0    0  501 -0.00000000000E+00 -0.00000000000E+00 -0.12161758516E+04  0.12161758516E+04  0.00000000000E+00 0.  1.
         25    2    1    2    0    0  0.11719559209E+03 -0.10489292948E+03 -0.65361622104E+03  0.68381183938E+03  0.12508850388E+03 0.  0.
          5    1    3    3  502    0  0.32249734267E+02  0.11214563734E+02 -0.36582812724E+02  0.50215399897E+02  0.41800000000E+01 0.  1.
         -5    1    3    3    0  502  0.84945857823E+02 -0.11610749322E+03 -0.61703340832E+03  0.63359643948E+03  0.41800000000E+01 0.  1.
        -11    1    1    2    0    0 -0.37031750168E+02  0.94635631961E+02 -0.29838830247E+03  0.31521870567E+03  0.00000000000E+00 0.  1.
         11    1    1    2    0    0 -0.80163841921E+02  0.10257297521E+02 -0.23387333090E+03  0.24744330383E+03  0.00000000000E+00 0. -1.
</event>
<event>
 7    1  0.2334784E-009  0.1272940E+03  0.7561462E-02  0.1231527E+00
         -1   -1    0    0    0  501 -0.00000000000E+00  0.00000000000E+00  0.31381073132E+03  0.31381073132E+03  0.00000000000E+00 0.  1.
          1   -1    0    0  501    0  0.00000000000E+00 -0.00000000000E+00 -0.67332805186E+02  0.67332805186E+02  0.00000000000E+00 0. -1.
         25    2    1    2    0    0 -0.84369844614E+02 -0.47936722109E+02  0.12528292244E+03  0.20188959788E+03  0.12508956418E+03 0.  0.
          5    1    3    3  502    0 -0.34693996378E+02  0.32757905340E+02  0.42048398902E+01  0.48082292223E+02  0.41800000000E+01 0.  1.
         -5    1    3    3    0  502 -0.49675848236E+02 -0.80694627449E+02  0.12107808255E+03  0.15380730565E+03  0.41800000000E+01 0.  1.
        -11    1    1    2    0    0  0.61582004573E+02  0.60065013924E+02  0.12642372618E+03  0.15291536132E+03  0.00000000000E+00 0.  1.
         11    1    1    2    0    0  0.22787840041E+02 -0.12128291815E+02 -0.52287224901E+01  0.26338577315E+02  0.00000000000E+00 0. -1.
</event>
<event>
 7    1  0.2334784E-009  0.1633656E+03  0.7561462E-02  0.1184949E+00
          2   -1    0    0  501    0  0.00000000000E+00  0.00000000000E+00  0.63438355254E+03  0.63438355254E+03  0.00000000000E+00 0. -1.
         -2   -1    0    0    0  501 -0.00000000000E+00 -0.00000000000E+00 -0.61240874030E+02  0.61240874030E+02  0.00000000000E+00 0.  1.
         25    2    1    2    0    0  0.41819985901E+02 -0.14353683536E+03  0.42073129519E+03  0.46369390926E+03  0.12508191080E+03 0.  0.
          5    1    3    3  502    0  0.22095960004E+02 -0.34776889425E+02  0.16463485173E+02  0.44566604432E+02  0.41800000000E+01 0. -1.
         -5    1    3    3    0  502  0.19724025897E+02 -0.10875994593E+03  0.40426781002E+03  0.41912730483E+03  0.41800000000E+01 0. -1.
        -11    1    1    2    0    0 -0.64641726790E+02  0.60318471129E+02  0.72880891679E+02  0.11457964555E+03  0.00000000000E+00 0.  1.
         11    1    1    2    0    0  0.22821740889E+02  0.83218364230E+02  0.79530491638E+02  0.11735087176E+03  0.00000000000E+00 0. -1.
</event>
<event>
 7    1  0.2334784E-009  0.1214727E+03  0.7561462E-02  0.1240687E+00
          2   -1    0    0  501    0  0.00000000000E+00  0.00000000000E+00  0.46693578128E+03  0.46693578128E+03  0.00000000000E+00 0. -1.
         -2   -1    0    0    0  501 -0.00000000000E+00 -0.00000000000E+00 -0.40549858725E+02  0.40549858725E+02  0.00000000000E+00 0.  1.
         25    2    1    2    0    0 -0.76462825231E+02  0.18237797769E+01  0.17093618025E+03  0.22520235208E+03  0.12508809635E+03 0.  0.
          5    1    3    3  502    0 -0.10845702309E+03  0.47144092289E+01  0.15450915280E+03  0.18888012657E+03  0.41800000000E+01 0.  1.
         -5    1    3    3    0  502  0.31994197860E+02 -0.28906294520E+01  0.16427027448E+02  0.36322225512E+02  0.41800000000E+01 0.  1.
        -11    1    1    2    0    0  0.50541548343E+02 -0.33758872214E+02  0.71739030791E+02  0.94024454802E+02  0.00000000000E+00 0.  1.
         11    1    1    2    0    0  0.25921276888E+02  0.31935092437E+02  0.18371071151E+03  0.18825883312E+03  0.00000000000E+00 0. -1.
</event>
<event>
 7    1  0.2334784E-009  0.1545853E+03  0.7561462E-02  0.1194949E+00
         -2   -1    0    0    0  501 -0.00000000000E+00  0.00000000000E+00  0.11489424985E+03  0.11489424985E+03  0.00000000000E+00 0.  1.
          2   -1    0    0  501    0  0.00000000000E+00 -0.00000000000E+00 -0.31127972213E+03  0.31127972213E+03  0.00000000000E+00 0. -1.
         25    2    1    2    0    0  0.53012072262E+02 -0.99876447107E+02 -0.22587678654E+03  0.28187466431E+03  0.12508964463E+03 0.  0.
          5    1    3    3  502    0 -0.31935315610E+02  0.56493372558E+01 -0.51797817477E+02  0.61255740057E+02  0.41800000000E+01 0. -1.
         -5    1    3    3    0  502  0.84947387872E+02 -0.10552578436E+03 -0.17407896906E+03  0.22061892426E+03  0.41800000000E+01 0. -1.
        -11    1    1    2    0    0 -0.10626899356E+01 -0.14907716050E+02  0.20133790170E+00  0.14946900838E+02  0.00000000000E+00 0. -1.
         11    1    1    2    0    0 -0.51949382326E+02  0.11478416316E+03  0.29289976359E+02  0.12935240682E+03  0.00000000000E+00 0.  1.
</event>
<event>
 7    1  0.2334784E-009  0.8800683E+02  0.7561462E-02  0.1307752E+00
         -1   -1    0    0    0  501 -0.00000000000E+00  0.00000000000E+00  0.69551558168E+02  0.69551558168E+02  0.00000000000E+00 0.  1.
          1   -1    0    0  501    0  0.00000000000E+00 -0.00000000000E+00 -0.18318701663E+03  0.18318701663E+03  0.00000000000E+00 0. -1.
         25    2    1    2    0    0 -0.21677040066E+02  0.17086465291E+02 -0.99852294327E+02  0.16242164027E+03  0.12509383352E+03 0.  0.
          5    1    3    3  502    0 -0.71300253206E+02  0.26067386075E+02 -0.71744201013E+02  0.10453677584E+03  0.41800000000E+01 0. -1.
         -5    1    3    3    0  502  0.49623213140E+02 -0.89809207836E+01 -0.28108093315E+02  0.57884864431E+02  0.41800000000E+01 0. -1.
        -11    1    1    2    0    0  0.19959924710E+02 -0.30175314165E+02  0.28477436523E+02  0.46042508298E+02  0.00000000000E+00 0.  1.
         11    1    1    2    0    0  0.17171153556E+01  0.13088848874E+02 -0.42260600663E+02  0.44274426234E+02  0.00000000000E+00 0. -1.
</event>
<event>
 7    1  0.2334784E-009  0.8536558E+02  0.7561462E-02  0.1314479E+00
         -2   -1    0    0    0  501 -0.00000000000E+00  0.00000000000E+00  0.32874011311E+02  0.32874011311E+02  0.00000000000E+00 0. -1.
          2   -1    0    0  501    0  0.00000000000E+00 -0.00000000000E+00 -0.41710307728E+03  0.41710307728E+03  0.00000000000E+00 0.  1.
         25    2    1    2    0    0 -0.19439850433E+02 -0.19261317223E+02 -0.19292798698E+03  0.23155624960E+03  0.12509269540E+03 0.  0.
          5    1    3    3  502    0 -0.27160168555E+02  0.15817754799E+02  0.34337879482E+01  0.31892623324E+02  0.41800000000E+01 0. -1.
         -5    1    3    3    0  502  0.77203181222E+01 -0.35079072022E+02 -0.19636177492E+03  0.19966362627E+03  0.41800000000E+01 0. -1.
        -11    1    1    2    0    0  0.58952392666E+02  0.10703820386E+00 -0.13259436253E+03  0.14510913490E+03  0.00000000000E+00 0.  1.
         11    1    1    2    0    0 -0.39512542233E+02  0.19154279019E+02 -0.58706716471E+02  0.73311704094E+02  0.00000000000E+00 0. -1.
</event>
<event>
 7    1  0.2656394E-009  0.1711088E+03  0.7561462E-02  0.1176696E+00
          1   -1    0    0  501    0  0.00000000000E+00  0.00000000000E+00  0.27098031994E+03  0.27098031994E+03  0.00000000000E+00 0. -1.
         -1   -1    0    0    0  501 -0.00000000000E+00 -0.00000000000E+00 -0.14271540309E+03  0.14271540309E+03  0.00000000000E+00 0.  1.
         25    2    1    2    0    0  0.13705755135E+03 -0.88215951240E+02  0.58564005015E+02  0.21364449574E+03  0.12508957367E+03 0.  0.
          5    1    3    3  502    0  0.53741197221E+02 -0.40757243755E+02  0.90094123515E+02  0.11262190146E+03  0.41800000000E+01 0. -1.
         -5    1    3    3    0  502  0.83316354130E+02 -0.47458707486E+02 -0.31530118500E+02  0.10102259428E+03  0.41800000000E+01 0. -1.
        -11    1    1    2    0    0 -0.11143202853E+03  0.10067039944E+03  0.33289731231E+02  0.15381752992E+03  0.00000000000E+00 0.  1.
         11    1    1    2    0    0 -0.25625522820E+02 -0.12454448199E+02  0.36411180604E+02  0.46233697372E+02  0.00000000000E+00 0. -1.
</event>
<event>
 7    1  0.2334784E-009  0.1127166E+03  0.7561462E-02  0.1255620E+00
         -1   -1    0    0    0  501 -0.00000000000E+00  0.00000000000E+00  0.32738404175E+02  0.32738404175E+02  0.00000000000E+00 0.  1.
          1   -1    0    0  501    0  0.00000000000E+00 -0.00000000000E+00 -0.57296161000E+03  0.57296161000E+03  0.00000000000E+00 0. -1.
         25    2    1    2    0    0  0.49425196530E+01 -0.41599552962E+02 -0.13676427359E+03  0.19001739840E+03  0.12508874393E+03 0.  0.
          5    1    3    3  502    0 -0.55563729049E+02 -0.86776056595E+01 -0.91518532065E+02  0.10749764154E+03  0.41800000000E+01 0. -1.
         -5    1    3    3    0  502  0.60506248702E+02 -0.32921947303E+02 -0.45245741521E+02  0.82519756859E+02  0.41800000000E+01 0. -1.
        -11    1    1    2    0    0  0.40702161449E+02  0.35446866254E+02 -0.21231780283E+03  0.21907075495E+03  0.00000000000E+00 0. -1.
         11    1    1    2    0    0 -0.45644681102E+02  0.61526867083E+01 -0.19114112941E+03  0.19661186083E+03  0.00000000000E+00 0.  1.
</event>
<event>
 7    1  0.2673746E-009  0.2383984E+03  0.7561462E-02  0.1120864E+00
         -1   -1    0    0    0  501 -0.00000000000E+00  0.00000000000E+00  0.67221189783E+02  0.67221189783E+02  0.00000000000E+00 0.  1.
          1   -1    0    0  501    0  0.00000000000E+00 -0.00000000000E+00 -0.11923448433E+04  0.11923448433E+04  0.00000000000E+00 0. -1.
         25    2    1    2    0    0 -0.17404544114E+03 -0.14188071778E+03 -0.27901715107E+03  0.37935785872E+03  0.12505942875E+03 0.  0.
          5    1    3    3  502    0 -0.56768570668E+02 -0.11774026097E+03 -0.10316352626E+03  0.16657018107E+03  0.41800000000E+01 0. -1.
         -5    1    3    3    0  502 -0.11727687048E+03 -0.24140456808E+02 -0.17585362481E+03  0.21278767766E+03  0.41800000000E+01 0. -1.
        -11    1    1    2    0    0  0.10193251367E+03  0.10011821880E+03 -0.67413926538E+03  0.68911366566E+03  0.00000000000E+00 0. -1.
         11    1    1    2    0    0  0.72112927477E+02  0.41762498978E+02 -0.17196723703E+03  0.19109450867E+03  0.00000000000E+00 0.  1.
</event>
<event>
 7    1  0.2334784E-009  0.1739672E+03  0.7561462E-02  0.1173773E+00
          2   -1    0    0  501    0  0.00000000000E+00  0.00000000000E+00  0.25912883018E+04  0.25912883018E+04  0.00000000000E+00 0. -1.
         -2   -1    0    0    0  501 -0.00000000000E+00 -0.00000000000E+00 -0.16113847789E+02  0.16113847789E+02  0.00000000000E+00 0.  1.
         25    2    1    2    0    0 -0.12066862893E+02 -0.14888131240E+03  0.19076170448E+04  0.19175406187E+04  0.12509188849E+03 0.  0.
          5    1    3    3  502    0 -0.68609472190E+02 -0.82715435411E+02  0.10164401494E+04  0.10221140605E+04  0.41800000000E+01 0. -1.
         -5    1    3    3    0  502  0.56542609297E+02 -0.66165876993E+02  0.89117689533E+03  0.89542655819E+03  0.41800000000E+01 0. -1.
        -11    1    1    2    0    0 -0.11788284389E+02  0.36133486415E+02  0.56912061570E+02  0.68436651303E+02  0.00000000000E+00 0.  1.
         11    1    1    2    0    0  0.23855147282E+02  0.11274782599E+03  0.61064534768E+03  0.62142487958E+03  0.00000000000E+00 0. -1.
</event>
<event>
 7    1  0.2334784E-009  0.1490074E+03  0.7561462E-02  0.1201698E+00
         -1   -1    0    0    0  501 -0.00000000000E+00  0.00000000000E+00  0.46698005996E+02  0.46698005996E+02  0.00000000000E+00 0.  1.
          1   -1    0    0  501    0  0.00000000000E+00 -0.00000000000E+00 -0.59814748052E+03  0.59814748052E+03  0.00000000000E+00 0. -1.
         25    2    1    2    0    0 -0.83388279354E+02  0.67141412992E+02 -0.16407157812E+03  0.23243638319E+03  0.12508243287E+03 0.  0.
          5    1    3    3  502    0 -0.55804737628E+02 -0.24669340119E+02 -0.99448444458E+02  0.11674849288E+03  0.41800000000E+01 0.  1.
         -5    1    3    3    0  502 -0.27583541725E+02  0.91810753111E+02 -0.64623133658E+02  0.11568789031E+03  0.41800000000E+01 0.  1.
        -11    1    1    2    0    0  0.94213605779E+02 -0.80349909270E+02 -0.32686740462E+03  0.34953485039E+03  0.00000000000E+00 0.  1.
         11    1    1    2    0    0 -0.10825326426E+02  0.13208496278E+02 -0.60510491792E+02  0.62874252942E+02  0.00000000000E+00 0. -1.
</event>
<event>
 7    1  0.2334784E-009  0.9135725E+02  0.7561462E-02  0.1299598E+00
         -1   -1    0    0    0  501 -0.00000000000E+00  0.00000000000E+00  0.18811616568E+03  0.18811616568E+03  0.00000000000E+00 0.  1.
          1   -1    0    0  501    0  0.00000000000E+00 -0.00000000000E+00 -0.80460081273E+02  0.80460081273E+02  0.00000000000E+00 0. -1.
         25    2    1    2    0    0  0.25930672185E+02  0.51565446185E+02  0.67438628668E+02  0.15338490001E+03  0.12509022310E+03 0.  0.
          5    1    3    3  502    0  0.46958249167E+02  0.29656163165E+02  0.96323255933E+02  0.11126637952E+03  0.41800000000E+01 0. -1.
         -5    1    3    3    0  502 -0.21027576982E+02  0.21909283020E+02 -0.28884627265E+02  0.42118520492E+02  0.41800000000E+01 0. -1.
        -11    1    1    2    0    0  0.38683405740E+01 -0.63970191772E+02  0.50197318568E+02  0.81405898346E+02  0.00000000000E+00 0.  1.
         11    1    1    2    0    0 -0.29799012760E+02  0.12404745586E+02 -0.99798628293E+01  0.33785448593E+02  0.00000000000E+00 0. -1.
</event>
<event>
 7    1  0.2334784E-009  0.9546164E+02  0.7561462E-02  0.1290140E+00
         -2   -1    0    0    0  501 -0.00000000000E+00  0.00000000000E+00  0.27780135044E+03  0.27780135044E+03  0.00000000000E+00 0.  1.
          2   -1    0    0  501    0  0.00000000000E+00 -0.00000000000E+00 -0.52559579169E+02  0.52559579169E+02  0.00000000000E+00 0. -1.
         25    2    1    2    0    0 -0.50256661277E+02  0.24332830704E+02  0.14366383718E+03  0.19850588535E+03  0.12508984672E+03 0.  0.
          5    1    3    3  502    0 -0.85906992050E+02  0.81274523796E+01  0.13140237682E+03  0.15725814382E+03  0.41800000000E+01 0. -1.
         -5    1    3    3    0  502  0.35650330773E+02  0.16205378325E+02  0.12261460362E+02  0.41247741527E+02  0.41800000000E+01 0. -1.
        -11    1    1    2    0    0  0.39881569209E+02 -0.13183331542E+01  0.95160424775E+02  0.10318810013E+03  0.00000000000E+00 0.  1.
         11    1    1    2    0    0  0.10375092068E+02 -0.23014497550E+02 -0.13582490679E+02  0.28666944134E+02  0.00000000000E+00 0. -1.
</event>
<event>
 7    1  0.2334784E-009  0.6037166E+02  0.7561462E-02  0.1396279E+00
          2   -1    0    0  501    0  0.00000000000E+00  0.00000000000E+00  0.11584579879E+03  0.11584579879E+03  0.00000000000E+00 0. -1.
         -2   -1    0    0    0  501 -0.00000000000E+00 -0.00000000000E+00 -0.10339249641E+03  0.10339249641E+03  0.00000000000E+00 0.  1.
         25    2    1    2    0    0 -0.16513658774E+01  0.16639196092E+02 -0.39894465091E+01  0.12626637935E+03  0.12509073912E+03 0.  0.
          5    1    3    3  502    0 -0.45044328129E+01  0.43552444614E+02  0.49473302859E+02  0.66198077333E+02  0.41800000000E+01 0. -1.
         -5    1    3    3    0  502  0.28530669355E+01 -0.26913248522E+02 -0.53462749368E+02  0.60068302014E+02  0.41800000000E+01 0. -1.
        -11    1    1    2    0    0  0.17817700304E+02  0.82983206804E+01  0.46634356041E+02  0.50607269573E+02  0.00000000000E+00 0. -1.
         11    1    1    2    0    0 -0.16166334426E+02 -0.24937516772E+02 -0.30191607151E+02  0.42364646274E+02  0.00000000000E+00 0.  1.
</event>
<event>
 7    1  0.2334784E-009  0.1064798E+03  0.7561462E-02  0.1267231E+00
         -1   -1    0    0    0  501 -0.00000000000E+00  0.00000000000E+00  0.24993305092E+03  0.24993305092E+03  0.00000000000E+00 0.  1.
          1   -1    0    0  501    0  0.00000000000E+00 -0.00000000000E+00 -0.76117405954E+02  0.76117405954E+02  0.00000000000E+00 0. -1.
         25    2    1    2    0    0  0.45816679165E+02 -0.62789654768E+02  0.13543776105E+03  0.20007917309E+03  0.12508628843E+03 0.  0.
          5    1    3    3  502    0  0.68537129897E+02 -0.39674930351E+02  0.22390315469E+02  0.82402893758E+02  0.41800000000E+01 0. -1.
         -5    1    3    3    0  502 -0.22720450732E+02 -0.23114724417E+02  0.11304744558E+03  0.11767627934E+03  0.41800000000E+01 0. -1.
        -11    1    1    2    0    0  0.13990240202E+01  0.52670556108E+02 -0.14214905015E+02  0.54572962844E+02  0.00000000000E+00 0.  1.
         11    1    1    2    0    0 -0.47215703185E+02  0.10119098660E+02  0.52592788934E+02  0.71398320939E+02  0.00000000000E+00 0. -1.
</event>
<event>
 7    1  0.2334784E-009  0.9663967E+02  0.7561462E-02  0.1287525E+00
          1   -1    0    0  501    0  0.00000000000E+00  0.00000000000E+00  0.35674081720E+03  0.35674081720E+03  0.00000000000E+00 0. -1.
         -1   -1    0    0    0  501 -0.00000000000E+00 -0.00000000000E+00 -0.38549759555E+02  0.38549759555E+02  0.00000000000E+00 0.  1.
         25    2    1    2    0    0  0.11363859621E+02  0.37916951416E+02  0.21767757717E+03  0.25415939282E+03  0.12508651743E+03 0.  0.
          5    1    3    3  502    0 -0.14639526015E+02 -0.32940095253E+02  0.14436002717E+03  0.14885111838E+03  0.41800000000E+01 0. -1.
         -5    1    3    3    0  502  0.26003385636E+02  0.70857046669E+02  0.73317550001E+02  0.10530827444E+03  0.41800000000E+01 0. -1.
        -11    1    1    2    0    0 -0.16163911584E+02 -0.58278184969E+02  0.29864330181E+02  0.67449959956E+02  0.00000000000E+00 0. -1.
         11    1    1    2    0    0  0.48000519629E+01  0.20361233553E+02  0.70649150285E+02  0.73681223977E+02  0.00000000000E+00 0.  1.
</event>
<event>
 7    1  0.2334784E-009  0.1048117E+03  0.7561462E-02  0.1270491E+00
          1   -1    0    0  501    0  0.00000000000E+00  0.00000000000E+00  0.35738527749E+03  0.35738527749E+03  0.00000000000E+00 0. -1.
         -1   -1    0    0    0  501 -0.00000000000E+00 -0.00000000000E+00 -0.71293878581E+02  0.71293878581E+02  0.00000000000E+00 0.  1.
         25    2    1    2    0    0 -0.96049964313E+02 -0.28473105608E+02  0.23104011199E+03  0.28118522644E+03  0.12509710161E+03 0.  0.
          5    1    3    3  502    0 -0.65413055050E+01  0.86387930545E+01 -0.13680879274E+02  0.17945926581E+02  0.41800000000E+01 0. -1.
         -5    1    3    3    0  502 -0.89508658808E+02 -0.37111898663E+02  0.24472099126E+03  0.26323929986E+03  0.41800000000E+01 0. -1.
        -11    1    1    2    0    0  0.64407182709E+02  0.12628222382E+02  0.80529454375E+02  0.10388816202E+03  0.00000000000E+00 0. -1.
         11    1    1    2    0    0  0.31642781604E+02  0.15844883227E+02 -0.25478167460E+02  0.43605767614E+02  0.00000000000E+00 0.  1.
</event>
<event>
 7    1  0.2334784E-009  0.1006120E+03  0.7561462E-02  0.1279014E+00
          2   -1    0    0  501    0  0.00000000000E+00  0.00000000000E+00  0.59497842822E+02  0.59497842822E+02  0.00000000000E+00 0. -1.
         -2   -1    0    0    0  501 -0.00000000000E+00 -0.00000000000E+00 -0.28792790409E+03  0.28792790409E+03  0.00000000000E+00 0.  1.
         25    2    1    2    0    0 -0.58491889648E+02 -0.38465447651E+02 -0.14386251609E+03  0.20307362744E+03  0.12506631364E+03 0.  0.
          5    1    3    3  502    0 -0.85885854267E+02 -0.27888697633E+01 -0.12987085736E+03  0.15578212269E+03  0.41800000000E+01 0.  1.
         -5    1    3    3    0  502  0.27393964620E+02 -0.35676577888E+02 -0.13991658722E+02  0.47291504746E+02  0.41800000000E+01 0.  1.
        -11    1    1    2    0    0  0.26716876676E+02  0.18293430966E+02 -0.98909710260E+02  0.10407483797E+03  0.00000000000E+00 0.  1.
         11    1    1    2    0    0  0.31775012971E+02  0.20172016685E+02  0.14342165072E+02  0.40277281505E+02  0.00000000000E+00 0. -1.
</event>
<event>
 7    1  0.2334784E-009  0.1060068E+03  0.7561462E-02  0.1268149E+00
          1   -1    0    0  501    0  0.00000000000E+00  0.00000000000E+00  0.73126687319E+03  0.73126687319E+03  0.00000000000E+00 0. -1.
         -1   -1    0    0    0  501 -0.00000000000E+00 -0.00000000000E+00 -0.19831021473E+02  0.19831021473E+02  0.00000000000E+00 0.  1.
         25    2    1    2    0    0  0.28280772212E+02  0.44496675748E+02  0.38344904540E+03  0.40676817672E+03  0.12508965963E+03 0.  0.
          5    1    3    3  502    0  0.16237932726E+02 -0.42150223759E+02  0.94243011510E+02  0.10459220545E+03  0.41800000000E+01 0. -1.
         -5    1    3    3    0  502  0.12042839486E+02  0.86646899508E+02  0.28920603389E+03  0.30217597127E+03  0.41800000000E+01 0. -1.
        -11    1    1    2    0    0 -0.24917470687E+02  0.82268672255E+01  0.23285895363E+02  0.35082682518E+02  0.00000000000E+00 0.  1.
         11    1    1    2    0    0 -0.33633015249E+01 -0.52723542974E+02  0.30470091095E+03  0.30924703542E+03  0.00000000000E+00 0. -1.
</event>
<event>
 7    1  0.2641027E-009  0.1045999E+03  0.7561462E-02  0.1270910E+00
          2   -1    0    0  501    0  0.00000000000E+00  0.00000000000E+00  0.14405613526E+04  0.14405613526E+04  0.00000000000E+00 0. -1.
         -2   -1    0    0    0  501 -0.00000000000E+00 -0.00000000000E+00 -0.16538752074E+02  0.16538752074E+02  0.00000000000E+00 0.  1.
         25    2    1    2    0    0 -0.56908268937E+02 -0.20152699796E+02  0.11989992849E+04  0.12070175135E+04  0.12508920940E+03 0.  0.
          5    1    3    3  502    0 -0.67950056525E+02  0.23531766972E+02  0.37984909354E+03  0.38661836545E+03  0.41800000000E+01 0. -1.
         -5    1    3    3    0  502  0.11041787589E+02 -0.43684466768E+02  0.81915019134E+03  0.82039914802E+03  0.41800000000E+01 0. -1.
        -11    1    1    2    0    0  0.60453275863E+02 -0.10243564585E+02  0.20384456220E+03  0.21286647157E+03  0.00000000000E+00 0. -1.
         11    1    1    2    0    0 -0.35450069262E+01  0.30396264381E+02  0.21178753425E+02  0.37216119613E+02  0.00000000000E+00 0.  1.
</event>
<event>
 7    1  0.2334784E-009  0.9760023E+02  0.7561462E-02  0.1285425E+00
         -2   -1    0    0    0  501 -0.00000000000E+00  0.00000000000E+00  0.10211854976E+03  0.10211854976E+03  0.00000000000E+00 0.  1.
          2   -1    0    0  501    0  0.00000000000E+00 -0.00000000000E+00 -0.20465327255E+03  0.20465327255E+03  0.00000000000E+00 0. -1.
         25    2    1    2    0    0 -0.23232376567E+02  0.90314439058E+02 -0.37508266068E+02  0.16046923087E+03  0.12508822010E+03 0.  0.
          5    1    3    3  502    0 -0.28141782655E+02  0.84862382217E+02  0.28492758252E+02  0.93930258806E+02  0.41800000000E+01 0. -1.
         -5    1    3    3    0  502  0.49094060879E+01  0.54520568419E+01 -0.66001024320E+02  0.66538972064E+02  0.41800000000E+01 0. -1.
        -11    1    1    2    0    0  0.68474269397E+01 -0.73342708846E+02  0.35850530275E+01  0.73748849495E+02  0.00000000000E+00 0.  1.
         11    1    1    2    0    0  0.16384949628E+02 -0.16971730212E+02 -0.68611509744E+02  0.72553741944E+02  0.00000000000E+00 0. -1.
</event>
<event>
 7    1  0.2334784E-009  0.1940670E+03  0.7561462E-02  0.1154843E+00
         -1   -1    0    0    0  501 -0.00000000000E+00  0.00000000000E+00  0.21310251434E+03  0.21310251434E+03  0.00000000000E+00 0.  1.
          1   -1    0    0  501    0  0.00000000000E+00 -0.00000000000E+00 -0.20479109862E+03  0.20479109862E+03  0.00000000000E+00 0. -1.
         25    2    1    2    0    0 -0.71112775725E+02  0.15830766312E+03 -0.34556985299E+02  0.21669953056E+03  0.12508460432E+03 0.  0.
          5    1    3    3  502    0 -0.58144125945E+02  0.17948664512E+03 -0.31596420634E+02  0.19134262817E+03  0.41800000000E+01 0. -1.
         -5    1    3    3    0  502 -0.12968649780E+02 -0.21178981998E+02 -0.29605646646E+01  0.25356902388E+02  0.41800000000E+01 0. -1.
        -11    1    1    2    0    0  0.58565827008E+02 -0.11371216666E+03  0.71694971302E+02  0.14663076706E+03  0.00000000000E+00 0. -1.
         11    1    1    2    0    0  0.12546948717E+02 -0.44595496464E+02 -0.28826570282E+02  0.54563315343E+02  0.00000000000E+00 0.  1.
</event>
<event>
 7    1  0.2334784E-009  0.1125374E+03  0.7561462E-02  0.1255942E+00
          2   -1    0    0  501    0  0.00000000000E+00  0.00000000000E+00  0.79077766386E+03  0.79077766386E+03  0.00000000000E+00 0. -1.
         -2   -1    0    0    0  501 -0.00000000000E+00 -0.00000000000E+00 -0.16759106889E+02  0.16759106889E+02  0.00000000000E+00 0.  1.
         25    2    1    2    0    0  0.53385693032E+02  0.39168272229E+01  0.43487074597E+03  0.45565879742E+03  0.12508796989E+03 0.  0.
          5    1    3    3  502    0  0.53198278844E+02  0.56974637661E+02  0.19690960601E+03  0.21181839285E+03  0.41800000000E+01 0. -1.
         -5    1    3    3    0  502  0.18741418877E+00 -0.53057810438E+02  0.23796113996E+03  0.24384040458E+03  0.41800000000E+01 0. -1.
        -11    1    1    2    0    0  0.45071253988E+01  0.27537899054E+02  0.10172832671E+03  0.10548602997E+03  0.00000000000E+00 0.  1.
         11    1    1    2    0    0 -0.57892818431E+02 -0.31454726277E+02  0.23741948430E+03  0.24639194336E+03  0.00000000000E+00 0. -1.
</event>
<event>
 7    1  0.2334784E-009  0.9654388E+02  0.7561462E-02  0.1287736E+00
         -1   -1    0    0    0  501 -0.00000000000E+00  0.00000000000E+00  0.26874016791E+03  0.26874016791E+03  0.00000000000E+00 0.  1.
          1   -1    0    0  501    0  0.00000000000E+00 -0.00000000000E+00 -0.59568582053E+02  0.59568582053E+02  0.00000000000E+00 0. -1.
         25    2    1    2    0    0 -0.51142978715E+02  0.31816094364E+02  0.15008609359E+03  0.20445396396E+03  0.12509084603E+03 0.  0.
          5    1    3    3  502    0  0.13315206936E+02  0.15114186146E+02  0.13433615282E+03  0.13590219907E+03  0.41800000000E+01 0. -1.
         -5    1    3    3    0  502 -0.64458185651E+02  0.16701908218E+02  0.15749940770E+02  0.68551764892E+02  0.41800000000E+01 0. -1.
        -11    1    1    2    0    0  0.66761113793E+01 -0.55169198104E+02  0.45503383484E+02  0.71824569550E+02  0.00000000000E+00 0.  1.
         11    1    1    2    0    0  0.44466867335E+02  0.23353103740E+02  0.13582108787E+02  0.52030216452E+02  0.00000000000E+00 0. -1.
</event>
<event>
 7    1  0.2334784E-009  0.8030012E+02  0.7561462E-02  0.1328202E+00
          2   -1    0    0  501    0  0.00000000000E+00  0.00000000000E+00  0.60871229212E+03  0.60871229212E+03  0.00000000000E+00 0. -1.
         -2   -1    0    0    0  501 -0.00000000000E+00 -0.00000000000E+00 -0.26462584059E+02  0.26462584059E+02  0.00000000000E+00 0.  1.
         25    2    1    2    0    0  0.65571883061E+02 -0.20267441134E+02  0.33442348197E+03  0.36358917469E+03  0.12509029394E+03 0.  0.
          5    1    3    3  502    0  0.53686841760E+02 -0.16420173350E+02  0.34318280340E+03  0.34776976295E+03  0.41800000000E+01 0.  1.
         -5    1    3    3    0  502  0.11885041301E+02 -0.38472677844E+01 -0.87593214241E+01  0.15819411744E+02  0.41800000000E+01 0.  1.
        -11    1    1    2    0    0 -0.14162663471E+02  0.34912307253E+02  0.32603377264E+02  0.49823994655E+02  0.00000000000E+00 0.  1.
         11    1    1    2    0    0 -0.51409219590E+02 -0.14644866119E+02  0.21522284882E+03  0.22176170683E+03  0.00000000000E+00 0. -1.
</event>
<event>
 7    1  0.2334784E-009  0.1067572E+03  0.7561462E-02  0.1266696E+00
         -2   -1    0    0    0  501 -0.00000000000E+00  0.00000000000E+00  0.10580002542E+03  0.10580002542E+03  0.00000000000E+00 0.  1.
          2   -1    0    0  501    0  0.00000000000E+00 -0.00000000000E+00 -0.20430927462E+03  0.20430927462E+03  0.00000000000E+00 0. -1.
         25    2    1    2    0    0  0.34814336253E+02 -0.88521995808E+02 -0.22106647930E+02  0.15869671975E+03  0.12509101976E+03 0.  0.
          5    1    3    3  502    0  0.51160885046E+02 -0.74189126195E+02  0.35525507258E+02  0.96958736946E+02  0.41800000000E+01 0.  1.
         -5    1    3    3    0  502 -0.16346548793E+02 -0.14332869613E+02 -0.57632155188E+02  0.61737982801E+02  0.41800000000E+01 0.  1.
        -11    1    1    2    0    0 -0.34339742011E+02  0.40345305078E+02  0.86304194237E+01  0.53679098937E+02  0.00000000000E+00 0.  1.
         11    1    1    2    0    0 -0.47459424195E+00  0.48176690730E+02 -0.85033020692E+02  0.97733481353E+02  0.00000000000E+00 0. -1.
</event>
<event>
 7    1  0.2334784E-009  0.1396387E+03  0.7561462E-02  0.1213816E+00
          2   -1    0    0  501    0  0.00000000000E+00  0.00000000000E+00  0.12981985957E+03  0.12981985957E+03  0.00000000000E+00 0. -1.
         -2   -1    0    0    0  501 -0.00000000000E+00 -0.00000000000E+00 -0.18584795172E+03  0.18584795172E+03  0.00000000000E+00 0.  1.
         25    2    1    2    0    0  0.66944232488E+02  0.78695566277E+02 -0.70644611067E+02  0.17695294144E+03  0.12508860859E+03 0.  0.
          5    1    3    3  502    0  0.20354918972E+02 -0.31048209204E+02  0.17625337390E+01  0.37401777315E+02  0.41800000000E+01 0. -1.
         -5    1    3    3    0  502  0.46589313515E+02  0.10974377548E+03 -0.72407144806E+02  0.13955116413E+03  0.41800000000E+01 0. -1.
        -11    1    1    2    0    0  0.12647798034E+02 -0.20246039656E+02 -0.22900099176E+02  0.33079955549E+02  0.00000000000E+00 0.  1.
         11    1    1    2    0    0 -0.79592030522E+02 -0.58449526621E+02  0.37516618100E+02  0.10563491430E+03  0.00000000000E+00 0. -1.
</event>
<event>
 7    1  0.2334784E-009  0.3612132E+03  0.7561462E-02  0.1058105E+00
         -1   -1    0    0    0  501 -0.00000000000E+00  0.00000000000E+00  0.38620713413E+03  0.38620713413E+03  0.00000000000E+00 0.  1.
          1   -1    0    0  501    0  0.00000000000E+00 -0.00000000000E+00 -0.46736346488E+03  0.46736346488E+03  0.00000000000E+00 0. -1.
         25    2    1    2    0    0  0.34825366703E+03 -0.75309381749E+02 -0.24579318882E+03  0.45057135798E+03  0.12509251530E+03 0.  0.
          5    1    3    3  502    0  0.26189340317E+03 -0.60692063742E+02 -0.11346828016E+03  0.29182906679E+03  0.41800000000E+01 0.  1.
         -5    1    3    3    0  502  0.86360263866E+02 -0.14617318007E+02 -0.13232490866E+03  0.15874229119E+03  0.41800000000E+01 0.  1.
        -11    1    1    2    0    0 -0.26342768271E+03  0.92735988498E+02  0.14292073782E+03  0.31372032909E+03  0.00000000000E+00 0. -1.
         11    1    1    2    0    0 -0.84825984317E+02 -0.17426606749E+02  0.21716120250E+02  0.89278911938E+02  0.00000000000E+00 0.  1.
</event>
<event>
 7    1  0.2334784E-009  0.1315648E+03  0.7561462E-02  0.1225152E+00
          1   -1    0    0  501    0  0.00000000000E+00  0.00000000000E+00  0.71395829933E+02  0.71395829933E+02  0.00000000000E+00 0. -1.
         -1   -1    0    0    0  501 -0.00000000000E+00 -0.00000000000E+00 -0.34766142089E+03  0.34766142089E+03  0.00000000000E+00 0.  1.
         25    2    1    2    0    0  0.10103063310E+03  0.10774456420E+02 -0.16006281519E+03  0.22711972777E+03  0.12505993844E+03 0.  0.
          5    1    3    3  502    0  0.10839403192E+03 -0.32963732682E+02 -0.13392220841E+03  0.17546653280E+03  0.41800000000E+01 0.  1.
         -5    1    3    3    0  502 -0.73633988179E+01  0.43738189103E+02 -0.26140606774E+02  0.51653194971E+02  0.41800000000E+01 0.  1.
        -11    1    1    2    0    0 -0.24740637136E+02  0.91156729348E+01 -0.10970611983E+03  0.11283008175E+03  0.00000000000E+00 0.  1.
         11    1    1    2    0    0 -0.76289995965E+02 -0.19890129355E+02 -0.64966559355E+01  0.79107441296E+02  0.00000000000E+00 0. -1.
</event>
<event>
 7    1  0.2334784E-009  0.1048193E+03  0.7561462E-02  0.1270476E+00
         -1   -1    0    0    0  501 -0.00000000000E+00  0.00000000000E+00  0.66736984906E+02  0.66736984906E+02  0.00000000000E+00 0. -1.
          1   -1    0    0  501    0  0.00000000000E+00 -0.00000000000E+00 -0.34234483463E+03  0.34234483463E+03  0.00000000000E+00 0.  1.
         25    2    1    2    0    0  0.85401234220E+02 -0.12041712614E+02 -0.68555607055E+02  0.16668656267E+03  0.12508463241E+03 0.  0.
          5    1    3    3  502    0  0.52215140325E+02 -0.18677304227E+02 -0.10372931309E+03  0.11769666676E+03  0.41800000000E+01 0.  1.
         -5    1    3    3    0  502  0.33186093895E+02  0.66355916129E+01  0.35173706039E+02  0.48989895903E+02  0.41800000000E+01 0.  1.
        -11    1    1    2    0    0 -0.53591499870E+02 -0.34365450420E+02 -0.14652140534E+03  0.15975467212E+03  0.00000000000E+00 0.  1.
         11    1    1    2    0    0 -0.31809734349E+02  0.46407163034E+02 -0.60530837329E+02  0.82640584751E+02  0.00000000000E+00 0. -1.
</event>
<event>
 7    1  0.2397753E-009  0.9955386E+02  0.7561462E-02  0.1281237E+00
         -3   -1    0    0    0  501 -0.00000000000E+00  0.00000000000E+00  0.17939846388E+03  0.17939846388E+03  0.00000000000E+00 0.  1.
          3   -1    0    0  501    0  0.00000000000E+00 -0.00000000000E+00 -0.93286227558E+02  0.93286227558E+02  0.00000000000E+00 0. -1.
         25    2    1    2    0    0 -0.23577685277E+02 -0.29450471908E+02 -0.14468140806E+02  0.13145442681E+03  0.12509077381E+03 0.  0.
          5    1    3    3  502    0 -0.65395998431E+02  0.34269608900E+00 -0.36968893550E+02  0.75239122415E+02  0.41800000000E+01 0. -1.
         -5    1    3    3    0  502  0.41818313155E+02 -0.29793167997E+02  0.22500752744E+02  0.56215304397E+02  0.41800000000E+01 0. -1.
        -11    1    1    2    0    0  0.16856286505E+02  0.54020231949E+02  0.10097924510E+03  0.11575460162E+03  0.00000000000E+00 0.  1.
         11    1    1    2    0    0  0.67213987715E+01 -0.24569760041E+02 -0.39886797381E+00  0.25475663006E+02  0.00000000000E+00 0. -1.
</event>
<event>
 7    1  0.2334784E-009  0.9955688E+02  0.7561462E-02  0.1281231E+00
         -1   -1    0    0    0  501 -0.00000000000E+00  0.00000000000E+00  0.52340632120E+02  0.52340632120E+02  0.00000000000E+00 0.  1.
          1   -1    0    0  501    0  0.00000000000E+00 -0.00000000000E+00 -0.35250291951E+03  0.35250291951E+03  0.00000000000E+00 0. -1.
         25    2    1    2    0    0  0.67126082973E+02  0.12236158390E+01 -0.22727897815E+03  0.26798231175E+03  0.12510546450E+03 0.  0.
          5    1    3    3  502    0 -0.60167648605E+01  0.45166190612E+02 -0.35093807838E+02  0.57664841822E+02  0.41800000000E+01 0.  1.
         -5    1    3    3    0  502  0.73142847833E+02 -0.43942574773E+02 -0.19218517031E+03  0.21031746992E+03  0.41800000000E+01 0.  1.
        -11    1    1    2    0    0 -0.23878548755E+02  0.45115247986E+01  0.21777442172E+02  0.32631211044E+02  0.00000000000E+00 0.  1.
         11    1    1    2    0    0 -0.43247534218E+02 -0.57351406376E+01 -0.94660751405E+02  0.10423002883E+03  0.00000000000E+00 0. -1.
</event>
<event>
 7    1  0.2334784E-009  0.1319205E+03  0.7561462E-02  0.1224634E+00
         -1   -1    0    0    0  501 -0.00000000000E+00  0.00000000000E+00  0.11903157650E+03  0.11903157650E+03  0.00000000000E+00 0.  1.
          1   -1    0    0  501    0  0.00000000000E+00 -0.00000000000E+00 -0.21633320468E+03  0.21633320468E+03  0.00000000000E+00 0. -1.
         25    2    1    2    0    0 -0.80146446257E+02 -0.35853862054E+02 -0.13434904465E+03  0.20348475163E+03  0.12508967213E+03 0.  0.
          5    1    3    3  502    0 -0.79139451724E+02  0.31439511576E+02 -0.70693101547E+02  0.11075415439E+03  0.41800000000E+01 0.  1.
         -5    1    3    3    0  502 -0.10069945329E+01 -0.67293373630E+02 -0.63655943102E+02  0.92730597241E+02  0.41800000000E+01 0.  1.
        -11    1    1    2    0    0  0.46740974769E+01 -0.17895942441E+02 -0.16566508247E+02  0.24830649178E+02  0.00000000000E+00 0. -1.
         11    1    1    2    0    0  0.75472348780E+02  0.53749804495E+02  0.53613924715E+02  0.10704938037E+03  0.00000000000E+00 0.  1.
</event>
<event>
 7    1  0.2334784E-009  0.9783912E+02  0.7561462E-02  0.1284907E+00
          1   -1    0    0  501    0  0.00000000000E+00  0.00000000000E+00  0.12890247991E+03  0.12890247991E+03  0.00000000000E+00 0. -1.
         -1   -1    0    0    0  501 -0.00000000000E+00 -0.00000000000E+00 -0.10744946532E+03  0.10744946532E+03  0.00000000000E+00 0.  1.
         25    2    1    2    0    0  0.39197741486E+02  0.27104893058E+01 -0.66817816871E+01  0.13127952538E+03  0.12508340373E+03 0.  0.
          5    1    3    3  502    0 -0.13853971465E+02  0.31395369506E+02  0.41471950358E+02  0.53990710482E+02  0.41800000000E+01 0. -1.
         -5    1    3    3    0  502  0.53051712951E+02 -0.28684880200E+02 -0.48153732046E+02  0.77288814903E+02  0.41800000000E+01 0. -1.
        -11    1    1    2    0    0  0.28520730025E+02  0.12673391943E+02  0.13993578275E+02  0.34203320562E+02  0.00000000000E+00 0.  1.
         11    1    1    2    0    0 -0.67718471512E+02 -0.15383881249E+02  0.14141218004E+02  0.70869099280E+02  0.00000000000E+00 0. -1.
</event>
<event>
 7    1  0.2334784E-009  0.9480896E+02  0.7561462E-02  0.1291607E+00
         -2   -1    0    0    0  501 -0.00000000000E+00  0.00000000000E+00  0.29209185308E+02  0.29209185308E+02  0.00000000000E+00 0.  1.
          2   -1    0    0  501    0  0.00000000000E+00 -0.00000000000E+00 -0.61565513271E+03  0.61565513271E+03  0.00000000000E+00 0. -1.
         25    2    1    2    0    0  0.26157939223E+02 -0.28241621934E+02 -0.49086855079E+03  0.50801719599E+03  0.12509080812E+03 0.  0.
          5    1    3    3  502    0  0.29441826913E+02  0.40342188388E+02 -0.31867144095E+03  0.32258839565E+03  0.41800000000E+01 0. -1.
         -5    1    3    3    0  502 -0.32838876894E+01 -0.68583810322E+02 -0.17219710984E+03  0.18542880034E+03  0.41800000000E+01 0. -1.
        -11    1    1    2    0    0  0.14682942999E+01 -0.17344651284E+02  0.89056033697E+01  0.19552559620E+02  0.00000000000E+00 0.  1.
         11    1    1    2    0    0 -0.27626233523E+02  0.45586273218E+02 -0.10448299998E+03  0.11729456240E+03  0.00000000000E+00 0. -1.
</event>
<event>
 7    1  0.2334784E-009  0.1196092E+03  0.7561462E-02  0.1243743E+00
          1   -1    0    0  501    0  0.00000000000E+00  0.00000000000E+00  0.30487056745E+03  0.30487056745E+03  0.00000000000E+00 0. -1.
         -1   -1    0    0    0  501 -0.00000000000E+00 -0.00000000000E+00 -0.65654364610E+02  0.65654364610E+02  0.00000000000E+00 0.  1.
         25    2    1    2    0    0  0.50552037186E+02 -0.69552138220E+02  0.16929953118E+03  0.22738875223E+03  0.12510117901E+03 0.  0.
          5    1    3    3  502    0  0.70877221603E+02 -0.57829522087E+02  0.47267213663E+02  0.10305093912E+03  0.41800000000E+01 0. -1.
         -5    1    3    3    0  502 -0.20325184417E+02 -0.11722616133E+02  0.12203231751E+03  0.12433781311E+03  0.41800000000E+01 0. -1.
        -11    1    1    2    0    0 -0.98727424023E+01  0.80964694194E+02  0.54797823096E+02  0.98262679409E+02  0.00000000000E+00 0.  1.
         11    1    1    2    0    0 -0.40679294784E+02 -0.11412555974E+02  0.15118848569E+02  0.44873500421E+02  0.00000000000E+00 0. -1.
</event>
<event>
 7    1  0.2334784E-009  0.1128165E+03  0.7561462E-02  0.1255441E+00
          2   -1    0    0  501    0  0.00000000000E+00  0.00000000000E+00  0.66866264336E+03  0.66866264336E+03  0.00000000000E+00 0. -1.
         -2   -1    0    0    0  501 -0.00000000000E+00 -0.00000000000E+00 -0.20922941220E+02  0.20922941220E+02  0.00000000000E+00 0.  1.
         25    2    1    2    0    0 -0.18837295293E+02 -0.39426191615E+02  0.31066491562E+03  0.33773378234E+03  0.12506857982E+03 0.  0.
          5    1    3    3  502    0  0.50593782171E+02 -0.29454188124E+02  0.10359121461E+03  0.11906255556E+03  0.41800000000E+01 0.  1.
         -5    1    3    3    0  502 -0.69431077464E+02 -0.99720034911E+01  0.20707370101E+03  0.21867122678E+03  0.41800000000E+01 0.  1.
        -11    1    1    2    0    0  0.39118507042E+02  0.57474607970E+02  0.19064234721E+03  0.20292385938E+03  0.00000000000E+00 0.  1.
         11    1    1    2    0    0 -0.20281211749E+02 -0.18048416355E+02  0.14643243931E+03  0.14892794286E+03  0.00000000000E+00 0. -1.
</event>
<event>
 7    1  0.2334784E-009  0.2295375E+03  0.7561462E-02  0.1126966E+00
         -2   -1    0    0    0  501 -0.00000000000E+00  0.00000000000E+00  0.31443397385E+03  0.31443397385E+03  0.00000000000E+00 0.  1.
          2   -1    0    0  501    0  0.00000000000E+00 -0.00000000000E+00 -0.22700265472E+03  0.22700265472E+03  0.00000000000E+00 0. -1.
         25    2    1    2    0    0  0.10099418113E+02 -0.20129894966E+03  0.17853672685E+03  0.29689457738E+03  0.12509101431E+03 0.  0.
          5    1    3    3  502    0 -0.43242224244E+02 -0.19547879922E+02  0.32250381419E+02  0.57528854228E+02  0.41800000000E+01 0.  1.
         -5    1    3    3    0  502  0.53341642357E+02 -0.18175106974E+03  0.14628634543E+03  0.23936572315E+03  0.41800000000E+01 0.  1.
        -11    1    1    2    0    0 -0.48760245715E+02  0.15007088899E+03 -0.87103138604E+02  0.18023814813E+03  0.00000000000E+00 0. -1.
         11    1    1    2    0    0  0.38660827602E+02  0.51228060669E+02 -0.40022691207E+01  0.64303903061E+02  0.00000000000E+00 0.  1.
</event>
<event>
 7    1  0.2334784E-009  0.1328324E+03  0.7561462E-02  0.1223313E+00
         -2   -1    0    0    0  501 -0.00000000000E+00  0.00000000000E+00  0.20635433277E+02  0.20635433277E+02  0.00000000000E+00 0.  1.
          2   -1    0    0  501    0  0.00000000000E+00 -0.00000000000E+00 -0.11653588318E+04  0.11653588318E+04  0.00000000000E+00 0. -1.
         25    2    1    2    0    0 -0.90331745418E+02  0.85290820418E+01 -0.85323331847E+03  0.86711455027E+03  0.12509187854E+03 0.  0.
          5    1    3    3  502    0 -0.12047888365E+03 -0.61762214308E+01 -0.66046562852E+03  0.67140570892E+03  0.41800000000E+01 0.  1.
         -5    1    3    3    0  502  0.30147138236E+02  0.14705303473E+02 -0.19276768995E+03  0.19570884135E+03  0.41800000000E+01 0.  1.
        -11    1    1    2    0    0  0.15105639251E+02 -0.29427729312E+02 -0.25783923427E+02  0.41940222900E+02  0.00000000000E+00 0. -1.
         11    1    1    2    0    0  0.75226106168E+02  0.20898647270E+02 -0.26570615665E+03  0.27693949193E+03  0.00000000000E+00 0.  1.
</event>
<event>
 7    1  0.2334784E-009  0.1719222E+03  0.7561462E-02  0.1175858E+00
          1   -1    0    0  501    0  0.00000000000E+00  0.00000000000E+00  0.89670175875E+03  0.89670175875E+03  0.00000000000E+00 0. -1.
         -1   -1    0    0    0  501 -0.00000000000E+00 -0.00000000000E+00 -0.42621393097E+02  0.42621393097E+02  0.00000000000E+00 0.  1.
         25    2    1    2    0    0 -0.13697686744E+03 -0.59206155488E+02  0.29547156373E+03  0.35386078268E+03  0.12508388177E+03 0.  0.
          5    1    3    3  502    0  0.87339624726E-01  0.24439330366E+02  0.88296575579E+02  0.91711755822E+02  0.41800000000E+01 0. -1.
         -5    1    3    3    0  502 -0.13706420707E+03 -0.83645485855E+02  0.20717498816E+03  0.26214902685E+03  0.41800000000E+01 0. -1.
        -11    1    1    2    0    0  0.76764242454E+02  0.42160277087E+01  0.39778984625E+03  0.40515094174E+03  0.00000000000E+00 0. -1.
         11    1    1    2    0    0  0.60212624990E+02  0.54990127780E+02  0.16081895567E+03  0.18031142743E+03  0.00000000000E+00 0.  1.
</event>
<event>
 7    1  0.2334784E-009  0.1737331E+03  0.7561462E-02  0.1174010E+00
         -1   -1    0    0    0  501 -0.00000000000E+00  0.00000000000E+00  0.19773028256E+03  0.19773028256E+03  0.00000000000E+00 0.  1.
          1   -1    0    0  501    0  0.00000000000E+00 -0.00000000000E+00 -0.19067282597E+03  0.19067282597E+03  0.00000000000E+00 0. -1.
         25    2    1    2    0    0  0.15175285335E+03  0.19901219428E+02 -0.45964753192E+02  0.20294068661E+03  0.12508867540E+03 0.  0.
          5    1    3    3  502    0  0.40788018828E+02  0.44307730721E+02  0.28780267959E+02  0.66877602419E+02  0.41800000000E+01 0. -1.
         -5    1    3    3    0  502  0.11096483452E+03 -0.24406511292E+02 -0.74745021151E+02  0.13606308420E+03  0.41800000000E+01 0. -1.
        -11    1    1    2    0    0 -0.83862746836E+02 -0.51612971860E+02  0.50074525197E+02  0.11047315169E+03  0.00000000000E+00 0. -1.
         11    1    1    2    0    0 -0.67890106514E+02  0.31711752431E+02  0.29476845907E+01  0.74989270227E+02  0.00000000000E+00 0.  1.
</event>
<event>
 6    1  0.2687787E-009  0.1144139E+03  0.7561462E-02  0.1252608E+00
          1   -1    0    0  501    0  0.00000000000E+00  0.00000000000E+00  0.61680584058E+03  0.61680584058E+03  0.00000000000E+00 0. -1.
         -1   -1    0    0    0  501 -0.00000000000E+00 -0.00000000000E+00 -0.21906642047E+02  0.21906642047E+02  0.00000000000E+00 0.  1.
          5    1    1    2  502    0 -0.17007101748E+02 -0.54349556630E+02  0.10530055092E+03  0.11978645265E+03  0.41800000000E+01 0. -1.
         -5    1    1    2    0  502 -0.22096615124E+02  0.68053670335E+02  0.20657473658E+03  0.21865533755E+03  0.41800000000E+01 0. -1.
        -11    1    1    2    0    0  0.11577614883E+02  0.38952137171E+02  0.10475421932E+03  0.11235994224E+03  0.00000000000E+00 0.  1.
         11    1    1    2    0    0  0.27526101989E+02 -0.52656250875E+02  0.17826969173E+03  0.18791075019E+03  0.00000000000E+00 0. -1.
</event>
<event>
 7    1  0.2334784E-009  0.1472343E+03  0.7561462E-02  0.1203913E+00
         -2   -1    0    0    0  501 -0.00000000000E+00  0.00000000000E+00  0.59931096323E+02  0.59931096323E+02  0.00000000000E+00 0.  1.
          2   -1    0    0  501    0  0.00000000000E+00 -0.00000000000E+00 -0.46991283462E+03  0.46991283462E+03  0.00000000000E+00 0. -1.
         25    2    1    2    0    0  0.13220589616E+01  0.12990735029E+03 -0.23668396846E+03  0.29756441702E+03  0.12509042269E+03 0.  0.
          5    1    3    3  502    0 -0.19672688678E+02 -0.41854989771E+01  0.42699205474E+01  0.20981842221E+02  0.41800000000E+01 0. -1.
         -5    1    3    3    0  502  0.20994747640E+02  0.13409284927E+03 -0.24095388901E+03  0.27658257480E+03  0.41800000000E+01 0. -1.
        -11    1    1    2    0    0 -0.16442195424E+02 -0.15060707463E+02  0.17594933292E+01  0.22366638469E+02  0.00000000000E+00 0.  1.
         11    1    1    2    0    0  0.15120136462E+02 -0.11484664283E+03 -0.17505726316E+03  0.20991287545E+03  0.00000000000E+00 0. -1.
</event>
<event>
 7    1  0.2334784E-009  0.9835473E+02  0.7561462E-02  0.1283794E+00
         -1   -1    0    0    0  501 -0.00000000000E+00  0.00000000000E+00  0.32288573499E+02  0.32288573499E+02  0.00000000000E+00 0.  1.
          1   -1    0    0  501    0  0.00000000000E+00 -0.00000000000E+00 -0.50521281274E+03  0.50521281274E+03  0.00000000000E+00 0. -1.
         25    2    1    2    0    0  0.30561539011E+01  0.18860521943E+02 -0.40268330621E+03  0.42209760725E+03  0.12508990998E+03 0.  0.
          5    1    3    3  502    0 -0.32366826282E+02  0.57406723827E+02 -0.29486836111E+03  0.30217208039E+03  0.41800000000E+01 0.  1.
         -5    1    3    3    0  502  0.35422980183E+02 -0.38546201884E+02 -0.10781494510E+03  0.11992552685E+03  0.41800000000E+01 0.  1.
        -11    1    1    2    0    0  0.23735144708E+02  0.19944379558E+02 -0.59422576247E+02  0.67023711760E+02  0.00000000000E+00 0. -1.
         11    1    1    2    0    0 -0.26791298609E+02 -0.38804901501E+02 -0.10818356781E+02  0.48380067229E+02  0.00000000000E+00 0.  1.
</event>
<event>
 7    1  0.2334784E-009  0.1479967E+03  0.7561462E-02  0.1202956E+00
          2   -1    0    0  501    0  0.00000000000E+00  0.00000000000E+00  0.45648013840E+03  0.45648013840E+03  0.00000000000E+00 0. -1.
         -2   -1    0    0    0  501 -0.00000000000E+00 -0.00000000000E+00 -0.50858101520E+02  0.50858101520E+02  0.00000000000E+00 0.  1.
         25    2    1    2    0    0  0.79619558648E+02 -0.70515338633E+02  0.22969791969E+03  0.28234730283E+03  0.12508868054E+03 0.  0.
          5    1    3    3  502    0 -0.24243912732E+02 -0.40792672528E+02  0.11626258302E+03  0.12564342421E+03  0.41800000000E+01 0.  1.
         -5    1    3    3    0  502  0.10386347138E+03 -0.29722666105E+02  0.11343533667E+03  0.15670387862E+03  0.41800000000E+01 0.  1.
        -11    1    1    2    0    0  0.16990764099E+02  0.32014025942E+02  0.44150296224E+02  0.57121209532E+02  0.00000000000E+00 0.  1.
         11    1    1    2    0    0 -0.96610322747E+02  0.38501312692E+02  0.13177382096E+03  0.16786972756E+03  0.00000000000E+00 0. -1.
</event>
<event>
 7    1  0.2334784E-009  0.4269215E+02  0.7561462E-02  0.1489286E+00
          1   -1    0    0  501    0  0.00000000000E+00  0.00000000000E+00  0.17321842596E+03  0.17321842596E+03  0.00000000000E+00 0. -1.
         -1   -1    0    0    0  501 -0.00000000000E+00 -0.00000000000E+00 -0.81154701679E+02  0.81154701679E+02  0.00000000000E+00 0.  1.
         25    2    1    2    0    0  0.23286046969E+02  0.22219808412E+02  0.13073491122E+02  0.12982444493E+03  0.12509000944E+03 0.  0.
          5    1    3    3  502    0  0.25808705054E+02  0.12960821236E+02  0.67953992369E+02  0.73954645714E+02  0.41800000000E+01 0.  1.
         -5    1    3    3    0  502 -0.25226580850E+01  0.92589871752E+01 -0.54880501248E+02  0.55869799217E+02  0.41800000000E+01 0.  1.
        -11    1    1    2    0    0  0.58809630113E+01 -0.14376040691E+02  0.90799765323E+02  0.92118693296E+02  0.00000000000E+00 0. -1.
         11    1    1    2    0    0 -0.29167009981E+02 -0.78437677202E+01 -0.11809532166E+02  0.32429989411E+02  0.00000000000E+00 0.  1.
</event>
<event>
 7    1  0.2334784E-009  0.7295365E+02  0.7561462E-02  0.1350328E+00
         -2   -1    0    0    0  501 -0.00000000000E+00  0.00000000000E+00  0.37659026350E+02  0.37659026350E+02  0.00000000000E+00 0. -1.
          2   -1    0    0  501    0  0.00000000000E+00 -0.00000000000E+00 -0.47776853933E+03  0.47776853933E+03  0.00000000000E+00 0.  1.
         25    2    1    2    0    0  0.24271072912E+02 -0.55251837505E+02 -0.34012360661E+03  0.36738784189E+03  0.12509159871E+03 0.  0.
          5    1    3    3  502    0  0.39662413672E+02 -0.32283134972E+02 -0.33506501521E+03  0.33897100862E+03  0.41800000000E+01 0. -1.
         -5    1    3    3    0  502 -0.15391340760E+02 -0.22968702533E+02 -0.50585913951E+01  0.28416833274E+02  0.41800000000E+01 0. -1.
        -11    1    1    2    0    0 -0.76022118879E+01  0.47755446915E+02 -0.11476397421E+03  0.12453572224E+03  0.00000000000E+00 0.  1.
         11    1    1    2    0    0 -0.16668861025E+02  0.74963905892E+01  0.14778067844E+02  0.23504001551E+02  0.00000000000E+00 0. -1.
</event>
<event>
 7    1  0.2334784E-009  0.3060188E+03  0.7561462E-02  0.1082270E+00
          1   -1    0    0  501    0  0.00000000000E+00  0.00000000000E+00  0.14390175258E+03  0.14390175258E+03  0.00000000000E+00 0. -1.
         -1   -1    0    0    0  501 -0.00000000000E+00 -0.00000000000E+00 -0.77277069411E+03  0.77277069411E+03  0.00000000000E+00 0.  1.
         25    2    1    2    0    0 -0.20845689729E+03 -0.21597924796E+03 -0.18741829435E+03  0.37533401547E+03  0.12509473425E+03 0.  0.
          5    1    3    3  502    0 -0.19769924506E+03 -0.22280743966E+03 -0.14591470880E+03  0.33171783387E+03  0.41800000000E+01 0. -1.
         -5    1    3    3    0  502 -0.10757652227E+02  0.68281917034E+01 -0.41503585552E+02  0.43616181597E+02  0.41800000000E+01 0. -1.
        -11    1    1    2    0    0  0.48285632484E+02  0.61578211000E+02 -0.55768765908E+02  0.96091277571E+02  0.00000000000E+00 0. -1.
         11    1    1    2    0    0  0.16017126481E+03  0.15440103696E+03 -0.38568188128E+03  0.44524715365E+03  0.00000000000E+00 0.  1.
</event>
<event>
 7    1  0.2334784E-009  0.1020989E+03  0.7561462E-02  0.1275943E+00
         -2   -1    0    0    0  501 -0.00000000000E+00  0.00000000000E+00  0.57866300047E+02  0.57866300047E+02  0.00000000000E+00 0.  1.
          2   -1    0    0  501    0  0.00000000000E+00 -0.00000000000E+00 -0.25018279785E+03  0.25018279785E+03  0.00000000000E+00 0. -1.
         25    2    1    2    0    0  0.37355664938E+02 -0.18859187856E+02 -0.66927607086E+02  0.14791304608E+03  0.12509136637E+03 0.  0.
          5    1    3    3  502    0  0.48809372615E+02  0.32883543489E+02  0.41590553510E+01  0.59147717022E+02  0.41800000000E+01 0. -1.
         -5    1    3    3    0  502 -0.11453707676E+02 -0.51742731345E+02 -0.71086662437E+02  0.88765329060E+02  0.41800000000E+01 0. -1.
        -11    1    1    2    0    0 -0.40749421526E+02  0.47848701344E+02 -0.53458865567E+02  0.82509780527E+02  0.00000000000E+00 0.  1.
         11    1    1    2    0    0  0.33937565879E+01 -0.28989513488E+02 -0.71930025152E+02  0.77626271290E+02  0.00000000000E+00 0. -1.
</event>
<event>
 7    1  0.2334784E-009  0.1818834E+03  0.7561462E-02  0.1165993E+00
          2   -1    0    0  501    0  0.00000000000E+00  0.00000000000E+00  0.74992961269E+03  0.74992961269E+03  0.00000000000E+00 0.  1.
         -2   -1    0    0    0  501 -0.00000000000E+00 -0.00000000000E+00 -0.51847083081E+02  0.51847083081E+02  0.00000000000E+00 0. -1.
         25    2    1    2    0    0 -0.24963139473E+02 -0.15823682680E+03  0.42197814111E+03  0.46837261101E+03  0.12508117160E+03 0.  0.
          5    1    3    3  502    0  0.47500135450E+02 -0.38467355744E+02  0.15965837237E+03  0.17100955702E+03  0.41800000000E+01 0. -1.
         -5    1    3    3    0  502 -0.72463274923E+02 -0.11976947105E+03  0.26231976874E+03  0.29736305399E+03  0.41800000000E+01 0. -1.
        -11    1    1    2    0    0  0.30824517114E+02  0.12851119999E+03  0.27254705809E+03  0.30289796673E+03  0.00000000000E+00 0.  1.
         11    1    1    2    0    0 -0.58613776411E+01  0.29725626809E+02  0.35573304093E+01  0.30506118021E+02  0.00000000000E+00 0. -1.
</event>
<event>
 7    1  0.2334784E-009  0.1266279E+03  0.7561462E-02  0.1232547E+00
          1   -1    0    0  501    0  0.00000000000E+00  0.00000000000E+00  0.54064697986E+03  0.54064697986E+03  0.00000000000E+00 0. -1.
         -1   -1    0    0    0  501 -0.00000000000E+00 -0.00000000000E+00 -0.32205921636E+02  0.32205921636E+02  0.00000000000E+00 0.  1.
         25    2    1    2    0    0  0.45608922979E+02  0.50364333273E+02  0.34682658101E+03  0.37490448697E+03  0.12509179482E+03 0.  0.
          5    1    3    3  502    0  0.92384578324E+01 -0.41835917415E+02  0.98466097471E+02  0.10746458877E+03  0.41800000000E+01 0. -1.
         -5    1    3    3    0  502  0.36370465146E+02  0.92200250688E+02  0.24836048354E+03  0.26743989819E+03  0.41800000000E+01 0. -1.
        -11    1    1    2    0    0 -0.51049497032E+02  0.86191170903E+01  0.99221606101E+02  0.11191634127E+03  0.00000000000E+00 0. -1.
         11    1    1    2    0    0  0.54405740532E+01 -0.58983450363E+02  0.62392871107E+02  0.86032073250E+02  0.00000000000E+00 0.  1.
</event>
<event>
 7    1  0.2334784E-009  0.1916292E+03  0.7561462E-02  0.1157000E+00
         -4   -1    0    0    0  501 -0.00000000000E+00  0.00000000000E+00  0.15713599685E+03  0.15713599685E+03  0.00000000000E+00 0.  1.
          4   -1    0    0  501    0  0.00000000000E+00 -0.00000000000E+00 -0.32624417010E+03  0.32624417010E+03  0.00000000000E+00 0. -1.
         25    2    1    2    0    0  0.17282944873E+03  0.31189115930E+02  0.10201381122E+02  0.21585683716E+03  0.12508927480E+03 0.  0.
          5    1    3    3  502    0  0.46717885400E+02  0.60431866899E+02 -0.26953386246E+02  0.81108130192E+02  0.41800000000E+01 0. -1.
         -5    1    3    3    0  502  0.12611156333E+03 -0.29242750970E+02  0.37154767368E+02  0.13474870696E+03  0.41800000000E+01 0. -1.
        -11    1    1    2    0    0 -0.10289310407E+03 -0.66113308782E+01 -0.16096891936E+03  0.19115881764E+03  0.00000000000E+00 0. -1.
         11    1    1    2    0    0 -0.69936344665E+02 -0.24577785051E+02 -0.18340635013E+02  0.76364512149E+02  0.00000000000E+00 0.  1.
</event>
<event>
 7    1  0.2334784E-009  0.1506804E+03  0.7561462E-02  0.1199639E+00
         -2   -1    0    0    0  501 -0.00000000000E+00  0.00000000000E+00  0.21832747439E+02  0.21832747439E+02  0.00000000000E+00 0. -1.
          2   -1    0    0  501    0  0.00000000000E+00 -0.00000000000E+00 -0.14438358892E+04  0.14438358892E+04  0.00000000000E+00 0.  1.
         25    2    1    2    0    0  0.80087017518E+02 -0.10764030255E+03 -0.91714096633E+03  0.93530506534E+03  0.12509055929E+03 0.  0.
          5    1    3    3  502    0  0.47477786594E+02 -0.10941171260E+03 -0.86792823282E+03  0.87609471680E+03  0.41800000000E+01 0. -1.
         -5    1    3    3    0  502  0.32609230924E+02  0.17714100489E+01 -0.49212733506E+02  0.59210348539E+02  0.41800000000E+01 0. -1.
        -11    1    1    2    0    0 -0.51808137709E+02  0.17596491616E+02 -0.29809282809E+03  0.30307268734E+03  0.00000000000E+00 0.  1.
         11    1    1    2    0    0 -0.28278879809E+02  0.90043810936E+02 -0.20676934729E+03  0.22729088392E+03  0.00000000000E+00 0. -1.
</event>
<event>
 7    1  0.2334784E-009  0.9228036E+02  0.7561462E-02  0.1297422E+00
          1   -1    0    0  501    0  0.00000000000E+00  0.00000000000E+00  0.19733564032E+03  0.19733564032E+03  0.00000000000E+00 0. -1.
         -1   -1    0    0    0  501 -0.00000000000E+00 -0.00000000000E+00 -0.63891585199E+02  0.63891585199E+02  0.00000000000E+00 0.  1.
         25    2    1    2    0    0  0.53650976437E+01  0.31016402529E+01  0.43850487339E+02  0.13271120433E+03  0.12510393307E+03 0.  0.
          5    1    3    3  502    0 -0.84482129790E+01 -0.58159513268E+02  0.58913125505E+01  0.59212171466E+02  0.41800000000E+01 0. -1.
         -5    1    3    3    0  502  0.13813310623E+02  0.61261153521E+02  0.37959174789E+02  0.73499032863E+02  0.41800000000E+01 0. -1.
        -11    1    1    2    0    0  0.25740445239E+02 -0.14538854849E+02  0.90659076547E+02  0.95357312157E+02  0.00000000000E+00 0. -1.
         11    1    1    2    0    0 -0.31105542883E+02  0.11437214596E+02 -0.10655087666E+01  0.33158709032E+02  0.00000000000E+00 0.  1.
</event>
<event>
 7    1  0.2334784E-009  0.1146266E+03  0.7561462E-02  0.1252234E+00
          1   -1    0    0  501    0  0.00000000000E+00  0.00000000000E+00  0.52558510631E+03  0.52558510631E+03  0.00000000000E+00 0. -1.
         -1   -1    0    0    0  501 -0.00000000000E+00 -0.00000000000E+00 -0.26387345403E+02  0.26387345403E+02  0.00000000000E+00 0.  1.
         25    2    1    2    0    0  0.11839020477E+02  0.38206329241E+02  0.32755358873E+03  0.35290067566E+03  0.12509055677E+03 0.  0.
          5    1    3    3  502    0  0.15177771643E+02  0.82419794272E+02  0.17671612263E+03  0.19562578469E+03  0.41800000000E+01 0.  1.
         -5    1    3    3    0  502 -0.33387511668E+01 -0.44213465032E+02  0.15083746610E+03  0.15727489097E+03  0.41800000000E+01 0.  1.
        -11    1    1    2    0    0  0.37100333797E+02 -0.36187695060E+02  0.85885741339E+02  0.10031123869E+03  0.00000000000E+00 0. -1.
         11    1    1    2    0    0 -0.48939354273E+02 -0.20186341802E+01  0.85758430843E+02  0.98760537368E+02  0.00000000000E+00 0.  1.
</event>
<event>
 7    1  0.2334784E-009  0.9301376E+02  0.7561462E-02  0.1295713E+00
         -2   -1    0    0    0  501 -0.00000000000E+00  0.00000000000E+00  0.57831617720E+02  0.57831617720E+02  0.00000000000E+00 0.  1.
          2   -1    0    0  501    0  0.00000000000E+00 -0.00000000000E+00 -0.24108933194E+03  0.24108933194E+03  0.00000000000E+00 0. -1.
         25    2    1    2    0    0  0.33543070058E+02  0.27795967840E+02 -0.77393114270E+02  0.15341950337E+03  0.12510034573E+03 0.  0.
          5    1    3    3  502    0  0.44733912760E+02 -0.10462420188E+02 -0.98027636460E+02  0.10833962847E+03  0.41800000000E+01 0.  1.
         -5    1    3    3    0  502 -0.11190842703E+02  0.38258388028E+02  0.20634522191E+02  0.45079874899E+02  0.41800000000E+01 0.  1.
        -11    1    1    2    0    0  0.10377873170E+02  0.27387682387E+02 -0.31119846000E+02  0.42734414857E+02  0.00000000000E+00 0.  1.
         11    1    1    2    0    0 -0.43920943228E+02 -0.55183650227E+02 -0.74744753948E+02  0.10276703143E+03  0.00000000000E+00 0. -1.
</event>
<event>
 7    1  0.2334784E-009  0.2074497E+03  0.7561462E-02  0.1143602E+00
          2   -1    0    0  501    0  0.00000000000E+00  0.00000000000E+00  0.52447653234E+03  0.52447653234E+03  0.00000000000E+00 0. -1.
         -2   -1    0    0    0  501 -0.00000000000E+00 -0.00000000000E+00 -0.14791583450E+03  0.14791583450E+03  0.00000000000E+00 0.  1.
         25    2    1    2    0    0 -0.17347277166E+03  0.75692666927E+02  0.40227929195E+03  0.46183923126E+03  0.12507863311E+03 0.  0.
          5    1    3    3  502    0 -0.12649124576E+03  0.94105204647E+02  0.36888486238E+03  0.40118491857E+03  0.41800000000E+01 0.  1.
         -5    1    3    3    0  502 -0.46981525898E+02 -0.18412537720E+02  0.33394429574E+02  0.60654312687E+02  0.41800000000E+01 0.  1.
        -11    1    1    2    0    0  0.87577686312E+02 -0.82594209595E+02 -0.30710288611E+02  0.12423677565E+03  0.00000000000E+00 0.  1.
         11    1    1    2    0    0  0.85895085345E+02  0.69015426676E+01  0.49916945012E+01  0.86316359930E+02  0.00000000000E+00 0. -1.
</event>
<event>
 7    1  0.2334784E-009  0.1898339E+03  0.7561462E-02  0.1158611E+00
          1   -1    0    0  501    0  0.00000000000E+00  0.00000000000E+00  0.12984552696E+03  0.12984552696E+03  0.00000000000E+00 0. -1.
         -1   -1    0    0    0  501 -0.00000000000E+00 -0.00000000000E+00 -0.32622878841E+03  0.32622878841E+03  0.00000000000E+00 0.  1.
         25    2    1    2    0    0 -0.37067690847E+02 -0.16940764644E+03 -0.11082610281E+03  0.24083716591E+03  0.12508857278E+03 0.  0.
          5    1    3    3  502    0  0.39020991562E+02 -0.67029682626E+02 -0.10253124702E+02  0.78346761909E+02  0.41800000000E+01 0. -1.
         -5    1    3    3    0  502 -0.76088682409E+02 -0.10237796382E+03 -0.10057297811E+03  0.16249040400E+03  0.41800000000E+01 0. -1.
        -11    1    1    2    0    0  0.23307244863E+02  0.64864689454E+02 -0.85461816769E+02  0.10979243019E+03  0.00000000000E+00 0.  1.
         11    1    1    2    0    0  0.13760445983E+02  0.10454295699E+03 -0.95341866922E-01  0.10544471926E+03  0.00000000000E+00 0. -1.
</event>
<event>
 7    1  0.2334784E-009  0.7730896E+02  0.7561462E-02  0.1336866E+00
         -1   -1    0    0    0  501 -0.00000000000E+00  0.00000000000E+00  0.60444902248E+02  0.60444902248E+02  0.00000000000E+00 0.  1.
          1   -1    0    0  501    0  0.00000000000E+00 -0.00000000000E+00 -0.22319653600E+03  0.22319653600E+03  0.00000000000E+00 0. -1.
         25    2    1    2    0    0 -0.17732619274E+02 -0.17553276244E+02 -0.12115427677E+03  0.17592163842E+03  0.12508997078E+03 0.  0.
          5    1    3    3  502    0 -0.19819640478E+02 -0.64486794212E+02 -0.10720796816E+03  0.12673746728E+03  0.41800000000E+01 0. -1.
         -5    1    3    3    0  502  0.20870212041E+01  0.46933517969E+02 -0.13946308612E+02  0.49184171136E+02  0.41800000000E+01 0. -1.
        -11    1    1    2    0    0  0.14597720313E+02 -0.62290619546E+01 -0.69288732887E+02  0.71083212900E+02  0.00000000000E+00 0. -1.
         11    1    1    2    0    0  0.31348989605E+01  0.23782338198E+02  0.27691375910E+02  0.36636586925E+02  0.00000000000E+00 0.  1.
</event>
<event>
 7    1  0.2334784E-009  0.4133467E+03  0.7561462E-02  0.1039254E+00
          3   -1    0    0  501    0  0.00000000000E+00  0.00000000000E+00  0.28586807564E+03  0.28586807564E+03  0.00000000000E+00 0. -1.
         -3   -1    0    0    0  501 -0.00000000000E+00 -0.00000000000E+00 -0.62338219020E+03  0.62338219020E+03  0.00000000000E+00 0.  1.
         25    2    1    2    0    0 -0.38481704743E+02  0.40169399876E+03 -0.23345131529E+03  0.48268538816E+03  0.12508699807E+03 0.  0.
          5    1    3    3  502    0 -0.11640311097E+02  0.39361217866E+03 -0.22238835166E+03  0.45226109205E+03  0.41800000000E+01 0. -1.
         -5    1    3    3    0  502 -0.26841393645E+02  0.80818201048E+01 -0.11062963627E+02  0.30424296101E+02  0.41800000000E+01 0. -1.
        -11    1    1    2    0    0  0.27239030254E+02 -0.14087842280E+03  0.51577124710E+01  0.14358027990E+03  0.00000000000E+00 0.  1.
         11    1    1    2    0    0  0.11242674488E+02 -0.26081557597E+03 -0.10922051174E+03  0.28298459778E+03  0.00000000000E+00 0. -1.
</event>
<event>
 7    1  0.2334784E-009  0.1158336E+03  0.7561462E-02  0.1250133E+00
          1   -1    0    0  501    0  0.00000000000E+00  0.00000000000E+00  0.67620388247E+03  0.67620388247E+03  0.00000000000E+00 0. -1.
         -1   -1    0    0    0  501 -0.00000000000E+00 -0.00000000000E+00 -0.28824670676E+02  0.28824670676E+02  0.00000000000E+00 0.  1.
         25    2    1    2    0    0 -0.20903665828E+02 -0.57956296880E+02  0.51416732570E+03  0.53273581169E+03  0.12507402068E+03 0.  0.
          5    1    3    3  502    0 -0.42148468594E+02  0.23429954446E+02  0.27370916266E+03  0.27795617333E+03  0.41800000000E+01 0.  1.
         -5    1    3    3    0  502  0.21244802766E+02 -0.81386251326E+02  0.24045816304E+03  0.25477963836E+03  0.41800000000E+01 0.  1.
        -11    1    1    2    0    0 -0.17191685644E+02  0.58472420865E+02  0.11480614988E+03  0.12998088362E+03  0.00000000000E+00 0. -1.
         11    1    1    2    0    0  0.38095351471E+02 -0.51612398474E+00  0.18405736217E+02  0.42311857834E+02  0.00000000000E+00 0.  1.
</event>
<event>
 7    1  0.3024821E-009  0.1458277E+03  0.7561462E-02  0.1205696E+00
         -1   -1    0    0    0  501 -0.00000000000E+00  0.00000000000E+00  0.23882490841E+02  0.23882490841E+02  0.00000000000E+00 0.  1.
          1   -1    0    0  501    0  0.00000000000E+00 -0.00000000000E+00 -0.10072726309E+04  0.10072726309E+04  0.00000000000E+00 0. -1.
         25    2    1    2    0    0 -0.59017867089E+02  0.93652064472E+02 -0.50552274415E+03  0.53240495802E+03  0.12509187289E+03 0.  0.
          5    1    3    3  502    0 -0.96239102325E+02  0.59212808880E+02 -0.39238198440E+03  0.40834937938E+03  0.41800000000E+01 0. -1.
         -5    1    3    3    0  502  0.37221235237E+02  0.34439255592E+02 -0.11314075974E+03  0.12405557865E+03  0.41800000000E+01 0. -1.
        -11    1    1    2    0    0  0.70198869368E+02 -0.60360029752E+02 -0.42710162833E+03  0.43702061207E+03  0.00000000000E+00 0. -1.
         11    1    1    2    0    0 -0.11181002280E+02 -0.33292034720E+02 -0.50765767548E+02  0.61729551614E+02  0.00000000000E+00 0.  1.
</event>
<event>
 7    1  0.2334784E-009  0.1855285E+03  0.7561462E-02  0.1162557E+00
          4   -1    0    0  501    0  0.00000000000E+00  0.00000000000E+00  0.86757688542E+03  0.86757688542E+03  0.00000000000E+00 0. -1.
         -4   -1    0    0    0  501 -0.00000000000E+00 -0.00000000000E+00 -0.51096094902E+02  0.51096094902E+02  0.00000000000E+00 0.  1.
         25    2    1    2    0    0  0.26641467377E+01 -0.17124965604E+03  0.30382272697E+03  0.37052589698E+03  0.12509056134E+03 0.  0.
          5    1    3    3  502    0 -0.18021581307E+02 -0.17288416208E+03  0.30300045620E+03  0.34934289709E+03  0.41800000000E+01 0. -1.
         -5    1    3    3    0  502  0.20685728045E+02  0.16345060453E+01  0.82227076550E+00  0.21182999882E+02  0.41800000000E+01 0. -1.
        -11    1    1    2    0    0 -0.19827458607E+02  0.12733156872E+03  0.24967110051E+03  0.28096639468E+03  0.00000000000E+00 0.  1.
         11    1    1    2    0    0  0.17163311870E+02  0.43918087321E+02  0.26298696304E+03  0.26718068867E+03  0.00000000000E+00 0. -1.
</event>
<event>
 7    1  0.2334784E-009  0.7580408E+02  0.7561462E-02  0.1341399E+00
         -3   -1    0    0    0  501 -0.00000000000E+00  0.00000000000E+00  0.17903333854E+03  0.17903333854E+03  0.00000000000E+00 0.  1.
          3   -1    0    0  501    0  0.00000000000E+00 -0.00000000000E+00 -0.67216201297E+02  0.67216201297E+02  0.00000000000E+00 0. -1.
         25    2    1    2    0    0 -0.21607331903E+02  0.14631849464E+02  0.43309857036E+02  0.13487960538E+03  0.12504317823E+03 0.  0.
          5    1    3    3  502    0  0.22723308729E+02  0.19009606676E+02 -0.34164633965E+02  0.45413748134E+02  0.41800000000E+01 0.  1.
         -5    1    3    3    0  502 -0.44330640633E+02 -0.43777572121E+01  0.77474491001E+02  0.89465857247E+02  0.41800000000E+01 0.  1.
        -11    1    1    2    0    0 -0.12744261303E+02  0.22813185404E+02  0.71882536153E-01  0.26131643491E+02  0.00000000000E+00 0. -1.
         11    1    1    2    0    0  0.34351593206E+02 -0.37445034869E+02  0.68435397668E+02  0.85238290962E+02  0.00000000000E+00 0.  1.
</event>
<event>
 7    1  0.2334784E-009  0.9808462E+02  0.7561462E-02  0.1284376E+00
          1   -1    0    0  501    0  0.00000000000E+00  0.00000000000E+00  0.64142469620E+02  0.64142469620E+02  0.00000000000E+00 0. -1.
         -1   -1    0    0    0  501 -0.00000000000E+00 -0.00000000000E+00 -0.21328736878E+03  0.21328736878E+03  0.00000000000E+00 0.  1.
         25    2    1    2    0    0 -0.21184209381E+02 -0.22927067516E+02 -0.48624685401E+02  0.13779097070E+03  0.12509024911E+03 0.  0.
          5    1    3    3  502    0 -0.28513132824E+02 -0.57175928287E+02  0.14345062813E+02  0.65615080172E+02  0.41800000000E+01 0. -1.
         -5    1    3    3    0  502  0.73289234433E+01  0.34248860770E+02 -0.62969748213E+02  0.72175890524E+02  0.41800000000E+01 0. -1.
        -11    1    1    2    0    0  0.35284316781E+02  0.52990444433E+02 -0.63759209028E+02  0.90101092933E+02  0.00000000000E+00 0.  1.
         11    1    1    2    0    0 -0.14100107400E+02 -0.30063376917E+02 -0.36761004734E+02  0.49537774773E+02  0.00000000000E+00 0. -1.
</event>
<event>
 7    1  0.2334784E-009  0.1307651E+03  0.7561462E-02  0.1226325E+00
          3   -1    0    0  501    0  0.00000000000E+00  0.00000000000E+00  0.18181160684E+03  0.18181160684E+03  0.00000000000E+00 0. -1.
         -3   -1    0    0    0  501 -0.00000000000E+00 -0.00000000000E+00 -0.96512267324E+02  0.96512267324E+02  0.00000000000E+00 0.  1.
         25    2    1    2    0    0 -0.77685294949E+02  0.21130640406E+01  0.59103182540E+02  0.15868311607E+03  0.12509066731E+03 0.  0.
          5    1    3    3  502    0  0.33271250917E+02 -0.29719549422E+01  0.26516092649E+02  0.42853053836E+02  0.41800000000E+01 0. -1.
         -5    1    3    3    0  502 -0.11095654587E+03  0.50850189828E+01  0.32587089892E+02  0.11583006223E+03  0.41800000000E+01 0. -1.
        -11    1    1    2    0    0  0.68444748134E+02 -0.38939571948E+02  0.18790510037E+02  0.80957131112E+02  0.00000000000E+00 0.  1.
         11    1    1    2    0    0  0.92405468156E+01  0.36826507907E+02  0.74056469386E+01  0.38683626984E+02  0.00000000000E+00 0. -1.
</event>
<event>
 7    1  0.2334784E-009  0.7870063E+02  0.7561462E-02  0.1332780E+00
         -2   -1    0    0    0  501 -0.00000000000E+00  0.00000000000E+00  0.21223361394E+03  0.21223361394E+03  0.00000000000E+00 0.  1.
          2   -1    0    0  501    0  0.00000000000E+00 -0.00000000000E+00 -0.78965073337E+02  0.78965073337E+02  0.00000000000E+00 0. -1.
         25    2    1    2    0    0 -0.27718029811E+02  0.94314305582E+00  0.58230604566E-01  0.12813113809E+03  0.12509359082E+03 0.  0.
          5    1    3    3  502    0 -0.45602743318E+02 -0.88760459863E+01  0.53378270304E+02  0.70887985803E+02  0.41800000000E+01 0.  1.
         -5    1    3    3    0  502  0.17884713507E+02  0.98191890421E+01 -0.53320039700E+02  0.57243152291E+02  0.41800000000E+01 0.  1.
        -11    1    1    2    0    0  0.50056245986E+02 -0.25961870899E+02  0.10524205772E+03  0.11939655446E+03  0.00000000000E+00 0.  1.
         11    1    1    2    0    0 -0.22338216174E+02  0.25018727844E+02  0.27968252275E+02  0.43670994723E+02  0.00000000000E+00 0. -1.
</event>
<event>
 7    1  0.2334784E-009  0.1063796E+03  0.7561462E-02  0.1267425E+00
         -2   -1    0    0    0  501 -0.00000000000E+00  0.00000000000E+00  0.12938752712E+03  0.12938752712E+03  0.00000000000E+00 0. -1.
          2   -1    0    0  501    0  0.00000000000E+00 -0.00000000000E+00 -0.11318866404E+03  0.11318866404E+03  0.00000000000E+00 0.  1.
         25    2    1    2    0    0  0.50319792967E+02  0.29508466704E+02  0.94687041280E+01  0.13833815598E+03  0.12507980600E+03 0.  0.
          5    1    3    3  502    0  0.12836799879E+01  0.68633613154E+02 -0.15824540309E+02  0.70569888514E+02  0.41800000000E+01 0. -1.
         -5    1    3    3    0  502  0.49036112979E+02 -0.39125146449E+02  0.25293244437E+02  0.67768267463E+02  0.41800000000E+01 0. -1.
        -11    1    1    2    0    0 -0.57937309888E+02 -0.82357106131E+01 -0.26349109840E+02  0.64178145780E+02  0.00000000000E+00 0.  1.
         11    1    1    2    0    0  0.76175169213E+01 -0.21272756091E+02  0.33079268790E+02  0.40059889409E+02  0.00000000000E+00 0. -1.
</event>
<event>
 7    1  0.2334784E-009  0.2021888E+03  0.7561462E-02  0.1147905E+00
         -2   -1    0    0    0  501 -0.00000000000E+00  0.00000000000E+00  0.29532137336E+02  0.29532137336E+02  0.00000000000E+00 0.  1.
          2   -1    0    0  501    0  0.00000000000E+00 -0.00000000000E+00 -0.16811002581E+04  0.16811002581E+04  0.00000000000E+00 0. -1.
         25    2    1    2    0    0 -0.17537833356E+03  0.72015316351E+02 -0.10065348592E+04  0.10318447771E+04  0.12508979003E+03 0.  0.
          5    1    3    3  502    0 -0.36583126293E+02 -0.13352999761E+02 -0.61908671772E+02  0.73258335857E+02  0.41800000000E+01 0.  1.
         -5    1    3    3    0  502 -0.13879520726E+03  0.85368316111E+02 -0.94462618748E+03  0.95858644129E+03  0.41800000000E+01 0.  1.
        -11    1    1    2    0    0  0.13960574030E+03 -0.85809584295E+02 -0.42612889746E+03  0.45655107571E+03  0.00000000000E+00 0.  1.
         11    1    1    2    0    0  0.35772593260E+02  0.13794267945E+02 -0.21890436403E+03  0.22223654256E+03  0.00000000000E+00 0. -1.
</event>
<event>
 7    1  0.2334784E-009  0.2234046E+03  0.7561462E-02  0.1131370E+00
         -2   -1    0    0    0  501 -0.00000000000E+00  0.00000000000E+00  0.29438891447E+03  0.29438891447E+03  0.00000000000E+00 0.  1.
          2   -1    0    0  501    0  0.00000000000E+00 -0.00000000000E+00 -0.25389848210E+03  0.25389848210E+03  0.00000000000E+00 0. -1.
         25    2    1    2    0    0  0.15348406952E+03  0.14049165723E+03 -0.11848321610E+03  0.27015030318E+03  0.12509056104E+03 0.  0.
          5    1    3    3  502    0  0.12508046597E+03  0.65951611791E+02 -0.19259134501E+02  0.14276948108E+03  0.41800000000E+01 0. -1.
         -5    1    3    3    0  502  0.28403603546E+02  0.74540045442E+02 -0.99224081601E+02  0.12738082210E+03  0.41800000000E+01 0. -1.
        -11    1    1    2    0    0 -0.14337763903E+02 -0.66190329465E+02  0.68330420615E+02  0.96206951775E+02  0.00000000000E+00 0.  1.
         11    1    1    2    0    0 -0.13914630561E+03 -0.74301327769E+02  0.90643227856E+02  0.18193014162E+03  0.00000000000E+00 0. -1.
</event>
<event>
 7    1  0.2334784E-009  0.1048798E+03  0.7561462E-02  0.1270357E+00
         -1   -1    0    0    0  501 -0.00000000000E+00  0.00000000000E+00  0.51368220464E+03  0.51368220464E+03  0.00000000000E+00 0.  1.
          1   -1    0    0  501    0  0.00000000000E+00 -0.00000000000E+00 -0.25889439837E+02  0.25889439837E+02  0.00000000000E+00 0. -1.
         25    2    1    2    0    0  0.79609285988E+01 -0.14491011409E+02  0.19056655736E+03  0.22855412192E+03  0.12509199841E+03 0.  0.
          5    1    3    3  502    0 -0.19793698536E+02 -0.64600308135E+02  0.88292749338E+02  0.11125678540E+03  0.41800000000E+01 0.  1.
         -5    1    3    3    0  502  0.27754627135E+02  0.50109296726E+02  0.10227380803E+03  0.11729733652E+03  0.41800000000E+01 0.  1.
        -11    1    1    2    0    0  0.23728974339E+01 -0.34490136447E+02  0.18398794974E+03  0.18720781449E+03  0.00000000000E+00 0.  1.
         11    1    1    2    0    0 -0.10333826033E+02  0.48981147857E+02  0.11323825770E+03  0.12380970807E+03  0.00000000000E+00 0. -1.
</event>
<event>
 7    1  0.2334784E-009  0.2108647E+03  0.7561462E-02  0.1140883E+00
          2   -1    0    0  501    0  0.00000000000E+00  0.00000000000E+00  0.85732179448E+03  0.85732179448E+03  0.00000000000E+00 0. -1.
         -2   -1    0    0    0  501 -0.00000000000E+00 -0.00000000000E+00 -0.61183938564E+02  0.61183938564E+02  0.00000000000E+00 0.  1.
         25    2    1    2    0    0 -0.79333657734E+02 -0.18469583630E+03  0.44633603320E+03  0.50524248843E+03  0.12509091249E+03 0.  0.
          5    1    3    3  502    0 -0.12979377314E+02  0.84381065808E+01  0.11423576927E+03  0.11535575087E+03  0.41800000000E+01 0.  1.
         -5    1    3    3    0  502 -0.66354280419E+02 -0.19313394288E+03  0.33210026393E+03  0.38988673756E+03  0.41800000000E+01 0.  1.
        -11    1    1    2    0    0  0.28689499393E+02  0.83190094726E+02  0.73762864124E+02  0.11482438487E+03  0.00000000000E+00 0. -1.
         11    1    1    2    0    0  0.50644158341E+02  0.10150574157E+03  0.27603895859E+03  0.29843885975E+03  0.00000000000E+00 0.  1.
</event>
<event>
 7    1  0.2334784E-009  0.2614186E+03  0.7561462E-02  0.1106294E+00
         -2   -1    0    0    0  501 -0.00000000000E+00  0.00000000000E+00  0.75518952059E+02  0.75518952059E+02  0.00000000000E+00 0.  1.
          2   -1    0    0  501    0  0.00000000000E+00 -0.00000000000E+00 -0.97079246107E+03  0.97079246107E+03  0.00000000000E+00 0. -1.
         25    2    1    2    0    0 -0.21808130217E+03  0.12241835716E+03 -0.47638273826E+03  0.55238895236E+03  0.12508929951E+03 0.  0.
          5    1    3    3  502    0 -0.42555735246E+01 -0.88797507256E+01  0.31565462990E+01  0.11153298324E+02  0.41800000000E+01 0. -1.
         -5    1    3    3    0  502 -0.21382572864E+03  0.13129810789E+03 -0.47953928456E+03  0.54123565404E+03  0.41800000000E+01 0. -1.
        -11    1    1    2    0    0  0.37917465268E+02 -0.59102199221E+02 -0.12681238990E+03  0.14495580829E+03  0.00000000000E+00 0.  1.
         11    1    1    2    0    0  0.18016383690E+03 -0.63316157940E+02 -0.29207838085E+03  0.34896665248E+03  0.00000000000E+00 0. -1.
</event>
<event>
 7    1  0.2334784E-009  0.8876156E+02  0.7561462E-02  0.1305879E+00
          2   -1    0    0  501    0  0.00000000000E+00  0.00000000000E+00  0.70429004682E+03  0.70429004682E+03  0.00000000000E+00 0. -1.
         -2   -1    0    0    0  501 -0.00000000000E+00 -0.00000000000E+00 -0.25640016705E+02  0.25640016705E+02  0.00000000000E+00 0.  1.
         25    2    1    2    0    0 -0.44998718981E+02 -0.33176970344E+02  0.52272004011E+03  0.54037927309E+03  0.12509165593E+03 0.  0.
          5    1    3    3  502    0 -0.17639139857E+02  0.12378747377E+02  0.87150177086E+01  0.23617717399E+02  0.41800000000E+01 0. -1.
         -5    1    3    3    0  502 -0.27359579125E+02 -0.45555717720E+02  0.51400502240E+03  0.51676155569E+03  0.41800000000E+01 0. -1.
        -11    1    1    2    0    0 -0.98910891431E+01 -0.22195675997E+02  0.15189287916E+02  0.28656520109E+02  0.00000000000E+00 0.  1.
         11    1    1    2    0    0  0.54889808125E+02  0.55372646340E+02  0.14074070209E+03  0.16089427032E+03  0.00000000000E+00 0. -1.
</event>
<event>
 7    1  0.2334784E-009  0.7709208E+02  0.7561462E-02  0.1337512E+00
          2   -1    0    0  501    0  0.00000000000E+00  0.00000000000E+00  0.28967736035E+03  0.28967736035E+03  0.00000000000E+00 0. -1.
         -2   -1    0    0    0  501 -0.00000000000E+00 -0.00000000000E+00 -0.39508464349E+02  0.39508464349E+02  0.00000000000E+00 0.  1.
         25    2    1    2    0    0 -0.30495669132E+02  0.26004082538E+02  0.16629996651E+03  0.21191915718E+03  0.12509137529E+03 0.  0.
          5    1    3    3  502    0 -0.45189690867E+02  0.38102861449E+02  0.17907019575E+03  0.18862010396E+03  0.41800000000E+01 0. -1.
         -5    1    3    3    0  502  0.14694021736E+02 -0.12098778911E+02 -0.12770229240E+02  0.23299053216E+02  0.41800000000E+01 0. -1.
        -11    1    1    2    0    0 -0.73276555527E+01 -0.35658302186E+02  0.17787623230E+02  0.40516769255E+02  0.00000000000E+00 0.  1.
         11    1    1    2    0    0  0.37823324684E+02  0.96542196483E+01  0.66081306257E+02  0.76749898266E+02  0.00000000000E+00 0. -1.
</event>
<event>
 7    1  0.2334784E-009  0.8482165E+02  0.7561462E-02  0.1315900E+00
          2   -1    0    0  501    0  0.00000000000E+00  0.00000000000E+00  0.39926154587E+03  0.39926154587E+03  0.00000000000E+00 0. -1.
         -2   -1    0    0    0  501 -0.00000000000E+00 -0.00000000000E+00 -0.42254717116E+02  0.42254717116E+02  0.00000000000E+00 0.  1.
         25    2    1    2    0    0  0.37107565439E+02  0.31271571971E+02  0.28881609139E+03  0.31846113447E+03  0.12509147412E+03 0.  0.
          5    1    3    3  502    0  0.62379209215E+02  0.27445270689E+02  0.28403252390E+03  0.29212387041E+03  0.41800000000E+01 0.  1.
         -5    1    3    3    0  502 -0.25271643776E+02  0.38263012818E+01  0.47835674834E+01  0.26337264066E+02  0.41800000000E+01 0.  1.
        -11    1    1    2    0    0 -0.44841412613E+02 -0.16716784888E+01 -0.36007315759E+01  0.45016797554E+02  0.00000000000E+00 0.  1.
         11    1    1    2    0    0  0.77338471737E+01 -0.29599893482E+02  0.71791468943E+02  0.78038330961E+02  0.00000000000E+00 0. -1.
</event>
<event>
 7    1  0.2334784E-009  0.1129372E+03  0.7561462E-02  0.1255225E+00
         -2   -1    0    0    0  501 -0.00000000000E+00  0.00000000000E+00  0.42801260644E+02  0.42801260644E+02  0.00000000000E+00 0.  1.
          2   -1    0    0  501    0  0.00000000000E+00 -0.00000000000E+00 -0.41356936793E+03  0.41356936793E+03  0.00000000000E+00 0. -1.
         25    2    1    2    0    0 -0.15490263645E+02  0.69785150970E+02 -0.19341856213E+03  0.24118060243E+03  0.12508967684E+03 0.  0.
          5    1    3    3  502    0  0.55023923542E+02  0.28849351493E+02 -0.89404070020E+02  0.10895172041E+03  0.41800000000E+01 0. -1.
         -5    1    3    3    0  502 -0.70514187187E+02  0.40935799477E+02 -0.10401449211E+03  0.13222888203E+03  0.41800000000E+01 0. -1.
        -11    1    1    2    0    0 -0.13741804397E+02 -0.21313006803E+02  0.35820074531E+01  0.25610783363E+02  0.00000000000E+00 0.  1.
         11    1    1    2    0    0  0.29232068042E+02 -0.48472144168E+02 -0.18093155262E+03  0.18957924278E+03  0.00000000000E+00 0. -1.
</event>
<event>
 7    1  0.2334784E-009  0.7921324E+02  0.7561462E-02  0.1331299E+00
         -3   -1    0    0    0  501 -0.00000000000E+00  0.00000000000E+00  0.54220297861E+03  0.54220297861E+03  0.00000000000E+00 0.  1.
          3   -1    0    0  501    0  0.00000000000E+00 -0.00000000000E+00 -0.23457969377E+02  0.23457969377E+02  0.00000000000E+00 0. -1.
         25    2    1    2    0    0  0.43591913054E+01 -0.80068887143E+01  0.37304835759E+03  0.39356653268E+03  0.12508567357E+03 0.  0.
          5    1    3    3  502    0  0.42353641190E+02  0.35864865462E+02  0.10055642739E+03  0.11493122720E+03  0.41800000000E+01 0. -1.
         -5    1    3    3    0  502 -0.37994449885E+02 -0.43871754177E+02  0.27249193020E+03  0.27863530548E+03  0.41800000000E+01 0. -1.
        -11    1    1    2    0    0 -0.20895604743E+02  0.15902194661E+02  0.15080272660E+03  0.15307177546E+03  0.00000000000E+00 0.  1.
         11    1    1    2    0    0  0.16536413438E+02 -0.78953059466E+01 -0.51060749524E+01  0.19022639848E+02  0.00000000000E+00 0. -1.
</event>
<event>
 7    1  0.2334784E-009  0.1287445E+03  0.7561462E-02  0.1229331E+00
          3   -1    0    0  501    0  0.00000000000E+00  0.00000000000E+00  0.98514730338E+02  0.98514730338E+02  0.00000000000E+00 0. -1.
         -3   -1    0    0    0  501 -0.00000000000E+00 -0.00000000000E+00 -0.21136356683E+03  0.21136356683E+03  0.00000000000E+00 0.  1.
         25    2    1    2    0    0  0.46155442498E+02  0.73139230353E+02 -0.18805648766E+02  0.15323508637E+03  0.12509063667E+03 0.  0.
          5    1    3    3  502    0  0.62120975099E+02  0.94701225095E+02  0.98449215804E+01  0.11376173549E+03  0.41800000000E+01 0.  1.
         -5    1    3    3    0  502 -0.15965532601E+02 -0.21561994743E+02 -0.28650570346E+02  0.39473350880E+02  0.41800000000E+01 0.  1.
        -11    1    1    2    0    0  0.22525604514E+02 -0.15562732082E+02 -0.49487995891E+02  0.56556725735E+02  0.00000000000E+00 0.  1.
         11    1    1    2    0    0 -0.68681047012E+02 -0.57576498271E+02 -0.44555191833E+02  0.10008648506E+03  0.00000000000E+00 0. -1.
</event>
<event>
 7    1  0.2334784E-009  0.8560205E+02  0.7561462E-02  0.1313866E+00
         -1   -1    0    0    0  501 -0.00000000000E+00  0.00000000000E+00  0.22238601721E+03  0.22238601721E+03  0.00000000000E+00 0.  1.
          1   -1    0    0  501    0  0.00000000000E+00 -0.00000000000E+00 -0.59934682669E+02  0.59934682669E+02  0.00000000000E+00 0. -1.
         25    2    1    2    0    0 -0.23582928994E+02 -0.19978294342E+02  0.54685004073E+02  0.13998461591E+03  0.12509978512E+03 0.  0.
          5    1    3    3  502    0  0.47669434673E+02 -0.15024564498E+02  0.45741398216E+02  0.67881223112E+02  0.41800000000E+01 0. -1.
         -5    1    3    3    0  502 -0.71252363668E+02 -0.49537298434E+01  0.89436058575E+01  0.72103392800E+02  0.41800000000E+01 0. -1.
        -11    1    1    2    0    0  0.80329179012E+00  0.25942121305E+02 -0.55985219823E+01  0.26551504362E+02  0.00000000000E+00 0. -1.
         11    1    1    2    0    0  0.22779637204E+02 -0.59638269634E+01  0.11336485245E+03  0.11578457961E+03  0.00000000000E+00 0.  1.
</event>
<event>
 7    1  0.2334784E-009  0.7894381E+02  0.7561462E-02  0.1332076E+00
          4   -1    0    0  501    0  0.00000000000E+00  0.00000000000E+00  0.31312355957E+03  0.31312355957E+03  0.00000000000E+00 0. -1.
         -4   -1    0    0    0  501 -0.00000000000E+00 -0.00000000000E+00 -0.40846044899E+02  0.40846044899E+02  0.00000000000E+00 0.  1.
         25    2    1    2    0    0 -0.17964745896E+02  0.19605889348E+02  0.12051322550E+03  0.17572138182E+03  0.12508974185E+03 0.  0.
          5    1    3    3  502    0  0.21056101890E+02  0.55692589833E+02  0.10399739303E+03  0.11990810709E+03  0.41800000000E+01 0. -1.
         -5    1    3    3    0  502 -0.39020847786E+02 -0.36086700484E+02  0.16515832466E+02  0.55813274728E+02  0.41800000000E+01 0. -1.
        -11    1    1    2    0    0  0.29083464020E+02 -0.12265351460E+02  0.15966734802E+03  0.16275733086E+03  0.00000000000E+00 0. -1.
         11    1    1    2    0    0 -0.11118718124E+02 -0.73405378882E+01 -0.79030588469E+01  0.15490891787E+02  0.00000000000E+00 0.  1.
</event>
<event>
 7    1  0.2334784E-009  0.2458686E+03  0.7561462E-02  0.1115944E+00
          1   -1    0    0  501    0  0.00000000000E+00  0.00000000000E+00  0.12410903618E+04  0.12410903618E+04  0.00000000000E+00 0. -1.
         -1   -1    0    0    0  501 -0.00000000000E+00 -0.00000000000E+00 -0.62571658113E+02  0.62571658113E+02  0.00000000000E+00 0.  1.
         25    2    1    2    0    0  0.23666180299E+03  0.38998094650E+02  0.39137427373E+03  0.47576244731E+03  0.12508566562E+03 0.  0.
          5    1    3    3  502    0  0.60135915799E+02 -0.20493488291E+02  0.19467414419E+03  0.20482140085E+03  0.41800000000E+01 0. -1.
         -5    1    3    3    0  502  0.17652588719E+03  0.59491582941E+02  0.19670012954E+03  0.27094104645E+03  0.41800000000E+01 0. -1.
        -11    1    1    2    0    0 -0.12763515398E+03 -0.57831093567E+01  0.55194655522E+03  0.56654141658E+03  0.00000000000E+00 0.  1.
         11    1    1    2    0    0 -0.10902664902E+03 -0.33214985293E+02  0.23519787478E+03  0.26135815607E+03  0.00000000000E+00 0. -1.
</event>
<event>
 7    1  0.2334784E-009  0.1098965E+03  0.7561462E-02  0.1260762E+00
          1   -1    0    0  501    0  0.00000000000E+00  0.00000000000E+00  0.24457663317E+03  0.24457663317E+03  0.00000000000E+00 0. -1.
         -1   -1    0    0    0  501 -0.00000000000E+00 -0.00000000000E+00 -0.12376336108E+03  0.12376336108E+03  0.00000000000E+00 0.  1.
         25    2    1    2    0    0 -0.69864836625E+02 -0.49607918621E+02 -0.47127863682E+02  0.15877956885E+03  0.12509146638E+03 0.  0.
          5    1    3    3  502    0 -0.18444546534E+02 -0.46158403564E+02 -0.82306061574E+02  0.96242192869E+02  0.41800000000E+01 0.  1.
         -5    1    3    3    0  502 -0.51420290091E+02 -0.34495150570E+01  0.35178197892E+02  0.62537375977E+02  0.41800000000E+01 0.  1.
        -11    1    1    2    0    0  0.11785483045E+02 -0.22629896583E+02  0.70961394665E+02  0.75409080108E+02  0.00000000000E+00 0. -1.
         11    1    1    2    0    0  0.58079353581E+02  0.72237815204E+02  0.96979741105E+02  0.13415134529E+03  0.00000000000E+00 0.  1.
</event>
<event>
 7    1  0.2334784E-009  0.1311259E+03  0.7561462E-02  0.1225795E+00
          1   -1    0    0  501    0  0.00000000000E+00  0.00000000000E+00  0.17219136433E+03  0.17219136433E+03  0.00000000000E+00 0. -1.
         -1   -1    0    0    0  501 -0.00000000000E+00 -0.00000000000E+00 -0.15489244878E+03  0.15489244878E+03  0.00000000000E+00 0.  1.
         25    2    1    2    0    0 -0.34792849508E+02 -0.10687086293E+03 -0.40308653428E+02  0.17289849575E+03  0.12504870480E+03 0.  0.
          5    1    3    3  502    0 -0.46386130727E+02 -0.11974813839E+02 -0.58252870615E+02  0.75537663621E+02  0.41800000000E+01 0.  1.
         -5    1    3    3    0  502  0.11593281219E+02 -0.94896049094E+02  0.17944217188E+02  0.97360832133E+02  0.41800000000E+01 0.  1.
        -11    1    1    2    0    0 -0.51144917787E+01  0.41976144526E+02  0.65106335151E+02  0.77633688642E+02  0.00000000000E+00 0. -1.
         11    1    1    2    0    0  0.39907341287E+02  0.64894718407E+02 -0.74987661738E+01  0.76551628721E+02  0.00000000000E+00 0.  1.
</event>
<event>
 7    1  0.2334784E-009  0.1322767E+03  0.7561462E-02  0.1224116E+00
         -1   -1    0    0    0  501 -0.00000000000E+00  0.00000000000E+00  0.13214684355E+03  0.13214684355E+03  0.00000000000E+00 0.  1.
          1   -1    0    0  501    0  0.00000000000E+00 -0.00000000000E+00 -0.16923969047E+03  0.16923969047E+03  0.00000000000E+00 0. -1.
         25    2    1    2    0    0  0.30448229736E+02 -0.96686920260E+02  0.19918993142E+00  0.16100736708E+03  0.12509147586E+03 0.  0.
          5    1    3    3  502    0  0.75430824540E+02 -0.73278851579E+02 -0.18380311495E+02  0.10684057109E+03  0.41800000000E+01 0.  1.
         -5    1    3    3    0  502 -0.44982594804E+02 -0.23408068681E+02  0.18579501426E+02  0.54166795991E+02  0.41800000000E+01 0.  1.
        -11    1    1    2    0    0 -0.39250515508E+02  0.86323158995E+02  0.59849290496E+01  0.95016367655E+02  0.00000000000E+00 0.  1.
         11    1    1    2    0    0  0.88022857719E+01  0.10363761265E+02 -0.43276965897E+02  0.45362799292E+02  0.00000000000E+00 0. -1.
</event>
<event>
 7    1  0.2334784E-009  0.8817253E+02  0.7561462E-02  0.1307338E+00
          2   -1    0    0  501    0  0.00000000000E+00  0.00000000000E+00  0.41461843355E+03  0.41461843355E+03  0.00000000000E+00 0. -1.
         -2   -1    0    0    0  501 -0.00000000000E+00 -0.00000000000E+00 -0.35639917010E+02  0.35639917010E+02  0.00000000000E+00 0.  1.
         25    2    1    2    0    0 -0.36273566941E+02 -0.31835415455E+02  0.27291197367E+03  0.30406678683E+03  0.12508557129E+03 0.  0.
          5    1    3    3  502    0 -0.37975911122E+02  0.28880158932E+02  0.37267422715E+02  0.60684154450E+02  0.41800000000E+01 0. -1.
         -5    1    3    3    0  502  0.17023441807E+01 -0.60715574388E+02  0.23564455096E+03  0.24338263238E+03  0.41800000000E+01 0. -1.
        -11    1    1    2    0    0 -0.37705021372E+01  0.26968237837E+02 -0.53025615618E+01  0.27742020430E+02  0.00000000000E+00 0.  1.
         11    1    1    2    0    0  0.40044069078E+02  0.48671776177E+01  0.11136910442E+03  0.11844954329E+03  0.00000000000E+00 0. -1.
</event>
<event>
 7    1  0.2334784E-009  0.1310902E+03  0.7561462E-02  0.1225847E+00
         -1   -1    0    0    0  501 -0.00000000000E+00  0.00000000000E+00  0.27845377446E+02  0.27845377446E+02  0.00000000000E+00 0.  1.
          1   -1    0    0  501    0  0.00000000000E+00 -0.00000000000E+00 -0.96738367734E+03  0.96738367734E+03  0.00000000000E+00 0. -1.
         25    2    1    2    0    0 -0.10427076078E+03  0.60656760420E+02 -0.57247396521E+03  0.59826891365E+03  0.12509043950E+03 0.  0.
          5    1    3    3  502    0 -0.55049259057E+02  0.15021891141E+01 -0.66426223815E+02  0.86386301606E+02  0.41800000000E+01 0. -1.
         -5    1    3    3    0  502 -0.49221501719E+02  0.59154571306E+02 -0.50604774140E+03  0.51188261204E+03  0.41800000000E+01 0. -1.
        -11    1    1    2    0    0  0.20321736078E+02 -0.37739779416E+02 -0.23450161124E+03  0.23838680664E+03  0.00000000000E+00 0. -1.
         11    1    1    2    0    0  0.83949024698E+02 -0.22916981004E+02 -0.13256272344E+03  0.15857333449E+03  0.00000000000E+00 0.  1.
</event>
<event>
 7    1  0.2334784E-009  0.1313103E+03  0.7561462E-02  0.1225524E+00
         -2   -1    0    0    0  501 -0.00000000000E+00  0.00000000000E+00  0.52299508905E+02  0.52299508905E+02  0.00000000000E+00 0.  1.
          2   -1    0    0  501    0  0.00000000000E+00 -0.00000000000E+00 -0.37136640016E+03  0.37136640016E+03  0.00000000000E+00 0. -1.
         25    2    1    2    0    0 -0.76074795551E+02 -0.40473133024E+02 -0.20487665711E+03  0.25504178737E+03  0.12508564930E+03 0.  0.
          5    1    3    3  502    0  0.30849511681E+02 -0.13709873218E+02 -0.87947021078E+02  0.94296362131E+02  0.41800000000E+01 0. -1.
         -5    1    3    3    0  502 -0.10692430723E+03 -0.26763259806E+02 -0.11692963603E+03  0.16074542524E+03  0.41800000000E+01 0. -1.
        -11    1    1    2    0    0  0.69751868450E+02  0.63558527661E+02 -0.10892383210E+03  0.14411596299E+03  0.00000000000E+00 0. -1.
         11    1    1    2    0    0  0.63229271009E+01 -0.23085394637E+02 -0.52664020526E+01  0.24508158708E+02  0.00000000000E+00 0.  1.
</event>
<event>
 7    1  0.2884963E-009  0.1380245E+03  0.7561462E-02  0.1216012E+00
          2   -1    0    0  501    0  0.00000000000E+00  0.00000000000E+00  0.19359841472E+03  0.19359841472E+03  0.00000000000E+00 0. -1.
         -2   -1    0    0    0  501 -0.00000000000E+00 -0.00000000000E+00 -0.11577755289E+03  0.11577755289E+03  0.00000000000E+00 0.  1.
         25    2    1    2    0    0  0.80160225066E+02 -0.35528412642E+02 -0.12904100101E+02  0.15330273476E+03  0.12508909984E+03 0.  0.
          5    1    3    3  502    0  0.59631558848E+02  0.39220320605E+02 -0.22805462827E+02  0.75044772594E+02  0.41800000000E+01 0. -1.
         -5    1    3    3    0  502  0.20528666219E+02 -0.74748733247E+02  0.99013627259E+01  0.78257962167E+02  0.41800000000E+01 0. -1.
        -11    1    1    2    0    0 -0.30634451282E+02 -0.31265725518E+02  0.28822148504E+02  0.52409268664E+02  0.00000000000E+00 0. -1.
         11    1    1    2    0    0 -0.49525773784E+02  0.66794138160E+02  0.61902813420E+02  0.10366396419E+03  0.00000000000E+00 0.  1.
</event>
<event>
 7    1  0.2334784E-009  0.2089249E+03  0.7561462E-02  0.1142420E+00
         -2   -1    0    0    0  501 -0.00000000000E+00  0.00000000000E+00  0.46870959528E+02  0.46870959528E+02  0.00000000000E+00 0.  1.
          2   -1    0    0  501    0  0.00000000000E+00 -0.00000000000E+00 -0.10432943482E+04  0.10432943482E+04  0.00000000000E+00 0. -1.
         25    2    1    2    0    0 -0.18372053003E+03  0.44360422681E+02 -0.42569485992E+03  0.48226999804E+03  0.12508859656E+03 0.  0.
          5    1    3    3  502    0 -0.18705439965E+03  0.63881624625E+02 -0.33195601601E+03  0.38637090905E+03  0.41800000000E+01 0. -1.
         -5    1    3    3    0  502  0.33338696129E+01 -0.19521201944E+02 -0.93738843911E+02  0.95899088993E+02  0.41800000000E+01 0. -1.
        -11    1    1    2    0    0  0.16332717011E+03 -0.60213632457E+02 -0.41484936792E+03  0.44989048011E+03  0.00000000000E+00 0. -1.
         11    1    1    2    0    0  0.20393359919E+02  0.15853209776E+02 -0.15587916087E+03  0.15800482962E+03  0.00000000000E+00 0.  1.
</event>
<event>
 7    1  0.2334784E-009  0.8810652E+02  0.7561462E-02  0.1307503E+00
          1   -1    0    0  501    0  0.00000000000E+00  0.00000000000E+00  0.29914907578E+03  0.29914907578E+03  0.00000000000E+00 0. -1.
         -1   -1    0    0    0  501 -0.00000000000E+00 -0.00000000000E+00 -0.44198845250E+02  0.44198845250E+02  0.00000000000E+00 0.  1.
         25    2    1    2    0    0  0.28418226758E+02  0.15143129286E+02  0.11581771218E+03  0.17348815516E+03  0.12508991786E+03 0.  0.
          5    1    3    3  502    0 -0.37135665612E+02 -0.23103729870E+02  0.13375219672E+02  0.45926124326E+02  0.41800000000E+01 0. -1.
         -5    1    3    3    0  502  0.65553892370E+02  0.38246859156E+02  0.10244249251E+03  0.12756203084E+03  0.41800000000E+01 0. -1.
        -11    1    1    2    0    0  0.88222205856E+01 -0.16815388311E+02 -0.60799392485E+01  0.19938769305E+02  0.00000000000E+00 0.  1.
         11    1    1    2    0    0 -0.37240447343E+02  0.16722590249E+01  0.14521245760E+03  0.14992099656E+03  0.00000000000E+00 0. -1.
</event>
<event>
 7    1  0.2334784E-009  0.1433929E+03  0.7561462E-02  0.1208835E+00
          1   -1    0    0  501    0  0.00000000000E+00  0.00000000000E+00  0.77182644322E+03  0.77182644322E+03  0.00000000000E+00 0. -1.
         -1   -1    0    0    0  501 -0.00000000000E+00 -0.00000000000E+00 -0.35039504608E+02  0.35039504608E+02  0.00000000000E+00 0.  1.
         25    2    1    2    0    0  0.10974548161E+03  0.28203253138E+02  0.27517623497E+03  0.32281335720E+03  0.12508800530E+03 0.  0.
          5    1    3    3  502    0  0.10886849160E+03 -0.37320355259E+01  0.11127423630E+03  0.15577453135E+03  0.41800000000E+01 0.  1.
         -5    1    3    3    0  502  0.87699001250E+00  0.31935288663E+02  0.16390199867E+03  0.16703882585E+03  0.41800000000E+01 0.  1.
        -11    1    1    2    0    0 -0.11218239589E+03  0.49685776346E+01  0.36435498713E+03  0.38126648601E+03  0.00000000000E+00 0. -1.
         11    1    1    2    0    0  0.24369142753E+01 -0.33171830772E+02  0.97255716516E+02  0.10278610462E+03  0.00000000000E+00 0.  1.
</event>
<event>
 7    1  0.2334784E-009  0.1835822E+03  0.7561462E-02  0.1164381E+00
          2   -1    0    0  501    0  0.00000000000E+00  0.00000000000E+00  0.28285341062E+03  0.28285341062E+03  0.00000000000E+00 0. -1.
         -2   -1    0    0    0  501 -0.00000000000E+00 -0.00000000000E+00 -0.14267997975E+03  0.14267997975E+03  0.00000000000E+00 0.  1.
         25    2    1    2    0    0  0.13040941491E+03  0.10310606861E+03  0.10133773253E+03  0.23138540435E+03  0.12502956623E+03 0.  0.
          5    1    3    3  502    0  0.46815726898E+02  0.93676036905E+02  0.71792357453E+01  0.10505201569E+03  0.41800000000E+01 0.  1.
         -5    1    3    3    0  502  0.83593688008E+02  0.94300317040E+01  0.94158496786E+02  0.12633338866E+03  0.41800000000E+01 0.  1.
        -11    1    1    2    0    0 -0.77355549643E+02 -0.20621883776E+02  0.51603189081E+02  0.95247216623E+02  0.00000000000E+00 0.  1.
         11    1    1    2    0    0 -0.53053865263E+02 -0.82484184833E+02 -0.12767490748E+02  0.98900769395E+02  0.00000000000E+00 0. -1.
</event>
<event>
 7    1  0.2334784E-009  0.1216984E+03  0.7561462E-02  0.1240321E+00
          2   -1    0    0  501    0  0.00000000000E+00  0.00000000000E+00  0.67579376817E+03  0.67579376817E+03  0.00000000000E+00 0. -1.
         -2   -1    0    0    0  501 -0.00000000000E+00 -0.00000000000E+00 -0.38974743889E+02  0.38974743889E+02  0.00000000000E+00 0.  1.
         25    2    1    2    0    0  0.11744613696E+02  0.69444016288E+02  0.55861915699E+03  0.57676982405E+03  0.12509060727E+03 0.  0.
          5    1    3    3  502    0  0.62725868843E+02  0.10796617423E+02  0.29950353431E+03  0.30622041250E+03  0.41800000000E+01 0.  1.
         -5    1    3    3    0  502 -0.50981255147E+02  0.58647398865E+02  0.25911562268E+03  0.27054941154E+03  0.41800000000E+01 0.  1.
        -11    1    1    2    0    0  0.27801202205E+02 -0.83743997819E+01  0.54023067762E+02  0.61331307391E+02  0.00000000000E+00 0. -1.
         11    1    1    2    0    0 -0.39545815902E+02 -0.61069616506E+02  0.24176799525E+02  0.76667380618E+02  0.00000000000E+00 0.  1.
</event>
<event>
 7    1  0.2334784E-009  0.9679885E+02  0.7561462E-02  0.1287175E+00
          1   -1    0    0  501    0  0.00000000000E+00  0.00000000000E+00  0.69833761884E+02  0.69833761884E+02  0.00000000000E+00 0. -1.
         -1   -1    0    0    0  501 -0.00000000000E+00 -0.00000000000E+00 -0.20169134459E+03  0.20169134459E+03  0.00000000000E+00 0.  1.
         25    2    1    2    0    0 -0.47497255761E+02 -0.19161732561E+02 -0.93406171675E+02  0.16430290732E+03  0.12509025200E+03 0.  0.
          5    1    3    3  502    0 -0.19948804468E+02 -0.49229604217E+02  0.89631906505E+01  0.54030731235E+02  0.41800000000E+01 0.  1.
         -5    1    3    3    0  502 -0.27548451293E+02  0.30067871657E+02 -0.10236936233E+03  0.11027217608E+03  0.41800000000E+01 0.  1.
        -11    1    1    2    0    0  0.48856933934E+02  0.49150803674E+02 -0.20615456983E+02  0.72303516939E+02  0.00000000000E+00 0. -1.
         11    1    1    2    0    0 -0.13596781727E+01 -0.29989071113E+02 -0.17835954045E+02  0.34918682215E+02  0.00000000000E+00 0.  1.
</event>
<event>
 7    1  0.2334784E-009  0.1038009E+03  0.7561462E-02  0.1272500E+00
          2   -1    0    0  501    0  0.00000000000E+00  0.00000000000E+00  0.39264681000E+03  0.39264681000E+03  0.00000000000E+00 0. -1.
         -2   -1    0    0    0  501 -0.00000000000E+00 -0.00000000000E+00 -0.30422230916E+02  0.30422230916E+02  0.00000000000E+00 0.  1.
         25    2    1    2    0    0 -0.13702754585E+02 -0.79224963610E+01  0.19166922298E+03  0.22942514897E+03  0.12509307139E+03 0.  0.
          5    1    3    3  502    0  0.35935264396E+01  0.57034508242E+02  0.71051156613E+02  0.91277531840E+02  0.41800000000E+01 0.  1.
         -5    1    3    3    0  502 -0.17296281025E+02 -0.64957004603E+02  0.12061806637E+03  0.13814761713E+03  0.41800000000E+01 0.  1.
        -11    1    1    2    0    0 -0.22538423915E+02 -0.25232212040E+02  0.11311239568E+03  0.11806379265E+03  0.00000000000E+00 0.  1.
         11    1    1    2    0    0  0.36241178500E+02  0.33154708401E+02  0.57442960421E+02  0.75580099300E+02  0.00000000000E+00 0. -1.
</event>
<event>
 7    1  0.2334784E-009  0.1012596E+03  0.7561462E-02  0.1277669E+00
         -1   -1    0    0    0  501 -0.00000000000E+00  0.00000000000E+00  0.48649093961E+02  0.48649093961E+02  0.00000000000E+00 0.  1.
          1   -1    0    0  501    0  0.00000000000E+00 -0.00000000000E+00 -0.28237994925E+03  0.28237994925E+03  0.00000000000E+00 0. -1.
         25    2    1    2    0    0 -0.14695786986E+02 -0.11491029108E+02 -0.18984579629E+03  0.22811522519E+03  0.12508844747E+03 0.  0.
          5    1    3    3  502    0 -0.40166090292E+02  0.47030686773E+02 -0.10379642069E+03  0.12089817887E+03  0.41800000000E+01 0. -1.
         -5    1    3    3    0  502  0.25470303306E+02 -0.58521715881E+02 -0.86049375599E+02  0.10721704632E+03  0.41800000000E+01 0. -1.
        -11    1    1    2    0    0 -0.86045865639E+01 -0.28782370821E+02 -0.47546760495E+02  0.56241961324E+02  0.00000000000E+00 0. -1.
         11    1    1    2    0    0  0.23300373550E+02  0.40273399929E+02  0.36617014940E+01  0.46671856693E+02  0.00000000000E+00 0.  1.
</event>
<event>
 7    1  0.2334784E-009  0.1054984E+03  0.7561462E-02  0.1269141E+00
          1   -1    0    0  501    0  0.00000000000E+00  0.00000000000E+00  0.88789323764E+03  0.88789323764E+03  0.00000000000E+00 0. -1.
         -1   -1    0    0    0  501 -0.00000000000E+00 -0.00000000000E+00 -0.17888232020E+02  0.17888232020E+02  0.00000000000E+00 0.  1.
         25    2    1    2    0    0 -0.20269496424E+01 -0.60639405378E+02  0.43397580604E+03  0.45569652471E+03  0.12507228467E+03 0.  0.
          5    1    3    3  502    0 -0.14062549977E+02  0.16038627608E+02  0.30014071659E+03  0.30092676026E+03  0.41800000000E+01 0.  1.
         -5    1    3    3    0  502  0.12035600335E+02 -0.76678032987E+02  0.13383508945E+03  0.15476976444E+03  0.41800000000E+01 0.  1.
        -11    1    1    2    0    0 -0.43129455065E+02  0.11172702615E+02  0.16638287849E+03  0.17224471380E+03  0.00000000000E+00 0. -1.
         11    1    1    2    0    0  0.45156404708E+02  0.49466702763E+02  0.26964632109E+03  0.27784023115E+03  0.00000000000E+00 0.  1.
</event>
<event>
 7    1  0.2334784E-009  0.1850313E+03  0.7561462E-02  0.1163021E+00
         -1   -1    0    0    0  501 -0.00000000000E+00  0.00000000000E+00  0.10749188732E+03  0.10749188732E+03  0.00000000000E+00 0.  1.
          1   -1    0    0  501    0  0.00000000000E+00 -0.00000000000E+00 -0.36427033799E+03  0.36427033799E+03  0.00000000000E+00 0. -1.
         25    2    1    2    0    0  0.15373991894E+03 -0.48056320854E+02 -0.17704926161E+03  0.27008352209E+03  0.12511312967E+03 0.  0.
          5    1    3    3  502    0  0.16083682839E+03 -0.72054336494E+01 -0.12800904259E+03  0.20572844000E+03  0.41800000000E+01 0.  1.
         -5    1    3    3    0  502 -0.70969094435E+01 -0.40850887205E+02 -0.49040219019E+02  0.64355082087E+02  0.41800000000E+01 0.  1.
        -11    1    1    2    0    0 -0.98677401423E+02  0.75214117947E+01 -0.88476856778E+02  0.13274771325E+03  0.00000000000E+00 0. -1.
         11    1    1    2    0    0 -0.55062517522E+02  0.40534909059E+02  0.87476677099E+01  0.68930989973E+02  0.00000000000E+00 0.  1.
</event>
<event>
 7    1  0.2334784E-009  0.1413117E+03  0.7561462E-02  0.1211575E+00
         -1   -1    0    0    0  501 -0.00000000000E+00  0.00000000000E+00  0.62784206754E+02  0.62784206754E+02  0.00000000000E+00 0.  1.
          1   -1    0    0  501    0  0.00000000000E+00 -0.00000000000E+00 -0.50231326175E+03  0.50231326175E+03  0.00000000000E+00 0. -1.
         25    2    1    2    0    0 -0.63320657568E+02  0.11225539900E+03 -0.31883367763E+03  0.36594158502E+03  0.12509016497E+03 0.  0.
          5    1    3    3  502    0 -0.15383637738E+02  0.99504792092E+01 -0.20375397461E+03  0.20461872572E+03  0.41800000000E+01 0. -1.
         -5    1    3    3    0  502 -0.47937019830E+02  0.10230491979E+03 -0.11507970302E+03  0.16132285930E+03  0.41800000000E+01 0. -1.
        -11    1    1    2    0    0  0.60780778794E+02 -0.12435371181E+03 -0.12455591100E+03  0.18620505814E+03  0.00000000000E+00 0. -1.
         11    1    1    2    0    0  0.25398787744E+01  0.12098312807E+02  0.38605336462E+01  0.12950825340E+02  0.00000000000E+00 0.  1.
</event>
<event>
 7    1  0.2334784E-009  0.1697921E+03  0.7561462E-02  0.1178065E+00
          2   -1    0    0  501    0  0.00000000000E+00  0.00000000000E+00  0.60295429446E+03  0.60295429446E+03  0.00000000000E+00 0. -1.
         -2   -1    0    0    0  501 -0.00000000000E+00 -0.00000000000E+00 -0.58455243780E+02  0.58455243780E+02  0.00000000000E+00 0.  1.
         25    2    1    2    0    0  0.12785173627E+03  0.13983062116E+02  0.33284870386E+03  0.37812294474E+03  0.12508840547E+03 0.  0.
          5    1    3    3  502    0 -0.22998374721E+02 -0.87109738499E+01  0.30147429092E+02  0.39129863098E+02  0.41800000000E+01 0. -1.
         -5    1    3    3    0  502  0.15085011099E+03  0.22694035966E+02  0.30270127477E+03  0.33899308164E+03  0.41800000000E+01 0. -1.
        -11    1    1    2    0    0 -0.29992315400E+02 -0.49542673323E+02  0.15342641780E+03  0.16399293016E+03  0.00000000000E+00 0. -1.
         11    1    1    2    0    0 -0.97859420873E+02  0.35559611207E+02  0.58223929021E+02  0.11929366334E+03  0.00000000000E+00 0.  1.
</event>
<event>
 7    1  0.2334784E-009  0.1422146E+03  0.7561462E-02  0.1210380E+00
          2   -1    0    0  501    0  0.00000000000E+00  0.00000000000E+00  0.10771387958E+04  0.10771387958E+04  0.00000000000E+00 0.  1.
         -2   -1    0    0    0  501 -0.00000000000E+00 -0.00000000000E+00 -0.20877915971E+02  0.20877915971E+02  0.00000000000E+00 0. -1.
         25    2    1    2    0    0 -0.34934837591E+02 -0.88078751145E+02  0.70807445629E+03  0.72524970406E+03  0.12505754000E+03 0.  0.
          5    1    3    3  502    0  0.18887139140E+02 -0.97365470302E+02  0.51863617670E+03  0.52805086404E+03  0.41800000000E+01 0.  1.
         -5    1    3    3    0  502 -0.53821976732E+02  0.92867191572E+01  0.18943827959E+03  0.19719884002E+03  0.41800000000E+01 0.  1.
        -11    1    1    2    0    0 -0.23393621021E+02 -0.15519570706E+01  0.37856451127E+02  0.44528428752E+02  0.00000000000E+00 0. -1.
         11    1    1    2    0    0  0.58328458612E+02  0.89630708215E+02  0.31032997245E+03  0.32823857900E+03  0.00000000000E+00 0.  1.
</event>
<event>
 7    1  0.2334784E-009  0.1084882E+03  0.7561462E-02  0.1263395E+00
          2   -1    0    0  501    0  0.00000000000E+00  0.00000000000E+00  0.85159419403E+02  0.85159419403E+02  0.00000000000E+00 0. -1.
         -2   -1    0    0    0  501 -0.00000000000E+00 -0.00000000000E+00 -0.17782637365E+03  0.17782637365E+03  0.00000000000E+00 0.  1.
         25    2    1    2    0    0 -0.12410062865E+02  0.55652497868E+02 -0.44230541644E+02  0.14441387859E+03  0.12509123604E+03 0.  0.
          5    1    3    3  502    0 -0.52425546176E+02 -0.12597803736E+02 -0.84560309789E+00  0.54086319855E+02  0.41800000000E+01 0.  1.
         -5    1    3    3    0  502  0.40015483311E+02  0.68250301603E+02 -0.43384938546E+02  0.90327558731E+02  0.41800000000E+01 0.  1.
        -11    1    1    2    0    0  0.97499662092E+01 -0.69190239332E+02 -0.17565668423E+01  0.69895898213E+02  0.00000000000E+00 0. -1.
         11    1    1    2    0    0  0.26600966558E+01  0.13537741465E+02 -0.46679845763E+02  0.48676016257E+02  0.00000000000E+00 0.  1.
</event>
<event>
 7    1  0.2334784E-009  0.1329698E+03  0.7561462E-02  0.1223114E+00
         -4   -1    0    0    0  501 -0.00000000000E+00  0.00000000000E+00  0.24222073929E+03  0.24222073929E+03  0.00000000000E+00 0.  1.
          4   -1    0    0  501    0  0.00000000000E+00 -0.00000000000E+00 -0.11719999990E+03  0.11719999990E+03  0.00000000000E+00 0. -1.
         25    2    1    2    0    0 -0.66540371595E+02 -0.78946574637E+02 -0.16078032347E+02  0.16299273169E+03  0.12509174537E+03 0.  0.
          5    1    3    3  502    0 -0.43978985400E+02 -0.97946849734E+02  0.26838483245E+02  0.11074977703E+03  0.41800000000E+01 0.  1.
         -5    1    3    3    0  502 -0.22561386195E+02  0.19000275097E+02 -0.42916515592E+02  0.52242954657E+02  0.41800000000E+01 0.  1.
        -11    1    1    2    0    0  0.20028355695E+02  0.79704069731E+02  0.11976809172E+03  0.14525243391E+03  0.00000000000E+00 0.  1.
         11    1    1    2    0    0  0.46512015900E+02 -0.75749509357E+00  0.21330680021E+02  0.51175573588E+02  0.00000000000E+00 0. -1.
</event>
<event>
 7    1  0.2334784E-009  0.1258167E+03  0.7561462E-02  0.1233798E+00
          2   -1    0    0  501    0  0.00000000000E+00  0.00000000000E+00  0.88371348755E+03  0.88371348755E+03  0.00000000000E+00 0. -1.
         -2   -1    0    0    0  501 -0.00000000000E+00 -0.00000000000E+00 -0.25325277835E+02  0.25325277835E+02  0.00000000000E+00 0.  1.
         25    2    1    2    0    0 -0.20331137418E+02  0.99444080005E+02  0.48349688113E+03  0.50962666513E+03  0.12509046150E+03 0.  0.
          5    1    3    3  502    0  0.17550327507E+02  0.26962229458E+02  0.18239330633E+02  0.37217219065E+02  0.41800000000E+01 0. -1.
         -5    1    3    3    0  502 -0.37881464924E+02  0.72481850547E+02  0.46525755049E+03  0.47240944607E+03  0.41800000000E+01 0. -1.
        -11    1    1    2    0    0  0.56890951564E+02 -0.70990538763E+02  0.23203909127E+03  0.24923558502E+03  0.00000000000E+00 0.  1.
         11    1    1    2    0    0 -0.36559814146E+02 -0.28453541242E+02  0.14285223731E+03  0.15017651522E+03  0.00000000000E+00 0. -1.
</event>
<event>
 7    1  0.2334784E-009  0.8674477E+02  0.7561462E-02  0.1310932E+00
          1   -1    0    0  501    0  0.00000000000E+00  0.00000000000E+00  0.41507594700E+03  0.41507594700E+03  0.00000000000E+00 0. -1.
         -1   -1    0    0    0  501 -0.00000000000E+00 -0.00000000000E+00 -0.55302321443E+02  0.55302321443E+02  0.00000000000E+00 0.  1.
         25    2    1    2    0    0  0.36209787970E+01 -0.24080051144E+01  0.35768186122E+03  0.37895006506E+03  0.12509167833E+03 0.  0.
          5    1    3    3  502    0  0.59216639831E+02  0.20246249165E+02  0.14652257125E+03  0.15938273847E+03  0.41800000000E+01 0. -1.
         -5    1    3    3    0  502 -0.55595661034E+02 -0.22654254279E+02  0.21115928997E+03  0.21956732658E+03  0.41800000000E+01 0. -1.
        -11    1    1    2    0    0  0.16578979760E+02 -0.16159506448E+02  0.39051061223E+02  0.45397991158E+02  0.00000000000E+00 0. -1.
         11    1    1    2    0    0 -0.20199958557E+02  0.18567511562E+02 -0.36959296886E+02  0.46030212226E+02  0.00000000000E+00 0.  1.
</event>
<event>
 7    1  0.2334784E-009  0.1408711E+03  0.7561462E-02  0.1212162E+00
          2   -1    0    0  501    0  0.00000000000E+00  0.00000000000E+00  0.54719065310E+03  0.54719065310E+03  0.00000000000E+00 0. -1.
         -2   -1    0    0    0  501 -0.00000000000E+00 -0.00000000000E+00 -0.38383822251E+02  0.38383822251E+02  0.00000000000E+00 0.  1.
         25    2    1    2    0    0  0.13368123767E+01 -0.91606360131E+02  0.33556667051E+03  0.36965686866E+03  0.12509075867E+03 0.  0.
          5    1    3    3  502    0  0.48831954631E+02  0.21619155495E+01  0.12483349469E+03  0.13412720630E+03  0.41800000000E+01 0. -1.
         -5    1    3    3    0  502 -0.47495142254E+02 -0.93768275680E+02  0.21073317582E+03  0.23552966236E+03  0.41800000000E+01 0. -1.
        -11    1    1    2    0    0  0.19265820992E+02  0.10242398168E+03  0.12817239893E+03  0.16519687567E+03  0.00000000000E+00 0. -1.
         11    1    1    2    0    0 -0.20602633369E+02 -0.10817621548E+02  0.45067761399E+02  0.50720731020E+02  0.00000000000E+00 0.  1.
</event>
<event>
 7    1  0.2334784E-009  0.1654294E+03  0.7561462E-02  0.1182700E+00
         -1   -1    0    0    0  501 -0.00000000000E+00  0.00000000000E+00  0.48877152082E+02  0.48877152082E+02  0.00000000000E+00 0.  1.
          1   -1    0    0  501    0  0.00000000000E+00 -0.00000000000E+00 -0.69366109352E+03  0.69366109352E+03  0.00000000000E+00 0. -1.
         25    2    1    2    0    0  0.11995848438E+03  0.80536835309E+02 -0.40737643000E+03  0.44997741133E+03  0.12509154716E+03 0.  0.
          5    1    3    3  502    0 -0.95022627827E+01  0.28729797641E+01  0.42039043403E+01  0.11562535294E+02  0.41800000000E+01 0. -1.
         -5    1    3    3    0  502  0.12946074716E+03  0.77663855545E+02 -0.41158033434E+03  0.43841487604E+03  0.41800000000E+01 0. -1.
        -11    1    1    2    0    0 -0.66854039261E+02 -0.92978064283E+02 -0.13948355882E+03  0.18047173237E+03  0.00000000000E+00 0.  1.
         11    1    1    2    0    0 -0.53104445114E+02  0.12441228974E+02 -0.97923952611E+02  0.11208910190E+03  0.00000000000E+00 0. -1.
</event>
<event>
 7    1  0.2334784E-009  0.1131543E+03  0.7561462E-02  0.1254838E+00
          2   -1    0    0  501    0  0.00000000000E+00  0.00000000000E+00  0.66565199626E+03  0.66565199626E+03  0.00000000000E+00 0. -1.
         -2   -1    0    0    0  501 -0.00000000000E+00 -0.00000000000E+00 -0.21413489202E+02  0.21413489202E+02  0.00000000000E+00 0.  1.
         25    2    1    2    0    0 -0.48155303773E+02  0.86718393122E+01  0.32076675266E+03  0.34775396627E+03  0.12508947745E+03 0.  0.
          5    1    3    3  502    0  0.40142084304E+02  0.19916166792E+02  0.11686029928E+03  0.12522716390E+03  0.41800000000E+01 0. -1.
         -5    1    3    3    0  502 -0.88297388077E+02 -0.11244327480E+02  0.20390645339E+03  0.22252680237E+03  0.41800000000E+01 0. -1.
        -11    1    1    2    0    0 -0.61389209456E+01  0.26698590914E+02  0.39696077226E+02  0.48231521377E+02  0.00000000000E+00 0.  1.
         11    1    1    2    0    0  0.54294224719E+02 -0.35370430226E+02  0.28377567717E+03  0.29107999781E+03  0.00000000000E+00 0. -1.
</event>
<event>
 7    1  0.2334784E-009  0.1317937E+03  0.7561462E-02  0.1224818E+00
         -2   -1    0    0    0  501 -0.00000000000E+00  0.00000000000E+00  0.97339602252E+02  0.97339602252E+02  0.00000000000E+00 0.  1.
          2   -1    0    0  501    0  0.00000000000E+00 -0.00000000000E+00 -0.27633071327E+03  0.27633071327E+03  0.00000000000E+00 0. -1.
         25    2    1    2    0    0 -0.34925104600E+02  0.83667007029E+02 -0.16584152080E+01  0.15449985120E+03  0.12509005829E+03 0.  0.
          5    1    3    3  502    0  0.35444522206E+02  0.18882564299E+02  0.33542818521E+02  0.52492461013E+02  0.41800000000E+01 0.  1.
         -5    1    3    3    0  502 -0.70369626805E+02  0.64784442730E+02 -0.35201233729E+02  0.10200739019E+03  0.41800000000E+01 0.  1.
        -11    1    1    2    0    0  0.64294433326E+02 -0.70091428631E+02 -0.11771324504E+03  0.15133734034E+03  0.00000000000E+00 0. -1.
         11    1    1    2    0    0 -0.29369328726E+02 -0.13575578398E+02 -0.59619450778E+02  0.67833123987E+02  0.00000000000E+00 0.  1.
</event>
<event>
 7    1  0.2334784E-009  0.5285318E+02  0.7561462E-02  0.1430533E+00
          3   -1    0    0  501    0  0.00000000000E+00  0.00000000000E+00  0.43799273716E+02  0.43799273716E+02  0.00000000000E+00 0.  1.
         -3   -1    0    0    0  501 -0.00000000000E+00 -0.00000000000E+00 -0.33579019529E+03  0.33579019529E+03  0.00000000000E+00 0. -1.
         25    2    1    2    0    0 -0.40090462777E+01  0.10850905418E+02 -0.25227938724E+03  0.28182718119E+03  0.12509139153E+03 0.  0.
          5    1    3    3  502    0  0.14743129130E+02 -0.15875610341E+01 -0.25781904100E+03  0.25827893935E+03  0.41800000000E+01 0. -1.
         -5    1    3    3    0  502 -0.18752175407E+02  0.12438466452E+02  0.55396537657E+01  0.23548241846E+02  0.41800000000E+01 0. -1.
        -11    1    1    2    0    0  0.18497597717E-01 -0.38991043179E+02 -0.53477233997E+02  0.66182447418E+02  0.00000000000E+00 0. -1.
         11    1    1    2    0    0  0.39905486800E+01  0.28140137761E+02  0.13765699663E+02  0.31579840392E+02  0.00000000000E+00 0.  1.
</event>
<event>
 7    1  0.2334784E-009  0.8966944E+02  0.7561462E-02  0.1303654E+00
         -1   -1    0    0    0  501 -0.00000000000E+00  0.00000000000E+00  0.44438124331E+03  0.44438124331E+03  0.00000000000E+00 0.  1.
          1   -1    0    0  501    0  0.00000000000E+00 -0.00000000000E+00 -0.28099400339E+02  0.28099400339E+02  0.00000000000E+00 0. -1.
         25    2    1    2    0    0  0.89778158022E+01  0.27135646441E+02  0.24084669963E+03  0.27289422821E+03  0.12508869887E+03 0.  0.
          5    1    3    3  502    0  0.46243289029E+02 -0.17703044411E+02  0.18675738149E+03  0.19325535310E+03  0.41800000000E+01 0.  1.
         -5    1    3    3    0  502 -0.37265473227E+02  0.44838690852E+02  0.54089318145E+02  0.79638875115E+02  0.41800000000E+01 0.  1.
        -11    1    1    2    0    0  0.28224662278E+02 -0.15575361599E+02  0.14914258176E+03  0.15258680528E+03  0.00000000000E+00 0.  1.
         11    1    1    2    0    0 -0.37202478080E+02 -0.11560284842E+02  0.26292561577E+02  0.46999610160E+02  0.00000000000E+00 0. -1.
</event>
<event>
 7    1  0.2334784E-009  0.1148333E+03  0.7561462E-02  0.1251872E+00
          2   -1    0    0  501    0  0.00000000000E+00  0.00000000000E+00  0.15232113525E+03  0.15232113525E+03  0.00000000000E+00 0.  1.
         -2   -1    0    0    0  501 -0.00000000000E+00 -0.00000000000E+00 -0.14131552184E+03  0.14131552184E+03  0.00000000000E+00 0. -1.
         25    2    1    2    0    0  0.60734418944E+02 -0.60069462459E+02  0.56249922335E+02  0.16158415225E+03  0.12509346319E+03 0.  0.
          5    1    3    3  502    0  0.71544909674E+02 -0.76529456544E+01  0.75665103755E+02  0.10449843063E+03  0.41800000000E+01 0. -1.
         -5    1    3    3    0  502 -0.10810490730E+02 -0.52416516805E+02 -0.19415181420E+02  0.57085721624E+02  0.41800000000E+01 0. -1.
        -11    1    1    2    0    0  0.87587154578E+01  0.24135481213E+02  0.18079544771E+02  0.31402332540E+02  0.00000000000E+00 0.  1.
         11    1    1    2    0    0 -0.69493134402E+02  0.35933981246E+02 -0.63323853696E+02  0.10065017230E+03  0.00000000000E+00 0. -1.
</event>
<event>
 7    1  0.2334784E-009  0.2856384E+03  0.7561462E-02  0.1092649E+00
          1   -1    0    0  501    0  0.00000000000E+00  0.00000000000E+00  0.52576159826E+03  0.52576159826E+03  0.00000000000E+00 0. -1.
         -1   -1    0    0    0  501 -0.00000000000E+00 -0.00000000000E+00 -0.17151489178E+03  0.17151489178E+03  0.00000000000E+00 0.  1.
         25    2    1    2    0    0 -0.26369681629E+03 -0.56549559360E+02  0.94370046662E+02  0.31190761130E+03  0.12508712440E+03 0.  0.
          5    1    3    3  502    0 -0.18888289182E+03  0.18614192032E+02  0.74456528578E+02  0.20392273541E+03  0.41800000000E+01 0.  1.
         -5    1    3    3    0  502 -0.74813924473E+02 -0.75163751392E+02  0.19913518084E+02  0.10798487589E+03  0.41800000000E+01 0.  1.
        -11    1    1    2    0    0  0.98594544888E+02  0.48813613501E+02  0.57701099508E+02  0.12422990795E+03  0.00000000000E+00 0.  1.
         11    1    1    2    0    0  0.16510227141E+03  0.77359458596E+01  0.20217556031E+03  0.26113897080E+03  0.00000000000E+00 0. -1.
</event>
<event>
 7    1  0.2334784E-009  0.1132393E+03  0.7561462E-02  0.1254686E+00
          1   -1    0    0  501    0  0.00000000000E+00  0.00000000000E+00  0.45210604229E+03  0.45210604229E+03  0.00000000000E+00 0. -1.
         -1   -1    0    0    0  501 -0.00000000000E+00 -0.00000000000E+00 -0.36977665253E+02  0.36977665253E+02  0.00000000000E+00 0.  1.
         25    2    1    2    0    0 -0.30381246944E+02  0.48419718057E+02  0.15163508965E+03  0.20471800795E+03  0.12509505627E+03 0.  0.
          5    1    3    3  502    0 -0.66701475833E+02  0.97223602882E+01  0.34030350786E+02  0.75625051025E+02  0.41800000000E+01 0.  1.
         -5    1    3    3    0  502  0.36320228890E+02  0.38697357768E+02  0.11760473887E+03  0.12909295693E+03  0.41800000000E+01 0.  1.
        -11    1    1    2    0    0 -0.21603674412E+02  0.13020870764E+02  0.46048990742E+02  0.52504965212E+02  0.00000000000E+00 0.  1.
         11    1    1    2    0    0  0.51984921356E+02 -0.61440588820E+02  0.21744429664E+03  0.23186073437E+03  0.00000000000E+00 0. -1.
</event>
<event>
 7    1  0.2334784E-009  0.3344830E+03  0.7561462E-02  0.1069170E+00
          2   -1    0    0  501    0  0.00000000000E+00  0.00000000000E+00  0.11125472553E+04  0.11125472553E+04  0.00000000000E+00 0. -1.
         -2   -1    0    0    0  501 -0.00000000000E+00 -0.00000000000E+00 -0.10460235158E+03  0.10460235158E+03  0.00000000000E+00 0.  1.
         25    2    1    2    0    0 -0.72952072700E+02  0.31515719893E+03  0.49548403982E+03  0.60481217019E+03  0.12508901848E+03 0.  0.
          5    1    3    3  502    0 -0.70168964635E+02  0.10394779081E+03  0.25837434152E+03  0.28723439830E+03  0.41800000000E+01 0. -1.
         -5    1    3    3    0  502 -0.27831080644E+01  0.21120940812E+03  0.23710969830E+03  0.31757777189E+03  0.41800000000E+01 0. -1.
        -11    1    1    2    0    0  0.19247009604E+02 -0.23464031861E+03  0.32431763161E+03  0.40075984413E+03  0.00000000000E+00 0.  1.
         11    1    1    2    0    0  0.53705063096E+02 -0.80516880324E+02  0.18814323232E+03  0.21157759259E+03  0.00000000000E+00 0. -1.
</event>
<event>
 7    1  0.2334784E-009  0.1010473E+03  0.7561462E-02  0.1278109E+00
         -1   -1    0    0    0  501 -0.00000000000E+00  0.00000000000E+00  0.39779564323E+03  0.39779564323E+03  0.00000000000E+00 0.  1.
          1   -1    0    0  501    0  0.00000000000E+00 -0.00000000000E+00 -0.56239212022E+02  0.56239212022E+02  0.00000000000E+00 0. -1.
         25    2    1    2    0    0 -0.63055507728E+01 -0.17318359745E+02  0.33647072498E+03  0.35944377194E+03  0.12509033080E+03 0.  0.
          5    1    3    3  502    0 -0.63404798137E+02 -0.18238502543E+02  0.21900984518E+03  0.22876974469E+03  0.41800000000E+01 0. -1.
         -5    1    3    3    0  502  0.57099247364E+02  0.92014279791E+00  0.11746087980E+03  0.13067402724E+03  0.41800000000E+01 0. -1.
        -11    1    1    2    0    0 -0.97776488911E+01  0.45359333508E+02  0.28699001070E+02  0.54559180864E+02  0.00000000000E+00 0.  1.
         11    1    1    2    0    0  0.16083199664E+02 -0.28040973763E+02 -0.23613294838E+02  0.40031902455E+02  0.00000000000E+00 0. -1.
</event>
<event>
 7    1  0.2334784E-009  0.1512535E+03  0.7561462E-02  0.1198941E+00
         -1   -1    0    0    0  501 -0.00000000000E+00  0.00000000000E+00  0.39718858466E+03  0.39718858466E+03  0.00000000000E+00 0.  1.
          1   -1    0    0  501    0  0.00000000000E+00 -0.00000000000E+00 -0.71376754255E+02  0.71376754255E+02  0.00000000000E+00 0. -1.
         25    2    1    2    0    0 -0.87942324740E+02 -0.61559166492E+02  0.27032351533E+03  0.31661513415E+03  0.12508779626E+03 0.  0.
          5    1    3    3  502    0 -0.11893676254E+03 -0.53531325669E+02  0.19469810323E+03  0.23438511069E+03  0.41800000000E+01 0. -1.
         -5    1    3    3    0  502  0.30994437803E+02 -0.80278408232E+01  0.75625412099E+02  0.82230023459E+02  0.41800000000E+01 0. -1.
        -11    1    1    2    0    0  0.10667320988E+03  0.51323347798E+02  0.55170523884E+02  0.13060262800E+03  0.00000000000E+00 0.  1.
         11    1    1    2    0    0 -0.18730885139E+02  0.10235818694E+02  0.31779119079E+00  0.21347576764E+02  0.00000000000E+00 0. -1.
</event>
<event>
 6    1  0.2334784E-009  0.8697693E+02  0.7561462E-02  0.1310342E+00
         -2   -1    0    0    0  501 -0.00000000000E+00  0.00000000000E+00  0.75622015424E+02  0.75622015424E+02  0.00000000000E+00 0.  1.
          2   -1    0    0  501    0  0.00000000000E+00 -0.00000000000E+00 -0.23289668362E+03  0.23289668362E+03  0.00000000000E+00 0. -1.
          5    1    1    2  502    0  0.13009424426E+02  0.87144605936E+01  0.17824352936E+02  0.24090805402E+02  0.41800000000E+01 0.  1.
         -5    1    1    2    0  502 -0.61080648412E+02 -0.60991614773E+02 -0.14171951179E+03  0.16599010544E+03  0.41800000000E+01 0.  1.
        -11    1    1    2    0    0  0.25692886989E+02  0.23048488511E+02  0.29612582592E+02  0.45478152032E+02  0.00000000000E+00 0.  1.
         11    1    1    2    0    0  0.22378336997E+02  0.29228665669E+02 -0.62992091930E+02  0.72959636164E+02  0.00000000000E+00 0. -1.
</event>
<event>
 7    1  0.2334784E-009  0.1057930E+03  0.7561462E-02  0.1268565E+00
         -1   -1    0    0    0  501 -0.00000000000E+00  0.00000000000E+00  0.55304233745E+02  0.55304233745E+02  0.00000000000E+00 0.  1.
          1   -1    0    0  501    0  0.00000000000E+00 -0.00000000000E+00 -0.27251584768E+03  0.27251584768E+03  0.00000000000E+00 0. -1.
         25    2    1    2    0    0 -0.28712684057E+02 -0.81109679606E+00 -0.53858885194E+02  0.13922514583E+03  0.12513107373E+03 0.  0.
          5    1    3    3  502    0  0.23737330733E+02  0.49740744268E+02 -0.19920045407E+02  0.58752728615E+02  0.41800000000E+01 0. -1.
         -5    1    3    3    0  502 -0.52450014790E+02 -0.50551841064E+02 -0.33938839786E+02  0.80472417215E+02  0.41800000000E+01 0. -1.
        -11    1    1    2    0    0  0.14627215110E+02  0.39528373290E+02 -0.38372766890E+02  0.56999271536E+02  0.00000000000E+00 0.  1.
         11    1    1    2    0    0  0.14085468947E+02 -0.38717276494E+02 -0.12497996185E+03  0.13159566405E+03  0.00000000000E+00 0. -1.
</event>
<event>
 7    1  0.2334784E-009  0.2147290E+03  0.7561462E-02  0.1137875E+00
          2   -1    0    0  501    0  0.00000000000E+00  0.00000000000E+00  0.12742692062E+04  0.12742692062E+04  0.00000000000E+00 0. -1.
         -2   -1    0    0    0  501 -0.00000000000E+00 -0.00000000000E+00 -0.45534624362E+02  0.45534624362E+02  0.00000000000E+00 0.  1.
         25    2    1    2    0    0  0.18315338032E+03 -0.11045019894E+03  0.64217868486E+03  0.68832178661E+03  0.12509600898E+03 0.  0.
          5    1    3    3  502    0  0.66501352547E+02 -0.29175644298E+02  0.40721580104E+03  0.41366149099E+03  0.41800000000E+01 0. -1.
         -5    1    3    3    0  502  0.11665202778E+03 -0.81274554645E+02  0.23496288382E+03  0.27466029562E+03  0.41800000000E+01 0. -1.
        -11    1    1    2    0    0 -0.95735036442E+02  0.48343338799E+02  0.41932544034E+03  0.43282340571E+03  0.00000000000E+00 0.  1.
         11    1    1    2    0    0 -0.87418343881E+02  0.62106860144E+02  0.16723045664E+03  0.19865863825E+03  0.00000000000E+00 0. -1.
</event>
<event>
 7    1  0.2334784E-009  0.1212882E+03  0.7561462E-02  0.1240987E+00
          2   -1    0    0  501    0  0.00000000000E+00  0.00000000000E+00  0.12021054407E+04  0.12021054407E+04  0.00000000000E+00 0. -1.
         -2   -1    0    0    0  501 -0.00000000000E+00 -0.00000000000E+00 -0.22961417147E+02  0.22961417147E+02  0.00000000000E+00 0.  1.
         25    2    1    2    0    0  0.41608058808E+02  0.34005353305E+02  0.10403198043E+04  0.10491899363E+04  0.12508650079E+03 0.  0.
          5    1    3    3  502    0  0.30543435217E+02  0.81501528164E+02  0.65149454797E+03  0.65729599038E+03  0.41800000000E+01 0. -1.
         -5    1    3    3    0  502  0.11064623590E+02 -0.47496174859E+02  0.38882525631E+03  0.39189394594E+03  0.41800000000E+01 0. -1.
        -11    1    1    2    0    0 -0.41507207240E+02  0.24359696049E+02  0.48422776609E+02  0.68271577827E+02  0.00000000000E+00 0.  1.
         11    1    1    2    0    0 -0.10085156739E+00 -0.58365049353E+02  0.90401442644E+02  0.10760534368E+03  0.00000000000E+00 0. -1.
</event>
<event>
 7    1  0.2334784E-009  0.1085317E+03  0.7561462E-02  0.1263313E+00
         -1   -1    0    0    0  501 -0.00000000000E+00  0.00000000000E+00  0.86371028274E+02  0.86371028274E+02  0.00000000000E+00 0.  1.
          1   -1    0    0  501    0  0.00000000000E+00 -0.00000000000E+00 -0.16407763033E+03  0.16407763033E+03  0.00000000000E+00 0. -1.
         25    2    1    2    0    0 -0.21601128845E+02 -0.25577711586E+02 -0.85198746714E+02  0.15501220826E+03  0.12509648345E+03 0.  0.
          5    1    3    3  502    0 -0.44295430228E+02 -0.67770674260E+02 -0.58826284872E+02  0.10016463258E+03  0.41800000000E+01 0.  1.
         -5    1    3    3    0  502  0.22694301383E+02  0.42192962674E+02 -0.26372461842E+02  0.54847575681E+02  0.41800000000E+01 0.  1.
        -11    1    1    2    0    0  0.10483625508E+02  0.55239267074E+02 -0.13000959005E+02  0.57708820519E+02  0.00000000000E+00 0. -1.
         11    1    1    2    0    0  0.11117503336E+02 -0.29661555488E+02  0.20493103661E+02  0.37727629823E+02  0.00000000000E+00 0.  1.
</event>
<event>
 7    1  0.2334784E-009  0.9694637E+02  0.7561462E-02  0.1286852E+00
         -4   -1    0    0    0  501 -0.00000000000E+00  0.00000000000E+00  0.26025685095E+03  0.26025685095E+03  0.00000000000E+00 0. -1.
          4   -1    0    0  501    0  0.00000000000E+00 -0.00000000000E+00 -0.69743037015E+02  0.69743037015E+02  0.00000000000E+00 0.  1.
         25    2    1    2    0    0  0.42393484973E+02  0.61249044459E+02  0.70285805371E+02  0.16166895630E+03  0.12509238177E+03 0.  0.
          5    1    3    3  502    0  0.22268252450E+02  0.66905714984E+02  0.10162656722E+03  0.12376462067E+03  0.41800000000E+01 0. -1.
         -5    1    3    3    0  502  0.20125232523E+02 -0.56566705257E+01 -0.31340761852E+02  0.37904335623E+02  0.41800000000E+01 0. -1.
        -11    1    1    2    0    0  0.17380772194E+02 -0.29534606915E+02  0.85839858264E+02  0.92427623114E+02  0.00000000000E+00 0. -1.
         11    1    1    2    0    0 -0.59774257167E+02 -0.31714437543E+02  0.34388150299E+02  0.75903308555E+02  0.00000000000E+00 0.  1.
</event>
<event>
 7    1  0.2334784E-009  0.9001336E+02  0.7561462E-02  0.1302819E+00
          1   -1    0    0  501    0  0.00000000000E+00  0.00000000000E+00  0.22969747427E+03  0.22969747427E+03  0.00000000000E+00 0. -1.
         -1   -1    0    0    0  501 -0.00000000000E+00 -0.00000000000E+00 -0.54678843634E+02  0.54678843634E+02  0.00000000000E+00 0.  1.
         25    2    1    2    0    0  0.21708159717E+02  0.28370295687E+01  0.72420179610E+02  0.14618404016E+03  0.12508316533E+03 0.  0.
          5    1    3    3  502    0 -0.41015159108E+02  0.12147025932E+02 -0.79672880471E+01  0.43712053194E+02  0.41800000000E+01 0. -1.
         -5    1    3    3    0  502  0.62723318824E+02 -0.93099963636E+01  0.80387467657E+02  0.10247198697E+03  0.41800000000E+01 0. -1.
        -11    1    1    2    0    0  0.16065785712E+02 -0.24989496580E+02  0.86627934259E+02  0.91580475015E+02  0.00000000000E+00 0. -1.
         11    1    1    2    0    0 -0.37773945429E+02  0.22152467011E+02  0.15970516769E+02  0.46611802731E+02  0.00000000000E+00 0.  1.
</event>
<event>
 7    1  0.2334784E-009  0.1063086E+03  0.7561462E-02  0.1267562E+00
         -1   -1    0    0    0  501 -0.00000000000E+00  0.00000000000E+00  0.32782965707E+03  0.32782965707E+03  0.00000000000E+00 0.  1.
          1   -1    0    0  501    0  0.00000000000E+00 -0.00000000000E+00 -0.46719995714E+02  0.46719995714E+02  0.00000000000E+00 0. -1.
         25    2    1    2    0    0  0.50253400687E+02 -0.23308484221E+02  0.12707065588E+03  0.18671594522E+03  0.12508878005E+03 0.  0.
          5    1    3    3  502    0  0.67424194362E+01 -0.57951006108E+02  0.13263186614E+02  0.59976360743E+02  0.41800000000E+01 0. -1.
         -5    1    3    3    0  502  0.43510981251E+02  0.34642521887E+02  0.11380746927E+03  0.12673958448E+03  0.41800000000E+01 0. -1.
        -11    1    1    2    0    0 -0.87192963520E+01  0.48830291838E+02  0.39690818722E+02  0.63527825562E+02  0.00000000000E+00 0. -1.
         11    1    1    2    0    0 -0.41534104335E+02 -0.25521807617E+02  0.11434818675E+03  0.12430588200E+03  0.00000000000E+00 0.  1.
</event>
<event>
 7    1  0.2334784E-009  0.7547864E+02  0.7561462E-02  0.1342395E+00
          1   -1    0    0  501    0  0.00000000000E+00  0.00000000000E+00  0.51091317690E+03  0.51091317690E+03  0.00000000000E+00 0. -1.
         -1   -1    0    0    0  501 -0.00000000000E+00 -0.00000000000E+00 -0.25177407626E+02  0.25177407626E+02  0.00000000000E+00 0.  1.
         25    2    1    2    0    0  0.11086404089E+02 -0.96809122266E-01  0.29103059322E+03  0.31696814095E+03  0.12508828268E+03 0.  0.
          5    1    3    3  502    0  0.30620641357E+02  0.20289236298E+01  0.63950038478E+01  0.31624494975E+02  0.41800000000E+01 0. -1.
         -5    1    3    3    0  502 -0.19534237268E+02 -0.21257327520E+01  0.28463558937E+03  0.28534364598E+03  0.41800000000E+01 0. -1.
        -11    1    1    2    0    0  0.30325137899E+01  0.48950266021E+02  0.83420536935E+02  0.96769368428E+02  0.00000000000E+00 0.  1.
         11    1    1    2    0    0 -0.14118917878E+02 -0.48853456899E+02  0.11128463913E+03  0.12235307515E+03  0.00000000000E+00 0. -1.
</event>
<event>
 7    1  0.2334784E-009  0.4777452E+03  0.7561462E-02  0.1019757E+00
         -1   -1    0    0    0  501 -0.00000000000E+00  0.00000000000E+00  0.20552703634E+03  0.20552703634E+03  0.00000000000E+00 0.  1.
          1   -1    0    0  501    0  0.00000000000E+00 -0.00000000000E+00 -0.11255396616E+04  0.11255396616E+04  0.00000000000E+00 0. -1.
         25    2    1    2    0    0  0.39836028653E+03 -0.24441226577E+03 -0.43114161045E+03  0.64804231087E+03  0.12508986717E+03 0.  0.
          5    1    3    3  502    0  0.35035491758E+03 -0.16794079684E+03 -0.31093892459E+03  0.49764763311E+03  0.41800000000E+01 0. -1.
         -5    1    3    3    0  502  0.48005368947E+02 -0.76471468935E+02 -0.12020268587E+03  0.15039467776E+03  0.41800000000E+01 0. -1.
        -11    1    1    2    0    0 -0.16160415068E+03  0.15367341662E+03 -0.24350168154E+03  0.33018856644E+03  0.00000000000E+00 0. -1.
         11    1    1    2    0    0 -0.23675613585E+03  0.90738849159E+02 -0.24536933325E+03  0.35283582062E+03  0.00000000000E+00 0.  1.
</event>
<event>
 7    1  0.2334784E-009  0.2275034E+03  0.7561462E-02  0.1128409E+00
          2   -1    0    0  501    0  0.00000000000E+00  0.00000000000E+00  0.70259632186E+03  0.70259632186E+03  0.00000000000E+00 0. -1.
         -2   -1    0    0    0  501 -0.00000000000E+00 -0.00000000000E+00 -0.84576579716E+02  0.84576579716E+02  0.00000000000E+00 0.  1.
         25    2    1    2    0    0 -0.19949337610E+03 -0.62321441364E+02  0.21952624724E+03  0.32790285380E+03  0.12508772578E+03 0.  0.
          5    1    3    3  502    0 -0.19994484603E+03 -0.39918137695E+02  0.14568981062E+03  0.25062799623E+03  0.41800000000E+01 0.  1.
         -5    1    3    3    0  502  0.45146993360E+00 -0.22403303668E+02  0.73836436621E+02  0.77274857575E+02  0.41800000000E+01 0.  1.
        -11    1    1    2    0    0  0.20010100136E+03  0.76397885323E+02  0.37162581240E+03  0.42893215323E+03  0.00000000000E+00 0.  1.
         11    1    1    2    0    0 -0.60762525578E+00 -0.14076443959E+02  0.26867682493E+02  0.30337894547E+02  0.00000000000E+00 0. -1.
</event>
<event>
 7    1  0.2334784E-009  0.1655447E+03  0.7561462E-02  0.1182575E+00
          2   -1    0    0  501    0  0.00000000000E+00  0.00000000000E+00  0.29891857637E+03  0.29891857637E+03  0.00000000000E+00 0. -1.
         -2   -1    0    0    0  501 -0.00000000000E+00 -0.00000000000E+00 -0.12245201364E+03  0.12245201364E+03  0.00000000000E+00 0.  1.
         25    2    1    2    0    0  0.14877816349E+03  0.17046548844E+00  0.36365959507E+02  0.19774657979E+03  0.12508499437E+03 0.  0.
          5    1    3    3  502    0  0.10266425389E+03  0.49518793509E+02 -0.11825135476E+02  0.11467068574E+03  0.41800000000E+01 0.  1.
         -5    1    3    3    0  502  0.46113909600E+02 -0.49348328020E+02  0.48191094984E+02  0.83075894053E+02  0.41800000000E+01 0.  1.
        -11    1    1    2    0    0 -0.25011286450E+02 -0.49696486375E+01 -0.11403201016E+02  0.27933758266E+02  0.00000000000E+00 0.  1.
         11    1    1    2    0    0 -0.12376687704E+03  0.47991831491E+01  0.15150380423E+03  0.19569025195E+03  0.00000000000E+00 0. -1.
</event>
<event>
 7    1  0.2334784E-009  0.7605965E+02  0.7561462E-02  0.1340621E+00
         -1   -1    0    0    0  501 -0.00000000000E+00  0.00000000000E+00  0.21408913534E+02  0.21408913534E+02  0.00000000000E+00 0.  1.
          1   -1    0    0  501    0  0.00000000000E+00 -0.00000000000E+00 -0.85080959826E+03  0.85080959826E+03  0.00000000000E+00 0. -1.
         25    2    1    2    0    0  0.34294532832E+02 -0.10695126350E+02 -0.68776482147E+03  0.69997034034E+03  0.12509007554E+03 0.  0.
          5    1    3    3  502    0  0.36511662788E+02 -0.32455870135E+02 -0.66915513965E+03  0.67094899832E+03  0.41800000000E+01 0.  1.
         -5    1    3    3    0  502 -0.22171299558E+01  0.21760743785E+02 -0.18609681817E+02  0.29021342020E+02  0.41800000000E+01 0.  1.
        -11    1    1    2    0    0 -0.21050072413E+02 -0.30775396266E+02 -0.11573246919E+03  0.12159043954E+03  0.00000000000E+00 0. -1.
         11    1    1    2    0    0 -0.13244460418E+02  0.41470522616E+02 -0.25903394069E+02  0.50657731909E+02  0.00000000000E+00 0.  1.
</event>
<event>
 7    1  0.2334784E-009  0.1203319E+03  0.7561462E-02  0.1242550E+00
         -1   -1    0    0    0  501 -0.00000000000E+00  0.00000000000E+00  0.19983955906E+02  0.19983955906E+02  0.00000000000E+00 0.  1.
          1   -1    0    0  501    0  0.00000000000E+00 -0.00000000000E+00 -0.88590037634E+03  0.88590037634E+03  0.00000000000E+00 0. -1.
         25    2    1    2    0    0  0.17556231294E+02 -0.72787032904E+02 -0.41083383826E+03  0.43593420972E+03  0.12509204263E+03 0.  0.
          5    1    3    3  502    0  0.43939654139E+02  0.45292494046E+01 -0.26531765021E+03  0.26900211007E+03  0.41800000000E+01 0. -1.
         -5    1    3    3    0  502 -0.26383422845E+02 -0.77316282308E+02 -0.14551618805E+03  0.16693209965E+03  0.41800000000E+01 0. -1.
        -11    1    1    2    0    0 -0.51737089021E+02  0.56568554871E+02 -0.25310031032E+03  0.26445509045E+03  0.00000000000E+00 0.  1.
         11    1    1    2    0    0  0.34180857726E+02  0.16218478033E+02 -0.20198227186E+03  0.20549503208E+03  0.00000000000E+00 0. -1.
</event>
<event>
 7    1  0.2334784E-009  0.9950716E+02  0.7561462E-02  0.1281336E+00
         -1   -1    0    0    0  501 -0.00000000000E+00  0.00000000000E+00  0.10676172321E+04  0.10676172321E+04  0.00000000000E+00 0.  1.
          1   -1    0    0  501    0  0.00000000000E+00 -0.00000000000E+00 -0.14308603608E+02  0.14308603608E+02  0.00000000000E+00 0. -1.
         25    2    1    2    0    0  0.36142813110E+02  0.33489496464E+02  0.45256899508E+03  0.47211692689E+03  0.12509135877E+03 0.  0.
          5    1    3    3  502    0 -0.24767751598E+02  0.98039545550E+00  0.15334958735E+02  0.29445475950E+02  0.41800000000E+01 0.  1.
         -5    1    3    3    0  502  0.60910564708E+02  0.32509101008E+02  0.43723403634E+03  0.44267145094E+03  0.41800000000E+01 0.  1.
        -11    1    1    2    0    0  0.23429820301E+02 -0.38346072073E+02  0.24669027756E+03  0.25074981708E+03  0.00000000000E+00 0.  1.
         11    1    1    2    0    0 -0.59572633411E+02  0.48565756092E+01  0.35404935583E+03  0.35905909171E+03  0.00000000000E+00 0. -1.
</event>
<event>
 7    1  0.2334784E-009  0.1824293E+03  0.7561462E-02  0.1165472E+00
         -2   -1    0    0    0  501 -0.00000000000E+00  0.00000000000E+00  0.24865216404E+02  0.24865216404E+02  0.00000000000E+00 0. -1.
          2   -1    0    0  501    0  0.00000000000E+00 -0.00000000000E+00 -0.16077476390E+04  0.16077476390E+04  0.00000000000E+00 0.  1.
         25    2    1    2    0    0 -0.99164404680E+02 -0.11325777367E+03 -0.11358348995E+04  0.11525746008E+04  0.12508552701E+03 0.  0.
          5    1    3    3  502    0 -0.89882501620E+02 -0.11575454235E+02 -0.63226246320E+03  0.63873793531E+03  0.41800000000E+01 0.  1.
         -5    1    3    3    0  502 -0.92819030603E+01 -0.10168231944E+03 -0.50357243629E+03  0.51383666549E+03  0.41800000000E+01 0.  1.
        -11    1    1    2    0    0  0.29564855939E+02 -0.93105286886E+01 -0.11942897973E+03  0.12338576843E+03  0.00000000000E+00 0.  1.
         11    1    1    2    0    0  0.69599548742E+02  0.12256830236E+03 -0.32761854338E+03  0.35665248618E+03  0.00000000000E+00 0. -1.
</event>
<event>
 7    1  0.2334784E-009  0.1178134E+03  0.7561462E-02  0.1246749E+00
         -2   -1    0    0    0  501 -0.00000000000E+00  0.00000000000E+00  0.75688034603E+02  0.75688034603E+02  0.00000000000E+00 0.  1.
          2   -1    0    0  501    0  0.00000000000E+00 -0.00000000000E+00 -0.34843235549E+03  0.34843235549E+03  0.00000000000E+00 0. -1.
         25    2    1    2    0    0  0.11624379396E+02 -0.69270279565E+02 -0.27422020640E+03  0.30947959413E+03  0.12508956694E+03 0.  0.
          5    1    3    3  502    0 -0.45328514102E+02 -0.21383102717E+02 -0.19213867270E+03  0.19861181541E+03  0.41800000000E+01 0.  1.
         -5    1    3    3    0  502  0.56952893497E+02 -0.47887176848E+02 -0.82081533692E+02  0.11086777872E+03  0.41800000000E+01 0.  1.
        -11    1    1    2    0    0 -0.48542860899E+02  0.30811168654E+02  0.15437146063E+02  0.59531864884E+02  0.00000000000E+00 0.  1.
         11    1    1    2    0    0  0.36918481503E+02  0.38459110911E+02 -0.13961260551E+02  0.55108931080E+02  0.00000000000E+00 0. -1.
</event>
<event>
 7    1  0.2334784E-009  0.1308166E+03  0.7561462E-02  0.1226249E+00
          1   -1    0    0  501    0  0.00000000000E+00  0.00000000000E+00  0.12937377250E+04  0.12937377250E+04  0.00000000000E+00 0. -1.
         -1   -1    0    0    0  501 -0.00000000000E+00 -0.00000000000E+00 -0.14874072144E+02  0.14874072144E+02  0.00000000000E+00 0.  1.
         25    2    1    2    0    0 -0.79116890861E+02  0.18416037434E+02  0.79178235683E+03  0.80570806391E+03  0.12509017074E+03 0.  0.
          5    1    3    3  502    0 -0.28270096456E+02  0.62786419642E+02  0.56098692729E+03  0.56521247140E+03  0.41800000000E+01 0. -1.
         -5    1    3    3    0  502 -0.50846794405E+02 -0.44370382208E+02  0.23079542954E+03  0.24049559251E+03  0.41800000000E+01 0. -1.
        -11    1    1    2    0    0 -0.46725513257E+01  0.28584642242E+02  0.10377864086E+03  0.10774470199E+03  0.00000000000E+00 0.  1.
         11    1    1    2    0    0  0.83789442187E+02 -0.47000679676E+02  0.38330265511E+03  0.39515903119E+03  0.00000000000E+00 0. -1.
</event>
<event>
 7    1  0.3469121E-009  0.1243798E+03  0.7561462E-02  0.1236042E+00
          1   -1    0    0  501    0  0.00000000000E+00  0.00000000000E+00  0.77175832562E+03  0.77175832562E+03  0.00000000000E+00 0. -1.
         -1   -1    0    0    0  501 -0.00000000000E+00 -0.00000000000E+00 -0.28166870771E+02  0.28166870771E+02  0.00000000000E+00 0.  1.
         25    2    1    2    0    0 -0.74571903032E+02  0.59321798953E+02  0.48348902692E+03  0.50841860594E+03  0.12509114743E+03 0.  0.
          5    1    3    3  502    0 -0.87649299567E+02  0.30756073874E+02  0.45911551478E+03  0.46843661695E+03  0.41800000000E+01 0. -1.
         -5    1    3    3    0  502  0.13077396535E+02  0.28565725079E+02  0.24373512141E+02  0.39981988989E+02  0.41800000000E+01 0. -1.
        -11    1    1    2    0    0  0.56014590579E+02  0.58513190354E+01  0.70971382533E+02  0.90602480268E+02  0.00000000000E+00 0.  1.
         11    1    1    2    0    0  0.18557312453E+02 -0.65173117988E+02  0.18913104540E+03  0.20090411018E+03  0.00000000000E+00 0. -1.
</event>
<event>
 7    1  0.2334784E-009  0.9931627E+02  0.7561462E-02  0.1281740E+00
         -1   -1    0    0    0  501 -0.00000000000E+00  0.00000000000E+00  0.91482981166E+02  0.91482981166E+02  0.00000000000E+00 0.  1.
          1   -1    0    0  501    0  0.00000000000E+00 -0.00000000000E+00 -0.17929510966E+03  0.17929510966E+03  0.00000000000E+00 0. -1.
         25    2    1    2    0    0 -0.13022559837E+02 -0.40347222473E+02 -0.31308511357E+01  0.13211909913E+03  0.12509264047E+03 0.  0.
          5    1    3    3  502    0 -0.56516729317E+02 -0.37938435996E+02  0.32632761036E+02  0.75603142205E+02  0.41800000000E+01 0. -1.
         -5    1    3    3    0  502  0.43494169480E+02 -0.24087864775E+01 -0.35763612172E+02  0.56515956920E+02  0.41800000000E+01 0. -1.
        -11    1    1    2    0    0  0.25771351757E+02 -0.15039557978E+02  0.71308019240E+01  0.30678970185E+02  0.00000000000E+00 0.  1.
         11    1    1    2    0    0 -0.12748791920E+02  0.55386780451E+02 -0.91812079281E+02  0.10798002151E+03  0.00000000000E+00 0. -1.
</event>
<event>
 7    1  0.2334784E-009  0.1008503E+03  0.7561462E-02  0.1278518E+00
         -1   -1    0    0    0  501 -0.00000000000E+00  0.00000000000E+00  0.18289338072E+02  0.18289338072E+02  0.00000000000E+00 0.  1.
          1   -1    0    0  501    0  0.00000000000E+00 -0.00000000000E+00 -0.73079120081E+03  0.73079120081E+03  0.00000000000E+00 0. -1.
         25    2    1    2    0    0 -0.24470679210E+02 -0.58869389790E+00 -0.50190485331E+03  0.51783640946E+03  0.12508758726E+03 0.  0.
          5    1    3    3  502    0  0.44972491693E+02 -0.21796622350E+02 -0.14040061904E+03  0.14908864471E+03  0.41800000000E+01 0. -1.
         -5    1    3    3    0  502 -0.69443170902E+02  0.21207928453E+02 -0.36150423428E+03  0.36874776476E+03  0.41800000000E+01 0. -1.
        -11    1    1    2    0    0  0.25155254335E+02  0.35716418605E+02 -0.17811917946E+03  0.18339817739E+03  0.00000000000E+00 0. -1.
         11    1    1    2    0    0 -0.68457512513E+00 -0.35127724707E+02 -0.32477829969E+02  0.47845952030E+02  0.00000000000E+00 0.  1.
</event>
<event>
 7    1  0.2334784E-009  0.1114002E+03  0.7561462E-02  0.1257999E+00
          1   -1    0    0  501    0  0.00000000000E+00  0.00000000000E+00  0.15587421160E+02  0.15587421160E+02  0.00000000000E+00 0. -1.
         -1   -1    0    0    0  501 -0.00000000000E+00 -0.00000000000E+00 -0.85496066756E+03  0.85496066756E+03  0.00000000000E+00 0.  1.
         25    2    1    2    0    0 -0.17570496975E+02 -0.30907676598E+02 -0.43729924581E+03  0.45622716154E+03  0.12509430724E+03 0.  0.
          5    1    3    3  502    0 -0.62495791369E+02 -0.50768313431E+02 -0.26156967598E+03  0.27371392617E+03  0.41800000000E+01 0.  1.
         -5    1    3    3    0  502  0.44925294394E+02  0.19860636834E+02 -0.17572956983E+03  0.18251323537E+03  0.41800000000E+01 0.  1.
        -11    1    1    2    0    0 -0.30063026989E+02 -0.82942018121E+01 -0.70983264624E+02  0.77531949751E+02  0.00000000000E+00 0.  1.
         11    1    1    2    0    0  0.47633523964E+02  0.39201878410E+02 -0.33109073597E+03  0.33678897743E+03  0.00000000000E+00 0. -1.
</event>
<event>
 7    1  0.2334784E-009  0.1608622E+03  0.7561462E-02  0.1187727E+00
         -2   -1    0    0    0  501 -0.00000000000E+00  0.00000000000E+00  0.16896890726E+02  0.16896890726E+02  0.00000000000E+00 0.  1.
          2   -1    0    0  501    0  0.00000000000E+00 -0.00000000000E+00 -0.24816738291E+04  0.24816738291E+04  0.00000000000E+00 0. -1.
         25    2    1    2    0    0 -0.11411447157E+03  0.40145320397E+02 -0.20520414481E+04  0.20594065028E+04  0.12508908730E+03 0.  0.
          5    1    3    3  502    0  0.23870610386E+02 -0.93343605190E+01 -0.41401433738E+03  0.41482801290E+03  0.41800000000E+01 0.  1.
         -5    1    3    3    0  502 -0.13798508196E+03  0.49479680916E+02 -0.16380271107E+04  0.16445784899E+04  0.41800000000E+01 0.  1.
        -11    1    1    2    0    0  0.12235940158E+03 -0.15765446035E+02 -0.35845569296E+03  0.37909214746E+03  0.00000000000E+00 0. -1.
         11    1    1    2    0    0 -0.82449300097E+01 -0.24379874361E+02 -0.54279797350E+02  0.60072069593E+02  0.00000000000E+00 0.  1.
</event>
<event>
 7    1  0.2334784E-009  0.9689426E+02  0.7561462E-02  0.1286966E+00
          1   -1    0    0  501    0  0.00000000000E+00  0.00000000000E+00  0.81038853816E+03  0.81038853816E+03  0.00000000000E+00 0. -1.
         -1   -1    0    0    0  501 -0.00000000000E+00 -0.00000000000E+00 -0.24366545913E+02  0.24366545913E+02  0.00000000000E+00 0.  1.
         25    2    1    2    0    0 -0.57629509642E+02  0.27482314565E+02  0.30637225574E+03  0.33702807397E+03  0.12509006979E+03 0.  0.
          5    1    3    3  502    0  0.20170237201E+00  0.28750064449E+02  0.26302038477E+03  0.26462010901E+03  0.41800000000E+01 0. -1.
         -5    1    3    3    0  502 -0.57831212014E+02 -0.12677498846E+01  0.43351870978E+02  0.72407964963E+02  0.41800000000E+01 0. -1.
        -11    1    1    2    0    0  0.12768656353E+02  0.30712330911E+02  0.40196897959E+02  0.52173522601E+02  0.00000000000E+00 0.  1.
         11    1    1    2    0    0  0.44860853289E+02 -0.58194645476E+02  0.43945283854E+03  0.44555348750E+03  0.00000000000E+00 0. -1.
</event>
<event>
 7    1  0.2334784E-009  0.9933177E+02  0.7561462E-02  0.1281707E+00
         -1   -1    0    0    0  501 -0.00000000000E+00  0.00000000000E+00  0.43828626948E+02  0.43828626948E+02  0.00000000000E+00 0.  1.
          1   -1    0    0  501    0  0.00000000000E+00 -0.00000000000E+00 -0.43054139308E+03  0.43054139308E+03  0.00000000000E+00 0. -1.
         25    2    1    2    0    0  0.41302464795E+02 -0.42621505389E+02 -0.31173954865E+03  0.34111165287E+03  0.12511245825E+03 0.  0.
          5    1    3    3  502    0 -0.13381882969E+02  0.17621234988E+02 -0.41257541757E+01  0.22892727269E+02  0.41800000000E+01 0.  1.
         -5    1    3    3    0  502  0.54684347764E+02 -0.60242740377E+02 -0.30761379447E+03  0.31821892560E+03  0.41800000000E+01 0.  1.
        -11    1    1    2    0    0  0.15631262493E+02  0.33567418384E+02  0.20091597477E+01  0.37082943073E+02  0.00000000000E+00 0.  1.
         11    1    1    2    0    0 -0.56933727287E+02  0.90540870050E+01 -0.76982377235E+02  0.96175424091E+02  0.00000000000E+00 0. -1.
</event>
<event>
 7    1  0.2334784E-009  0.1283309E+03  0.7561462E-02  0.1229954E+00
         -1   -1    0    0    0  501 -0.00000000000E+00  0.00000000000E+00  0.19446391097E+03  0.19446391097E+03  0.00000000000E+00 0.  1.
          1   -1    0    0  501    0  0.00000000000E+00 -0.00000000000E+00 -0.99604254977E+02  0.99604254977E+02  0.00000000000E+00 0. -1.
         25    2    1    2    0    0 -0.77633587530E+02  0.27114232791E+02  0.82751261865E+02  0.17104828057E+03  0.12509031702E+03 0.  0.
          5    1    3    3  502    0 -0.88605153769E+02  0.54932139451E+02  0.92380609769E+02  0.13935588499E+03  0.41800000000E+01 0. -1.
         -5    1    3    3    0  502  0.10971566239E+02 -0.27817906660E+02 -0.96293479037E+01  0.31692395582E+02  0.41800000000E+01 0. -1.
        -11    1    1    2    0    0  0.25534575687E+02 -0.56724394472E+02  0.10399705172E+02  0.63070003579E+02  0.00000000000E+00 0.  1.
         11    1    1    2    0    0  0.52099011843E+02  0.29610161681E+02  0.17086889549E+01  0.59949881799E+02  0.00000000000E+00 0. -1.
</event>
<event>
 7    1  0.2334784E-009  0.3153462E+03  0.7561462E-02  0.1077811E+00
          2   -1    0    0  501    0  0.00000000000E+00  0.00000000000E+00  0.15416598142E+04  0.15416598142E+04  0.00000000000E+00 0. -1.
         -2   -1    0    0    0  501 -0.00000000000E+00 -0.00000000000E+00 -0.91916348099E+02  0.91916348099E+02  0.00000000000E+00 0.  1.
         25    2    1    2    0    0 -0.10740987633E+03  0.28457804907E+03  0.31546300760E+03  0.45572643786E+03  0.12509248360E+03 0.  0.
          5    1    3    3  502    0 -0.12304302833E+03  0.28465116844E+03  0.31036635430E+03  0.43876032272E+03  0.41800000000E+01 0. -1.
         -5    1    3    3    0  502  0.15633152003E+02 -0.73119366535E-01  0.50966532989E+01  0.16966115137E+02  0.41800000000E+01 0. -1.
        -11    1    1    2    0    0  0.15509467285E+02 -0.31116778119E+02  0.52425852263E+02  0.62906815541E+02  0.00000000000E+00 0.  1.
         11    1    1    2    0    0  0.91900409045E+02 -0.25346127095E+03  0.10818546062E+04  0.11149429089E+04  0.00000000000E+00 0. -1.
</event>
<event>
 7    1  0.2334784E-009  0.1177884E+03  0.7561462E-02  0.1246791E+00
          1   -1    0    0  501    0  0.00000000000E+00  0.00000000000E+00  0.14487515617E+04  0.14487515617E+04  0.00000000000E+00 0. -1.
         -1   -1    0    0    0  501 -0.00000000000E+00 -0.00000000000E+00 -0.16457095866E+02  0.16457095866E+02  0.00000000000E+00 0.  1.
         25    2    1    2    0    0  0.52786205614E+02 -0.30521431457E+02  0.12039937602E+04  0.12120073462E+04  0.12507154532E+03 0.  0.
          5    1    3    3  502    0  0.85788352047E+02 -0.37021399447E+02  0.61833620796E+03  0.62536978168E+03  0.41800000000E+01 0.  1.
         -5    1    3    3    0  502 -0.33002146434E+02  0.64999679902E+01  0.58565755221E+03  0.58663756452E+03  0.41800000000E+01 0.  1.
        -11    1    1    2    0    0 -0.71586101607E+02  0.44884746898E+02  0.16034499392E+03  0.18124493792E+03  0.00000000000E+00 0.  1.
         11    1    1    2    0    0  0.18799895993E+02 -0.14363315441E+02  0.67955711772E+02  0.71956373465E+02  0.00000000000E+00 0. -1.
</event>
<event>
 7    1  0.2334784E-009  0.8331728E+02  0.7561462E-02  0.1319893E+00
          1   -1    0    0  501    0  0.00000000000E+00  0.00000000000E+00  0.96386380068E+03  0.96386380068E+03  0.00000000000E+00 0. -1.
         -1   -1    0    0    0  501 -0.00000000000E+00 -0.00000000000E+00 -0.25374015803E+02  0.25374015803E+02  0.00000000000E+00 0.  1.
         25    2    1    2    0    0  0.25032026715E+02 -0.11464933433E+02  0.84841985614E+03  0.85803294580E+03  0.12508491807E+03 0.  0.
          5    1    3    3  502    0  0.14929945642E+02  0.27514220953E+02  0.76142642555E+03  0.76208110431E+03  0.41800000000E+01 0.  1.
         -5    1    3    3    0  502  0.10102081073E+02 -0.38979154385E+02  0.86993430590E+02  0.95951841485E+02  0.41800000000E+01 0.  1.
        -11    1    1    2    0    0  0.34387655651E+02  0.58954122295E+01  0.41801072284E+02  0.54448107319E+02  0.00000000000E+00 0. -1.
         11    1    1    2    0    0 -0.59419682366E+02  0.55695212032E+01  0.48268856460E+02  0.76756763368E+02  0.00000000000E+00 0.  1.
</event>
<event>
 7    1  0.3261732E-009  0.6393886E+02  0.7561462E-02  0.1382008E+00
          1   -1    0    0  501    0  0.00000000000E+00  0.00000000000E+00  0.37204143286E+03  0.37204143286E+03  0.00000000000E+00 0. -1.
         -1   -1    0    0    0  501 -0.00000000000E+00 -0.00000000000E+00 -0.42979423930E+02  0.42979423930E+02  0.00000000000E+00 0.  1.
         25    2    1    2    0    0  0.27157153812E+02  0.44132536813E+02  0.24875882901E+03  0.28322045642E+03  0.12509068756E+03 0.  0.
          5    1    3    3  502    0 -0.43295883462E+01  0.26881804334E+02 -0.40477442820E+01  0.27843013007E+02  0.41800000000E+01 0. -1.
         -5    1    3    3    0  502  0.31486742159E+02  0.17250732479E+02  0.25280657329E+03  0.25537744341E+03  0.41800000000E+01 0. -1.
        -11    1    1    2    0    0  0.73095431047E-01 -0.35670429745E+02 -0.10046105979E+02  0.37058185958E+02  0.00000000000E+00 0.  1.
         11    1    1    2    0    0 -0.27230249243E+02 -0.84621070679E+01  0.90349285894E+02  0.94742214411E+02  0.00000000000E+00 0. -1.
</event>
<event>
 7    1  0.2334784E-009  0.1021900E+03  0.7561462E-02  0.1275757E+00
          2   -1    0    0  501    0  0.00000000000E+00  0.00000000000E+00  0.19701981991E+03  0.19701981991E+03  0.00000000000E+00 0. -1.
         -2   -1    0    0    0  501 -0.00000000000E+00 -0.00000000000E+00 -0.59645062972E+02  0.59645062972E+02  0.00000000000E+00 0.  1.
         25    2    1    2    0    0  0.65117661594E+01  0.28123855429E+01  0.70160124084E+02  0.14359188116E+03  0.12508346299E+03 0.  0.
          5    1    3    3  502    0 -0.39602255476E+02 -0.35509484469E+02  0.29637521419E+01  0.53437050375E+02  0.41800000000E+01 0.  1.
         -5    1    3    3    0  502  0.46114021635E+02  0.38321870012E+02  0.67196371942E+02  0.90154830789E+02  0.41800000000E+01 0.  1.
        -11    1    1    2    0    0 -0.29940054058E+01 -0.46748393343E+02  0.33975760556E+02  0.57868200714E+02  0.00000000000E+00 0. -1.
         11    1    1    2    0    0 -0.35177607536E+01  0.43936007800E+02  0.33238872296E+02  0.55204801002E+02  0.00000000000E+00 0.  1.
</event>
<event>
 7    1  0.2334784E-009  0.9275321E+02  0.7561462E-02  0.1296318E+00
         -1   -1    0    0    0  501 -0.00000000000E+00  0.00000000000E+00  0.11684307990E+02  0.11684307990E+02  0.00000000000E+00 0.  1.
          1   -1    0    0  501    0  0.00000000000E+00 -0.00000000000E+00 -0.13355589501E+04  0.13355589501E+04  0.00000000000E+00 0. -1.
         25    2    1    2    0    0  0.38119725506E+02  0.21168777358E+02 -0.10880754635E+04  0.10961099554E+04  0.12509032557E+03 0.  0.
          5    1    3    3  502    0 -0.28613924688E+02 -0.38232945778E+01 -0.75065541235E+03  0.75122193442E+03  0.41800000000E+01 0. -1.
         -5    1    3    3    0  502  0.66733650194E+02  0.24992071936E+02 -0.33742005112E+03  0.34488802099E+03  0.41800000000E+01 0. -1.
        -11    1    1    2    0    0 -0.39070382840E+02  0.19919614611E+02 -0.98660008271E+02  0.10796797254E+03  0.00000000000E+00 0.  1.
         11    1    1    2    0    0  0.95065733368E+00 -0.41088391968E+02 -0.13713917041E+03  0.14316533018E+03  0.00000000000E+00 0. -1.
</event>
<event>
 7    1  0.2334784E-009  0.1386725E+03  0.7561462E-02  0.1215126E+00
         -2   -1    0    0    0  501 -0.00000000000E+00  0.00000000000E+00  0.46201168785E+02  0.46201168785E+02  0.00000000000E+00 0. -1.
          2   -1    0    0  501    0  0.00000000000E+00 -0.00000000000E+00 -0.44046575857E+03  0.44046575857E+03  0.00000000000E+00 0.  1.
         25    2    1    2    0    0  0.16131954117E+02 -0.85046363654E+02 -0.26749742172E+03  0.30772882497E+03  0.12509610376E+03 0.  0.
          5    1    3    3  502    0  0.36910326902E+01 -0.11705001882E+03 -0.21498677792E+03  0.24484917339E+03  0.41800000000E+01 0. -1.
         -5    1    3    3    0  502  0.12440921427E+02  0.32003655171E+02 -0.52510643799E+02  0.62879651577E+02  0.41800000000E+01 0. -1.
        -11    1    1    2    0    0  0.30854563234E+02  0.69565251471E+02 -0.67365985751E+02  0.10163416906E+03  0.00000000000E+00 0. -1.
         11    1    1    2    0    0 -0.46986517351E+02  0.15481112182E+02 -0.59401182315E+02  0.77303933325E+02  0.00000000000E+00 0.  1.
</event>
<event>
 7    1  0.2334784E-009  0.1266465E+03  0.7561462E-02  0.1232518E+00
          2   -1    0    0  501    0  0.00000000000E+00  0.00000000000E+00  0.77575634914E+02  0.77575634914E+02  0.00000000000E+00 0.  1.
         -2   -1    0    0    0  501 -0.00000000000E+00 -0.00000000000E+00 -0.24665481744E+03  0.24665481744E+03  0.00000000000E+00 0. -1.
         25    2    1    2    0    0  0.80899952723E+02 -0.24813204118E+02 -0.40382059775E+02  0.15633187426E+03  0.12509375168E+03 0.  0.
          5    1    3    3  502    0  0.85619484229E+02 -0.63631657727E+02 -0.46656446992E+02  0.11650742633E+03  0.41800000000E+01 0. -1.
         -5    1    3    3    0  502 -0.47195315057E+01  0.38818453609E+02  0.62743872167E+01  0.39824447933E+02  0.41800000000E+01 0. -1.
        -11    1    1    2    0    0 -0.34531197107E+02 -0.22299000573E+02 -0.40771611450E+02  0.57896228724E+02  0.00000000000E+00 0.  1.
         11    1    1    2    0    0 -0.46368755616E+02  0.47112204691E+02 -0.87925511302E+02  0.11000234937E+03  0.00000000000E+00 0. -1.
</event>
<event>
 7    1  0.2334784E-009  0.1499795E+03  0.7561462E-02  0.1200498E+00
         -2   -1    0    0    0  501 -0.00000000000E+00  0.00000000000E+00  0.27207287146E+03  0.27207287146E+03  0.00000000000E+00 0.  1.
          2   -1    0    0  501    0  0.00000000000E+00 -0.00000000000E+00 -0.13940894048E+03  0.13940894048E+03  0.00000000000E+00 0. -1.
         25    2    1    2    0    0 -0.88979707423E+02 -0.82281733197E+02  0.18235256737E+03  0.25218703079E+03  0.12513260055E+03 0.  0.
          5    1    3    3  502    0 -0.52400583356E+02  0.63894564860E+01  0.13524467346E+03  0.14524200629E+03  0.41800000000E+01 0. -1.
         -5    1    3    3    0  502 -0.36579124068E+02 -0.88671189683E+02  0.47107893904E+02  0.10694502450E+03  0.41800000000E+01 0. -1.
        -11    1    1    2    0    0 -0.28248267593E+01  0.55208873630E+02 -0.12986748319E+02  0.56786045870E+02  0.00000000000E+00 0.  1.
         11    1    1    2    0    0  0.91804534183E+02  0.27072859567E+02 -0.36701888071E+02  0.10250873528E+03  0.00000000000E+00 0. -1.
</event>
<event>
 7    1  0.2334784E-009  0.8484800E+02  0.7561462E-02  0.1315831E+00
         -1   -1    0    0    0  501 -0.00000000000E+00  0.00000000000E+00  0.65742214040E+02  0.65742214040E+02  0.00000000000E+00 0.  1.
          1   -1    0    0  501    0  0.00000000000E+00 -0.00000000000E+00 -0.17316313904E+03  0.17316313904E+03  0.00000000000E+00 0. -1.
         25    2    1    2    0    0 -0.55289762741E+01  0.90766336557E+00 -0.29147345737E+02  0.12856056261E+03  0.12508739770E+03 0.  0.
          5    1    3    3  502    0  0.41097784173E+02  0.33991900895E+02  0.15726822313E+02  0.55760940904E+02  0.41800000000E+01 0. -1.
         -5    1    3    3    0  502 -0.46626760447E+02 -0.33084237530E+02 -0.44874168050E+02  0.72799621709E+02  0.41800000000E+01 0. -1.
        -11    1    1    2    0    0 -0.26095179338E+02  0.53475995755E+01 -0.10448961998E+01  0.26657963425E+02  0.00000000000E+00 0.  1.
         11    1    1    2    0    0  0.31624155612E+02 -0.62552629411E+01 -0.77228683061E+02  0.83686827040E+02  0.00000000000E+00 0. -1.
</event>
<event>
 7    1  0.3010304E-009  0.1028255E+03  0.7561462E-02  0.1274464E+00
         -2   -1    0    0    0  501 -0.00000000000E+00  0.00000000000E+00  0.23093869465E+02  0.23093869465E+02  0.00000000000E+00 0.  1.
          2   -1    0    0  501    0  0.00000000000E+00 -0.00000000000E+00 -0.62703607619E+03  0.62703607619E+03  0.00000000000E+00 0. -1.
         25    2    1    2    0    0  0.43757752886E+02  0.82344720283E+01 -0.26401615317E+03  0.29552468332E+03  0.12509101427E+03 0.  0.
          5    1    3    3  502    0  0.76496814079E+02 -0.27606531958E+02 -0.19221267285E+03  0.20875120880E+03  0.41800000000E+01 0. -1.
         -5    1    3    3    0  502 -0.32739061192E+02  0.35841003986E+02 -0.71803480317E+02  0.86773474519E+02  0.41800000000E+01 0. -1.
        -11    1    1    2    0    0 -0.52188694984E+02  0.12020952379E+02 -0.32157017812E+03  0.32599929852E+03  0.00000000000E+00 0. -1.
         11    1    1    2    0    0  0.84309420977E+01 -0.20255424407E+02 -0.18355875428E+02  0.28605963807E+02  0.00000000000E+00 0.  1.
</event>
<event>
 7    1  0.2334784E-009  0.2330862E+03  0.7561462E-02  0.1124486E+00
         -2   -1    0    0    0  501 -0.00000000000E+00  0.00000000000E+00  0.12754181602E+03  0.12754181602E+03  0.00000000000E+00 0.  1.
          2   -1    0    0  501    0  0.00000000000E+00 -0.00000000000E+00 -0.65365497036E+03  0.65365497036E+03  0.00000000000E+00 0. -1.
         25    2    1    2    0    0  0.12555818017E+03 -0.17319840883E+03 -0.51229876118E+02  0.25305121069E+03  0.12509144494E+03 0.  0.
          5    1    3    3  502    0  0.41427901873E+02 -0.14795016621E+03 -0.51760340577E+01  0.15378487072E+03  0.41800000000E+01 0.  1.
         -5    1    3    3    0  502  0.84130278301E+02 -0.25248242619E+02 -0.46053842061E+02  0.99266339969E+02  0.41800000000E+01 0.  1.
        -11    1    1    2    0    0 -0.10762639028E+03  0.92632824086E+02 -0.23624983877E+03  0.27564155402E+03  0.00000000000E+00 0. -1.
         11    1    1    2    0    0 -0.17931789899E+02  0.80565584741E+02 -0.23863343945E+03  0.25250402166E+03  0.00000000000E+00 0.  1.
</event>
<event>
 7    1  0.3359364E-009  0.1132970E+03  0.7561462E-02  0.1254583E+00
         -2   -1    0    0    0  501 -0.00000000000E+00  0.00000000000E+00  0.54755855308E+02  0.54755855308E+02  0.00000000000E+00 0.  1.
          2   -1    0    0  501    0  0.00000000000E+00 -0.00000000000E+00 -0.27084932040E+03  0.27084932040E+03  0.00000000000E+00 0. -1.
         25    2    1    2    0    0  0.36841417434E+02 -0.31840541600E+02 -0.84756319801E+02  0.15875088645E+03  0.12508836906E+03 0.  0.
          5    1    3    3  502    0  0.89316851738E+01 -0.78099385595E+02 -0.60983290887E+02  0.99577724406E+02  0.41800000000E+01 0.  1.
         -5    1    3    3    0  502  0.27909732260E+02  0.46258843995E+02 -0.23773028913E+02  0.59173162044E+02  0.41800000000E+01 0.  1.
        -11    1    1    2    0    0  0.22885151394E+02  0.24475474205E+02 -0.16830843517E+02  0.37497417050E+02  0.00000000000E+00 0.  1.
         11    1    1    2    0    0 -0.59726568828E+02  0.73650673952E+01 -0.11450630178E+03  0.12935687221E+03  0.00000000000E+00 0. -1.
</event>
<event>
 7    1  0.2334784E-009  0.1563277E+03  0.7561462E-02  0.1192906E+00
          2   -1    0    0  501    0  0.00000000000E+00  0.00000000000E+00  0.66995039980E+03  0.66995039980E+03  0.00000000000E+00 0. -1.
         -2   -1    0    0    0  501 -0.00000000000E+00 -0.00000000000E+00 -0.66540012312E+02  0.66540012312E+02  0.00000000000E+00 0.  1.
         25    2    1    2    0    0 -0.57231285986E+02 -0.11517551709E+03  0.53641846934E+03  0.56562648180E+03  0.12509085829E+03 0.  0.
          5    1    3    3  502    0  0.42753566612E+01 -0.93733707211E+02  0.17746962632E+03  0.20079150184E+03  0.41800000000E+01 0. -1.
         -5    1    3    3    0  502 -0.61506642647E+02 -0.21441809884E+02  0.35894884302E+03  0.36483497996E+03  0.41800000000E+01 0. -1.
        -11    1    1    2    0    0 -0.12750813035E+02  0.67709206538E+02  0.48629312879E+02  0.84332259274E+02  0.00000000000E+00 0. -1.
         11    1    1    2    0    0  0.69982099021E+02  0.47466310556E+02  0.18362605272E+02  0.86531671044E+02  0.00000000000E+00 0.  1.
</event>
<event>
 7    1  0.2334784E-009  0.8761632E+02  0.7561462E-02  0.1308729E+00
         -1   -1    0    0    0  501 -0.00000000000E+00  0.00000000000E+00  0.54639865084E+02  0.54639865084E+02  0.00000000000E+00 0.  1.
          1   -1    0    0  501    0  0.00000000000E+00 -0.00000000000E+00 -0.38468135035E+03  0.38468135035E+03  0.00000000000E+00 0. -1.
         25    2    1    2    0    0 -0.15030242525E+02 -0.28729765171E+02 -0.42854295699E+02  0.13614390009E+03  0.12508942111E+03 0.  0.
          5    1    3    3  502    0  0.95674610259E+01 -0.58166220710E+02  0.20001043263E+02  0.62388778428E+02  0.41800000000E+01 0. -1.
         -5    1    3    3    0  502 -0.24597703550E+02  0.29436455539E+02 -0.62855338963E+02  0.73755121658E+02  0.41800000000E+01 0. -1.
        -11    1    1    2    0    0  0.25607658797E+02 -0.16918096932E+02 -0.34473278596E+02  0.46156051933E+02  0.00000000000E+00 0.  1.
         11    1    1    2    0    0 -0.10577416273E+02  0.45647862103E+02 -0.25271391097E+03  0.25702126342E+03  0.00000000000E+00 0. -1.
</event>
<event>
 7    1  0.2334784E-009  0.1347463E+03  0.7561462E-02  0.1220578E+00
          2   -1    0    0  501    0  0.00000000000E+00  0.00000000000E+00  0.11626394146E+04  0.11626394146E+04  0.00000000000E+00 0. -1.
         -2   -1    0    0    0  501 -0.00000000000E+00 -0.00000000000E+00 -0.19156287092E+02  0.19156287092E+02  0.00000000000E+00 0.  1.
         25    2    1    2    0    0 -0.76745538362E+02  0.63044869673E+02  0.73632159045E+03  0.75344608498E+03  0.12508790970E+03 0.  0.
          5    1    3    3  502    0 -0.30439582119E+02 -0.37565779483E+02  0.24809794164E+03  0.25279995450E+03  0.41800000000E+01 0. -1.
         -5    1    3    3    0  502 -0.46305956243E+02  0.10061064916E+03  0.48822364881E+03  0.50064613048E+03  0.41800000000E+01 0. -1.
        -11    1    1    2    0    0  0.62947637613E+02 -0.21767049222E+02  0.35117822681E+03  0.35743860521E+03  0.00000000000E+00 0. -1.
         11    1    1    2    0    0  0.13797900749E+02 -0.41277820451E+02  0.55983310267E+02  0.70911011519E+02  0.00000000000E+00 0.  1.
</event>
<event>
 7    1  0.2334784E-009  0.2130681E+03  0.7561462E-02  0.1139159E+00
         -1   -1    0    0    0  501 -0.00000000000E+00  0.00000000000E+00  0.21604332100E+03  0.21604332100E+03  0.00000000000E+00 0.  1.
          1   -1    0    0  501    0  0.00000000000E+00 -0.00000000000E+00 -0.26093009756E+03  0.26093009756E+03  0.00000000000E+00 0. -1.
         25    2    1    2    0    0 -0.90804139517E+02 -0.16167156234E+03  0.78397755973E+02  0.23701574090E+03  0.12508863845E+03 0.  0.
          5    1    3    3  502    0 -0.37339865974E+02  0.12353181069E+02  0.26696177811E+02  0.47718182941E+02  0.41800000000E+01 0.  1.
         -5    1    3    3    0  502 -0.53464273542E+02 -0.17402474341E+03  0.51701578162E+02  0.18929755795E+03  0.41800000000E+01 0.  1.
        -11    1    1    2    0    0  0.38253044527E+02  0.14407282305E+03 -0.10185064582E+03  0.18053760775E+03  0.00000000000E+00 0. -1.
         11    1    1    2    0    0  0.52551094990E+02  0.17598739290E+02 -0.21433886718E+02  0.59420069918E+02  0.00000000000E+00 0.  1.
</event>
<event>
 7    1  0.2334784E-009  0.1168877E+03  0.7561462E-02  0.1248322E+00
          2   -1    0    0  501    0  0.00000000000E+00  0.00000000000E+00  0.33899860681E+03  0.33899860681E+03  0.00000000000E+00 0. -1.
         -2   -1    0    0    0  501 -0.00000000000E+00 -0.00000000000E+00 -0.89236274371E+02  0.89236274371E+02  0.00000000000E+00 0.  1.
         25    2    1    2    0    0 -0.48753756762E+01  0.76500347911E+02  0.27348035120E+03  0.31034337576E+03  0.12508171675E+03 0.  0.
          5    1    3    3  502    0 -0.13468496626E+02 -0.22125161656E+02  0.14874410000E+03  0.15104040143E+03  0.41800000000E+01 0. -1.
         -5    1    3    3    0  502  0.85931209495E+01  0.98625509568E+02  0.12473625120E+03  0.15930297433E+03  0.41800000000E+01 0. -1.
        -11    1    1    2    0    0 -0.35713452516E+01  0.15579823150E+02 -0.19657249179E+02  0.25335604228E+02  0.00000000000E+00 0.  1.
         11    1    1    2    0    0  0.84467209278E+01 -0.92080171061E+02 -0.40607695802E+01  0.92555901199E+02  0.00000000000E+00 0. -1.
</event>
<event>
 7    1  0.2334784E-009  0.1017231E+03  0.7561462E-02  0.1276714E+00
         -1   -1    0    0    0  501 -0.00000000000E+00  0.00000000000E+00  0.25683734234E+03  0.25683734234E+03  0.00000000000E+00 0.  1.
          1   -1    0    0  501    0  0.00000000000E+00 -0.00000000000E+00 -0.50033353103E+02  0.50033353103E+02  0.00000000000E+00 0. -1.
         25    2    1    2    0    0 -0.67986503527E+01 -0.24563818727E+02  0.94382077085E+02  0.15878905831E+03  0.12512547993E+03 0.  0.
          5    1    3    3  502    0  0.54701581345E+02 -0.21214013088E+02  0.20001395209E+02  0.62127494423E+02  0.41800000000E+01 0.  1.
         -5    1    3    3    0  502 -0.61500231698E+02 -0.33498056387E+01  0.74380681876E+02  0.96661563887E+02  0.41800000000E+01 0.  1.
        -11    1    1    2    0    0 -0.17498719651E+02  0.46795326536E+02  0.10193356424E+03  0.11351854163E+03  0.00000000000E+00 0.  1.
         11    1    1    2    0    0  0.24297370004E+02 -0.22231507809E+02  0.10488347906E+02  0.34563095498E+02  0.00000000000E+00 0. -1.
</event>
<event>
 7    1  0.2334784E-009  0.1379840E+03  0.7561462E-02  0.1216068E+00
         -1   -1    0    0    0  501 -0.00000000000E+00  0.00000000000E+00  0.38247727477E+03  0.38247727477E+03  0.00000000000E+00 0.  1.
          1   -1    0    0  501    0  0.00000000000E+00 -0.00000000000E+00 -0.74622159124E+02  0.74622159124E+02  0.00000000000E+00 0. -1.
         25    2    1    2    0    0  0.12312558419E+03 -0.45401920751E+01  0.21941222674E+03  0.28101405012E+03  0.12508656322E+03 0.  0.
          5    1    3    3  502    0  0.94465130912E+02  0.71585063334E+00  0.46062411347E+02  0.10518265798E+03  0.41800000000E+01 0.  1.
         -5    1    3    3    0  502  0.28660453277E+02 -0.52560427084E+01  0.17334981539E+03  0.17583139214E+03  0.41800000000E+01 0.  1.
        -11    1    1    2    0    0 -0.12207075789E+03 -0.23161946839E+02  0.76414673199E+02  0.14586619894E+03  0.00000000000E+00 0. -1.
         11    1    1    2    0    0 -0.10548262999E+01  0.27702138914E+02  0.12028215711E+02  0.30219184835E+02  0.00000000000E+00 0.  1.
</event>
<event>
 7    1  0.2334784E-009  0.1062277E+03  0.7561462E-02  0.1267719E+00
         -1   -1    0    0    0  501 -0.00000000000E+00  0.00000000000E+00  0.55373969327E+02  0.55373969327E+02  0.00000000000E+00 0.  1.
          1   -1    0    0  501    0  0.00000000000E+00 -0.00000000000E+00 -0.23117370945E+03  0.23117370945E+03  0.00000000000E+00 0. -1.
         25    2    1    2    0    0  0.17585636841E+02 -0.51890210147E+01 -0.13674375951E+03  0.18623408394E+03  0.12509235666E+03 0.  0.
          5    1    3    3  502    0  0.20720092084E+02  0.56518222296E+02 -0.43855815182E+02  0.74595151269E+02  0.41800000000E+01 0.  1.
         -5    1    3    3    0  502 -0.31344552430E+01 -0.61707243311E+02 -0.92887944329E+02  0.11163893267E+03  0.41800000000E+01 0.  1.
        -11    1    1    2    0    0 -0.53472793954E+02 -0.23137724961E+01 -0.33732911863E+02  0.63266125053E+02  0.00000000000E+00 0. -1.
         11    1    1    2    0    0  0.35887157113E+02  0.75027935109E+01 -0.53230687456E+01  0.37047469779E+02  0.00000000000E+00 0.  1.
</event>
<event>
 7    1  0.2731721E-009  0.8285503E+02  0.7561462E-02  0.1321139E+00
         -1   -1    0    0    0  501 -0.00000000000E+00  0.00000000000E+00  0.78762842944E+02  0.78762842944E+02  0.00000000000E+00 0.  1.
          1   -1    0    0  501    0  0.00000000000E+00 -0.00000000000E+00 -0.17905913438E+03  0.17905913438E+03  0.00000000000E+00 0. -1.
         25    2    1    2    0    0  0.93199460925E+01  0.36764576159E+02 -0.23655970897E+02  0.13283515460E+03  0.12508828036E+03 0.  0.
          5    1    3    3  502    0  0.21740238361E+02 -0.89224032692E+01 -0.65373371909E+02  0.69594521328E+02  0.41800000000E+01 0. -1.
         -5    1    3    3    0  502 -0.12420292268E+02  0.45686979428E+02  0.41717401011E+02  0.63240633271E+02  0.41800000000E+01 0. -1.
        -11    1    1    2    0    0  0.38737380795E+02 -0.14722347958E+02 -0.15717805664E+02  0.44321344916E+02  0.00000000000E+00 0. -1.
         11    1    1    2    0    0 -0.48057326888E+02 -0.22042228201E+02 -0.60922514877E+02  0.80665477812E+02  0.00000000000E+00 0.  1.
</event>
<event>
 7    1  0.2334784E-009  0.1158533E+03  0.7561462E-02  0.1250099E+00
          1   -1    0    0  501    0  0.00000000000E+00  0.00000000000E+00  0.98815104080E+03  0.98815104080E+03  0.00000000000E+00 0. -1.
         -1   -1    0    0    0  501 -0.00000000000E+00 -0.00000000000E+00 -0.17853893225E+02  0.17853893225E+02  0.00000000000E+00 0.  1.
         25    2    1    2    0    0  0.25750176989E+02 -0.36137304002E+02  0.77662834621E+03  0.78788847750E+03  0.12509072103E+03 0.  0.
          5    1    3    3  502    0  0.60102583425E+02  0.22598896847E+02  0.39919976061E+03  0.40435250951E+03  0.41800000000E+01 0. -1.
         -5    1    3    3    0  502 -0.34352406436E+02 -0.58736200849E+02  0.37742858560E+03  0.38353596799E+03  0.41800000000E+01 0. -1.
        -11    1    1    2    0    0 -0.12662185719E+02 -0.29581669397E+02  0.48174886746E+02  0.57932942481E+02  0.00000000000E+00 0.  1.
         11    1    1    2    0    0 -0.13087991270E+02  0.65718973399E+02  0.14549391463E+03  0.16018351405E+03  0.00000000000E+00 0. -1.
</event>
<event>
 7    1  0.2334784E-009  0.1143492E+03  0.7561462E-02  0.1252721E+00
          1   -1    0    0  501    0  0.00000000000E+00  0.00000000000E+00  0.41965120569E+02  0.41965120569E+02  0.00000000000E+00 0. -1.
         -1   -1    0    0    0  501 -0.00000000000E+00 -0.00000000000E+00 -0.46255694453E+03  0.46255694453E+03  0.00000000000E+00 0.  1.
         25    2    1    2    0    0 -0.25689571008E+02 -0.49799615336E+02 -0.11397037333E+03  0.17826094539E+03  0.12509101850E+03 0.  0.
          5    1    3    3  502    0  0.17940548870E+02 -0.69584588496E+02 -0.23354250283E+02  0.75675436281E+02  0.41800000000E+01 0.  1.
         -5    1    3    3    0  502 -0.43630119878E+02  0.19784973160E+02 -0.90616123050E+02  0.10258550911E+03  0.41800000000E+01 0.  1.
        -11    1    1    2    0    0  0.49126146329E+02  0.64413218989E+02 -0.25707347656E+03  0.26953518023E+03  0.00000000000E+00 0. -1.
         11    1    1    2    0    0 -0.23436575321E+02 -0.14613603653E+02 -0.49547974066E+02  0.56725939469E+02  0.00000000000E+00 0.  1.
</event>
<event>
 7    1  0.2334784E-009  0.1529029E+03  0.7561462E-02  0.1196951E+00
         -2   -1    0    0    0  501 -0.00000000000E+00  0.00000000000E+00  0.33141421538E+02  0.33141421538E+02  0.00000000000E+00 0.  1.
          2   -1    0    0  501    0  0.00000000000E+00 -0.00000000000E+00 -0.96504221260E+03  0.96504221260E+03  0.00000000000E+00 0. -1.
         25    2    1    2    0    0  0.39645324151E+02  0.12719111454E+03 -0.62509320006E+03  0.65126499023E+03  0.12512093107E+03 0.  0.
          5    1    3    3  502    0  0.55359587893E+02  0.11457388906E+03 -0.61554968182E+03  0.62857835090E+03  0.41800000000E+01 0.  1.
         -5    1    3    3    0  502 -0.15714263742E+02  0.12617225479E+02 -0.95435182365E+01  0.22686639330E+02  0.41800000000E+01 0.  1.
        -11    1    1    2    0    0 -0.64518748773E+02 -0.11049017172E+03 -0.27451558784E+03  0.30286887419E+03  0.00000000000E+00 0. -1.
         11    1    1    2    0    0  0.24873424623E+02 -0.16700942820E+02 -0.32292003167E+02  0.44049769717E+02  0.00000000000E+00 0.  1.
</event>
<event>
 7    1  0.2334784E-009  0.7835651E+02  0.7561462E-02  0.1333781E+00
          1   -1    0    0  501    0  0.00000000000E+00  0.00000000000E+00  0.19708009612E+03  0.19708009612E+03  0.00000000000E+00 0. -1.
         -1   -1    0    0    0  501 -0.00000000000E+00 -0.00000000000E+00 -0.99910976307E+02  0.99910976307E+02  0.00000000000E+00 0.  1.
         25    2    1    2    0    0  0.94045877656E+01  0.13637951134E+00  0.13155553425E+03  0.18179352396E+03  0.12511419540E+03 0.  0.
          5    1    3    3  502    0 -0.10704664945E+02  0.38612533392E+02  0.13217077345E+03  0.13817417755E+03  0.41800000000E+01 0. -1.
         -5    1    3    3    0  502  0.20109252711E+02 -0.38476153881E+02 -0.61523919570E+00  0.43619346411E+02  0.41800000000E+01 0. -1.
        -11    1    1    2    0    0 -0.32412884972E+02 -0.23488653156E+02 -0.61007509621E+02  0.72967308909E+02  0.00000000000E+00 0.  1.
         11    1    1    2    0    0  0.23008297206E+02  0.23352273644E+02  0.26621095179E+02  0.42230239559E+02  0.00000000000E+00 0. -1.
</event>
<event>
 7    1  0.2334784E-009  0.2442979E+03  0.7561462E-02  0.1116962E+00
          2   -1    0    0  501    0  0.00000000000E+00  0.00000000000E+00  0.81018731680E+03  0.81018731680E+03  0.00000000000E+00 0. -1.
         -2   -1    0    0    0  501 -0.00000000000E+00 -0.00000000000E+00 -0.93227315235E+02  0.93227315235E+02  0.00000000000E+00 0.  1.
         25    2    1    2    0    0 -0.52792564814E+02  0.23627286625E+03  0.24919257463E+03  0.36926446221E+03  0.12508949425E+03 0.  0.
          5    1    3    3  502    0  0.62382520925E+01  0.18810162913E+02 -0.12579194763E+02  0.23842117332E+02  0.41800000000E+01 0. -1.
         -5    1    3    3    0  502 -0.59030816907E+02  0.21746270334E+03  0.26177176939E+03  0.34542234487E+03  0.41800000000E+01 0. -1.
        -11    1    1    2    0    0  0.21046574622E+02 -0.14065516680E+03  0.35768815122E+03  0.38492550939E+03  0.00000000000E+00 0. -1.
         11    1    1    2    0    0  0.31745990192E+02 -0.95617699453E+02  0.11007927572E+03  0.14922466044E+03  0.00000000000E+00 0.  1.
</event>
<event>
 7    1  0.2334784E-009  0.7297440E+02  0.7561462E-02  0.1350261E+00
         -2   -1    0    0    0  501 -0.00000000000E+00  0.00000000000E+00  0.42778389933E+03  0.42778389933E+03  0.00000000000E+00 0.  1.
          2   -1    0    0  501    0  0.00000000000E+00 -0.00000000000E+00 -0.38067723855E+02  0.38067723855E+02  0.00000000000E+00 0. -1.
         25    2    1    2    0    0  0.45837817336E+02 -0.28589532371E+02  0.29431419380E+03  0.32432477144E+03  0.12508895170E+03 0.  0.
          5    1    3    3  502    0  0.49518542393E+00  0.20390523788E+02  0.23194843475E+03  0.23288101566E+03  0.41800000000E+01 0.  1.
         -5    1    3    3    0  502  0.45342631913E+02 -0.48980056159E+02  0.62365759052E+02  0.91443755786E+02  0.41800000000E+01 0.  1.
        -11    1    1    2    0    0 -0.29670377974E+02  0.29783531740E+02  0.11120566804E+03  0.11888688193E+03  0.00000000000E+00 0.  1.
         11    1    1    2    0    0 -0.16167439363E+02 -0.11939993688E+01 -0.15803686370E+02  0.22639969808E+02  0.00000000000E+00 0. -1.
</event>
<event>
 7    1  0.2334784E-009  0.1564730E+03  0.7561462E-02  0.1192737E+00
         -1   -1    0    0    0  501 -0.00000000000E+00  0.00000000000E+00  0.75135374429E+02  0.75135374429E+02  0.00000000000E+00 0.  1.
          1   -1    0    0  501    0  0.00000000000E+00 -0.00000000000E+00 -0.42320823193E+03  0.42320823193E+03  0.00000000000E+00 0. -1.
         25    2    1    2    0    0  0.55616085532E+02  0.11788487729E+03 -0.25733156675E+03  0.31441564490E+03  0.12509064413E+03 0.  0.
          5    1    3    3  502    0 -0.26681883578E+02  0.58896593175E+02 -0.16521051805E+03  0.17746188119E+03  0.41800000000E+01 0. -1.
         -5    1    3    3    0  502  0.82297969110E+02  0.58988284119E+02 -0.92121048696E+02  0.13695376371E+03  0.41800000000E+01 0. -1.
        -11    1    1    2    0    0 -0.70889667120E+02 -0.85955115421E+02 -0.32998451543E+02  0.11620036392E+03  0.00000000000E+00 0.  1.
         11    1    1    2    0    0  0.15273581588E+02 -0.31929761873E+02 -0.57742839205E+02  0.67727597530E+02  0.00000000000E+00 0. -1.
</event>
<event>
 7    1  0.2334784E-009  0.1024998E+03  0.7561462E-02  0.1275125E+00
          2   -1    0    0  501    0  0.00000000000E+00  0.00000000000E+00  0.98377238961E+03  0.98377238961E+03  0.00000000000E+00 0. -1.
         -2   -1    0    0    0  501 -0.00000000000E+00 -0.00000000000E+00 -0.13937920703E+02  0.13937920703E+02  0.00000000000E+00 0.  1.
         25    2    1    2    0    0  0.26091132249E+02 -0.25412947798E+02  0.68567326132E+03  0.69794064939E+03  0.12508702445E+03 0.  0.
          5    1    3    3  502    0 -0.57554935989E+01  0.42155006283E+02  0.12094472641E+03  0.12827809442E+03  0.41800000000E+01 0. -1.
         -5    1    3    3    0  502  0.31846625848E+02 -0.67567954081E+02  0.56472853491E+03  0.56966255497E+03  0.41800000000E+01 0. -1.
        -11    1    1    2    0    0  0.16884282385E+02  0.38888973326E+02  0.78319683088E+02  0.89058430242E+02  0.00000000000E+00 0.  1.
         11    1    1    2    0    0 -0.42975414634E+02 -0.13476025528E+02  0.20584152451E+03  0.21071123069E+03  0.00000000000E+00 0. -1.
</event>
<event>
 7    1  0.2334784E-009  0.1128630E+03  0.7561462E-02  0.1255358E+00
          1   -1    0    0  501    0  0.00000000000E+00  0.00000000000E+00  0.13620130495E+03  0.13620130495E+03  0.00000000000E+00 0. -1.
         -1   -1    0    0    0  501 -0.00000000000E+00 -0.00000000000E+00 -0.18366499393E+03  0.18366499393E+03  0.00000000000E+00 0.  1.
         25    2    1    2    0    0 -0.52787161332E+02 -0.22048337356E+02 -0.12599444863E+03  0.18652768479E+03  0.12508142358E+03 0.  0.
          5    1    3    3  502    0 -0.14275669222E+02  0.47567436012E+02 -0.80796970256E+02  0.94931967761E+02  0.41800000000E+01 0. -1.
         -5    1    3    3    0  502 -0.38511492109E+02 -0.69615773368E+02 -0.45197478375E+02  0.91595717027E+02  0.41800000000E+01 0. -1.
        -11    1    1    2    0    0 -0.37259322164E+01  0.37457939756E+02  0.30089836256E+01  0.37762862764E+02  0.00000000000E+00 0.  1.
         11    1    1    2    0    0  0.56513093548E+02 -0.15409602400E+02  0.75521776030E+02  0.95575751335E+02  0.00000000000E+00 0. -1.
</event>
<event>
 7    1  0.2334784E-009  0.1254976E+03  0.7561462E-02  0.1234294E+00
          2   -1    0    0  501    0  0.00000000000E+00  0.00000000000E+00  0.15268466617E+04  0.15268466617E+04  0.00000000000E+00 0. -1.
         -2   -1    0    0    0  501 -0.00000000000E+00 -0.00000000000E+00 -0.11803897605E+02  0.11803897605E+02  0.00000000000E+00 0.  1.
         25    2    1    2    0    0  0.17338175635E+02 -0.74894570736E+02  0.92862511647E+03  0.94015951862E+03  0.12508199088E+03 0.  0.
          5    1    3    3  502    0  0.30000771553E+02 -0.99646752517E+02  0.50638054807E+03  0.51697993524E+03  0.41800000000E+01 0. -1.
         -5    1    3    3    0  502 -0.12662595918E+02  0.24752181781E+02  0.42224456840E+03  0.42317958337E+03  0.41800000000E+01 0. -1.
        -11    1    1    2    0    0 -0.48092346574E+02  0.13319534762E+02  0.21145251176E+03  0.21726124489E+03  0.00000000000E+00 0.  1.
         11    1    1    2    0    0  0.30754170939E+02  0.61575035974E+02  0.37496513586E+03  0.38122979579E+03  0.00000000000E+00 0. -1.
</event>
<event>
 7    1  0.2334784E-009  0.1535818E+03  0.7561462E-02  0.1196140E+00
         -3   -1    0    0    0  501 -0.00000000000E+00  0.00000000000E+00  0.64544516448E+03  0.64544516448E+03  0.00000000000E+00 0.  1.
          3   -1    0    0  501    0  0.00000000000E+00 -0.00000000000E+00 -0.66935351265E+02  0.66935351265E+02  0.00000000000E+00 0. -1.
         25    2    1    2    0    0  0.36328934885E+02 -0.14734854729E+03  0.45677300905E+03  0.49731258301E+03  0.12508731960E+03 0.  0.
          5    1    3    3  502    0  0.23228785542E+02 -0.36679556577E+02  0.30961345884E+03  0.31267064564E+03  0.41800000000E+01 0.  1.
         -5    1    3    3    0  502  0.13100149343E+02 -0.11066899071E+03  0.14715955021E+03  0.18464193737E+03  0.41800000000E+01 0.  1.
        -11    1    1    2    0    0 -0.25497264683E+02  0.11849009655E+03  0.13507571623E+03  0.18148130097E+03  0.00000000000E+00 0.  1.
         11    1    1    2    0    0 -0.10831670201E+02  0.28858450742E+02 -0.13338912065E+02  0.33586631770E+02  0.00000000000E+00 0. -1.
</event>
<event>
 7    1  0.2334784E-009  0.1149139E+03  0.7561462E-02  0.1251731E+00
          1   -1    0    0  501    0  0.00000000000E+00  0.00000000000E+00  0.76779881700E+02  0.76779881700E+02  0.00000000000E+00 0. -1.
         -1   -1    0    0    0  501 -0.00000000000E+00 -0.00000000000E+00 -0.18673643040E+03  0.18673643040E+03  0.00000000000E+00 0.  1.
         25    2    1    2    0    0 -0.63822707201E+01  0.37487478354E+02 -0.96143271797E+02  0.16228905658E+03  0.12509262473E+03 0.  0.
          5    1    3    3  502    0  0.27425903700E+02 -0.37845887980E+02 -0.24746814589E+02  0.53050623588E+02  0.41800000000E+01 0.  1.
         -5    1    3    3    0  502 -0.33808174420E+02  0.75333366334E+02 -0.71396457208E+02  0.10923843299E+03  0.41800000000E+01 0.  1.
        -11    1    1    2    0    0 -0.90426625217E+01  0.29826197165E+02 -0.58522306516E+01  0.31711518197E+02  0.00000000000E+00 0.  1.
         11    1    1    2    0    0  0.15424933242E+02 -0.67313675519E+02 -0.79610462470E+01  0.69515737317E+02  0.00000000000E+00 0. -1.
</event>
<event>
 7    1  0.2334784E-009  0.1097711E+03  0.7561462E-02  0.1260994E+00
         -1   -1    0    0    0  501 -0.00000000000E+00  0.00000000000E+00  0.99897393220E+03  0.99897393220E+03  0.00000000000E+00 0.  1.
          1   -1    0    0  501    0  0.00000000000E+00 -0.00000000000E+00 -0.17694889967E+02  0.17694889967E+02  0.00000000000E+00 0. -1.
         25    2    1    2    0    0 -0.10011106412E+02 -0.72257594780E+02  0.64444772913E+03  0.66051583032E+03  0.12508758636E+03 0.  0.
          5    1    3    3  502    0 -0.59680161661E+01 -0.94355024956E+02  0.28416243747E+03  0.29950667976E+03  0.41800000000E+01 0.  1.
         -5    1    3    3    0  502 -0.40430902456E+01  0.22097430176E+02  0.36028529166E+03  0.36100915056E+03  0.41800000000E+01 0.  1.
        -11    1    1    2    0    0 -0.24502916667E+02  0.61025226263E+02  0.12507891384E+03  0.14131244055E+03  0.00000000000E+00 0. -1.
         11    1    1    2    0    0  0.34514023078E+02  0.11232368517E+02  0.21175239926E+03  0.21484055131E+03  0.00000000000E+00 0.  1.
</event>
<event>
 7    1  0.2334784E-009  0.7126338E+02  0.7561462E-02  0.1355849E+00
          2   -1    0    0  501    0  0.00000000000E+00  0.00000000000E+00  0.25106263297E+03  0.25106263297E+03  0.00000000000E+00 0. -1.
         -2   -1    0    0    0  501 -0.00000000000E+00 -0.00000000000E+00 -0.72158506153E+02  0.72158506153E+02  0.00000000000E+00 0.  1.
         25    2    1    2    0    0 -0.14872332790E+02 -0.86551879106E-01  0.19196464373E+03  0.22960673456E+03  0.12509050460E+03 0.  0.
          5    1    3    3  502    0 -0.32015650420E+01 -0.49692583715E+02  0.16375476985E+03  0.17120952060E+03  0.41800000000E+01 0.  1.
         -5    1    3    3    0  502 -0.11670767749E+02  0.49606031836E+02  0.28209873875E+02  0.58397213961E+02  0.41800000000E+01 0.  1.
        -11    1    1    2    0    0 -0.88445687775E+01 -0.11918918296E+02 -0.47697127798E+02  0.49953008021E+02  0.00000000000E+00 0.  1.
         11    1    1    2    0    0  0.23716901568E+02  0.12005470176E+02  0.34636610888E+02  0.43661396542E+02  0.00000000000E+00 0. -1.
</event>
<event>
 7    1  0.2334784E-009  0.1032805E+03  0.7561462E-02  0.1273545E+00
          2   -1    0    0  501    0  0.00000000000E+00  0.00000000000E+00  0.14628484623E+04  0.14628484623E+04  0.00000000000E+00 0. -1.
         -2   -1    0    0    0  501 -0.00000000000E+00 -0.00000000000E+00 -0.88955359724E+01  0.88955359724E+01  0.00000000000E+00 0.  1.
         25    2    1    2    0    0  0.26082785591E+02  0.63500833407E+01  0.10140474482E+04  0.10220862030E+04  0.12508934364E+03 0.  0.
          5    1    3    3  502    0 -0.43476201989E+02  0.65067529293E+01  0.18851665293E+03  0.19361952072E+03  0.41800000000E+01 0.  1.
         -5    1    3    3    0  502  0.69558987580E+02 -0.15666958860E+00  0.82553079523E+03  0.82846668223E+03  0.41800000000E+01 0.  1.
        -11    1    1    2    0    0 -0.37370300439E+02 -0.41472710168E+02  0.28543364954E+03  0.29084169807E+03  0.00000000000E+00 0.  1.
         11    1    1    2    0    0  0.11287514848E+02  0.35122626827E+02  0.15447182867E+03  0.15881609729E+03  0.00000000000E+00 0. -1.
</event>
<event>
 7    1  0.2334784E-009  0.1377258E+03  0.7561462E-02  0.1216422E+00
         -1   -1    0    0    0  501 -0.00000000000E+00  0.00000000000E+00  0.71530501982E+03  0.71530501982E+03  0.00000000000E+00 0.  1.
          1   -1    0    0  501    0  0.00000000000E+00 -0.00000000000E+00 -0.45592451149E+02  0.45592451149E+02  0.00000000000E+00 0. -1.
         25    2    1    2    0    0 -0.40630238859E+02 -0.90066132576E+02  0.57413869423E+03  0.59585541996E+03  0.12508283948E+03 0.  0.
          5    1    3    3  502    0 -0.63567968917E+02 -0.10952298734E+03  0.49846196880E+03  0.51431311297E+03  0.41800000000E+01 0.  1.
         -5    1    3    3    0  502  0.22937730058E+02  0.19456854765E+02  0.75676725433E+02  0.81542306994E+02  0.41800000000E+01 0.  1.
        -11    1    1    2    0    0 -0.17921408389E+02  0.16517767154E+02 -0.75347703916E+01  0.25510513033E+02  0.00000000000E+00 0. -1.
         11    1    1    2    0    0  0.58551647247E+02  0.73548365422E+02  0.10310864483E+03  0.13953153798E+03  0.00000000000E+00 0.  1.
</event>
<event>
 7    1  0.2334784E-009  0.1186355E+03  0.7561462E-02  0.1245365E+00
          2   -1    0    0  501    0  0.00000000000E+00  0.00000000000E+00  0.86145726490E+03  0.86145726490E+03  0.00000000000E+00 0.  1.
         -2   -1    0    0    0  501 -0.00000000000E+00 -0.00000000000E+00 -0.29702195580E+02  0.29702195580E+02  0.00000000000E+00 0. -1.
         25    2    1    2    0    0 -0.41143960865E+02 -0.75535047348E+02  0.66944261838E+03  0.68643952039E+03  0.12508967565E+03 0.  0.
          5    1    3    3  502    0 -0.52078828105E+02 -0.10621430776E+03  0.49731647825E+03  0.51120918952E+03  0.41800000000E+01 0. -1.
         -5    1    3    3    0  502  0.10934867241E+02  0.30679260410E+02  0.17212614013E+03  0.17523033088E+03  0.41800000000E+01 0. -1.
        -11    1    1    2    0    0  0.26228002665E+02  0.51089064893E+02  0.16617955961E+03  0.17582277073E+03  0.00000000000E+00 0.  1.
         11    1    1    2    0    0  0.14915958200E+02  0.24445982456E+02 -0.38671086736E+01  0.28897169355E+02  0.00000000000E+00 0. -1.
</event>
<event>
 7    1  0.2334784E-009  0.1618832E+03  0.7561462E-02  0.1186587E+00
         -1   -1    0    0    0  501 -0.00000000000E+00  0.00000000000E+00  0.10175333585E+03  0.10175333585E+03  0.00000000000E+00 0.  1.
          1   -1    0    0  501    0  0.00000000000E+00 -0.00000000000E+00 -0.51734718922E+03  0.51734718922E+03  0.00000000000E+00 0. -1.
         25    2    1    2    0    0  0.14108682536E+03  0.50779786439E+02 -0.32688871232E+02  0.19798801110E+03  0.12508641508E+03 0.  0.
          5    1    3    3  502    0  0.93617179225E+02  0.11453919325E+02 -0.77106192431E+02  0.12189424033E+03  0.41800000000E+01 0.  1.
         -5    1    3    3    0  502  0.47469646135E+02  0.39325867114E+02  0.44417321199E+02  0.76093770777E+02  0.41800000000E+01 0.  1.
        -11    1    1    2    0    0 -0.12974886656E+03 -0.15685602856E+02 -0.23730333760E+03  0.27091268067E+03  0.00000000000E+00 0. -1.
         11    1    1    2    0    0 -0.11337958796E+02 -0.35094183583E+02 -0.14560164454E+03  0.15019983330E+03  0.00000000000E+00 0.  1.
</event>
<event>
 7    1  0.2334784E-009  0.1077896E+03  0.7561462E-02  0.1264719E+00
          1   -1    0    0  501    0  0.00000000000E+00  0.00000000000E+00  0.52926679341E+03  0.52926679341E+03  0.00000000000E+00 0. -1.
         -1   -1    0    0    0  501 -0.00000000000E+00 -0.00000000000E+00 -0.45677738110E+02  0.45677738110E+02  0.00000000000E+00 0.  1.
         25    2    1    2    0    0 -0.30893270328E+02 -0.17697655908E+02  0.64235922752E+02  0.14505659492E+03  0.12509021057E+03 0.  0.
          5    1    3    3  502    0 -0.65777066439E+02  0.21318000898E+02  0.61253054856E+02  0.92468852923E+02  0.41800000000E+01 0. -1.
         -5    1    3    3    0  502  0.34883796111E+02 -0.39015656806E+02  0.29828678954E+01  0.52587741994E+02  0.41800000000E+01 0. -1.
        -11    1    1    2    0    0 -0.11611066642E+02  0.42863877310E+02  0.17117150305E+03  0.17683837904E+03  0.00000000000E+00 0. -1.
         11    1    1    2    0    0  0.42504336970E+02 -0.25166221402E+02  0.24818162949E+03  0.25304955755E+03  0.00000000000E+00 0.  1.
</event>
<event>
 7    1  0.2391802E-009  0.1031778E+03  0.7561462E-02  0.1273752E+00
          1   -1    0    0  501    0  0.00000000000E+00  0.00000000000E+00  0.81396458107E+03  0.81396458107E+03  0.00000000000E+00 0. -1.
         -1   -1    0    0    0  501 -0.00000000000E+00 -0.00000000000E+00 -0.16284199645E+02  0.16284199645E+02  0.00000000000E+00 0.  1.
         25    2    1    2    0    0  0.31264351517E+02  0.16929484375E+02  0.40318932052E+03  0.42364423625E+03  0.12509493838E+03 0.  0.
          5    1    3    3  502    0 -0.45182779040E+01  0.57263486368E+02  0.31478384562E+03  0.32000916169E+03  0.41800000000E+01 0. -1.
         -5    1    3    3    0  502  0.35782629421E+02 -0.40334001993E+02  0.88405474906E+02  0.10363507456E+03  0.41800000000E+01 0. -1.
        -11    1    1    2    0    0 -0.29938822044E+02  0.33102020018E+02  0.13078721667E+03  0.13819324455E+03  0.00000000000E+00 0.  1.
         11    1    1    2    0    0 -0.13255294728E+01 -0.50031504393E+02  0.26370384423E+03  0.26841129992E+03  0.00000000000E+00 0. -1.
</event>
<event>
 7    1  0.2334784E-009  0.1255630E+03  0.7561462E-02  0.1234192E+00
         -1   -1    0    0    0  501 -0.00000000000E+00  0.00000000000E+00  0.54040165327E+02  0.54040165327E+02  0.00000000000E+00 0.  1.
          1   -1    0    0  501    0  0.00000000000E+00 -0.00000000000E+00 -0.36716672107E+03  0.36716672107E+03  0.00000000000E+00 0. -1.
         25    2    1    2    0    0  0.47932888349E+02  0.70209484123E+02 -0.12886893838E+03  0.19870237517E+03  0.12509395338E+03 0.  0.
          5    1    3    3  502    0 -0.29395802917E+02  0.14827172444E+02 -0.89897327780E+02  0.95827763272E+02  0.41800000000E+01 0.  1.
         -5    1    3    3    0  502  0.77328691266E+02  0.55382311679E+02 -0.38971610604E+02  0.10287461190E+03  0.41800000000E+01 0.  1.
        -11    1    1    2    0    0  0.23383779536E+02 -0.10801470399E+01 -0.21217552058E+02  0.31593549633E+02  0.00000000000E+00 0.  1.
         11    1    1    2    0    0 -0.71316667886E+02 -0.69129337083E+02 -0.16304006531E+03  0.19091096160E+03  0.00000000000E+00 0. -1.
</event>
<event>
 7    1  0.2334784E-009  0.9715837E+02  0.7561462E-02  0.1286388E+00
          2   -1    0    0  501    0  0.00000000000E+00  0.00000000000E+00  0.18819680828E+03  0.18819680828E+03  0.00000000000E+00 0. -1.
         -2   -1    0    0    0  501 -0.00000000000E+00 -0.00000000000E+00 -0.76735810038E+02  0.76735810038E+02  0.00000000000E+00 0.  1.
         25    2    1    2    0    0  0.40116568664E+02  0.35523835759E+02  0.60373375406E+02  0.14887380740E+03  0.12508870486E+03 0.  0.
          5    1    3    3  502    0  0.60629738364E+02  0.55002522006E+02 -0.11402607725E+00  0.81967847374E+02  0.41800000000E+01 0. -1.
         -5    1    3    3    0  502 -0.20513169701E+02 -0.19478686246E+02  0.60487401483E+02  0.66905960028E+02  0.41800000000E+01 0. -1.
        -11    1    1    2    0    0  0.13682185413E+02  0.68220676101E+01 -0.14627502140E+02  0.21159078974E+02  0.00000000000E+00 0.  1.
         11    1    1    2    0    0 -0.53798754077E+02 -0.42345903370E+02  0.65715124978E+02  0.94899731945E+02  0.00000000000E+00 0. -1.
</event>
<event>
 7    1  0.2334784E-009  0.1175067E+03  0.7561462E-02  0.1247268E+00
         -2   -1    0    0    0  501 -0.00000000000E+00  0.00000000000E+00  0.31951961867E+02  0.31951961867E+02  0.00000000000E+00 0.  1.
          2   -1    0    0  501    0  0.00000000000E+00 -0.00000000000E+00 -0.48482737237E+03  0.48482737237E+03  0.00000000000E+00 0. -1.
         25    2    1    2    0    0 -0.58810988565E+02 -0.15853898626E+01 -0.29852841629E+03  0.32898068765E+03  0.12509129337E+03 0.  0.
          5    1    3    3  502    0 -0.91384403094E+02  0.24532046143E+02 -0.22838468654E+03  0.24724475295E+03  0.41800000000E+01 0. -1.
         -5    1    3    3    0  502  0.32573414529E+02 -0.26117436006E+02 -0.70143729751E+02  0.81735934698E+02  0.41800000000E+01 0. -1.
        -11    1    1    2    0    0 -0.91982810502E+01 -0.23981579925E+02 -0.12809973825E+02  0.28702264359E+02  0.00000000000E+00 0.  1.
         11    1    1    2    0    0  0.68009269615E+02  0.25566969787E+02 -0.14153702039E+03  0.15909638223E+03  0.00000000000E+00 0. -1.
</event>
<event>
 7    1  0.2334784E-009  0.9395595E+02  0.7561462E-02  0.1293545E+00
         -1   -1    0    0    0  501 -0.00000000000E+00  0.00000000000E+00  0.77069896476E+02  0.77069896476E+02  0.00000000000E+00 0.  1.
          1   -1    0    0  501    0  0.00000000000E+00 -0.00000000000E+00 -0.17621232310E+03  0.17621232310E+03  0.00000000000E+00 0. -1.
         25    2    1    2    0    0 -0.13799307427E+02  0.38769030015E+02 -0.62790842177E+02  0.14589047608E+03  0.12509149681E+03 0.  0.
          5    1    3    3  502    0  0.43632305837E+02  0.47821370816E+02 -0.70744803564E+01  0.65254749188E+02  0.41800000000E+01 0. -1.
         -5    1    3    3    0  502 -0.57431613264E+02 -0.90523408010E+01 -0.55716361820E+02  0.80635726887E+02  0.41800000000E+01 0. -1.
        -11    1    1    2    0    0  0.13600478682E+00 -0.48167327427E+02  0.17342958421E+02  0.51194610415E+02  0.00000000000E+00 0.  1.
         11    1    1    2    0    0  0.13663302641E+02  0.93982974121E+01 -0.53694542871E+02  0.56197133089E+02  0.00000000000E+00 0. -1.
</event>
<event>
 7    1  0.2334784E-009  0.8160417E+02  0.7561462E-02  0.1324560E+00
         -2   -1    0    0    0  501 -0.00000000000E+00  0.00000000000E+00  0.33168617416E+02  0.33168617416E+02  0.00000000000E+00 0.  1.
          2   -1    0    0  501    0  0.00000000000E+00 -0.00000000000E+00 -0.54900120684E+03  0.54900120684E+03  0.00000000000E+00 0. -1.
         25    2    1    2    0    0 -0.79529268764E+02  0.14246494128E+02 -0.28469350151E+03  0.32128872509E+03  0.12509271715E+03 0.  0.
          5    1    3    3  502    0 -0.43974706167E+02  0.13491522950E+01 -0.11781836427E+02  0.45737064444E+02  0.41800000000E+01 0. -1.
         -5    1    3    3    0  502 -0.35554562597E+02  0.12897341833E+02 -0.27291166508E+03  0.27555166065E+03  0.41800000000E+01 0. -1.
        -11    1    1    2    0    0  0.36718181731E+02 -0.39415571677E+01 -0.14275742180E+02  0.39592392670E+02  0.00000000000E+00 0.  1.
         11    1    1    2    0    0  0.42811087033E+02 -0.10304936961E+02 -0.21686334573E+03  0.22128870649E+03  0.00000000000E+00 0. -1.
</event>
<event>
 7    1  0.2334784E-009  0.1489343E+03  0.7561462E-02  0.1201789E+00
         -3   -1    0    0    0  501 -0.00000000000E+00  0.00000000000E+00  0.69737078493E+03  0.69737078493E+03  0.00000000000E+00 0.  1.
          3   -1    0    0  501    0  0.00000000000E+00 -0.00000000000E+00 -0.33114245098E+02  0.33114245098E+02  0.00000000000E+00 0. -1.
         25    2    1    2    0    0 -0.10206950435E+03  0.28310693402E+02  0.37685273863E+03  0.41095687200E+03  0.12509150631E+03 0.  0.
          5    1    3    3  502    0 -0.93988153243E+02 -0.33854996185E+02  0.25398474450E+03  0.27295724309E+03  0.41800000000E+01 0.  1.
         -5    1    3    3    0  502 -0.80813511108E+01  0.62165689587E+02  0.12286799413E+03  0.13799962891E+03  0.41800000000E+01 0.  1.
        -11    1    1    2    0    0  0.10255559449E+03 -0.49487465932E+02  0.20561435515E+03  0.23504025674E+03  0.00000000000E+00 0. -1.
         11    1    1    2    0    0 -0.48609013286E+00  0.21176772530E+02  0.81789446058E+02  0.84487901293E+02  0.00000000000E+00 0.  1.
</event>
<event>
 7    1  0.2334784E-009  0.1605566E+03  0.7561462E-02  0.1188070E+00
          2   -1    0    0  501    0  0.00000000000E+00  0.00000000000E+00  0.95308411122E+03  0.95308411122E+03  0.00000000000E+00 0. -1.
         -2   -1    0    0    0  501 -0.00000000000E+00 -0.00000000000E+00 -0.33454538775E+02  0.33454538775E+02  0.00000000000E+00 0.  1.
         25    2    1    2    0    0  0.11850452418E+03  0.60559461562E+02  0.35854898573E+03  0.40238559700E+03  0.12508406323E+03 0.  0.
          5    1    3    3  502    0  0.10676500024E+03  0.85976277188E+02  0.20762473715E+03  0.24882963930E+03  0.41800000000E+01 0.  1.
         -5    1    3    3    0  502  0.11739523936E+02 -0.25416815627E+02  0.15092424857E+03  0.15355595770E+03  0.41800000000E+01 0.  1.
        -11    1    1    2    0    0 -0.94500180048E+02 -0.44160249079E+01  0.25365651927E+03  0.27072387238E+03  0.00000000000E+00 0.  1.
         11    1    1    2    0    0 -0.24004344130E+02 -0.56143436654E+02  0.30742406744E+03  0.31342918061E+03  0.00000000000E+00 0. -1.
</event>
<event>
 7    1  0.2870201E-009  0.1184922E+03  0.7561462E-02  0.1245605E+00
          2   -1    0    0  501    0  0.00000000000E+00  0.00000000000E+00  0.56090366758E+03  0.56090366758E+03  0.00000000000E+00 0. -1.
         -2   -1    0    0    0  501 -0.00000000000E+00 -0.00000000000E+00 -0.42791109621E+02  0.42791109621E+02  0.00000000000E+00 0.  1.
         25    2    1    2    0    0  0.29242240881E+02  0.86382258746E+02  0.39959746744E+03  0.42853502853E+03  0.12508849435E+03 0.  0.
          5    1    3    3  502    0 -0.16951063554E+02  0.95959647772E+02  0.33176491750E+03  0.34580489505E+03  0.41800000000E+01 0. -1.
         -5    1    3    3    0  502  0.46193304434E+02 -0.95773890257E+01  0.67832549939E+02  0.82730133484E+02  0.41800000000E+01 0. -1.
        -11    1    1    2    0    0 -0.14066083836E+01 -0.20753089330E+02 -0.13730344698E+02  0.24923716204E+02  0.00000000000E+00 0.  1.
         11    1    1    2    0    0 -0.27835632497E+02 -0.65629169416E+02  0.13224543522E+03  0.15023603246E+03  0.00000000000E+00 0. -1.
</event>
<event>
 7    1  0.2334785E-009  0.1031276E+03  0.7561462E-02  0.1273853E+00
          2   -1    0    0  501    0  0.00000000000E+00  0.00000000000E+00  0.30031752983E+03  0.30031752983E+03  0.00000000000E+00 0.  1.
         -2   -1    0    0    0  501 -0.00000000000E+00 -0.00000000000E+00 -0.48293399882E+02  0.48293399882E+02  0.00000000000E+00 0. -1.
         25    2    1    2    0    0  0.42284561821E+02 -0.27253384216E+02  0.12036507065E+03  0.18073898195E+03  0.12509235886E+03 0.  0.
          5    1    3    3  502    0 -0.38308919923E+02  0.30543044786E+01  0.86196025081E+01  0.39606464989E+02  0.41800000000E+01 0.  1.
         -5    1    3    3    0  502  0.80593481744E+02 -0.30307688695E+02  0.11174546815E+03  0.14113251696E+03  0.41800000000E+01 0.  1.
        -11    1    1    2    0    0 -0.55289173646E+02  0.48665228970E+01  0.13066317161E+03  0.14196281268E+03  0.00000000000E+00 0.  1.
         11    1    1    2    0    0  0.13004611825E+02  0.22386861319E+02  0.99588768281E+00  0.25909135082E+02  0.00000000000E+00 0. -1.
</event>
<event>
 7    1  0.2485229E-009  0.1022441E+03  0.7561462E-02  0.1275646E+00
          2   -1    0    0  501    0  0.00000000000E+00  0.00000000000E+00  0.27889006192E+03  0.27889006192E+03  0.00000000000E+00 0. -1.
         -2   -1    0    0    0  501 -0.00000000000E+00 -0.00000000000E+00 -0.61961251304E+02  0.61961251304E+02  0.00000000000E+00 0.  1.
         25    2    1    2    0    0 -0.62897939722E+02  0.87590090192E+01  0.71452043655E+02  0.15743324672E+03  0.12508781543E+03 0.  0.
          5    1    3    3  502    0 -0.61496400467E+02  0.36384854289E+02  0.96319969523E+02  0.12000280755E+03  0.41800000000E+01 0. -1.
         -5    1    3    3    0  502 -0.14015392543E+01 -0.27625845269E+02 -0.24867925868E+02  0.37430439165E+02  0.41800000000E+01 0. -1.
        -11    1    1    2    0    0  0.38700032079E+02  0.36766153863E+02  0.42413907278E+02  0.68179044312E+02  0.00000000000E+00 0. -1.
         11    1    1    2    0    0  0.24197907643E+02 -0.45525162882E+02  0.10306285968E+03  0.11523902219E+03  0.00000000000E+00 0.  1.
</event>
<event>
 7    1  0.2334784E-009  0.9969802E+02  0.7561462E-02  0.1280932E+00
         -1   -1    0    0    0  501 -0.00000000000E+00  0.00000000000E+00  0.15072053984E+02  0.15072053984E+02  0.00000000000E+00 0.  1.
          1   -1    0    0  501    0  0.00000000000E+00 -0.00000000000E+00 -0.90518964347E+03  0.90518964347E+03  0.00000000000E+00 0. -1.
         25    2    1    2    0    0  0.67288906983E+01  0.44693450134E+02 -0.48845897669E+03  0.50624614539E+03  0.12510078078E+03 0.  0.
          5    1    3    3  502    0  0.34586283009E+02  0.58610450983E+02 -0.45600718484E+03  0.46107637216E+03  0.41800000000E+01 0.  1.
         -5    1    3    3    0  502 -0.27857392311E+02 -0.13917000849E+02 -0.32451791856E+02  0.45169773230E+02  0.41800000000E+01 0.  1.
        -11    1    1    2    0    0  0.35705257915E+02 -0.44891176018E+02 -0.25288099026E+03  0.25930460536E+03  0.00000000000E+00 0.  1.
         11    1    1    2    0    0 -0.42434148614E+02  0.19772588355E+00 -0.14877762253E+03  0.15471094671E+03  0.00000000000E+00 0. -1.
</event>
<event>
 7    1  0.2334784E-009  0.1383522E+03  0.7561462E-02  0.1215564E+00
         -1   -1    0    0    0  501 -0.00000000000E+00  0.00000000000E+00  0.91130552565E+02  0.91130552565E+02  0.00000000000E+00 0.  1.
          1   -1    0    0  501    0  0.00000000000E+00 -0.00000000000E+00 -0.22353586777E+03  0.22353586777E+03  0.00000000000E+00 0. -1.
         25    2    1    2    0    0 -0.92259287571E+02 -0.13363207811E+00 -0.72557282058E+02  0.17154308873E+03  0.12510267028E+03 0.  0.
          5    1    3    3  502    0 -0.48521740189E+02  0.61405934328E+02 -0.48618999037E+02  0.92229753925E+02  0.41800000000E+01 0.  1.
         -5    1    3    3    0  502 -0.43737547382E+02 -0.61539566406E+02 -0.23938283021E+02  0.79313334808E+02  0.41800000000E+01 0.  1.
        -11    1    1    2    0    0  0.43383132006E+01 -0.29589904492E+02 -0.36940294016E+02  0.47528609608E+02  0.00000000000E+00 0. -1.
         11    1    1    2    0    0  0.87920974371E+02  0.29723536570E+02 -0.22907739129E+02  0.95594721991E+02  0.00000000000E+00 0.  1.
</event>
<event>
 7    1  0.2334784E-009  0.1035401E+03  0.7561462E-02  0.1273023E+00
          2   -1    0    0  501    0  0.00000000000E+00  0.00000000000E+00  0.20925566014E+03  0.20925566014E+03  0.00000000000E+00 0. -1.
         -2   -1    0    0    0  501 -0.00000000000E+00 -0.00000000000E+00 -0.66174350545E+02  0.66174350545E+02  0.00000000000E+00 0.  1.
         25    2    1    2    0    0  0.14464681701E+02 -0.42704121602E+02  0.93058172019E+02  0.16229511668E+03  0.12508801901E+03 0.  0.
          5    1    3    3  502    0  0.55270521043E+02 -0.27910766190E+02  0.28778484968E+01  0.62125645089E+02  0.41800000000E+01 0.  1.
         -5    1    3    3    0  502 -0.40805839343E+02 -0.14793355412E+02  0.90180323522E+02  0.10016947159E+03  0.41800000000E+01 0.  1.
        -11    1    1    2    0    0 -0.44418538211E+02 -0.54026268260E+01  0.20156550252E+02  0.49076281761E+02  0.00000000000E+00 0.  1.
         11    1    1    2    0    0  0.29953856511E+02  0.48106748428E+02  0.29866587327E+02  0.64058612245E+02  0.00000000000E+00 0. -1.
</event>
<event>
 7    1  0.2334784E-009  0.1417531E+03  0.7561462E-02  0.1210989E+00
          2   -1    0    0  501    0  0.00000000000E+00  0.00000000000E+00  0.12527280595E+04  0.12527280595E+04  0.00000000000E+00 0. -1.
         -2   -1    0    0    0  501 -0.00000000000E+00 -0.00000000000E+00 -0.18912469446E+02  0.18912469446E+02  0.00000000000E+00 0.  1.
         25    2    1    2    0    0 -0.34058950301E+02 -0.94305876906E+02  0.83189308758E+03  0.84719912931E+03  0.12508655017E+03 0.  0.
          5    1    3    3  502    0  0.24524766441E+02  0.13386955829E+02  0.30079924722E+03  0.30212304493E+03  0.41800000000E+01 0.  1.
         -5    1    3    3    0  502 -0.58583716742E+02 -0.10769283274E+03  0.53109384036E+03  0.54507608438E+03  0.41800000000E+01 0.  1.
        -11    1    1    2    0    0  0.22859234605E+02 -0.11914695202E+02  0.44783448993E+02  0.51672641428E+02  0.00000000000E+00 0.  1.
         11    1    1    2    0    0  0.11199715696E+02  0.10622057211E+03  0.35713905351E+03  0.37276875823E+03  0.00000000000E+00 0. -1.
</event>
<event>
 7    1  0.2334784E-009  0.1095797E+03  0.7561462E-02  0.1261350E+00
         -2   -1    0    0    0  501 -0.00000000000E+00  0.00000000000E+00  0.23062571988E+02  0.23062571988E+02  0.00000000000E+00 0.  1.
          2   -1    0    0  501    0  0.00000000000E+00 -0.00000000000E+00 -0.74423475665E+03  0.74423475665E+03  0.00000000000E+00 0. -1.
         25    2    1    2    0    0 -0.34944558355E+02  0.23947269897E+02 -0.22542400637E+03  0.26126515551E+03  0.12509558323E+03 0.  0.
          5    1    3    3  502    0 -0.43319789755E+02  0.64123244674E+02 -0.19550769129E+03  0.21030721444E+03  0.41800000000E+01 0. -1.
         -5    1    3    3    0  502  0.83752313997E+01 -0.40175974777E+02 -0.29916315072E+02  0.50957941067E+02  0.41800000000E+01 0. -1.
        -11    1    1    2    0    0  0.46909471578E+01 -0.56080179787E+02 -0.31392772955E+03  0.31893198480E+03  0.00000000000E+00 0. -1.
         11    1    1    2    0    0  0.30253611198E+02  0.32132909891E+02 -0.18182044875E+03  0.18710018833E+03  0.00000000000E+00 0.  1.
</event>
<event>
 7    1  0.2334784E-009  0.1286179E+03  0.7561462E-02  0.1229521E+00
          1   -1    0    0  501    0  0.00000000000E+00  0.00000000000E+00  0.62051150536E+02  0.62051150536E+02  0.00000000000E+00 0. -1.
         -1   -1    0    0    0  501 -0.00000000000E+00 -0.00000000000E+00 -0.44702604383E+03  0.44702604383E+03  0.00000000000E+00 0.  1.
         25    2    1    2    0    0 -0.12564582035E+03  0.19449035748E+02 -0.20898238707E+03  0.27475472366E+03  0.12510548709E+03 0.  0.
          5    1    3    3  502    0 -0.22601216411E+02 -0.55182439747E+01 -0.15293956656E+03  0.15475545037E+03  0.41800000000E+01 0. -1.
         -5    1    3    3    0  502 -0.10304460394E+03  0.24967279722E+02 -0.56042820517E+02  0.11999927329E+03  0.41800000000E+01 0. -1.
        -11    1    1    2    0    0  0.49217404019E+02 -0.29839526536E+01 -0.13966411394E+03  0.14811253004E+03  0.00000000000E+00 0.  1.
         11    1    1    2    0    0  0.76428416335E+02 -0.16465083094E+02 -0.36328392278E+02  0.86209940670E+02  0.00000000000E+00 0. -1.
</event>
<event>
 7    1  0.2334784E-009  0.1042659E+03  0.7561462E-02  0.1271573E+00
          1   -1    0    0  501    0  0.00000000000E+00  0.00000000000E+00  0.55731025588E+03  0.55731025588E+03  0.00000000000E+00 0. -1.
         -1   -1    0    0    0  501 -0.00000000000E+00 -0.00000000000E+00 -0.24690727855E+02  0.24690727855E+02  0.00000000000E+00 0.  1.
         25    2    1    2    0    0  0.61820657526E+01 -0.25477057224E+02  0.20686062170E+03  0.24315887761E+03  0.12509046553E+03 0.  0.
          5    1    3    3  502    0 -0.24390010462E+02 -0.63897636051E+02  0.16441112340E+03  0.17811869751E+03  0.41800000000E+01 0.  1.
         -5    1    3    3    0  502  0.30572076215E+02  0.38420578827E+02  0.42449498296E+02  0.65040180097E+02  0.41800000000E+01 0.  1.
        -11    1    1    2    0    0  0.18337679997E+02 -0.27098736493E+02  0.82274520956E+02  0.88542130231E+02  0.00000000000E+00 0.  1.
         11    1    1    2    0    0 -0.24519745749E+02  0.52575793717E+02  0.24348438537E+03  0.25029997590E+03  0.00000000000E+00 0. -1.
</event>
<event>
 7    1  0.2334784E-009  0.1070079E+03  0.7561462E-02  0.1266213E+00
         -2   -1    0    0    0  501 -0.00000000000E+00  0.00000000000E+00  0.51589241423E+02  0.51589241423E+02  0.00000000000E+00 0. -1.
          2   -1    0    0  501    0  0.00000000000E+00 -0.00000000000E+00 -0.27349081118E+03  0.27349081118E+03  0.00000000000E+00 0.  1.
         25    2    1    2    0    0  0.42729990631E+02  0.19613460577E+02 -0.10977043564E+03  0.17294303908E+03  0.12509678768E+03 0.  0.
          5    1    3    3  502    0  0.77163008330E+02  0.37829825746E+01 -0.11039886712E+03  0.13481032258E+03  0.41800000000E+01 0.  1.
         -5    1    3    3    0  502 -0.34433017699E+02  0.15830478003E+02  0.62843147480E+00  0.38132716501E+02  0.41800000000E+01 0.  1.
        -11    1    1    2    0    0 -0.51370956237E+02 -0.47107305187E+02 -0.97401930741E+02  0.11977148851E+03  0.00000000000E+00 0.  1.
         11    1    1    2    0    0  0.86409656062E+01  0.27493844610E+02 -0.14729203376E+02  0.32365525025E+02  0.00000000000E+00 0. -1.
</event>
<event>
 7    1  0.2647613E-009  0.8722677E+02  0.7561462E-02  0.1309710E+00
          2   -1    0    0  501    0  0.00000000000E+00  0.00000000000E+00  0.66128117966E+03  0.66128117966E+03  0.00000000000E+00 0.  1.
         -2   -1    0    0    0  501 -0.00000000000E+00 -0.00000000000E+00 -0.37047102374E+02  0.37047102374E+02  0.00000000000E+00 0. -1.
         25    2    1    2    0    0 -0.66398927032E+00 -0.60907489560E+02  0.54570764292E+03  0.56316520194E+03  0.12509216589E+03 0.  0.
          5    1    3    3  502    0  0.10916051138E+02 -0.81947636775E+02  0.52407915008E+03  0.53057610510E+03  0.41800000000E+01 0. -1.
         -5    1    3    3    0  502 -0.11580040408E+02  0.21040147216E+02  0.21628492835E+02  0.32589096843E+02  0.41800000000E+01 0. -1.
        -11    1    1    2    0    0 -0.13973354996E+02  0.28654172706E+02 -0.14942767617E+02  0.35207990107E+02  0.00000000000E+00 0. -1.
         11    1    1    2    0    0  0.14637344266E+02  0.32253316853E+02  0.93469201980E+02  0.99955089986E+02  0.00000000000E+00 0.  1.
</event>
<event>
 7    1  0.2334784E-009  0.1334455E+03  0.7561462E-02  0.1222431E+00
          1   -1    0    0  501    0  0.00000000000E+00  0.00000000000E+00  0.28014321596E+03  0.28014321596E+03  0.00000000000E+00 0. -1.
         -1   -1    0    0    0  501 -0.00000000000E+00 -0.00000000000E+00 -0.98082329893E+02  0.98082329893E+02  0.00000000000E+00 0.  1.
         25    2    1    2    0    0 -0.88079381958E+02  0.79975161091E+02  0.12600600326E+03  0.21372665974E+03  0.12509024067E+03 0.  0.
          5    1    3    3  502    0 -0.81238092741E+01  0.65954588723E+02  0.34601630658E+01  0.66674201751E+02  0.41800000000E+01 0. -1.
         -5    1    3    3    0  502 -0.79955572684E+02  0.14020572368E+02  0.12254584019E+03  0.14705245799E+03  0.41800000000E+01 0. -1.
        -11    1    1    2    0    0  0.48628084792E+02 -0.46528259230E+02 -0.22049368648E+02  0.70821918890E+02  0.00000000000E+00 0.  1.
         11    1    1    2    0    0  0.39451297166E+02 -0.33446901861E+02  0.78104251462E+02  0.93676967226E+02  0.00000000000E+00 0. -1.
</event>
<event>
 7    1  0.2334784E-009  0.1101130E+03  0.7561462E-02  0.1260361E+00
          2   -1    0    0  501    0  0.00000000000E+00  0.00000000000E+00  0.59801674346E+02  0.59801674346E+02  0.00000000000E+00 0. -1.
         -2   -1    0    0    0  501 -0.00000000000E+00 -0.00000000000E+00 -0.21381973890E+03  0.21381973890E+03  0.00000000000E+00 0.  1.
         25    2    1    2    0    0  0.12055418655E+02  0.56776853591E+01 -0.10339618334E+03  0.16284083704E+03  0.12509515678E+03 0.  0.
          5    1    3    3  502    0 -0.45553090076E+02 -0.29147920499E+02 -0.25909803610E+02  0.60112191841E+02  0.41800000000E+01 0. -1.
         -5    1    3    3    0  502  0.57608508731E+02  0.34825605858E+02 -0.77486379727E+02  0.10272864520E+03  0.41800000000E+01 0. -1.
        -11    1    1    2    0    0 -0.55117905618E+02 -0.11946314952E+00 -0.28164915963E+02  0.61897175076E+02  0.00000000000E+00 0.  1.
         11    1    1    2    0    0  0.43062486963E+02 -0.55582222096E+01 -0.22456965256E+02  0.48883401131E+02  0.00000000000E+00 0. -1.
</event>
<event>
 7    1  0.2839023E-009  0.1012307E+03  0.7561462E-02  0.1277729E+00
         -1   -1    0    0    0  501 -0.00000000000E+00  0.00000000000E+00  0.26438916663E+02  0.26438916663E+02  0.00000000000E+00 0.  1.
          1   -1    0    0  501    0  0.00000000000E+00 -0.00000000000E+00 -0.51899252650E+03  0.51899252650E+03  0.00000000000E+00 0. -1.
         25    2    1    2    0    0  0.13497185741E+02 -0.36216855641E+02 -0.22905255775E+03  0.26382947503E+03  0.12508830091E+03 0.  0.
          5    1    3    3  502    0 -0.25463719028E+02 -0.67420912141E+02 -0.17903746717E+03  0.19304369306E+03  0.41800000000E+01 0. -1.
         -5    1    3    3    0  502  0.38960904769E+02  0.31204056500E+02 -0.50015090582E+02  0.70785781965E+02  0.41800000000E+01 0. -1.
        -11    1    1    2    0    0  0.27985887143E+02  0.24182642676E+02 -0.42154392200E+02  0.56080325139E+02  0.00000000000E+00 0.  1.
         11    1    1    2    0    0 -0.41483072885E+02  0.12034212965E+02 -0.22134665988E+03  0.22552164299E+03  0.00000000000E+00 0. -1.
</event>
<event>
 7    1  0.2334784E-009  0.7501300E+02  0.7561462E-02  0.1343831E+00
          2   -1    0    0  501    0  0.00000000000E+00  0.00000000000E+00  0.45479605688E+03  0.45479605688E+03  0.00000000000E+00 0.  1.
         -2   -1    0    0    0  501 -0.00000000000E+00 -0.00000000000E+00 -0.27129022177E+02  0.27129022177E+02  0.00000000000E+00 0. -1.
         25    2    1    2    0    0 -0.99201184856E+01  0.56835051559E+01  0.30405383290E+03  0.32897884673E+03  0.12509051650E+03 0.  0.
          5    1    3    3  502    0  0.49214833967E+02 -0.44975368601E+01  0.22060307379E+03  0.22610952277E+03  0.41800000000E+01 0. -1.
         -5    1    3    3    0  502 -0.59134952453E+02  0.10181042016E+02  0.83450759108E+02  0.10286932397E+03  0.41800000000E+01 0. -1.
        -11    1    1    2    0    0  0.74748474707E+01  0.16419773348E+02 -0.78069616705E+01  0.19657847086E+02  0.00000000000E+00 0. -1.
         11    1    1    2    0    0  0.24452710149E+01 -0.22103278504E+02  0.13142016348E+03  0.13328838524E+03  0.00000000000E+00 0.  1.
</event>
<event>
 7    1  0.2334784E-009  0.1666005E+03  0.7561462E-02  0.1181440E+00
          2   -1    0    0  501    0  0.00000000000E+00  0.00000000000E+00  0.18024313053E+04  0.18024313053E+04  0.00000000000E+00 0. -1.
         -2   -1    0    0    0  501 -0.00000000000E+00 -0.00000000000E+00 -0.30735658972E+02  0.30735658972E+02  0.00000000000E+00 0.  1.
         25    2    1    2    0    0  0.10079425209E+03  0.91813843161E+02  0.15264661462E+04  0.15376398368E+04  0.12509240274E+03 0.  0.
          5    1    3    3  502    0  0.11577910410E+03  0.10390927903E+03  0.11277827253E+04  0.11384697129E+04  0.41800000000E+01 0.  1.
         -5    1    3    3    0  502 -0.14984852019E+02 -0.12095435866E+02  0.39868342093E+03  0.39917012398E+03  0.41800000000E+01 0.  1.
        -11    1    1    2    0    0 -0.39249149070E+02  0.85202234001E+01  0.29703141396E+02  0.49953643694E+02  0.00000000000E+00 0.  1.
         11    1    1    2    0    0 -0.61545103015E+02 -0.10033406656E+03  0.21552635872E+03  0.24557348375E+03  0.00000000000E+00 0. -1.
</event>
<event>
 7    1  0.2334784E-009  0.7753115E+02  0.7561462E-02  0.1336207E+00
         -1   -1    0    0    0  501 -0.00000000000E+00  0.00000000000E+00  0.59468336398E+02  0.59468336398E+02  0.00000000000E+00 0.  1.
          1   -1    0    0  501    0  0.00000000000E+00 -0.00000000000E+00 -0.22887910399E+03  0.22887910399E+03  0.00000000000E+00 0. -1.
         25    2    1    2    0    0 -0.37362685624E+02 -0.41458747676E+01 -0.12221720613E+03  0.17887975581E+03  0.12509101891E+03 0.  0.
          5    1    3    3  502    0  0.68053965417E+01 -0.14549115100E+02 -0.13135867224E+03  0.13240303375E+03  0.41800000000E+01 0.  1.
         -5    1    3    3    0  502 -0.44168082166E+02  0.10403240332E+02  0.91414661097E+01  0.46476722068E+02  0.41800000000E+01 0.  1.
        -11    1    1    2    0    0 -0.26917291545E+02  0.91298281377E+01  0.18167390200E+01  0.28481483223E+02  0.00000000000E+00 0.  1.
         11    1    1    2    0    0  0.64279977168E+02 -0.49839533702E+01 -0.49010300481E+02  0.80986201351E+02  0.00000000000E+00 0. -1.
</event>
<event>
 7    1  0.2334784E-009  0.1157965E+03  0.7561462E-02  0.1250197E+00
          1   -1    0    0  501    0  0.00000000000E+00  0.00000000000E+00  0.19818623388E+02  0.19818623388E+02  0.00000000000E+00 0. -1.
         -1   -1    0    0    0  501 -0.00000000000E+00 -0.00000000000E+00 -0.75817618854E+03  0.75817618854E+03  0.00000000000E+00 0.  1.
         25    2    1    2    0    0 -0.54352140876E+02  0.16581847669E+02 -0.37618393806E+03  0.40048633763E+03  0.12508332618E+03 0.  0.
          5    1    3    3  502    0 -0.66359289026E+02  0.56424310885E+02 -0.31136550328E+03  0.32334688360E+03  0.41800000000E+01 0. -1.
         -5    1    3    3    0  502  0.12007148150E+02 -0.39842463217E+02 -0.64818434772E+02  0.77139454030E+02  0.41800000000E+01 0. -1.
        -11    1    1    2    0    0  0.73272066365E+02  0.55108730728E+01 -0.20755628874E+03  0.22017896908E+03  0.00000000000E+00 0. -1.
         11    1    1    2    0    0 -0.18919925489E+02 -0.22092720741E+02 -0.15461733835E+03  0.15732950521E+03  0.00000000000E+00 0.  1.
</event>
<event>
 7    1  0.2334784E-009  0.5470045E+03  0.7561462E-02  0.1002190E+00
         -4   -1    0    0    0  501 -0.00000000000E+00  0.00000000000E+00  0.50859912362E+03  0.50859912362E+03  0.00000000000E+00 0.  1.
          4   -1    0    0  501    0  0.00000000000E+00 -0.00000000000E+00 -0.62456147003E+03  0.62456147003E+03  0.00000000000E+00 0. -1.
         25    2    1    2    0    0  0.15728986281E+03  0.51719093591E+03  0.58980788523E+02  0.55798977878E+03  0.12508914689E+03 0.  0.
          5    1    3    3  502    0  0.54153726152E+02  0.36290521948E+03  0.15175888341E+02  0.36726094860E+03  0.41800000000E+01 0. -1.
         -5    1    3    3    0  502  0.10313613665E+03  0.15428571644E+03  0.43804900182E+02  0.19072883018E+03  0.41800000000E+01 0. -1.
        -11    1    1    2    0    0 -0.20816757934E+02 -0.11077053741E+03 -0.15712333877E+01  0.11272053116E+03  0.00000000000E+00 0. -1.
         11    1    1    2    0    0 -0.13647310487E+03 -0.40642039850E+03 -0.17337190154E+03  0.46245028372E+03  0.00000000000E+00 0.  1.
</event>
<event>
 7    1  0.2334784E-009  0.9038752E+02  0.7561462E-02  0.1301916E+00
          2   -1    0    0  501    0  0.00000000000E+00  0.00000000000E+00  0.39013357355E+03  0.39013357355E+03  0.00000000000E+00 0. -1.
         -2   -1    0    0    0  501 -0.00000000000E+00 -0.00000000000E+00 -0.30737043216E+02  0.30737043216E+02  0.00000000000E+00 0.  1.
         25    2    1    2    0    0 -0.32383314324E+01 -0.17247988312E+02  0.20224432559E+03  0.23845307417E+03  0.12509644860E+03 0.  0.
          5    1    3    3  502    0  0.55606232153E+02  0.16504992157E+02  0.99977360163E+02  0.11566076589E+03  0.41800000000E+01 0.  1.
         -5    1    3    3    0  502 -0.58844563586E+02 -0.33752980469E+02  0.10226696543E+03  0.12279230828E+03  0.41800000000E+01 0.  1.
        -11    1    1    2    0    0 -0.24104416091E+02  0.11529765598E+02  0.43364308695E+01  0.27069595536E+02  0.00000000000E+00 0.  1.
         11    1    1    2    0    0  0.27342747523E+02  0.57182227145E+01  0.15281577387E+03  0.15534794706E+03  0.00000000000E+00 0. -1.
</event>
<event>
 7    1  0.2470674E-009  0.9698551E+02  0.7561462E-02  0.1286766E+00
          2   -1    0    0  501    0  0.00000000000E+00  0.00000000000E+00  0.89840804800E+03  0.89840804800E+03  0.00000000000E+00 0. -1.
         -2   -1    0    0    0  501 -0.00000000000E+00 -0.00000000000E+00 -0.22367349430E+02  0.22367349430E+02  0.00000000000E+00 0.  1.
         25    2    1    2    0    0 -0.50081046637E+02 -0.61665834285E+02  0.62128863989E+03  0.63871589062E+03  0.12509048136E+03 0.  0.
          5    1    3    3  502    0 -0.11185517731E+02 -0.31367640229E+02  0.28978663389E+02  0.44342755804E+02  0.41800000000E+01 0. -1.
         -5    1    3    3    0  502 -0.38895528907E+02 -0.30298194056E+02  0.59230997650E+03  0.59437313482E+03  0.41800000000E+01 0. -1.
        -11    1    1    2    0    0  0.58499516757E+02  0.10947959903E+02  0.19157678452E+03  0.20060836387E+03  0.00000000000E+00 0. -1.
         11    1    1    2    0    0 -0.84184701191E+01  0.50717874382E+02  0.63175274163E+02  0.81451142942E+02  0.00000000000E+00 0.  1.
</event>
<event>
 7    1  0.2334784E-009  0.1350228E+03  0.7561462E-02  0.1220188E+00
         -2   -1    0    0    0  501 -0.00000000000E+00  0.00000000000E+00  0.93357904068E+02  0.93357904068E+02  0.00000000000E+00 0.  1.
          2   -1    0    0  501    0  0.00000000000E+00 -0.00000000000E+00 -0.23801667320E+03  0.23801667320E+03  0.00000000000E+00 0. -1.
         25    2    1    2    0    0 -0.68494272430E+02  0.67002146788E+02 -0.12633611223E+03  0.20196376926E+03  0.12509115801E+03 0.  0.
          5    1    3    3  502    0  0.28030362044E+02  0.18676970948E+02  0.22585098784E+01  0.34016227113E+02  0.41800000000E+01 0. -1.
         -5    1    3    3    0  502 -0.96524634475E+02  0.48325175840E+02 -0.12859462210E+03  0.16794754215E+03  0.41800000000E+01 0. -1.
        -11    1    1    2    0    0  0.83594110883E+02 -0.31209305106E+02 -0.14041401085E+02  0.90328052365E+02  0.00000000000E+00 0. -1.
         11    1    1    2    0    0 -0.15099838453E+02 -0.35792841682E+02 -0.42812558233E+01  0.39082755640E+02  0.00000000000E+00 0.  1.
</event>
<event>
 7    1  0.2334784E-009  0.9790303E+02  0.7561462E-02  0.1284768E+00
          2   -1    0    0  501    0  0.00000000000E+00  0.00000000000E+00  0.48270303400E+02  0.48270303400E+02  0.00000000000E+00 0.  1.
         -2   -1    0    0    0  501 -0.00000000000E+00 -0.00000000000E+00 -0.44443240926E+03  0.44443240926E+03  0.00000000000E+00 0. -1.
         25    2    1    2    0    0  0.64048624926E+02 -0.21605602135E+02 -0.94207284360E+02  0.17056819995E+03  0.12509784174E+03 0.  0.
          5    1    3    3  502    0  0.57623114235E+02  0.33089126559E+01  0.13773385171E+02  0.59485718758E+02  0.41800000000E+01 0. -1.
         -5    1    3    3    0  502  0.64255106917E+01 -0.24914514791E+02 -0.10798066953E+03  0.11108248119E+03  0.41800000000E+01 0. -1.
        -11    1    1    2    0    0  0.52452644799E+01 -0.26822332102E+02 -0.63273583655E+02  0.68923847015E+02  0.00000000000E+00 0.  1.
         11    1    1    2    0    0 -0.69293889406E+02  0.48427934237E+02 -0.23868123785E+03  0.25321066570E+03  0.00000000000E+00 0. -1.
</event>
<event>
 7    1  0.2588044E-009  0.1050131E+03  0.7561462E-02  0.1270094E+00
          2   -1    0    0  501    0  0.00000000000E+00  0.00000000000E+00  0.27149259506E+03  0.27149259506E+03  0.00000000000E+00 0. -1.
         -2   -1    0    0    0  501 -0.00000000000E+00 -0.00000000000E+00 -0.71917706918E+02  0.71917706918E+02  0.00000000000E+00 0.  1.
         25    2    1    2    0    0 -0.63140662442E+02  0.32738008259E+02  0.46103835933E+02  0.15110056457E+03  0.12508915415E+03 0.  0.
          5    1    3    3  502    0 -0.92680115781E+02  0.40588354511E+02  0.72986233314E+01  0.10152714261E+03  0.41800000000E+01 0.  1.
         -5    1    3    3    0  502  0.29539453339E+02 -0.78503462527E+01  0.38805212601E+02  0.49573421960E+02  0.41800000000E+01 0.  1.
        -11    1    1    2    0    0  0.28420406642E+02 -0.32523650476E+02  0.95169642125E+01  0.44227592765E+02  0.00000000000E+00 0. -1.
         11    1    1    2    0    0  0.34720255800E+02 -0.21435778270E+00  0.14395408800E+03  0.14808214465E+03  0.00000000000E+00 0.  1.
</event>
<event>
 7    1  0.2334784E-009  0.2364046E+03  0.7561462E-02  0.1122211E+00
         -2   -1    0    0    0  501 -0.00000000000E+00  0.00000000000E+00  0.12077950335E+03  0.12077950335E+03  0.00000000000E+00 0.  1.
          2   -1    0    0  501    0  0.00000000000E+00 -0.00000000000E+00 -0.71393509049E+03  0.71393509049E+03  0.00000000000E+00 0. -1.
         25    2    1    2    0    0 -0.19775134629E+03  0.70108716420E+02 -0.55568229410E+02  0.25051328442E+03  0.12509296732E+03 0.  0.
          5    1    3    3  502    0 -0.14060642999E+03  0.10634674381E+03 -0.36421325101E+02  0.18006605287E+03  0.41800000000E+01 0. -1.
         -5    1    3    3    0  502 -0.57144916298E+02 -0.36238027392E+02 -0.19146904309E+02  0.70447231547E+02  0.41800000000E+01 0. -1.
        -11    1    1    2    0    0  0.70301443931E+02 -0.72783622977E+02 -0.23929182275E+03  0.25980824703E+03  0.00000000000E+00 0. -1.
         11    1    1    2    0    0  0.12744990236E+03  0.26749065570E+01 -0.29829553498E+03  0.32439306239E+03  0.00000000000E+00 0.  1.
</event>
<event>
 7    1  0.2334784E-009  0.1680292E+03  0.7561462E-02  0.1179919E+00
         -2   -1    0    0    0  501 -0.00000000000E+00  0.00000000000E+00  0.49158321583E+02  0.49158321583E+02  0.00000000000E+00 0.  1.
          2   -1    0    0  501    0  0.00000000000E+00 -0.00000000000E+00 -0.66978057196E+03  0.66978057196E+03  0.00000000000E+00 0. -1.
         25    2    1    2    0    0  0.21057720516E+02  0.13618223874E+03 -0.41997354825E+03  0.45936258102E+03  0.12508864803E+03 0.  0.
          5    1    3    3  502    0 -0.25271096206E+02  0.12228388537E+03 -0.36614715509E+03  0.38687619273E+03  0.41800000000E+01 0. -1.
         -5    1    3    3    0  502  0.46328816723E+02  0.13898353375E+02 -0.53826393162E+02  0.72486388282E+02  0.41800000000E+01 0. -1.
        -11    1    1    2    0    0  0.18839135828E+02  0.18115855030E+01 -0.11795104755E+02  0.22300658667E+02  0.00000000000E+00 0.  1.
         11    1    1    2    0    0 -0.39896856345E+02 -0.13799382424E+03 -0.18885359737E+03  0.23727565386E+03  0.00000000000E+00 0. -1.
</event>
<event>
 7    1  0.2334784E-009  0.1885607E+03  0.7561462E-02  0.1159766E+00
         -2   -1    0    0    0  501 -0.00000000000E+00  0.00000000000E+00  0.24827604721E+02  0.24827604721E+02  0.00000000000E+00 0.  1.
          2   -1    0    0  501    0  0.00000000000E+00 -0.00000000000E+00 -0.22621462289E+04  0.22621462289E+04  0.00000000000E+00 0. -1.
         25    2    1    2    0    0 -0.16813439828E+03 -0.49873501658E+02 -0.16698307326E+04  0.16836681749E+04  0.12508919069E+03 0.  0.
          5    1    3    3  502    0 -0.11960653817E+03 -0.32104725612E+02 -0.15214968223E+04  0.15265341431E+04  0.41800000000E+01 0.  1.
         -5    1    3    3    0  502 -0.48527860113E+02 -0.17768776046E+02 -0.14833391031E+03  0.15713403183E+03  0.41800000000E+01 0.  1.
        -11    1    1    2    0    0  0.97642647306E+02 -0.22639905922E+02 -0.33740401009E+03  0.35197743953E+03  0.00000000000E+00 0.  1.
         11    1    1    2    0    0  0.70491750973E+02  0.72513407580E+02 -0.23008388149E+03  0.25132821918E+03  0.00000000000E+00 0. -1.
</event>
<event>
 7    1  0.2334784E-009  0.1827278E+03  0.7561462E-02  0.1165189E+00
          2   -1    0    0  501    0  0.00000000000E+00  0.00000000000E+00  0.25448832976E+04  0.25448832976E+04  0.00000000000E+00 0. -1.
         -2   -1    0    0    0  501 -0.00000000000E+00 -0.00000000000E+00 -0.28045258785E+02  0.28045258785E+02  0.00000000000E+00 0.  1.
         25    2    1    2    0    0 -0.14228608080E+03  0.83968202339E+02  0.21537870160E+04  0.21637332740E+04  0.12508870069E+03 0.  0.
          5    1    3    3  502    0 -0.10254942288E+03  0.11149678551E+03  0.18384290757E+04  0.18446644291E+04  0.41800000000E+01 0.  1.
         -5    1    3    3    0  502 -0.39736657914E+02 -0.27528583170E+02  0.31535794034E+03  0.31906884494E+03  0.41800000000E+01 0.  1.
        -11    1    1    2    0    0  0.54173035638E+02 -0.36299110926E+02  0.24898103986E+03  0.25737890638E+03  0.00000000000E+00 0. -1.
         11    1    1    2    0    0  0.88113045161E+02 -0.47669091413E+02  0.11406998298E+03  0.15181637600E+03  0.00000000000E+00 0.  1.
</event>
<event>
 7    1  0.2334784E-009  0.1572962E+03  0.7561462E-02  0.1191784E+00
         -2   -1    0    0    0  501 -0.00000000000E+00  0.00000000000E+00  0.24410358702E+03  0.24410358702E+03  0.00000000000E+00 0.  1.
          2   -1    0    0  501    0  0.00000000000E+00 -0.00000000000E+00 -0.15477525183E+03  0.15477525183E+03  0.00000000000E+00 0. -1.
         25    2    1    2    0    0 -0.13331156726E+03  0.11063408809E+01 -0.45705823465E+02  0.18843863554E+03  0.12508756576E+03 0.  0.
          5    1    3    3  502    0 -0.53901680648E+02  0.58981044118E+02 -0.41175323408E+02  0.89983522934E+02  0.41800000000E+01 0. -1.
         -5    1    3    3    0  502 -0.79409886615E+02 -0.57874703237E+02 -0.45305000566E+01  0.98455112604E+02  0.41800000000E+01 0. -1.
        -11    1    1    2    0    0  0.13010027162E+02 -0.87636215880E+01  0.73390276427E+02  0.75047948301E+02  0.00000000000E+00 0.  1.
         11    1    1    2    0    0  0.12030154010E+03  0.76572807071E+01  0.61643882228E+02  0.13539225500E+03  0.00000000000E+00 0. -1.
</event>
<event>
 7    1  0.2334784E-009  0.8616698E+02  0.7561462E-02  0.1312409E+00
         -1   -1    0    0    0  501 -0.00000000000E+00  0.00000000000E+00  0.23076845504E+02  0.23076845504E+02  0.00000000000E+00 0.  1.
          1   -1    0    0  501    0  0.00000000000E+00 -0.00000000000E+00 -0.66987478026E+03  0.66987478026E+03  0.00000000000E+00 0. -1.
         25    2    1    2    0    0  0.32076277196E+02 -0.23958663796E+02 -0.48638998803E+03  0.50381124094E+03  0.12509053089E+03 0.  0.
          5    1    3    3  502    0  0.40866266020E+02 -0.44621643167E+02 -0.10147554271E+03  0.11821971454E+03  0.41800000000E+01 0. -1.
         -5    1    3    3    0  502 -0.87899888245E+01  0.20662979371E+02 -0.38491444532E+03  0.38559152641E+03  0.41800000000E+01 0. -1.
        -11    1    1    2    0    0 -0.23350102874E+02  0.53321307623E+02 -0.14184108041E+03  0.15332084413E+03  0.00000000000E+00 0. -1.
         11    1    1    2    0    0 -0.87261743215E+01 -0.29362643827E+02 -0.18566866314E+02  0.35819540694E+02  0.00000000000E+00 0.  1.
</event>
<event>
 7    1  0.2334784E-009  0.1470147E+03  0.7561462E-02  0.1204190E+00
          1   -1    0    0  501    0  0.00000000000E+00  0.00000000000E+00  0.64303555366E+02  0.64303555366E+02  0.00000000000E+00 0. -1.
         -1   -1    0    0    0  501 -0.00000000000E+00 -0.00000000000E+00 -0.38945547455E+03  0.38945547455E+03  0.00000000000E+00 0.  1.
         25    2    1    2    0    0  0.53124992623E+02  0.10032632181E+03 -0.15640543095E+03  0.23020061475E+03  0.12506809549E+03 0.  0.
          5    1    3    3  502    0  0.87276177779E+02  0.38637987455E+02 -0.10994932924E+03  0.14565834231E+03  0.41800000000E+01 0.  1.
         -5    1    3    3    0  502 -0.34151185156E+02  0.61688334359E+02 -0.46456101709E+02  0.84542272441E+02  0.41800000000E+01 0.  1.
        -11    1    1    2    0    0  0.11342815638E+02 -0.31846126785E+02 -0.10404950819E+03  0.10940354387E+03  0.00000000000E+00 0.  1.
         11    1    1    2    0    0 -0.64467808261E+02 -0.68480195029E+02 -0.64696980040E+02  0.11415487129E+03  0.00000000000E+00 0. -1.
</event>
<event>
 7    1  0.2334784E-009  0.1203004E+03  0.7561462E-02  0.1242602E+00
         -2   -1    0    0    0  501 -0.00000000000E+00  0.00000000000E+00  0.28477534935E+03  0.28477534935E+03  0.00000000000E+00 0.  1.
          2   -1    0    0  501    0  0.00000000000E+00 -0.00000000000E+00 -0.64858498245E+02  0.64858498245E+02  0.00000000000E+00 0. -1.
         25    2    1    2    0    0  0.59518036476E+02  0.55360345438E+02  0.13953732990E+03  0.20426865778E+03  0.12509138102E+03 0.  0.
          5    1    3    3  502    0  0.92258793825E+02  0.36602379223E+02  0.59793425229E+02  0.11594889091E+03  0.41800000000E+01 0.  1.
         -5    1    3    3    0  502 -0.32740757350E+02  0.18757966215E+02  0.79743904671E+02  0.88319766873E+02  0.41800000000E+01 0.  1.
        -11    1    1    2    0    0 -0.50574202010E+02 -0.69867881809E+02  0.90922966667E+02  0.12532460527E+03  0.00000000000E+00 0.  1.
         11    1    1    2    0    0 -0.89438344660E+01  0.14507536372E+02 -0.10543445465E+02  0.20040584542E+02  0.00000000000E+00 0. -1.
</event>
<event>
 7    1  0.2334784E-009  0.2050137E+03  0.7561462E-02  0.1145577E+00
         -2   -1    0    0    0  501 -0.00000000000E+00  0.00000000000E+00  0.62780016226E+02  0.62780016226E+02  0.00000000000E+00 0.  1.
          2   -1    0    0  501    0  0.00000000000E+00 -0.00000000000E+00 -0.14388599510E+04  0.14388599510E+04  0.00000000000E+00 0. -1.
         25    2    1    2    0    0 -0.17324271149E+03  0.17135265951E+02 -0.12492882583E+04  0.12675474542E+04  0.12509493149E+03 0.  0.
          5    1    3    3  502    0  0.19362301646E+02 -0.50131133321E+01 -0.12424973975E+03  0.12591862554E+03  0.41800000000E+01 0. -1.
         -5    1    3    3    0  502 -0.19260501313E+03  0.22148379283E+02 -0.11250385185E+04  0.11416288286E+04  0.41800000000E+01 0. -1.
        -11    1    1    2    0    0  0.12611100117E+03  0.29344766665E+02 -0.95407461363E+02  0.16083433598E+03  0.00000000000E+00 0.  1.
         11    1    1    2    0    0  0.47131710317E+02 -0.46480032616E+02 -0.31384215144E+02  0.73258177084E+02  0.00000000000E+00 0. -1.
</event>
<event>
 7    1  0.2334784E-009  0.9994625E+02  0.7561462E-02  0.1280409E+00
         -2   -1    0    0    0  501 -0.00000000000E+00  0.00000000000E+00  0.30406899293E+02  0.30406899293E+02  0.00000000000E+00 0.  1.
          2   -1    0    0  501    0  0.00000000000E+00 -0.00000000000E+00 -0.53054591675E+03  0.53054591675E+03  0.00000000000E+00 0. -1.
         25    2    1    2    0    0  0.27398728609E+02  0.40369512376E+02 -0.38396625076E+03  0.40676559728E+03  0.12509109300E+03 0.  0.
          5    1    3    3  502    0  0.22374107486E+02  0.83855206669E+02 -0.29491668206E+03  0.30745018805E+03  0.41800000000E+01 0.  1.
         -5    1    3    3    0  502  0.50246211230E+01 -0.43485694294E+02 -0.89049568702E+02  0.99315409236E+02  0.41800000000E+01 0.  1.
        -11    1    1    2    0    0 -0.40875025575E+02 -0.22534936137E+02 -0.12238746792E+03  0.13098581361E+03  0.00000000000E+00 0. -1.
         11    1    1    2    0    0  0.13476296966E+02 -0.17834576239E+02  0.62147012307E+01  0.23201405150E+02  0.00000000000E+00 0.  1.
</event>
<event>
 7    1  0.2334784E-009  0.2915994E+03  0.7561462E-02  0.1089517E+00
         -1   -1    0    0    0  501 -0.00000000000E+00  0.00000000000E+00  0.35134061570E+03  0.35134061570E+03  0.00000000000E+00 0.  1.
          1   -1    0    0  501    0  0.00000000000E+00 -0.00000000000E+00 -0.35273988233E+03  0.35273988233E+03  0.00000000000E+00 0. -1.
         25    2    1    2    0    0  0.27759553315E+03 -0.17780839849E+02 -0.18731671131E+03  0.35792540847E+03  0.12509040491E+03 0.  0.
          5    1    3    3  502    0  0.12632346547E+03 -0.70397459769E+02 -0.84186918174E+02  0.16738676728E+03  0.41800000000E+01 0. -1.
         -5    1    3    3    0  502  0.15127206769E+03  0.52616619920E+02 -0.10312979313E+03  0.19053864119E+03  0.41800000000E+01 0. -1.
        -11    1    1    2    0    0 -0.10665296721E+03  0.24831498944E+01  0.22203078043E+02  0.10896787656E+03  0.00000000000E+00 0. -1.
         11    1    1    2    0    0 -0.17094256595E+03  0.15297689955E+02  0.16371436663E+03  0.23718721300E+03  0.00000000000E+00 0.  1.
</event>
<event>
 7    1  0.2334784E-009  0.1077753E+03  0.7561462E-02  0.1264746E+00
         -2   -1    0    0    0  501 -0.00000000000E+00  0.00000000000E+00  0.36066764143E+02  0.36066764143E+02  0.00000000000E+00 0. -1.
          2   -1    0    0  501    0  0.00000000000E+00 -0.00000000000E+00 -0.46597916094E+03  0.46597916094E+03  0.00000000000E+00 0.  1.
         25    2    1    2    0    0  0.11004680770E+02 -0.33758253910E+02 -0.35719342295E+03  0.38012525348E+03  0.12508934499E+03 0.  0.
          5    1    3    3  502    0  0.59775671439E+02  0.26874224635E+01 -0.10770193302E+03  0.12327827024E+03  0.41800000000E+01 0.  1.
         -5    1    3    3    0  502 -0.48770990669E+02 -0.36445676374E+02 -0.24949148993E+03  0.25684698325E+03  0.41800000000E+01 0.  1.
        -11    1    1    2    0    0  0.27058539866E+02  0.47006510597E+02 -0.25780157687E+02  0.60053252606E+02  0.00000000000E+00 0. -1.
         11    1    1    2    0    0 -0.38063220636E+02 -0.13248256687E+02 -0.46938816158E+02  0.61867418992E+02  0.00000000000E+00 0.  1.
</event>
<event>
 7    1  0.2334784E-009  0.9336700E+02  0.7561462E-02  0.1294897E+00
         -1   -1    0    0    0  501 -0.00000000000E+00  0.00000000000E+00  0.59740090086E+02  0.59740090086E+02  0.00000000000E+00 0.  1.
          1   -1    0    0  501    0  0.00000000000E+00 -0.00000000000E+00 -0.25490015590E+03  0.25490015590E+03  0.00000000000E+00 0. -1.
         25    2    1    2    0    0 -0.31093360610E+02  0.43107221150E+02 -0.14390620713E+03  0.19794556966E+03  0.12509365494E+03 0.  0.
          5    1    3    3  502    0  0.42360377584E+02 -0.11956862782E+01 -0.80926610306E+02  0.91446267886E+02  0.41800000000E+01 0.  1.
         -5    1    3    3    0  502 -0.73453738194E+02  0.44302907428E+02 -0.62979596825E+02  0.10649930177E+03  0.41800000000E+01 0.  1.
        -11    1    1    2    0    0  0.19546827939E+02 -0.76688155121E+01 -0.71332342607E+02  0.74358538956E+02  0.00000000000E+00 0. -1.
         11    1    1    2    0    0  0.11546532671E+02 -0.35438405638E+02  0.20078483926E+02  0.42336137372E+02  0.00000000000E+00 0.  1.
</event>
<event>
 7    1  0.2334784E-009  0.1091167E+03  0.7561462E-02  0.1262214E+00
          1   -1    0    0  501    0  0.00000000000E+00  0.00000000000E+00  0.47463934314E+02  0.47463934314E+02  0.00000000000E+00 0. -1.
         -1   -1    0    0    0  501 -0.00000000000E+00 -0.00000000000E+00 -0.26074976993E+03  0.26074976993E+03  0.00000000000E+00 0.  1.
         25    2    1    2    0    0 -0.11204566576E+02 -0.48768820283E+01 -0.14337170234E+03  0.19065225631E+03  0.12507402414E+03 0.  0.
          5    1    3    3  502    0  0.56708177278E+02  0.37842014462E+01 -0.61451471484E+02  0.83808670783E+02  0.41800000000E+01 0.  1.
         -5    1    3    3    0  502 -0.67912743854E+02 -0.86610834745E+01 -0.81920230854E+02  0.10684358553E+03  0.41800000000E+01 0.  1.
        -11    1    1    2    0    0 -0.40576890227E+02  0.49184528516E+01 -0.19482665910E+02  0.45279680541E+02  0.00000000000E+00 0.  1.
         11    1    1    2    0    0  0.51781456803E+02 -0.41570823280E-01 -0.50431467366E+02  0.72281767393E+02  0.00000000000E+00 0. -1.
</event>
<event>
 7    1  0.2334784E-009  0.1044714E+03  0.7561462E-02  0.1271165E+00
          2   -1    0    0  501    0  0.00000000000E+00  0.00000000000E+00  0.20206118419E+03  0.20206118419E+03  0.00000000000E+00 0. -1.
         -2   -1    0    0    0  501 -0.00000000000E+00 -0.00000000000E+00 -0.64934682242E+02  0.64934682242E+02  0.00000000000E+00 0.  1.
         25    2    1    2    0    0 -0.37679193415E+02 -0.11085626365E+02  0.62399987768E+02  0.14520352693E+03  0.12509073920E+03 0.  0.
          5    1    3    3  502    0 -0.39461752496E+02 -0.55637830745E+02 -0.70349725497E-01  0.68339413731E+02  0.41800000000E+01 0.  1.
         -5    1    3    3    0  502  0.17825590815E+01  0.44552204380E+02  0.62470337493E+02  0.76864113203E+02  0.41800000000E+01 0.  1.
        -11    1    1    2    0    0  0.63139364052E+02 -0.84853835988E+01  0.54518622116E+02  0.83850230680E+02  0.00000000000E+00 0.  1.
         11    1    1    2    0    0 -0.25460170637E+02  0.19571009964E+02  0.20207892065E+02  0.37942108819E+02  0.00000000000E+00 0. -1.
</event>
<event>
 7    1  0.2334784E-009  0.9194491E+02  0.7561462E-02  0.1298209E+00
          1   -1    0    0  501    0  0.00000000000E+00  0.00000000000E+00  0.12992759797E+03  0.12992759797E+03  0.00000000000E+00 0. -1.
         -1   -1    0    0    0  501 -0.00000000000E+00 -0.00000000000E+00 -0.12808641745E+03  0.12808641745E+03  0.00000000000E+00 0.  1.
         25    2    1    2    0    0 -0.26203163731E+02 -0.66447296773E+02  0.60170156558E+01  0.14417388336E+03  0.12509218651E+03 0.  0.
          5    1    3    3  502    0  0.10452635328E+02 -0.19558241504E+01 -0.49895731903E+02  0.51187296232E+02  0.41800000000E+01 0.  1.
         -5    1    3    3    0  502 -0.36655799059E+02 -0.64491472623E+02  0.55912747558E+02  0.92986587125E+02  0.41800000000E+01 0.  1.
        -11    1    1    2    0    0  0.43429532154E+02  0.18478801521E+02 -0.30779480159E+02  0.56346843458E+02  0.00000000000E+00 0. -1.
         11    1    1    2    0    0 -0.17226368423E+02  0.47968495252E+02  0.26603645025E+02  0.57493288603E+02  0.00000000000E+00 0.  1.
</event>
<event>
 7    1  0.2334784E-009  0.2166348E+03  0.7561462E-02  0.1136417E+00
         -2   -1    0    0    0  501 -0.00000000000E+00  0.00000000000E+00  0.24368030027E+02  0.24368030027E+02  0.00000000000E+00 0.  1.
          2   -1    0    0  501    0  0.00000000000E+00 -0.00000000000E+00 -0.25425817470E+04  0.25425817470E+04  0.00000000000E+00 0. -1.
         25    2    1    2    0    0  0.19706048806E+03 -0.86988437583E+02 -0.16374844637E+04  0.16563217739E+04  0.12508647315E+03 0.  0.
          5    1    3    3  502    0  0.13215232404E+03 -0.61826159955E+02 -0.14300121047E+04  0.14374417563E+04  0.41800000000E+01 0. -1.
         -5    1    3    3    0  502  0.64908164012E+02 -0.25162277629E+02 -0.20747235904E+03  0.21888001768E+03  0.41800000000E+01 0. -1.
        -11    1    1    2    0    0 -0.10615386288E+03  0.30132460168E+02 -0.60113769885E+03  0.61118175753E+03  0.00000000000E+00 0. -1.
         11    1    1    2    0    0 -0.90906625173E+02  0.56855977415E+02 -0.27959155441E+03  0.29944624554E+03  0.00000000000E+00 0.  1.
</event>
<event>
 6    1  0.2334784E-009  0.1211244E+03  0.7561462E-02  0.1241254E+00
         -1   -1    0    0    0  501 -0.00000000000E+00  0.00000000000E+00  0.72047595139E+02  0.72047595139E+02  0.00000000000E+00 0.  1.
          1   -1    0    0  501    0  0.00000000000E+00 -0.00000000000E+00 -0.32453706445E+03  0.32453706445E+03  0.00000000000E+00 0. -1.
          5    1    1    2  502    0 -0.56712719532E+02  0.68780072227E+02 -0.96984694622E+02  0.13179732275E+03  0.41800000000E+01 0. -1.
         -5    1    1    2    0  502  0.17357268359E+02  0.20977236669E+02  0.30010623443E+02  0.40736091400E+02  0.41800000000E+01 0. -1.
        -11    1    1    2    0    0  0.11180103064E+02 -0.95959562541E+02 -0.14765017282E+03  0.17644774264E+03  0.00000000000E+00 0. -1.
         11    1    1    2    0    0  0.28175348110E+02  0.62022536456E+01 -0.37865225309E+02  0.47603502803E+02  0.00000000000E+00 0.  1.
</event>
<event>
 7    1  0.2334784E-009  0.1251098E+03  0.7561462E-02  0.1234898E+00
          1   -1    0    0  501    0  0.00000000000E+00  0.00000000000E+00  0.12734465920E+04  0.12734465920E+04  0.00000000000E+00 0. -1.
         -1   -1    0    0    0  501 -0.00000000000E+00 -0.00000000000E+00 -0.13201138896E+02  0.13201138896E+02  0.00000000000E+00 0.  1.
         25    2    1    2    0    0 -0.69508774473E+02 -0.10513067373E+02  0.76226750051E+03  0.77565756360E+03  0.12510363430E+03 0.  0.
          5    1    3    3  502    0  0.37599948658E+01 -0.54700538202E+02  0.37640683710E+03  0.38040224218E+03  0.41800000000E+01 0. -1.
         -5    1    3    3    0  502 -0.73268769339E+02  0.44187470829E+02  0.38586066341E+03  0.39525532141E+03  0.41800000000E+01 0. -1.
        -11    1    1    2    0    0  0.72502498615E+02  0.38041250339E+02  0.42745296934E+03  0.43522383900E+03  0.00000000000E+00 0. -1.
         11    1    1    2    0    0 -0.29937241419E+01 -0.27528182966E+02  0.70524983229E+02  0.75766328281E+02  0.00000000000E+00 0.  1.
</event>
<event>
 7    1  0.2334784E-009  0.1077237E+03  0.7561462E-02  0.1264844E+00
          2   -1    0    0  501    0  0.00000000000E+00  0.00000000000E+00  0.44852478298E+02  0.44852478298E+02  0.00000000000E+00 0. -1.
         -2   -1    0    0    0  501 -0.00000000000E+00 -0.00000000000E+00 -0.35848928222E+03  0.35848928222E+03  0.00000000000E+00 0.  1.
         25    2    1    2    0    0 -0.58390283196E+02  0.28276956938E+02 -0.18446726154E+03  0.23213074409E+03  0.12508996885E+03 0.  0.
          5    1    3    3  502    0  0.24614887150E+02  0.31784965623E+02 -0.12078664939E+03  0.12736979148E+03  0.41800000000E+01 0.  1.
         -5    1    3    3    0  502 -0.83005170345E+02 -0.35080086851E+01 -0.63680612146E+02  0.10476095261E+03  0.41800000000E+01 0.  1.
        -11    1    1    2    0    0  0.70005285954E+02 -0.35164708444E+02 -0.54750502306E+02  0.95576745520E+02  0.00000000000E+00 0. -1.
         11    1    1    2    0    0 -0.11615002759E+02  0.68877515065E+01 -0.74419040077E+02  0.75634270908E+02  0.00000000000E+00 0.  1.
</event>
<event>
 7    1  0.2334784E-009  0.7627727E+02  0.7561462E-02  0.1339961E+00
          1   -1    0    0  501    0  0.00000000000E+00  0.00000000000E+00  0.68130540314E+03  0.68130540314E+03  0.00000000000E+00 0. -1.
         -1   -1    0    0    0  501 -0.00000000000E+00 -0.00000000000E+00 -0.34365590297E+02  0.34365590297E+02  0.00000000000E+00 0.  1.
         25    2    1    2    0    0  0.41580383873E+02  0.31520985135E+02  0.57179711766E+03  0.58764082179E+03  0.12508913159E+03 0.  0.
          5    1    3    3  502    0  0.12920699484E+02  0.74838332166E+00 -0.66901020468E+00  0.13617067503E+02  0.41800000000E+01 0.  1.
         -5    1    3    3    0  502  0.28659684390E+02  0.30772601814E+02  0.57246612787E+03  0.57402375429E+03  0.41800000000E+01 0.  1.
        -11    1    1    2    0    0 -0.62508078178E+02 -0.39894858076E+02  0.75027154734E+02  0.10548902069E+03  0.00000000000E+00 0. -1.
         11    1    1    2    0    0  0.20927694305E+02  0.83738729408E+01  0.11554044826E+00  0.22541150959E+02  0.00000000000E+00 0.  1.
</event>
<event>
 7    1  0.2334784E-009  0.9368772E+02  0.7561462E-02  0.1294159E+00
          2   -1    0    0  501    0  0.00000000000E+00  0.00000000000E+00  0.37800397892E+02  0.37800397892E+02  0.00000000000E+00 0.  1.
         -2   -1    0    0    0  501 -0.00000000000E+00 -0.00000000000E+00 -0.41155226113E+03  0.41155226113E+03  0.00000000000E+00 0. -1.
         25    2    1    2    0    0  0.39368988719E+01  0.62139067934E+02 -0.21187349720E+03  0.25380170935E+03  0.12509262934E+03 0.  0.
          5    1    3    3  502    0  0.52266901714E+02  0.50540701059E+02 -0.18110039952E+03  0.19519482212E+03  0.41800000000E+01 0. -1.
         -5    1    3    3    0  502 -0.48330002843E+02  0.11598366875E+02 -0.30773097684E+02  0.58606887223E+02  0.41800000000E+01 0. -1.
        -11    1    1    2    0    0  0.66837334139E+01 -0.32678386778E+02 -0.28589622898E+01  0.33477200005E+02  0.00000000000E+00 0.  1.
         11    1    1    2    0    0 -0.10620632286E+02 -0.29460681156E+02 -0.15901940374E+03  0.16207374967E+03  0.00000000000E+00 0. -1.
</event>
<event>
 7    1  0.2334784E-009  0.1220647E+03  0.7561462E-02  0.1239729E+00
          1   -1    0    0  501    0  0.00000000000E+00  0.00000000000E+00  0.34148935962E+03  0.34148935962E+03  0.00000000000E+00 0. -1.
         -1   -1    0    0    0  501 -0.00000000000E+00 -0.00000000000E+00 -0.50873242421E+02  0.50873242421E+02  0.00000000000E+00 0.  1.
         25    2    1    2    0    0  0.80444572039E+01  0.59994346930E+02  0.22790958495E+03  0.26693790780E+03  0.12509609408E+03 0.  0.
          5    1    3    3  502    0  0.66338575787E+02  0.27594550321E+02  0.11143545728E+03  0.13265594365E+03  0.41800000000E+01 0. -1.
         -5    1    3    3    0  502 -0.58294118583E+02  0.32399796609E+02  0.11647412766E+03  0.13428196415E+03  0.41800000000E+01 0. -1.
        -11    1    1    2    0    0 -0.95175269257E+01 -0.82366494759E+02  0.61006263473E+02  0.10293972489E+03  0.00000000000E+00 0.  1.
         11    1    1    2    0    0  0.14730697218E+01  0.22372147829E+02  0.17002687827E+01  0.22484969354E+02  0.00000000000E+00 0. -1.
</event>
<event>
 7    1  0.2334784E-009  0.9280989E+02  0.7561462E-02  0.1296186E+00
         -1   -1    0    0    0  501 -0.00000000000E+00  0.00000000000E+00  0.23091846194E+02  0.23091846194E+02  0.00000000000E+00 0.  1.
          1   -1    0    0  501    0  0.00000000000E+00 -0.00000000000E+00 -0.55280623853E+03  0.55280623853E+03  0.00000000000E+00 0. -1.
         25    2    1    2    0    0 -0.14839223531E+02  0.28651571680E+01 -0.23054381005E+03  0.26272804219E+03  0.12508862506E+03 0.  0.
          5    1    3    3  502    0  0.40001320426E+02  0.17993196978E+02 -0.18371868276E+03  0.18892826038E+03  0.41800000000E+01 0.  1.
         -5    1    3    3    0  502 -0.54840543957E+02 -0.15128039810E+02 -0.46825127284E+02  0.73799781810E+02  0.41800000000E+01 0.  1.
        -11    1    1    2    0    0 -0.31776434667E+02  0.14294183641E+02 -0.19082696288E+03  0.19398194567E+03  0.00000000000E+00 0. -1.
         11    1    1    2    0    0  0.46615658198E+02 -0.17159340809E+02 -0.10834361941E+03  0.11918809686E+03  0.00000000000E+00 0.  1.
</event>
<event>
 7    1  0.2334784E-009  0.1483131E+03  0.7561462E-02  0.1202561E+00
         -2   -1    0    0    0  501 -0.00000000000E+00  0.00000000000E+00  0.33904460393E+02  0.33904460393E+02  0.00000000000E+00 0. -1.
          2   -1    0    0  501    0  0.00000000000E+00 -0.00000000000E+00 -0.74621458159E+03  0.74621458159E+03  0.00000000000E+00 0.  1.
         25    2    1    2    0    0  0.98316597661E+02  0.30908069939E+02 -0.51103657497E+03  0.53612314996E+03  0.12509272083E+03 0.  0.
          5    1    3    3  502    0  0.49619331388E+02 -0.47544151271E+02 -0.24483329374E+03  0.25432919315E+03  0.41800000000E+01 0. -1.
         -5    1    3    3    0  502  0.48697266273E+02  0.78452221210E+02 -0.26620328123E+03  0.28179395681E+03  0.41800000000E+01 0. -1.
        -11    1    1    2    0    0 -0.81418446569E+02 -0.60386644540E+02 -0.12840860320E+03  0.16359792070E+03  0.00000000000E+00 0.  1.
         11    1    1    2    0    0 -0.16898151093E+02  0.29478574602E+02 -0.72864943024E+02  0.80397971322E+02  0.00000000000E+00 0. -1.
</event>
<event>
 7    1  0.2334784E-009  0.1999924E+03  0.7561462E-02  0.1149745E+00
         -2   -1    0    0    0  501 -0.00000000000E+00  0.00000000000E+00  0.54764231532E+02  0.54764231532E+02  0.00000000000E+00 0.  1.
          2   -1    0    0  501    0  0.00000000000E+00 -0.00000000000E+00 -0.10411083965E+04  0.10411083965E+04  0.00000000000E+00 0. -1.
         25    2    1    2    0    0  0.94315106527E+02 -0.16464945025E+03 -0.72941020973E+03  0.76399744536E+03  0.12509221264E+03 0.  0.
          5    1    3    3  502    0  0.40338825419E+02 -0.60361712327E+02 -0.50950169187E+03  0.51466513732E+03  0.41800000000E+01 0.  1.
         -5    1    3    3    0  502  0.53976281108E+02 -0.10428773793E+03 -0.21990851786E+03  0.24933230804E+03  0.41800000000E+01 0.  1.
        -11    1    1    2    0    0 -0.20537940949E+02  0.12367821354E+03 -0.16218865897E+03  0.20499577708E+03  0.00000000000E+00 0.  1.
         11    1    1    2    0    0 -0.73777165577E+02  0.40971236719E+02 -0.94745296255E+02  0.12687940558E+03  0.00000000000E+00 0. -1.
</event>
<event>
 7    1  0.2334784E-009  0.8942055E+02  0.7561462E-02  0.1304261E+00
         -3   -1    0    0    0  501 -0.00000000000E+00  0.00000000000E+00  0.31524233306E+02  0.31524233306E+02  0.00000000000E+00 0.  1.
          3   -1    0    0  501    0  0.00000000000E+00 -0.00000000000E+00 -0.50754248187E+03  0.50754248187E+03  0.00000000000E+00 0. -1.
         25    2    1    2    0    0  0.63664056571E+02  0.94591702210E+01 -0.23970516803E+03  0.27792475703E+03  0.12506404354E+03 0.  0.
          5    1    3    3  502    0  0.25082509031E+02 -0.15343255048E+02  0.39451817886E+01  0.29959716189E+02  0.41800000000E+01 0.  1.
         -5    1    3    3    0  502  0.38581547540E+02  0.24802425269E+02 -0.24365034982E+03  0.24796504084E+03  0.41800000000E+01 0.  1.
        -11    1    1    2    0    0 -0.82969055600E+02 -0.41891826240E+01 -0.22052063468E+03  0.23564966318E+03  0.00000000000E+00 0. -1.
         11    1    1    2    0    0  0.19304999028E+02 -0.52699875970E+01 -0.15792445854E+02  0.25492294970E+02  0.00000000000E+00 0.  1.
</event>
<event>
 7    1  0.2334784E-009  0.1272330E+03  0.7561462E-02  0.1231620E+00
         -1   -1    0    0    0  501 -0.00000000000E+00  0.00000000000E+00  0.44789393791E+02  0.44789393791E+02  0.00000000000E+00 0.  1.
          1   -1    0    0  501    0  0.00000000000E+00 -0.00000000000E+00 -0.52005842155E+03  0.52005842155E+03  0.00000000000E+00 0. -1.
         25    2    1    2    0    0  0.17490707966E+02 -0.10469695137E+03 -0.27615991445E+03  0.32121853924E+03  0.12509866150E+03 0.  0.
          5    1    3    3  502    0  0.67144448015E+01 -0.12484138991E+03 -0.26940647271E+03  0.29703160832E+03  0.41800000000E+01 0.  1.
         -5    1    3    3    0  502  0.10776263165E+02  0.20144438538E+02 -0.67534417407E+01  0.24186930917E+02  0.41800000000E+01 0.  1.
        -11    1    1    2    0    0 -0.39752306991E+01  0.25258060981E+02 -0.14341146834E+03  0.14567299459E+03  0.00000000000E+00 0.  1.
         11    1    1    2    0    0 -0.13515477267E+02  0.79438890386E+02 -0.55697644963E+02  0.97956281503E+02  0.00000000000E+00 0. -1.
</event>
<event>
 7    1  0.2334784E-009  0.9504817E+02  0.7561462E-02  0.1291068E+00
         -1   -1    0    0    0  501 -0.00000000000E+00  0.00000000000E+00  0.36054096965E+03  0.36054096965E+03  0.00000000000E+00 0.  1.
          1   -1    0    0  501    0  0.00000000000E+00 -0.00000000000E+00 -0.66555924587E+02  0.66555924587E+02  0.00000000000E+00 0. -1.
         25    2    1    2    0    0  0.21362786566E+02  0.70733900635E+02  0.44576102703E+02  0.15196808358E+03  0.12509043188E+03 0.  0.
          5    1    3    3  502    0  0.54366289859E+02  0.59758660358E+02 -0.15553618936E+02  0.82378264262E+02  0.41800000000E+01 0.  1.
         -5    1    3    3    0  502 -0.33003503293E+02  0.10975240276E+02  0.60129721639E+02  0.69589819321E+02  0.41800000000E+01 0.  1.
        -11    1    1    2    0    0 -0.95257313962E+01 -0.42492302001E+02  0.23877426662E+03  0.24271276375E+03  0.00000000000E+00 0.  1.
         11    1    1    2    0    0 -0.11837055170E+02 -0.28241598634E+02  0.10634675737E+02  0.32416046898E+02  0.00000000000E+00 0. -1.
</event>
<event>
 7    1  0.2334784E-009  0.1055186E+03  0.7561462E-02  0.1269101E+00
          1   -1    0    0  501    0  0.00000000000E+00  0.00000000000E+00  0.38969471750E+03  0.38969471750E+03  0.00000000000E+00 0. -1.
         -1   -1    0    0    0  501 -0.00000000000E+00 -0.00000000000E+00 -0.51571932525E+02  0.51571932525E+02  0.00000000000E+00 0.  1.
         25    2    1    2    0    0 -0.40614902292E+01 -0.84629187659E+02  0.23812290418E+03  0.28200940484E+03  0.12509273288E+03 0.  0.
          5    1    3    3  502    0  0.11824014788E+02  0.15946928896E+02 -0.27429687823E+01  0.20472130926E+02  0.41800000000E+01 0. -1.
         -5    1    3    3    0  502 -0.15885505017E+02 -0.10057611655E+03  0.24086587296E+03  0.26153727391E+03  0.41800000000E+01 0. -1.
        -11    1    1    2    0    0 -0.76603893760E+01  0.68364788264E+02  0.13041732590E+02  0.70017945047E+02  0.00000000000E+00 0.  1.
         11    1    1    2    0    0  0.11721879605E+02  0.16264399395E+02  0.86958148212E+02  0.89239300141E+02  0.00000000000E+00 0. -1.
</event>
<event>
 7    1  0.2334784E-009  0.1222477E+03  0.7561462E-02  0.1239434E+00
         -2   -1    0    0    0  501 -0.00000000000E+00  0.00000000000E+00  0.22297459426E+03  0.22297459426E+03  0.00000000000E+00 0.  1.
          2   -1    0    0  501    0  0.00000000000E+00 -0.00000000000E+00 -0.98882504796E+02  0.98882504796E+02  0.00000000000E+00 0. -1.
         25    2    1    2    0    0  0.48794078999E+02  0.87018154382E+02  0.81151867197E+02  0.17940566846E+03  0.12509095486E+03 0.  0.
          5    1    3    3  502    0  0.34872858028E+02  0.89318279718E+02  0.11062941458E+03  0.14645890580E+03  0.41800000000E+01 0.  1.
         -5    1    3    3    0  502  0.13921220971E+02 -0.23001253356E+01 -0.29477547383E+02  0.32946762658E+02  0.41800000000E+01 0.  1.
        -11    1    1    2    0    0 -0.59458608705E+02 -0.15433570427E+02  0.75618589516E+01  0.61892672878E+02  0.00000000000E+00 0.  1.
         11    1    1    2    0    0  0.10664529706E+02 -0.71584583955E+02  0.35378363314E+02  0.80558757716E+02  0.00000000000E+00 0. -1.
</event>
<event>
 6    1  0.2334784E-009  0.1496576E+03  0.7561462E-02  0.1200894E+00
          1   -1    0    0  501    0  0.00000000000E+00  0.00000000000E+00  0.99627508684E+03  0.99627508684E+03  0.00000000000E+00 0. -1.
         -1   -1    0    0    0  501 -0.00000000000E+00 -0.00000000000E+00 -0.31796383916E+02  0.31796383916E+02  0.00000000000E+00 0.  1.
          5    1    1    2  502    0 -0.28786433341E+02 -0.44732064625E+02  0.46137444324E+03  0.46444963734E+03  0.41800000000E+01 0.  1.
         -5    1    1    2    0  502 -0.50157588002E+02 -0.69628489794E+02  0.13062148079E+03  0.15634370428E+03  0.41800000000E+01 0.  1.
        -11    1    1    2    0    0  0.60964308315E+02  0.20264928433E+02  0.19886155859E+03  0.20898141950E+03  0.00000000000E+00 0. -1.
         11    1    1    2    0    0  0.17979713028E+02  0.94095625985E+02  0.17362122031E+03  0.19829670963E+03  0.00000000000E+00 0.  1.
</event>
<event>
 7    1  0.2334784E-009  0.9987858E+02  0.7561462E-02  0.1280551E+00
         -3   -1    0    0    0  501 -0.00000000000E+00  0.00000000000E+00  0.10655306701E+03  0.10655306701E+03  0.00000000000E+00 0.  1.
          3   -1    0    0  501    0  0.00000000000E+00 -0.00000000000E+00 -0.14687011470E+03  0.14687011470E+03  0.00000000000E+00 0. -1.
         25    2    1    2    0    0  0.27263453295E+02 -0.48215690847E+02 -0.47062357861E+02  0.14467189478E+03  0.12508814045E+03 0.  0.
          5    1    3    3  502    0  0.53711884433E+02 -0.17206290364E+02 -0.75839391971E+02  0.94605014307E+02  0.41800000000E+01 0.  1.
         -5    1    3    3    0  502 -0.26448431138E+02 -0.31009400484E+02  0.28777034110E+02  0.50066880472E+02  0.41800000000E+01 0.  1.
        -11    1    1    2    0    0 -0.29839784592E+02 -0.18733408132E+02 -0.15027272504E+02  0.38303684466E+02  0.00000000000E+00 0. -1.
         11    1    1    2    0    0  0.25763312965E+01  0.66949098980E+02  0.21772582681E+02  0.70447602470E+02  0.00000000000E+00 0.  1.
</event>
<event>
 7    1  0.2334784E-009  0.1979698E+03  0.7561462E-02  0.1151463E+00
          1   -1    0    0  501    0  0.00000000000E+00  0.00000000000E+00  0.16582320009E+03  0.16582320009E+03  0.00000000000E+00 0. -1.
         -1   -1    0    0    0  501 -0.00000000000E+00 -0.00000000000E+00 -0.26531786898E+03  0.26531786898E+03  0.00000000000E+00 0.  1.
         25    2    1    2    0    0 -0.99796742406E+02 -0.14537094862E+03 -0.85294239735E+02  0.23240991767E+03  0.12508860860E+03 0.  0.
          5    1    3    3  502    0  0.21550045068E+02 -0.55939044112E+01  0.93096382366E+01  0.24491589844E+02  0.41800000000E+01 0. -1.
         -5    1    3    3    0  502 -0.12134678747E+03 -0.13977704421E+03 -0.94603877971E+02  0.20791832783E+03  0.41800000000E+01 0. -1.
        -11    1    1    2    0    0  0.88179899571E+02  0.71966541488E+02  0.22221078218E+02  0.11596833231E+03  0.00000000000E+00 0. -1.
         11    1    1    2    0    0  0.11616842835E+02  0.73404407133E+02 -0.36421507380E+02  0.82762819091E+02  0.00000000000E+00 0.  1.
</event>
<event>
 7    1  0.2334784E-009  0.1105035E+03  0.7561462E-02  0.1259640E+00
          3   -1    0    0  501    0  0.00000000000E+00  0.00000000000E+00  0.93438909214E+02  0.93438909214E+02  0.00000000000E+00 0. -1.
         -3   -1    0    0    0  501 -0.00000000000E+00 -0.00000000000E+00 -0.14096719574E+03  0.14096719574E+03  0.00000000000E+00 0.  1.
         25    2    1    2    0    0 -0.29410938297E+02 -0.10440913424E+02 -0.34275474745E+02  0.13339447093E+03  0.12508101671E+03 0.  0.
          5    1    3    3  502    0 -0.44129567662E+02  0.47978065749E+02 -0.30065015179E+01  0.65389792678E+02  0.41800000000E+01 0. -1.
         -5    1    3    3    0  502  0.14718629365E+02 -0.58418979173E+02 -0.31268973227E+02  0.68004678256E+02  0.41800000000E+01 0. -1.
        -11    1    1    2    0    0 -0.32648130915E+02  0.27676572842E+01 -0.19565092596E+02  0.38162196312E+02  0.00000000000E+00 0. -1.
         11    1    1    2    0    0  0.62059069212E+02  0.76732561396E+01  0.63122808131E+01  0.62849437709E+02  0.00000000000E+00 0.  1.
</event>
<event>
 7    1  0.2334784E-009  0.7810985E+02  0.7561462E-02  0.1334503E+00
          1   -1    0    0  501    0  0.00000000000E+00  0.00000000000E+00  0.36591011908E+03  0.36591011908E+03  0.00000000000E+00 0. -1.
         -1   -1    0    0    0  501 -0.00000000000E+00 -0.00000000000E+00 -0.32546904962E+02  0.32546904962E+02  0.00000000000E+00 0.  1.
         25    2    1    2    0    0 -0.11278888041E+02  0.84471471053E+01  0.20453694271E+03  0.24016655937E+03  0.12508416246E+03 0.  0.
          5    1    3    3  502    0 -0.28839447382E+02  0.51600931757E+02  0.17520008849E+03  0.18495111054E+03  0.41800000000E+01 0. -1.
         -5    1    3    3    0  502  0.17560559341E+02 -0.43153784651E+02  0.29336854224E+02  0.55215448833E+02  0.41800000000E+01 0. -1.
        -11    1    1    2    0    0  0.60515527773E+01  0.20186955699E+02 -0.47303109657E+01  0.21598849813E+02  0.00000000000E+00 0.  1.
         11    1    1    2    0    0  0.52273352636E+01 -0.28634102804E+02  0.13355658237E+03  0.13669161486E+03  0.00000000000E+00 0. -1.
</event>
<event>
 7    1  0.2334784E-009  0.1628843E+03  0.7561462E-02  0.1185478E+00
         -1   -1    0    0    0  501 -0.00000000000E+00  0.00000000000E+00  0.16849990369E+03  0.16849990369E+03  0.00000000000E+00 0.  1.
          1   -1    0    0  501    0  0.00000000000E+00 -0.00000000000E+00 -0.24496248867E+03  0.24496248867E+03  0.00000000000E+00 0. -1.
         25    2    1    2    0    0 -0.96348742130E+02  0.92185567606E+02  0.69393120779E+02  0.19556201209E+03  0.12509131215E+03 0.  0.
          5    1    3    3  502    0 -0.77726352203E+02  0.56905237794E+01 -0.73141374998E+01  0.78388372192E+02  0.41800000000E+01 0.  1.
         -5    1    3    3    0  502 -0.18622389927E+02  0.86495043826E+02  0.76707258279E+02  0.11717363989E+03  0.41800000000E+01 0.  1.
        -11    1    1    2    0    0  0.29949525699E+02 -0.87612314048E+02 -0.10415212519E+03  0.13935765800E+03  0.00000000000E+00 0. -1.
         11    1    1    2    0    0  0.66399216431E+02 -0.45732535578E+01 -0.41703580572E+02  0.78542722281E+02  0.00000000000E+00 0.  1.
</event>
<event>
 7    1  0.2334784E-009  0.1451640E+03  0.7561462E-02  0.1206545E+00
          1   -1    0    0  501    0  0.00000000000E+00  0.00000000000E+00  0.17459085894E+03  0.17459085894E+03  0.00000000000E+00 0. -1.
         -1   -1    0    0    0  501 -0.00000000000E+00 -0.00000000000E+00 -0.17324943063E+03  0.17324943063E+03  0.00000000000E+00 0.  1.
         25    2    1    2    0    0 -0.10919899460E+03 -0.87662966207E+02  0.26401628980E+02  0.18961446473E+03  0.12508950058E+03 0.  0.
          5    1    3    3  502    0 -0.55114368200E+01 -0.31541206098E+02 -0.42204782957E+02  0.53140753875E+02  0.41800000000E+01 0. -1.
         -5    1    3    3    0  502 -0.10368755778E+03 -0.56121760109E+02  0.68606411937E+02  0.13647371085E+03  0.41800000000E+01 0. -1.
        -11    1    1    2    0    0  0.96199537469E+02  0.76027066011E+02  0.58252683480E+01  0.12275340943E+03  0.00000000000E+00 0. -1.
         11    1    1    2    0    0  0.12999457129E+02  0.11635900196E+02 -0.30885469018E+02  0.35472415416E+02  0.00000000000E+00 0.  1.
</event>
<event>
 7    1  0.2334784E-009  0.1351509E+03  0.7561462E-02  0.1220007E+00
         -1   -1    0    0    0  501 -0.00000000000E+00  0.00000000000E+00  0.62706376074E+03  0.62706376074E+03  0.00000000000E+00 0.  1.
          1   -1    0    0  501    0  0.00000000000E+00 -0.00000000000E+00 -0.48396649693E+02  0.48396649693E+02  0.00000000000E+00 0. -1.
         25    2    1    2    0    0  0.80714910575E+02 -0.35333339193E+02  0.10625459088E+03  0.18628249057E+03  0.12509111304E+03 0.  0.
          5    1    3    3  502    0 -0.30202359739E+02 -0.98794021502E+01  0.49691926896E+02  0.59131591550E+02  0.41800000000E+01 0.  1.
         -5    1    3    3    0  502  0.11091727031E+03 -0.25453937043E+02  0.56562663988E+02  0.12715089902E+03  0.41800000000E+01 0.  1.
        -11    1    1    2    0    0 -0.97423403929E+01  0.50808127361E+02  0.14956960666E+03  0.15826385007E+03  0.00000000000E+00 0.  1.
         11    1    1    2    0    0 -0.70972570182E+02 -0.15474788168E+02  0.32284291351E+03  0.33091406979E+03  0.00000000000E+00 0. -1.
</event>
<event>
 7    1  0.2334784E-009  0.2764009E+03  0.7561462E-02  0.1097671E+00
          2   -1    0    0  501    0  0.00000000000E+00  0.00000000000E+00  0.15381422334E+03  0.15381422334E+03  0.00000000000E+00 0. -1.
         -2   -1    0    0    0  501 -0.00000000000E+00 -0.00000000000E+00 -0.83007189469E+03  0.83007189469E+03  0.00000000000E+00 0.  1.
         25    2    1    2    0    0 -0.20506770888E+03 -0.16233763603E+03 -0.43638737822E+02  0.29318536279E+03  0.12508814579E+03 0.  0.
          5    1    3    3  502    0 -0.12893133647E+03 -0.24843873741E+02 -0.59241973877E+01  0.13150314103E+03  0.41800000000E+01 0. -1.
         -5    1    3    3    0  502 -0.76136372413E+02 -0.13749376229E+03 -0.37714540434E+02  0.16168222176E+03  0.41800000000E+01 0. -1.
        -11    1    1    2    0    0  0.87514249224E+02  0.46191480300E+02 -0.14263765106E+03  0.17360269632E+03  0.00000000000E+00 0.  1.
         11    1    1    2    0    0  0.11755345966E+03  0.11614615573E+03 -0.48998128248E+03  0.51709805893E+03  0.00000000000E+00 0. -1.
</event>
<event>
 7    1  0.2334784E-009  0.1019952E+03  0.7561462E-02  0.1276155E+00
          2   -1    0    0  501    0  0.00000000000E+00  0.00000000000E+00  0.33571638171E+03  0.33571638171E+03  0.00000000000E+00 0. -1.
         -2   -1    0    0    0  501 -0.00000000000E+00 -0.00000000000E+00 -0.39032759807E+02  0.39032759807E+02  0.00000000000E+00 0.  1.
         25    2    1    2    0    0 -0.63459960549E+01  0.23571747459E+02  0.21781877067E+03  0.25236543700E+03  0.12508955988E+03 0.  0.
          5    1    3    3  502    0 -0.74713009706E+01  0.73830744938E+02  0.10360850434E+03  0.12751075957E+03  0.41800000000E+01 0. -1.
         -5    1    3    3    0  502  0.11253049157E+01 -0.50258997478E+02  0.11421026633E+03  0.12485467743E+03  0.41800000000E+01 0. -1.
        -11    1    1    2    0    0  0.40912818344E+02 -0.15274736676E+02  0.74784110465E+02  0.86601613515E+02  0.00000000000E+00 0. -1.
         11    1    1    2    0    0 -0.34566822289E+02 -0.82970107838E+01  0.40807407632E+01  0.35782090999E+02  0.00000000000E+00 0.  1.
</event>
<event>
 7    1  0.2334784E-009  0.1054231E+03  0.7561462E-02  0.1269288E+00
          1   -1    0    0  501    0  0.00000000000E+00  0.00000000000E+00  0.19607674397E+03  0.19607674397E+03  0.00000000000E+00 0. -1.
         -1   -1    0    0    0  501 -0.00000000000E+00 -0.00000000000E+00 -0.67236951668E+02  0.67236951668E+02  0.00000000000E+00 0.  1.
         25    2    1    2    0    0 -0.26436658069E+01 -0.34560048280E+02  0.78185417024E+02  0.15153125817E+03  0.12508947542E+03 0.  0.
          5    1    3    3  502    0 -0.45637021140E+02  0.16723414549E+02  0.68032339101E+02  0.83715481581E+02  0.41800000000E+01 0.  1.
         -5    1    3    3    0  502  0.42993355333E+02 -0.51283462829E+02  0.10153077923E+02  0.67815776585E+02  0.41800000000E+01 0.  1.
        -11    1    1    2    0    0 -0.25549949801E+02  0.54693033222E+02  0.15282678397E+02  0.62271085400E+02  0.00000000000E+00 0.  1.
         11    1    1    2    0    0  0.28193615608E+02 -0.20132984942E+02  0.35371696879E+02  0.49511352070E+02  0.00000000000E+00 0. -1.
</event>
<event>
 7    1  0.2334784E-009  0.8908693E+02  0.7561462E-02  0.1305078E+00
          1   -1    0    0  501    0  0.00000000000E+00  0.00000000000E+00  0.30880127517E+03  0.30880127517E+03  0.00000000000E+00 0. -1.
         -1   -1    0    0    0  501 -0.00000000000E+00 -0.00000000000E+00 -0.84836065268E+02  0.84836065268E+02  0.00000000000E+00 0.  1.
         25    2    1    2    0    0 -0.24590920553E+02  0.56587358791E+02  0.24775340479E+03  0.28431161670E+03  0.12507798871E+03 0.  0.
          5    1    3    3  502    0  0.94307460040E+01  0.66159809831E+02  0.23824304478E+03  0.24747379698E+03  0.41800000000E+01 0. -1.
         -5    1    3    3    0  502 -0.34021666557E+02 -0.95724510403E+01  0.95103600091E+01  0.36837819720E+02  0.41800000000E+01 0. -1.
        -11    1    1    2    0    0  0.35431724151E+02 -0.53822064114E+02 -0.49519445888E+02  0.81267442330E+02  0.00000000000E+00 0.  1.
         11    1    1    2    0    0 -0.10840803598E+02 -0.27652946765E+01  0.25731251002E+02  0.28058281405E+02  0.00000000000E+00 0. -1.
</event>
<event>
 7    1  0.2334784E-009  0.1004792E+03  0.7561462E-02  0.1279291E+00
         -2   -1    0    0    0  501 -0.00000000000E+00  0.00000000000E+00  0.35235781163E+02  0.35235781163E+02  0.00000000000E+00 0.  1.
          2   -1    0    0  501    0  0.00000000000E+00 -0.00000000000E+00 -0.54481320145E+03  0.54481320145E+03  0.00000000000E+00 0. -1.
         25    2    1    2    0    0 -0.55240262702E+01  0.67596554197E+01 -0.11305814131E+03  0.16883789246E+03  0.12509149774E+03 0.  0.
          5    1    3    3  502    0 -0.45558906668E+02  0.19700566713E+02 -0.11621342237E+03  0.12643875293E+03  0.41800000000E+01 0.  1.
         -5    1    3    3    0  502  0.40034880398E+02 -0.12940911293E+02  0.31552810600E+01  0.42399139522E+02  0.41800000000E+01 0.  1.
        -11    1    1    2    0    0  0.33540389011E+02  0.41319400144E+02 -0.18644245809E+03  0.19388924855E+03  0.00000000000E+00 0.  1.
         11    1    1    2    0    0 -0.28016362741E+02 -0.48079055563E+02 -0.21007682089E+03  0.21732184161E+03  0.00000000000E+00 0. -1.
</event>
<event>
 7    1  0.2334784E-009  0.1046691E+03  0.7561462E-02  0.1270773E+00
         -1   -1    0    0    0  501 -0.00000000000E+00  0.00000000000E+00  0.48627688647E+03  0.48627688647E+03  0.00000000000E+00 0. -1.
          1   -1    0    0  501    0  0.00000000000E+00 -0.00000000000E+00 -0.27993262117E+02  0.27993262117E+02  0.00000000000E+00 0.  1.
         25    2    1    2    0    0 -0.34476908413E+02  0.10484715378E+02  0.20668081593E+03  0.24426070237E+03  0.12509094523E+03 0.  0.
          5    1    3    3  502    0 -0.68539400514E+02 -0.21552057971E+02  0.17024739484E+03  0.18483448941E+03  0.41800000000E+01 0.  1.
         -5    1    3    3    0  502  0.34062492102E+02  0.32036773349E+02  0.36433421092E+02  0.59426212964E+02  0.41800000000E+01 0.  1.
        -11    1    1    2    0    0  0.44194602843E+02  0.26937863608E+02  0.19286194659E+03  0.19968610832E+03  0.00000000000E+00 0. -1.
         11    1    1    2    0    0 -0.97176944302E+01 -0.37422578986E+02  0.58740861841E+02  0.70323337896E+02  0.00000000000E+00 0.  1.
</event>
<event>
 7    1  0.2334784E-009  0.1593522E+03  0.7561462E-02  0.1189430E+00
          1   -1    0    0  501    0  0.00000000000E+00  0.00000000000E+00  0.37476222279E+02  0.37476222279E+02  0.00000000000E+00 0. -1.
         -1   -1    0    0    0  501 -0.00000000000E+00 -0.00000000000E+00 -0.10296285329E+04  0.10296285329E+04  0.00000000000E+00 0.  1.
         25    2    1    2    0    0  0.81522882945E+02 -0.10771470699E+03 -0.76675803620E+03  0.78855162483E+03  0.12508932968E+03 0.  0.
          5    1    3    3  502    0  0.11390235151E+03 -0.91539501013E+02 -0.65020910629E+03  0.66644023005E+03  0.41800000000E+01 0.  1.
         -5    1    3    3    0  502 -0.32379468560E+02 -0.16175205975E+02 -0.11654892991E+03  0.12211139478E+03  0.41800000000E+01 0.  1.
        -11    1    1    2    0    0 -0.53828175236E+02  0.57689532047E+02 -0.48428681992E+02  0.92579111016E+02  0.00000000000E+00 0. -1.
         11    1    1    2    0    0 -0.27694707709E+02  0.50025174941E+02 -0.17696559245E+03  0.18597401935E+03  0.00000000000E+00 0.  1.
</event>
<event>
 7    1  0.2334784E-009  0.5475487E+02  0.7561462E-02  0.1421262E+00
         -2   -1    0    0    0  501 -0.00000000000E+00  0.00000000000E+00  0.42059630368E+02  0.42059630368E+02  0.00000000000E+00 0.  1.
          2   -1    0    0  501    0  0.00000000000E+00 -0.00000000000E+00 -0.29514898427E+03  0.29514898427E+03  0.00000000000E+00 0. -1.
         25    2    1    2    0    0 -0.47209626260E+01  0.92894570457E+01 -0.18274248006E+03  0.22171537341E+03  0.12511719021E+03 0.  0.
          5    1    3    3  502    0  0.24444790625E+02 -0.20030402964E+02  0.23957307237E+01  0.31968371202E+02  0.41800000000E+01 0.  1.
         -5    1    3    3    0  502 -0.29165753251E+02  0.29319860010E+02 -0.18513821079E+03  0.18974700221E+03  0.41800000000E+01 0.  1.
        -11    1    1    2    0    0  0.19698867582E+02 -0.70395090968E+01 -0.89022846799E+02  0.91447620661E+02  0.00000000000E+00 0. -1.
         11    1    1    2    0    0 -0.14977904956E+02 -0.22499479489E+01  0.18675972958E+02  0.24045620570E+02  0.00000000000E+00 0.  1.
</event>
<event>
 7    1  0.2334784E-009  0.9662926E+02  0.7561462E-02  0.1287548E+00
         -4   -1    0    0    0  501 -0.00000000000E+00  0.00000000000E+00  0.28548523441E+02  0.28548523441E+02  0.00000000000E+00 0.  1.
          4   -1    0    0  501    0  0.00000000000E+00 -0.00000000000E+00 -0.49115820374E+03  0.49115820374E+03  0.00000000000E+00 0. -1.
         25    2    1    2    0    0 -0.48003684068E+01  0.36194426720E+02 -0.20005664290E+03  0.23875479034E+03  0.12509240376E+03 0.  0.
          5    1    3    3  502    0 -0.51308149638E+02  0.58614927680E+02 -0.13032629248E+03  0.15189025932E+03  0.41800000000E+01 0. -1.
         -5    1    3    3    0  502  0.46507781231E+02 -0.22420500960E+02 -0.69730350423E+02  0.86864531015E+02  0.41800000000E+01 0. -1.
        -11    1    1    2    0    0 -0.71036556415E+01 -0.46902357916E+02 -0.26052970573E+03  0.26481318070E+03  0.00000000000E+00 0. -1.
         11    1    1    2    0    0  0.11904024048E+02  0.10707931196E+02 -0.20233316689E+01  0.16138756151E+02  0.00000000000E+00 0.  1.
</event>
<event>
 7    1  0.2334784E-009  0.1308365E+03  0.7561462E-02  0.1226220E+00
         -2   -1    0    0    0  501 -0.00000000000E+00  0.00000000000E+00  0.27293655395E+02  0.27293655395E+02  0.00000000000E+00 0.  1.
          2   -1    0    0  501    0  0.00000000000E+00 -0.00000000000E+00 -0.78194181224E+03  0.78194181224E+03  0.00000000000E+00 0. -1.
         25    2    1    2    0    0  0.22271808763E+02  0.86848282099E+02 -0.31518250778E+03  0.35075997502E+03  0.12511550383E+03 0.  0.
          5    1    3    3  502    0  0.20172809917E+02  0.10899098820E+03 -0.16459676782E+03  0.19848311300E+03  0.41800000000E+01 0. -1.
         -5    1    3    3    0  502  0.20989988468E+01 -0.22142706099E+02 -0.15058573996E+03  0.15227686202E+03  0.41800000000E+01 0. -1.
        -11    1    1    2    0    0  0.32944899721E+02 -0.55728749876E+02 -0.26686572180E+03  0.27460585109E+03  0.00000000000E+00 0. -1.
         11    1    1    2    0    0 -0.55216708484E+02 -0.31119532223E+02 -0.17259992726E+03  0.18386964152E+03  0.00000000000E+00 0.  1.
</event>
<event>
 7    1  0.2334784E-009  0.1339624E+03  0.7561462E-02  0.1221692E+00
          2   -1    0    0  501    0  0.00000000000E+00  0.00000000000E+00  0.35080512079E+03  0.35080512079E+03  0.00000000000E+00 0. -1.
         -2   -1    0    0    0  501 -0.00000000000E+00 -0.00000000000E+00 -0.78827917024E+02  0.78827917024E+02  0.00000000000E+00 0.  1.
         25    2    1    2    0    0 -0.10713583403E+03  0.43312188062E+02  0.93807027947E+02  0.19442580292E+03  0.12509037446E+03 0.  0.
          5    1    3    3  502    0 -0.10176015462E+02 -0.18399633426E+02 -0.22346948168E+02  0.30967019445E+02  0.41800000000E+01 0.  1.
         -5    1    3    3    0  502 -0.96959818566E+02  0.61711821488E+02  0.11615397612E+03  0.16345878348E+03  0.41800000000E+01 0.  1.
        -11    1    1    2    0    0  0.99138711586E+02 -0.12831030462E+02  0.68712117923E+02  0.12130323420E+03  0.00000000000E+00 0.  1.
         11    1    1    2    0    0  0.79971224419E+01 -0.30481157601E+02  0.10945805789E+03  0.11390400069E+03  0.00000000000E+00 0. -1.
</event>
<event>
 7    1  0.2334784E-009  0.9975196E+02  0.7561462E-02  0.1280818E+00
          1   -1    0    0  501    0  0.00000000000E+00  0.00000000000E+00  0.17045849807E+03  0.17045849807E+03  0.00000000000E+00 0. -1.
         -1   -1    0    0    0  501 -0.00000000000E+00 -0.00000000000E+00 -0.72863151350E+02  0.72863151350E+02  0.00000000000E+00 0.  1.
         25    2    1    2    0    0 -0.80067388024E+01  0.28664009470E+02  0.21207196726E+02  0.13032013146E+03  0.12509139925E+03 0.  0.
          5    1    3    3  502    0 -0.50625518648E+02  0.49368059613E+02 -0.12622670800E+02  0.71951043539E+02  0.41800000000E+01 0.  1.
         -5    1    3    3    0  502  0.42618779845E+02 -0.20704050143E+02  0.33829867526E+02  0.58369087921E+02  0.41800000000E+01 0.  1.
        -11    1    1    2    0    0 -0.38113685421E+01 -0.53480572097E+02  0.62030332122E+02  0.81990610591E+02  0.00000000000E+00 0. -1.
         11    1    1    2    0    0  0.11818107345E+02  0.24816562627E+02  0.14357817872E+02  0.31010907369E+02  0.00000000000E+00 0.  1.
</event>
<event>
 7    1  0.2334784E-009  0.1337924E+03  0.7561462E-02  0.1221935E+00
         -1   -1    0    0    0  501 -0.00000000000E+00  0.00000000000E+00  0.76536107553E+02  0.76536107553E+02  0.00000000000E+00 0.  1.
          1   -1    0    0  501    0  0.00000000000E+00 -0.00000000000E+00 -0.29638674197E+03  0.29638674197E+03  0.00000000000E+00 0. -1.
         25    2    1    2    0    0  0.76237258606E+02 -0.78731248739E+02 -0.11740423735E+03  0.20357455786E+03  0.12509243195E+03 0.  0.
          5    1    3    3  502    0 -0.19797379360E+02  0.56884092234E+01 -0.59583775255E+02  0.63182219830E+02  0.41800000000E+01 0.  1.
         -5    1    3    3    0  502  0.96034637966E+02 -0.84419657962E+02 -0.57820462094E+02  0.14039233803E+03  0.41800000000E+01 0.  1.
        -11    1    1    2    0    0 -0.54007867388E+02  0.23128038803E+02 -0.91098275959E+02  0.10840042344E+03  0.00000000000E+00 0. -1.
         11    1    1    2    0    0 -0.22229391218E+02  0.55603209936E+02 -0.11348121110E+02  0.60947868231E+02  0.00000000000E+00 0.  1.
</event>
<event>
 7    1  0.2794867E-009  0.1569612E+03  0.7561462E-02  0.1192171E+00
         -2   -1    0    0    0  501 -0.00000000000E+00  0.00000000000E+00  0.11043585746E+03  0.11043585746E+03  0.00000000000E+00 0. -1.
          2   -1    0    0  501    0  0.00000000000E+00 -0.00000000000E+00 -0.29464710533E+03  0.29464710533E+03  0.00000000000E+00 0.  1.
         25    2    1    2    0    0 -0.79815539681E+02  0.99226999572E+02 -0.22618634020E+02  0.17993451888E+03  0.12509320789E+03 0.  0.
          5    1    3    3  502    0 -0.38779658844E+02 -0.25101427490E+02  0.29229396492E+01  0.46475365285E+02  0.41800000000E+01 0.  1.
         -5    1    3    3    0  502 -0.41035880836E+02  0.12432842706E+03 -0.25541573669E+02  0.13345915359E+03  0.41800000000E+01 0.  1.
        -11    1    1    2    0    0  0.19037804668E+02 -0.62950014975E+02 -0.23258009685E+02  0.69757274936E+02  0.00000000000E+00 0. -1.
         11    1    1    2    0    0  0.60777735013E+02 -0.36276984597E+02 -0.13833460416E+03  0.15539116897E+03  0.00000000000E+00 0.  1.
</event>
<event>
 7    1  0.2334784E-009  0.1220901E+03  0.7561462E-02  0.1239688E+00
         -1   -1    0    0    0  501 -0.00000000000E+00  0.00000000000E+00  0.37531632330E+02  0.37531632330E+02  0.00000000000E+00 0.  1.
          1   -1    0    0  501    0  0.00000000000E+00 -0.00000000000E+00 -0.67965563203E+03  0.67965563203E+03  0.00000000000E+00 0. -1.
         25    2    1    2    0    0  0.34923614983E+02 -0.10977362832E+03 -0.35555158093E+03  0.39412476032E+03  0.12508993422E+03 0.  0.
          5    1    3    3  502    0 -0.26112584816E+01 -0.39883670752E+02 -0.12634888780E+02  0.42126460544E+02  0.41800000000E+01 0.  1.
         -5    1    3    3    0  502  0.37534873464E+02 -0.69889957571E+02 -0.34291669215E+03  0.35199829978E+03  0.41800000000E+01 0.  1.
        -11    1    1    2    0    0  0.10838454737E+02  0.37270046605E+02 -0.21290700591E+02  0.44269881485E+02  0.00000000000E+00 0.  1.
         11    1    1    2    0    0 -0.45762069719E+02  0.72503581717E+02 -0.26528171818E+03  0.27879262255E+03  0.00000000000E+00 0. -1.
</event>
<event>
 7    1  0.2334784E-009  0.9681954E+02  0.7561462E-02  0.1287130E+00
         -2   -1    0    0    0  501 -0.00000000000E+00  0.00000000000E+00  0.30554923615E+02  0.30554923615E+02  0.00000000000E+00 0.  1.
          2   -1    0    0  501    0  0.00000000000E+00 -0.00000000000E+00 -0.47560152352E+03  0.47560152352E+03  0.00000000000E+00 0. -1.
         25    2    1    2    0    0  0.44079141297E+02  0.18237720769E+02 -0.26300086995E+03  0.29511473856E+03  0.12509063180E+03 0.  0.
          5    1    3    3  502    0  0.64316373405E+02  0.32014034353E+01 -0.26168562580E+03  0.26952492282E+03  0.41800000000E+01 0. -1.
         -5    1    3    3    0  502 -0.20237232108E+02  0.15036317333E+02 -0.13152441514E+01  0.25589815738E+02  0.41800000000E+01 0. -1.
        -11    1    1    2    0    0 -0.13867338606E+02 -0.54566983513E+02 -0.72920952063E+02  0.92126673768E+02  0.00000000000E+00 0. -1.
         11    1    1    2    0    0 -0.30211802691E+02  0.36329262745E+02 -0.10912477789E+03  0.11891503481E+03  0.00000000000E+00 0.  1.
</event>
<event>
 7    1  0.2334784E-009  0.9539972E+02  0.7561462E-02  0.1290278E+00
         -2   -1    0    0    0  501 -0.00000000000E+00  0.00000000000E+00  0.20639220764E+02  0.20639220764E+02  0.00000000000E+00 0.  1.
          2   -1    0    0  501    0  0.00000000000E+00 -0.00000000000E+00 -0.71160138142E+03  0.71160138142E+03  0.00000000000E+00 0. -1.
         25    2    1    2    0    0  0.22262887199E+02 -0.46989235006E+02 -0.43274057631E+03  0.45344847979E+03  0.12508994000E+03 0.  0.
          5    1    3    3  502    0 -0.15408930311E+02  0.88195373286E+01 -0.30486801662E+01  0.18492869512E+02  0.41800000000E+01 0.  1.
         -5    1    3    3    0  502  0.37671817510E+02 -0.55808772335E+02 -0.42969189614E+03  0.43495561028E+03  0.41800000000E+01 0.  1.
        -11    1    1    2    0    0  0.29547871424E+02 -0.68980383976E+01 -0.73152047121E+02  0.79195212213E+02  0.00000000000E+00 0.  1.
         11    1    1    2    0    0 -0.51810758623E+02  0.53887273404E+02 -0.18506953723E+03  0.19959691018E+03  0.00000000000E+00 0. -1.
</event>
<event>
 7    1  0.2334784E-009  0.6807560E+02  0.7561462E-02  0.1366762E+00
         -1   -1    0    0    0  501 -0.00000000000E+00  0.00000000000E+00  0.78506447009E+02  0.78506447009E+02  0.00000000000E+00 0.  1.
          1   -1    0    0  501    0  0.00000000000E+00 -0.00000000000E+00 -0.19439064640E+03  0.19439064640E+03  0.00000000000E+00 0. -1.
         25    2    1    2    0    0 -0.46507051248E+02  0.70784613611E+01 -0.60534809587E+02  0.14671243640E+03  0.12508823043E+03 0.  0.
          5    1    3    3  502    0 -0.20743219011E+01 -0.15668197447E+02 -0.88054505404E+02  0.89559273917E+02  0.41800000000E+01 0.  1.
         -5    1    3    3    0  502 -0.44432729347E+02  0.22746658808E+02  0.27519695817E+02  0.57153162485E+02  0.41800000000E+01 0.  1.
        -11    1    1    2    0    0  0.13206940235E+02  0.21895960169E+02  0.24201789387E+02  0.35207711536E+02  0.00000000000E+00 0. -1.
         11    1    1    2    0    0  0.33300111013E+02 -0.28974421530E+02 -0.79551179197E+02  0.90976945476E+02  0.00000000000E+00 0.  1.
</event>
<event>
 7    1  0.2334784E-009  0.1106614E+03  0.7561462E-02  0.1259350E+00
          1   -1    0    0  501    0  0.00000000000E+00  0.00000000000E+00  0.30533677440E+02  0.30533677440E+02  0.00000000000E+00 0. -1.
         -1   -1    0    0    0  501 -0.00000000000E+00 -0.00000000000E+00 -0.72100678713E+03  0.72100678713E+03  0.00000000000E+00 0.  1.
         25    2    1    2    0    0 -0.74380563684E+02 -0.63909607213E+02 -0.43842154186E+03  0.46634522704E+03  0.12509003266E+03 0.  0.
          5    1    3    3  502    0 -0.70538791785E+02 -0.58759060491E+02 -0.13784858445E+03  0.16567453929E+03  0.41800000000E+01 0. -1.
         -5    1    3    3    0  502 -0.38417718985E+01 -0.51505467210E+01 -0.30057295741E+03  0.30067068775E+03  0.41800000000E+01 0. -1.
        -11    1    1    2    0    0  0.32240153113E+02 -0.12433704969E+02 -0.13427696422E+03  0.13865182152E+03  0.00000000000E+00 0.  1.
         11    1    1    2    0    0  0.42140410571E+02  0.76343312182E+02 -0.11777460361E+03  0.14654341600E+03  0.00000000000E+00 0. -1.
</event>
<event>
 7    1  0.2334784E-009  0.1019762E+03  0.7561462E-02  0.1276194E+00
          2   -1    0    0  501    0  0.00000000000E+00  0.00000000000E+00  0.70078832811E+03  0.70078832811E+03  0.00000000000E+00 0. -1.
         -2   -1    0    0    0  501 -0.00000000000E+00 -0.00000000000E+00 -0.17444012641E+02  0.17444012641E+02  0.00000000000E+00 0.  1.
         25    2    1    2    0    0 -0.49497522403E+01  0.36850452168E+01  0.45065979025E+03  0.46773932870E+03  0.12509098072E+03 0.  0.
          5    1    3    3  502    0 -0.38440576352E+02  0.52658572801E+02  0.25529129640E+03  0.26351797209E+03  0.41800000000E+01 0. -1.
         -5    1    3    3    0  502  0.33490824111E+02 -0.48973527585E+02  0.19536849385E+03  0.20422135661E+03  0.41800000000E+01 0. -1.
        -11    1    1    2    0    0  0.34498545015E+02 -0.25090425434E+02  0.57765653896E+02  0.71809120776E+02  0.00000000000E+00 0.  1.
         11    1    1    2    0    0 -0.29548792775E+02  0.21405380217E+02  0.17491887132E+03  0.17868389127E+03  0.00000000000E+00 0. -1.
</event>
<event>
 7    1  0.2334784E-009  0.9156466E+02  0.7561462E-02  0.1299106E+00
          2   -1    0    0  501    0  0.00000000000E+00  0.00000000000E+00  0.79904366210E+02  0.79904366210E+02  0.00000000000E+00 0. -1.
         -2   -1    0    0    0  501 -0.00000000000E+00 -0.00000000000E+00 -0.19966525755E+03  0.19966525755E+03  0.00000000000E+00 0.  1.
         25    2    1    2    0    0 -0.24722127087E+02 -0.55961752361E+02 -0.41824477766E+02  0.14539469150E+03  0.12508968016E+03 0.  0.
          5    1    3    3  502    0 -0.27642681782E+02 -0.13008245437E+02  0.41387749301E+02  0.51611534541E+02  0.41800000000E+01 0.  1.
         -5    1    3    3    0  502  0.29205546945E+01 -0.42953506924E+02 -0.83212227066E+02  0.93783156964E+02  0.41800000000E+01 0.  1.
        -11    1    1    2    0    0 -0.19392208912E+02 -0.15657192730E+02 -0.14647849880E+02  0.28909599734E+02  0.00000000000E+00 0.  1.
         11    1    1    2    0    0  0.44114335999E+02  0.71618945091E+02 -0.63288563696E+02  0.10526533252E+03  0.00000000000E+00 0. -1.
</event>
<event>
 7    1  0.2334784E-009  0.9917235E+02  0.7561462E-02  0.1282046E+00
         -1   -1    0    0    0  501 -0.00000000000E+00  0.00000000000E+00  0.29674955321E+02  0.29674955321E+02  0.00000000000E+00 0.  1.
          1   -1    0    0  501    0  0.00000000000E+00 -0.00000000000E+00 -0.44805640126E+03  0.44805640126E+03  0.00000000000E+00 0. -1.
         25    2    1    2    0    0 -0.22420300337E+02 -0.32872982767E+02 -0.25930829188E+03  0.29064141319E+03  0.12509331700E+03 0.  0.
          5    1    3    3  502    0  0.23488894945E+02 -0.53464719068E+02 -0.55497430325E+02  0.80669954403E+02  0.41800000000E+01 0. -1.
         -5    1    3    3    0  502 -0.45909195282E+02  0.20591736301E+02 -0.20381086156E+03  0.20997145878E+03  0.41800000000E+01 0. -1.
        -11    1    1    2    0    0  0.51111549216E+02  0.32588074292E+02 -0.65627183600E+02  0.89338123310E+02  0.00000000000E+00 0.  1.
         11    1    1    2    0    0 -0.28691248880E+02  0.28490847487E+00 -0.93445970459E+02  0.97751820086E+02  0.00000000000E+00 0. -1.
</event>
<event>
 7    1  0.2334784E-009  0.1368250E+03  0.7561462E-02  0.1217666E+00
         -1   -1    0    0    0  501 -0.00000000000E+00  0.00000000000E+00  0.48836990494E+02  0.48836990494E+02  0.00000000000E+00 0.  1.
          1   -1    0    0  501    0  0.00000000000E+00 -0.00000000000E+00 -0.47236794273E+03  0.47236794273E+03  0.00000000000E+00 0. -1.
         25    2    1    2    0    0  0.15890260053E+02 -0.10524098942E+03 -0.22838714196E+03  0.28131037207E+03  0.12508666038E+03 0.  0.
          5    1    3    3  502    0 -0.16856852561E+02 -0.12176678856E+03 -0.19977161363E+03  0.23460066983E+03  0.41800000000E+01 0. -1.
         -5    1    3    3    0  502  0.32747112614E+02  0.16525799138E+02 -0.28615528328E+02  0.46709702238E+02  0.41800000000E+01 0. -1.
        -11    1    1    2    0    0 -0.19614192611E+02  0.18662215159E+02 -0.77782306865E+00  0.27085048184E+02  0.00000000000E+00 0.  1.
         11    1    1    2    0    0  0.37239325580E+01  0.86578774260E+02 -0.19436598721E+03  0.21280951297E+03  0.00000000000E+00 0. -1.
</event>
<event>
 7    1  0.2334784E-009  0.1234627E+03  0.7561462E-02  0.1237492E+00
          1   -1    0    0  501    0  0.00000000000E+00  0.00000000000E+00  0.75554899347E+03  0.75554899347E+03  0.00000000000E+00 0. -1.
         -1   -1    0    0    0  501 -0.00000000000E+00 -0.00000000000E+00 -0.22974503605E+02  0.22974503605E+02  0.00000000000E+00 0.  1.
         25    2    1    2    0    0  0.60232709549E+02  0.43700990290E+02  0.43873184031E+03  0.46224518630E+03  0.12508888322E+03 0.  0.
          5    1    3    3  502    0  0.21507851959E+01 -0.41137131351E+02  0.15482095481E+03  0.16026194152E+03  0.41800000000E+01 0. -1.
         -5    1    3    3    0  502  0.58081924354E+02  0.84838121642E+02  0.28391088550E+03  0.30198324478E+03  0.41800000000E+01 0. -1.
        -11    1    1    2    0    0 -0.59131950749E+02 -0.22720259114E+00  0.23942296286E+03  0.24661710072E+03  0.00000000000E+00 0. -1.
         11    1    1    2    0    0 -0.11007588003E+01 -0.43473787699E+02  0.54419686688E+02  0.69661210053E+02  0.00000000000E+00 0.  1.
</event>
<event>
 7    1  0.2334784E-009  0.1294724E+03  0.7561462E-02  0.1228241E+00
          2   -1    0    0  501    0  0.00000000000E+00  0.00000000000E+00  0.77677941561E+02  0.77677941561E+02  0.00000000000E+00 0. -1.
         -2   -1    0    0    0  501 -0.00000000000E+00 -0.00000000000E+00 -0.24348750912E+03  0.24348750912E+03  0.00000000000E+00 0.  1.
         25    2    1    2    0    0  0.82012761212E+02 -0.20192844766E+02 -0.11796871129E+03  0.19156640507E+03  0.12508887532E+03 0.  0.
          5    1    3    3  502    0 -0.76425747670E+01  0.33031949210E+02 -0.67505700333E+02  0.75657191298E+02  0.41800000000E+01 0. -1.
         -5    1    3    3    0  502  0.89655335979E+02 -0.53224793976E+02 -0.50463010953E+02  0.11590921377E+03  0.41800000000E+01 0. -1.
        -11    1    1    2    0    0 -0.47388731842E+02 -0.32444977612E+02 -0.21988196631E+02  0.61496741938E+02  0.00000000000E+00 0.  1.
         11    1    1    2    0    0 -0.34624029370E+02  0.52637822378E+02 -0.25852659641E+02  0.68102303669E+02  0.00000000000E+00 0. -1.
</event>
<event>
 7    1  0.2334784E-009  0.1029473E+03  0.7561462E-02  0.1274218E+00
          3   -1    0    0  501    0  0.00000000000E+00  0.00000000000E+00  0.32293059963E+03  0.32293059963E+03  0.00000000000E+00 0. -1.
         -3   -1    0    0    0  501 -0.00000000000E+00 -0.00000000000E+00 -0.47455948275E+02  0.47455948275E+02  0.00000000000E+00 0.  1.
         25    2    1    2    0    0 -0.43946870699E+02 -0.41950519570E+02  0.12280992011E+03  0.18552885409E+03  0.12508999034E+03 0.  0.
          5    1    3    3  502    0 -0.85549836341E+02 -0.18945912346E+02  0.58472830029E+02  0.10542422086E+03  0.41800000000E+01 0.  1.
         -5    1    3    3    0  502  0.41602965643E+02 -0.23004607224E+02  0.64337090086E+02  0.80104633227E+02  0.41800000000E+01 0.  1.
        -11    1    1    2    0    0  0.20503309606E+02 -0.20372370881E+01 -0.35282097979E+01  0.20904169539E+02  0.00000000000E+00 0.  1.
         11    1    1    2    0    0  0.23443561093E+02  0.43987756658E+02  0.15619294104E+03  0.16395352428E+03  0.00000000000E+00 0. -1.
</event>
<event>
 7    1  0.2334784E-009  0.8883945E+02  0.7561462E-02  0.1305687E+00
          4   -1    0    0  501    0  0.00000000000E+00  0.00000000000E+00  0.18589682639E+03  0.18589682639E+03  0.00000000000E+00 0. -1.
         -4   -1    0    0    0  501 -0.00000000000E+00 -0.00000000000E+00 -0.95552741090E+02  0.95552741090E+02  0.00000000000E+00 0.  1.
         25    2    1    2    0    0 -0.45487536655E+02  0.16475334219E+02  0.11434871169E+03  0.17624620505E+03  0.12508614752E+03 0.  0.
          5    1    3    3  502    0 -0.58812951122E+02  0.80231805397E+01  0.13639744682E+03  0.14881219891E+03  0.41800000000E+01 0. -1.
         -5    1    3    3    0  502  0.13325414467E+02  0.84521536796E+01 -0.22048735125E+02  0.27434006145E+02  0.41800000000E+01 0. -1.
        -11    1    1    2    0    0 -0.26877217794E+02  0.26304645446E+01 -0.11362903878E+02  0.29298801419E+02  0.00000000000E+00 0.  1.
         11    1    1    2    0    0  0.72364754448E+02 -0.19105798764E+02 -0.12641722520E+02  0.75904561003E+02  0.00000000000E+00 0. -1.
</event>
<event>
 7    1  0.2334784E-009  0.1303437E+03  0.7561462E-02  0.1226947E+00
         -3   -1    0    0    0  501 -0.00000000000E+00  0.00000000000E+00  0.76907045966E+02  0.76907045966E+02  0.00000000000E+00 0.  1.
          3   -1    0    0  501    0  0.00000000000E+00 -0.00000000000E+00 -0.25189512651E+03  0.25189512651E+03  0.00000000000E+00 0. -1.
         25    2    1    2    0    0 -0.16549169559E+02  0.81375301126E+02 -0.69331497204E+02  0.16537350606E+03  0.12508287395E+03 0.  0.
          5    1    3    3  502    0  0.19766975870E+02  0.10378439456E+03 -0.38344973286E+02  0.11247107746E+03  0.41800000000E+01 0.  1.
         -5    1    3    3    0  502 -0.36316145429E+02 -0.22409093431E+02 -0.30986523919E+02  0.52902428600E+02  0.41800000000E+01 0.  1.
        -11    1    1    2    0    0  0.46190215639E+02 -0.59046316634E+02 -0.10135946507E+03  0.12607039576E+03  0.00000000000E+00 0. -1.
         11    1    1    2    0    0 -0.29641046080E+02 -0.22328984493E+02 -0.42971182758E+01  0.37358270659E+02  0.00000000000E+00 0.  1.
</event>
<event>
 7    1  0.2334784E-009  0.2923626E+03  0.7561462E-02  0.1089122E+00
          1   -1    0    0  501    0  0.00000000000E+00  0.00000000000E+00  0.25710148086E+03  0.25710148086E+03  0.00000000000E+00 0. -1.
         -1   -1    0    0    0  501 -0.00000000000E+00 -0.00000000000E+00 -0.37619927343E+03  0.37619927343E+03  0.00000000000E+00 0.  1.
         25    2    1    2    0    0  0.23071732505E+03  0.17355406656E+03 -0.10198844045E+03  0.33075743950E+03  0.12508934288E+03 0.  0.
          5    1    3    3  502    0  0.17896279187E+03  0.14870787698E+03 -0.24183444532E+02  0.23397441087E+03  0.41800000000E+01 0. -1.
         -5    1    3    3    0  502  0.51754533171E+02  0.24846189579E+02 -0.77804995923E+02  0.96783028631E+02  0.41800000000E+01 0. -1.
        -11    1    1    2    0    0 -0.13538664680E+03 -0.65666883198E+02 -0.42482923694E+02  0.15635370954E+03  0.00000000000E+00 0.  1.
         11    1    1    2    0    0 -0.95330678248E+02 -0.10788718336E+03  0.25373571581E+02  0.14618960525E+03  0.00000000000E+00 0. -1.
</event>
<event>
 7    1  0.2334784E-009  0.9436692E+02  0.7561462E-02  0.1292608E+00
          4   -1    0    0  501    0  0.00000000000E+00  0.00000000000E+00  0.62057186557E+03  0.62057186557E+03  0.00000000000E+00 0. -1.
         -4   -1    0    0    0  501 -0.00000000000E+00 -0.00000000000E+00 -0.18471332674E+02  0.18471332674E+02  0.00000000000E+00 0.  1.
         25    2    1    2    0    0  0.43578528464E+00 -0.92285433753E+01  0.41138656486E+03  0.43008321981E+03  0.12508922533E+03 0.  0.
          5    1    3    3  502    0  0.21251934966E+02  0.49341736703E+02  0.27375404078E+03  0.27900716651E+03  0.41800000000E+01 0. -1.
         -5    1    3    3    0  502 -0.20816149682E+02 -0.58570280078E+02  0.13763252408E+03  0.15107605330E+03  0.41800000000E+01 0. -1.
        -11    1    1    2    0    0 -0.28433667178E+02  0.27142961091E+02  0.46140768148E+02  0.60615049709E+02  0.00000000000E+00 0. -1.
         11    1    1    2    0    0  0.27997881894E+02 -0.17914417716E+02  0.14457319989E+03  0.14834492873E+03  0.00000000000E+00 0.  1.
</event>
<event>
 7    1  0.2334784E-009  0.1571551E+03  0.7561462E-02  0.1191947E+00
          2   -1    0    0  501    0  0.00000000000E+00  0.00000000000E+00  0.32950960394E+03  0.32950960394E+03  0.00000000000E+00 0.  1.
         -2   -1    0    0    0  501 -0.00000000000E+00 -0.00000000000E+00 -0.90447032687E+02  0.90447032687E+02  0.00000000000E+00 0. -1.
         25    2    1    2    0    0  0.35041134674E+02  0.11519442222E+03  0.19970061502E+03  0.26462424146E+03  0.12509203611E+03 0.  0.
          5    1    3    3  502    0  0.57025714374E+02  0.12681345645E+03  0.12959064275E+03  0.19011783695E+03  0.41800000000E+01 0. -1.
         -5    1    3    3    0  502 -0.21984579700E+02 -0.11619034234E+02  0.70109972278E+02  0.74506404516E+02  0.41800000000E+01 0. -1.
        -11    1    1    2    0    0 -0.64531344570E+02 -0.63876106497E+02  0.28407325167E+02  0.95138990621E+02  0.00000000000E+00 0.  1.
         11    1    1    2    0    0  0.29490209895E+02 -0.51318315724E+02  0.10954631058E+02  0.60193404539E+02  0.00000000000E+00 0. -1.
</event>
<event>
 7    1  0.2334784E-009  0.1096247E+03  0.7561462E-02  0.1261267E+00
          1   -1    0    0  501    0  0.00000000000E+00  0.00000000000E+00  0.36144472255E+02  0.36144472255E+02  0.00000000000E+00 0. -1.
         -1   -1    0    0    0  501 -0.00000000000E+00 -0.00000000000E+00 -0.38351853527E+03  0.38351853527E+03  0.00000000000E+00 0.  1.
         25    2    1    2    0    0 -0.17946185890E+02  0.42356768181E+02 -0.18404886639E+03  0.22723115902E+03  0.12507538930E+03 0.  0.
          5    1    3    3  502    0  0.50463680442E+02  0.16986721848E+02 -0.43758526692E+02  0.69046454081E+02  0.41800000000E+01 0.  1.
         -5    1    3    3    0  502 -0.68409866332E+02  0.25370046333E+02 -0.14029033970E+03  0.15818470494E+03  0.41800000000E+01 0.  1.
        -11    1    1    2    0    0  0.34954677080E+02  0.11088158222E+02 -0.28621693415E+02  0.46518577327E+02  0.00000000000E+00 0. -1.
         11    1    1    2    0    0 -0.17008491190E+02 -0.53444926403E+02 -0.13470350320E+03  0.14591327118E+03  0.00000000000E+00 0.  1.
</event>
<event>
 7    1  0.2334784E-009  0.1109773E+03  0.7561462E-02  0.1258771E+00
         -2   -1    0    0    0  501 -0.00000000000E+00  0.00000000000E+00  0.31794233067E+02  0.31794233067E+02  0.00000000000E+00 0.  1.
          2   -1    0    0  501    0  0.00000000000E+00 -0.00000000000E+00 -0.46666801815E+03  0.46666801815E+03  0.00000000000E+00 0. -1.
         25    2    1    2    0    0  0.53789952384E+02 -0.51171244697E+01 -0.22360047267E+03  0.26184915278E+03  0.12509301935E+03 0.  0.
          5    1    3    3  502    0  0.64349889080E+02 -0.51467874419E+02 -0.17633243381E+03  0.19468037892E+03  0.41800000000E+01 0. -1.
         -5    1    3    3    0  502 -0.10559936696E+02  0.46350749950E+02 -0.47268038858E+02  0.67168773857E+02  0.41800000000E+01 0. -1.
        -11    1    1    2    0    0 -0.20573881179E+02  0.39114894235E+02 -0.42649704328E+02  0.61418700874E+02  0.00000000000E+00 0.  1.
         11    1    1    2    0    0 -0.33216071204E+02 -0.33997769765E+02 -0.16862360809E+03  0.17519439757E+03  0.00000000000E+00 0. -1.
</event>
<event>
 7    1  0.2334784E-009  0.1141015E+03  0.7561462E-02  0.1253158E+00
          1   -1    0    0  501    0  0.00000000000E+00  0.00000000000E+00  0.70729193042E+03  0.70729193042E+03  0.00000000000E+00 0. -1.
         -1   -1    0    0    0  501 -0.00000000000E+00 -0.00000000000E+00 -0.18998494303E+02  0.18998494303E+02  0.00000000000E+00 0.  1.
         25    2    1    2    0    0  0.17971619540E+01 -0.37536105909E+02  0.36341643856E+03  0.38617658915E+03  0.12509460880E+03 0.  0.
          5    1    3    3  502    0 -0.25841557722E+02 -0.76168846980E+02  0.19098994201E+03  0.20727785629E+03  0.41800000000E+01 0.  1.
         -5    1    3    3    0  502  0.27638719676E+02  0.38632741071E+02  0.17242649655E+03  0.17889873286E+03  0.41800000000E+01 0.  1.
        -11    1    1    2    0    0 -0.42434987425E+02  0.41236205728E+02  0.21131995863E+03  0.21944766514E+03  0.00000000000E+00 0.  1.
         11    1    1    2    0    0  0.40637825471E+02 -0.37000998183E+01  0.11355703893E+03  0.12066617043E+03  0.00000000000E+00 0. -1.
</event>
<event>
 7    1  0.2334784E-009  0.1316343E+03  0.7561462E-02  0.1225051E+00
          1   -1    0    0  501    0  0.00000000000E+00  0.00000000000E+00  0.67688485500E+03  0.67688485500E+03  0.00000000000E+00 0. -1.
         -1   -1    0    0    0  501 -0.00000000000E+00 -0.00000000000E+00 -0.32915450838E+02  0.32915450838E+02  0.00000000000E+00 0.  1.
         25    2    1    2    0    0  0.58141561095E+02 -0.83364867468E+02  0.36927802225E+03  0.40291958438E+03  0.12509113279E+03 0.  0.
          5    1    3    3  502    0  0.79258686980E+02 -0.52703457974E+02  0.13250620929E+03  0.16320221152E+03  0.41800000000E+01 0. -1.
         -5    1    3    3    0  502 -0.21117125885E+02 -0.30661409494E+02  0.23677181296E+03  0.23971737286E+03  0.41800000000E+01 0. -1.
        -11    1    1    2    0    0  0.12276202060E+02  0.52026079080E+02  0.16002682666E+03  0.16871871056E+03  0.00000000000E+00 0. -1.
         11    1    1    2    0    0 -0.70417763156E+02  0.31338788388E+02  0.11466455525E+03  0.13816201090E+03  0.00000000000E+00 0.  1.
</event>
<event>
 7    1  0.2334784E-009  0.9587255E+02  0.7561462E-02  0.1289223E+00
         -2   -1    0    0    0  501 -0.00000000000E+00  0.00000000000E+00  0.66976378279E+03  0.66976378279E+03  0.00000000000E+00 0.  1.
          2   -1    0    0  501    0  0.00000000000E+00 -0.00000000000E+00 -0.20500899499E+02  0.20500899499E+02  0.00000000000E+00 0. -1.
         25    2    1    2    0    0 -0.85792989469E+01  0.44484061246E+02  0.35393422238E+03  0.37811287008E+03  0.12508985840E+03 0.  0.
          5    1    3    3  502    0 -0.57210876958E+02  0.49363436415E+02  0.27460206298E+03  0.28483960168E+03  0.41800000000E+01 0. -1.
         -5    1    3    3    0  502  0.48631578011E+02 -0.48793751682E+01  0.79332159403E+02  0.93273268397E+02  0.41800000000E+01 0. -1.
        -11    1    1    2    0    0  0.23457281439E+02 -0.46418397483E+02  0.29224276462E+03  0.29683454171E+03  0.00000000000E+00 0.  1.
         11    1    1    2    0    0 -0.14877982492E+02  0.19343362365E+01  0.30858962918E+01  0.15317270502E+02  0.00000000000E+00 0. -1.
</event>
<event>
 7    1  0.2334784E-009  0.8229685E+02  0.7561462E-02  0.1322657E+00
         -2   -1    0    0    0  501 -0.00000000000E+00  0.00000000000E+00  0.10562090532E+02  0.10562090532E+02  0.00000000000E+00 0.  1.
          2   -1    0    0  501    0  0.00000000000E+00 -0.00000000000E+00 -0.19679147125E+04  0.19679147125E+04  0.00000000000E+00 0. -1.
         25    2    1    2    0    0 -0.31864973368E+02  0.47186575449E+01 -0.16719623795E+04  0.16769444239E+04  0.12508701023E+03 0.  0.
          5    1    3    3  502    0  0.30380729947E+02 -0.15659368458E+02 -0.11940915446E+04  0.11945879180E+04  0.41800000000E+01 0.  1.
         -5    1    3    3    0  502 -0.62245703315E+02  0.20378026003E+02 -0.47787083485E+03  0.48235650584E+03  0.41800000000E+01 0.  1.
        -11    1    1    2    0    0 -0.16239990772E+02 -0.63709746251E+00 -0.49826185918E+01  0.16999108256E+02  0.00000000000E+00 0.  1.
         11    1    1    2    0    0  0.48104964140E+02 -0.40815600823E+01 -0.28040762390E+03  0.28453327090E+03  0.00000000000E+00 0. -1.
</event>
<event>
 7    1  0.2334784E-009  0.1252082E+03  0.7561462E-02  0.1234744E+00
         -1   -1    0    0    0  501 -0.00000000000E+00  0.00000000000E+00  0.41584733909E+03  0.41584733909E+03  0.00000000000E+00 0.  1.
          1   -1    0    0  501    0  0.00000000000E+00 -0.00000000000E+00 -0.51793930762E+02  0.51793930762E+02  0.00000000000E+00 0. -1.
         25    2    1    2    0    0  0.71065609419E+02 -0.40314525653E+02  0.28299204498E+03  0.32001172226E+03  0.12508966001E+03 0.  0.
          5    1    3    3  502    0  0.43492291277E+02 -0.74905098836E+02  0.10313065972E+03  0.13474330635E+03  0.41800000000E+01 0.  1.
         -5    1    3    3    0  502  0.27573318142E+02  0.34590573183E+02  0.17986138526E+03  0.18526841591E+03  0.41800000000E+01 0.  1.
        -11    1    1    2    0    0 -0.26347952674E+02  0.63605802480E+02  0.65078585297E+02  0.94737189021E+02  0.00000000000E+00 0.  1.
         11    1    1    2    0    0 -0.44717656745E+02 -0.23291276827E+02  0.15982778056E+02  0.52892358573E+02  0.00000000000E+00 0. -1.
</event>
<event>
 7    1  0.2334784E-009  0.2014736E+03  0.7561462E-02  0.1148502E+00
         -2   -1    0    0    0  501 -0.00000000000E+00  0.00000000000E+00  0.10998536165E+03  0.10998536165E+03  0.00000000000E+00 0.  1.
          2   -1    0    0  501    0  0.00000000000E+00 -0.00000000000E+00 -0.96696653978E+03  0.96696653978E+03  0.00000000000E+00 0. -1.
         25    2    1    2    0    0 -0.16692187728E+03 -0.84294744619E+02 -0.83816587818E+03  0.86783512628E+03  0.12508896823E+03 0.  0.
          5    1    3    3  502    0 -0.38870976168E+02  0.14659314468E+02 -0.60567087403E+02  0.73564208453E+02  0.41800000000E+01 0. -1.
         -5    1    3    3    0  502 -0.12805090112E+03 -0.98954059087E+02 -0.77759879078E+03  0.79427091783E+03  0.41800000000E+01 0. -1.
        -11    1    1    2    0    0  0.16351412914E+02  0.38660701107E+02 -0.29678335090E+02  0.51408385386E+02  0.00000000000E+00 0.  1.
         11    1    1    2    0    0  0.15057046437E+03  0.45634043513E+02  0.10863035143E+02  0.15770838976E+03  0.00000000000E+00 0. -1.
</event>
<event>
 7    1  0.2334784E-009  0.2226873E+03  0.7561462E-02  0.1131895E+00
         -4   -1    0    0    0  501 -0.00000000000E+00  0.00000000000E+00  0.54832001290E+02  0.54832001290E+02  0.00000000000E+00 0.  1.
          4   -1    0    0  501    0  0.00000000000E+00 -0.00000000000E+00 -0.98872931951E+03  0.98872931951E+03  0.00000000000E+00 0. -1.
         25    2    1    2    0    0 -0.78618299800E+02  0.17889085102E+03 -0.52461347309E+03  0.57362842297E+03  0.12508995905E+03 0.  0.
          5    1    3    3  502    0 -0.74217400714E+02  0.58105926234E+02 -0.12819425175E+03  0.15917210752E+03  0.41800000000E+01 0.  1.
         -5    1    3    3    0  502 -0.44008990861E+01  0.12078492478E+03 -0.39641922134E+03  0.41445631545E+03  0.41800000000E+01 0.  1.
        -11    1    1    2    0    0  0.91634382406E+02 -0.57891696580E+02 -0.17299242765E+03  0.20414379392E+03  0.00000000000E+00 0. -1.
         11    1    1    2    0    0 -0.13016082606E+02 -0.12099915444E+03 -0.23629141748E+03  0.26578910391E+03  0.00000000000E+00 0.  1.
</event>
<event>
 7    1  0.2334784E-009  0.8450757E+02  0.7561462E-02  0.1316725E+00
         -1   -1    0    0    0  501 -0.00000000000E+00  0.00000000000E+00  0.22872258543E+02  0.22872258543E+02  0.00000000000E+00 0.  1.
          1   -1    0    0  501    0  0.00000000000E+00 -0.00000000000E+00 -0.66905008153E+03  0.66905008153E+03  0.00000000000E+00 0. -1.
         25    2    1    2    0    0 -0.53049912282E+02 -0.61227012726E+01 -0.44151237253E+03  0.46199080876E+03  0.12510216474E+03 0.  0.
          5    1    3    3  502    0 -0.22943473148E+02 -0.27611669830E+02 -0.41431726906E+03  0.41589070573E+03  0.41800000000E+01 0. -1.
         -5    1    3    3    0  502 -0.30106439134E+02  0.21488968557E+02 -0.27195103464E+02  0.46100103031E+02  0.41800000000E+01 0. -1.
        -11    1    1    2    0    0 -0.19996772680E+02 -0.74724544701E+01 -0.14609013709E+02  0.25867581544E+02  0.00000000000E+00 0.  1.
         11    1    1    2    0    0  0.73046684962E+02  0.13595155743E+02 -0.19005643675E+03  0.20406394977E+03  0.00000000000E+00 0. -1.
</event>
<event>
 7    1  0.2334784E-009  0.1899256E+03  0.7561462E-02  0.1158528E+00
         -1   -1    0    0    0  501 -0.00000000000E+00  0.00000000000E+00  0.49872732457E+03  0.49872732457E+03  0.00000000000E+00 0.  1.
          1   -1    0    0  501    0  0.00000000000E+00 -0.00000000000E+00 -0.86458576925E+02  0.86458576925E+02  0.00000000000E+00 0. -1.
         25    2    1    2    0    0 -0.16555534165E+03 -0.31024166157E+02  0.13892195607E+03  0.25163085062E+03  0.12509078732E+03 0.  0.
          5    1    3    3  502    0  0.11245841893E+02  0.70217821515E+00 -0.11998922723E+02  0.16982595816E+02  0.41800000000E+01 0. -1.
         -5    1    3    3    0  502 -0.17680118354E+03 -0.31726344372E+02  0.15092087879E+03  0.23464825481E+03  0.41800000000E+01 0. -1.
        -11    1    1    2    0    0  0.13074922091E+03  0.59056894132E+02  0.18100734863E+03  0.23096912298E+03  0.00000000000E+00 0. -1.
         11    1    1    2    0    0  0.34806120739E+02 -0.28032727975E+02  0.92339442938E+02  0.10258592789E+03  0.00000000000E+00 0.  1.
</event>
<event>
 7    1  0.2334784E-009  0.1332973E+03  0.7561462E-02  0.1222644E+00
         -1   -1    0    0    0  501 -0.00000000000E+00  0.00000000000E+00  0.82435209139E+02  0.82435209139E+02  0.00000000000E+00 0.  1.
          1   -1    0    0  501    0  0.00000000000E+00 -0.00000000000E+00 -0.31444244080E+03  0.31444244080E+03  0.00000000000E+00 0. -1.
         25    2    1    2    0    0 -0.33954235487E+02 -0.97629523006E+02 -0.19500931441E+03  0.25369723680E+03  0.12509692795E+03 0.  0.
          5    1    3    3  502    0 -0.69895989444E+02 -0.40154528428E+02 -0.15529987813E+03  0.17502388420E+03  0.41800000000E+01 0. -1.
         -5    1    3    3    0  502  0.35941753957E+02 -0.57474994578E+02 -0.39709436276E+02  0.78673352595E+02  0.41800000000E+01 0. -1.
        -11    1    1    2    0    0  0.33880849571E+02  0.18064981988E+02 -0.49493356015E+02  0.62640624450E+02  0.00000000000E+00 0. -1.
         11    1    1    2    0    0  0.73385916026E-01  0.79564541018E+02  0.12495438758E+02  0.80539788693E+02  0.00000000000E+00 0.  1.
</event>
<event>
 7    1  0.2334784E-009  0.9230413E+02  0.7561462E-02  0.1297366E+00
         -1   -1    0    0    0  501 -0.00000000000E+00  0.00000000000E+00  0.62362820637E+02  0.62362820637E+02  0.00000000000E+00 0.  1.
          1   -1    0    0  501    0  0.00000000000E+00 -0.00000000000E+00 -0.19887761238E+03  0.19887761238E+03  0.00000000000E+00 0. -1.
         25    2    1    2    0    0 -0.61523432419E+01  0.12060467412E+02 -0.70766637228E+02  0.14435798799E+03  0.12509198836E+03 0.  0.
          5    1    3    3  502    0 -0.22761227000E+02  0.58663899865E+02 -0.70657053847E+02  0.94707012730E+02  0.41800000000E+01 0.  1.
         -5    1    3    3    0  502  0.16608883758E+02 -0.46603432453E+02 -0.10958338037E+00  0.49650975263E+02  0.41800000000E+01 0.  1.
        -11    1    1    2    0    0 -0.32356942091E+02 -0.60747342685E+01 -0.70318327771E+02  0.77643681767E+02  0.00000000000E+00 0. -1.
         11    1    1    2    0    0  0.38509285333E+02 -0.59857331439E+01  0.45701732578E+01  0.39238763254E+02  0.00000000000E+00 0.  1.
</event>
<event>
 7    1  0.2334784E-009  0.1039351E+03  0.7561462E-02  0.1272232E+00
          2   -1    0    0  501    0  0.00000000000E+00  0.00000000000E+00  0.69487182458E+03  0.69487182458E+03  0.00000000000E+00 0. -1.
         -2   -1    0    0    0  501 -0.00000000000E+00 -0.00000000000E+00 -0.18510822686E+02  0.18510822686E+02  0.00000000000E+00 0.  1.
         25    2    1    2    0    0 -0.30786536486E+02 -0.59190970827E+01  0.35971383098E+03  0.38212769315E+03  0.12507872374E+03 0.  0.
          5    1    3    3  502    0  0.10757095330E+02  0.47651506969E+02  0.76344671557E+02  0.90732367386E+02  0.41800000000E+01 0.  1.
         -5    1    3    3    0  502 -0.41543631816E+02 -0.53570604052E+02  0.28336915943E+03  0.29139532577E+03  0.41800000000E+01 0.  1.
        -11    1    1    2    0    0 -0.25661444932E+02  0.20242035535E+02  0.17631268994E+03  0.17931652013E+03  0.00000000000E+00 0. -1.
         11    1    1    2    0    0  0.56447981418E+02 -0.14322938453E+02  0.14033448096E+03  0.15193843398E+03  0.00000000000E+00 0.  1.
</event>
<event>
 7    1  0.2334784E-009  0.9145816E+02  0.7561462E-02  0.1299358E+00
         -2   -1    0    0    0  501 -0.00000000000E+00  0.00000000000E+00  0.15501755094E+03  0.15501755094E+03  0.00000000000E+00 0.  1.
          2   -1    0    0  501    0  0.00000000000E+00 -0.00000000000E+00 -0.10244368409E+03  0.10244368409E+03  0.00000000000E+00 0. -1.
         25    2    1    2    0    0 -0.43134945912E+02  0.44961617980E+02  0.47289796821E+02  0.14752958911E+03  0.12508590699E+03 0.  0.
          5    1    3    3  502    0 -0.11703123468E+02 -0.54913339330E+01 -0.39771391365E+02  0.42028012306E+02  0.41800000000E+01 0.  1.
         -5    1    3    3    0  502 -0.31431822444E+02  0.50452951913E+02  0.87061188186E+02  0.10550157680E+03  0.41800000000E+01 0.  1.
        -11    1    1    2    0    0 -0.89272254008E+01 -0.55843839376E+02  0.84231300192E+00  0.56559165843E+02  0.00000000000E+00 0.  1.
         11    1    1    2    0    0  0.52062171313E+02  0.10882221397E+02  0.44417570244E+01  0.53372480079E+02  0.00000000000E+00 0. -1.
</event>
<event>
 7    1  0.2334784E-009  0.1162516E+03  0.7561462E-02  0.1249412E+00
          2   -1    0    0  501    0  0.00000000000E+00  0.00000000000E+00  0.51809648073E+03  0.51809648073E+03  0.00000000000E+00 0. -1.
         -2   -1    0    0    0  501 -0.00000000000E+00 -0.00000000000E+00 -0.39204474558E+02  0.39204474558E+02  0.00000000000E+00 0.  1.
         25    2    1    2    0    0  0.16547110987E+01  0.85180702268E+02  0.18715884042E+03  0.24069610804E+03  0.12509074616E+03 0.  0.
          5    1    3    3  502    0  0.54720252821E+02  0.48929713704E+02  0.49263055414E+02  0.88502790808E+02  0.41800000000E+01 0.  1.
         -5    1    3    3    0  502 -0.53065541723E+02  0.36250988564E+02  0.13789578500E+03  0.15219331724E+03  0.41800000000E+01 0.  1.
        -11    1    1    2    0    0  0.18424746757E+02 -0.57503288332E+02  0.26864159106E+03  0.27534415539E+03  0.00000000000E+00 0. -1.
         11    1    1    2    0    0 -0.20079457856E+02 -0.27677413936E+02  0.23091574693E+02  0.41260691848E+02  0.00000000000E+00 0.  1.
</event>
<event>
 7    1  0.2344647E-009  0.1752901E+03  0.7561462E-02  0.1172441E+00
         -1   -1    0    0    0  501 -0.00000000000E+00  0.00000000000E+00  0.32337593770E+02  0.32337593770E+02  0.00000000000E+00 0.  1.
          1   -1    0    0  501    0  0.00000000000E+00 -0.00000000000E+00 -0.12333807216E+04  0.12333807216E+04  0.00000000000E+00 0. -1.
         25    2    1    2    0    0  0.13649488121E+03 -0.62633940704E+02 -0.86252834153E+03  0.88439611166E+03  0.12508988468E+03 0.  0.
          5    1    3    3  502    0  0.28905283194E+01 -0.58184855836E+02 -0.34251946947E+03  0.34746351171E+03  0.41800000000E+01 0. -1.
         -5    1    3    3    0  502  0.13360435290E+03 -0.44490848683E+01 -0.52000887207E+03  0.53693259996E+03  0.41800000000E+01 0. -1.
        -11    1    1    2    0    0 -0.70787414878E+02  0.48914532191E+01 -0.23662353563E+03  0.24703336218E+03  0.00000000000E+00 0. -1.
         11    1    1    2    0    0 -0.65707466337E+02  0.57742487485E+02 -0.10189125065E+03  0.13428884151E+03  0.00000000000E+00 0.  1.
</event>
<event>
 7    1  0.2334784E-009  0.9689235E+02  0.7561462E-02  0.1286970E+00
         -2   -1    0    0    0  501 -0.00000000000E+00  0.00000000000E+00  0.27080701750E+03  0.27080701750E+03  0.00000000000E+00 0.  1.
          2   -1    0    0  501    0  0.00000000000E+00 -0.00000000000E+00 -0.53039607493E+02  0.53039607493E+02  0.00000000000E+00 0. -1.
         25    2    1    2    0    0 -0.13826209104E+02  0.47924540445E+02  0.11630808880E+03  0.17794115403E+03  0.12509019604E+03 0.  0.
          5    1    3    3  502    0  0.49286203474E+02  0.10211581058E+02  0.14981301081E+02  0.52681287215E+02  0.41800000000E+01 0. -1.
         -5    1    3    3    0  502 -0.63112412578E+02  0.37712959387E+02  0.10132678771E+03  0.12525986682E+03  0.41800000000E+01 0. -1.
        -11    1    1    2    0    0  0.15672082709E+02  0.51765456083E+01  0.90064333451E+02  0.91564157621E+02  0.00000000000E+00 0.  1.
         11    1    1    2    0    0 -0.18458736049E+01 -0.53101086053E+02  0.11394987763E+02  0.54341313340E+02  0.00000000000E+00 0. -1.
</event>
<event>
 7    1  0.2334784E-009  0.9790993E+02  0.7561462E-02  0.1284753E+00
          2   -1    0    0  501    0  0.00000000000E+00  0.00000000000E+00  0.11911026626E+03  0.11911026626E+03  0.00000000000E+00 0. -1.
         -2   -1    0    0    0  501 -0.00000000000E+00 -0.00000000000E+00 -0.14568031618E+03  0.14568031618E+03  0.00000000000E+00 0.  1.
         25    2    1    2    0    0 -0.16717764627E+02  0.29140689935E+02  0.55805233896E+02  0.14103389499E+03  0.12509065490E+03 0.  0.
          5    1    3    3  502    0 -0.69919407255E+02  0.12634021828E+02  0.44799117239E+02  0.84099793839E+02  0.41800000000E+01 0. -1.
         -5    1    3    3    0  502  0.53201642628E+02  0.16506668107E+02  0.11006116658E+02  0.56934101154E+02  0.41800000000E+01 0. -1.
        -11    1    1    2    0    0  0.64612828365E+01 -0.47402194607E+02 -0.10617301307E+02  0.49004523429E+02  0.00000000000E+00 0. -1.
         11    1    1    2    0    0  0.10256481790E+02  0.18261504672E+02 -0.71757982505E+02  0.74752164015E+02  0.00000000000E+00 0.  1.
</event>
<event>
 7    1  0.2379482E-009  0.1458619E+03  0.7561462E-02  0.1205652E+00
         -1   -1    0    0    0  501 -0.00000000000E+00  0.00000000000E+00  0.69745871440E+02  0.69745871440E+02  0.00000000000E+00 0.  1.
          1   -1    0    0  501    0  0.00000000000E+00 -0.00000000000E+00 -0.36754345833E+03  0.36754345833E+03  0.00000000000E+00 0. -1.
         25    2    1    2    0    0 -0.10520275306E+03 -0.40670316129E+02 -0.11768898918E+03  0.20547391839E+03  0.12508852505E+03 0.  0.
          5    1    3    3  502    0 -0.37439167164E+02  0.43915722018E+02 -0.56841120542E+02  0.81108983860E+02  0.41800000000E+01 0.  1.
         -5    1    3    3    0  502 -0.67763585896E+02 -0.84586038148E+02 -0.60847868642E+02  0.12436493453E+03  0.41800000000E+01 0.  1.
        -11    1    1    2    0    0  0.19674167657E+02  0.34418154604E+02 -0.93496014679E+01  0.40732017958E+02  0.00000000000E+00 0.  1.
         11    1    1    2    0    0  0.85528585403E+02  0.62521615255E+01 -0.17075899624E+03  0.19108339342E+03  0.00000000000E+00 0. -1.
</event>
<event>
 7    1  0.2334784E-009  0.1315687E+03  0.7561462E-02  0.1225146E+00
          2   -1    0    0  501    0  0.00000000000E+00  0.00000000000E+00  0.51749842208E+03  0.51749842208E+03  0.00000000000E+00 0. -1.
         -2   -1    0    0    0  501 -0.00000000000E+00 -0.00000000000E+00 -0.54018884138E+02  0.54018884138E+02  0.00000000000E+00 0.  1.
         25    2    1    2    0    0  0.98990970131E+02 -0.73650016910E+02  0.18663068551E+03  0.25632479979E+03  0.12509137881E+03 0.  0.
          5    1    3    3  502    0  0.17294829170E+02 -0.52083068508E+02  0.41581816149E+01  0.55195289795E+02  0.41800000000E+01 0. -1.
         -5    1    3    3    0  502  0.81696140961E+02 -0.21566948403E+02  0.18247250390E+03  0.20112950999E+03  0.41800000000E+01 0. -1.
        -11    1    1    2    0    0 -0.47395101382E+02  0.38612963860E+02  0.22776509116E+03  0.23582661716E+03  0.00000000000E+00 0. -1.
         11    1    1    2    0    0 -0.51595868749E+02  0.35037053050E+02  0.49083761273E+02  0.79365889267E+02  0.00000000000E+00 0.  1.
</event>
<event>
 7    1  0.2334784E-009  0.1150039E+03  0.7561462E-02  0.1251574E+00
          1   -1    0    0  501    0  0.00000000000E+00  0.00000000000E+00  0.36793669377E+03  0.36793669377E+03  0.00000000000E+00 0. -1.
         -1   -1    0    0    0  501 -0.00000000000E+00 -0.00000000000E+00 -0.44285705548E+02  0.44285705548E+02  0.00000000000E+00 0.  1.
         25    2    1    2    0    0 -0.12294700233E+02  0.56002891458E+02  0.12146872293E+03  0.18354724055E+03  0.12508978918E+03 0.  0.
          5    1    3    3  502    0 -0.58989945838E+02  0.63151324171E+02  0.97695924451E+02  0.13049854217E+03  0.41800000000E+01 0.  1.
         -5    1    3    3    0  502  0.46695245604E+02 -0.71484327131E+01  0.23772798480E+02  0.53048698381E+02  0.41800000000E+01 0.  1.
        -11    1    1    2    0    0 -0.32099109065E+02 -0.14241343262E+02  0.12766406573E+03  0.13240574890E+03  0.00000000000E+00 0. -1.
         11    1    1    2    0    0  0.44393809298E+02 -0.41761548196E+02  0.74518199557E+02  0.96269409871E+02  0.00000000000E+00 0.  1.
</event>
<event>
 7    1  0.2334784E-009  0.7056913E+02  0.7561462E-02  0.1358168E+00
          1   -1    0    0  501    0  0.00000000000E+00  0.00000000000E+00  0.28634002915E+03  0.28634002915E+03  0.00000000000E+00 0. -1.
         -1   -1    0    0    0  501 -0.00000000000E+00 -0.00000000000E+00 -0.55616347271E+02  0.55616347271E+02  0.00000000000E+00 0.  1.
         25    2    1    2    0    0 -0.34110938364E+02 -0.44153804603E+02  0.18610265859E+03  0.23107274819E+03  0.12508917158E+03 0.  0.
          5    1    3    3  502    0  0.23012144587E+01 -0.33412574379E+02 -0.67964167032E+01  0.34429048703E+02  0.41800000000E+01 0.  1.
         -5    1    3    3    0  502 -0.36412152823E+02 -0.10741230225E+02  0.19289907529E+03  0.19664369949E+03  0.41800000000E+01 0.  1.
        -11    1    1    2    0    0  0.78860171899E+01  0.42162282026E+02 -0.15223479059E+02  0.45514850405E+02  0.00000000000E+00 0.  1.
         11    1    1    2    0    0  0.26224921174E+02  0.19915225773E+01  0.59844502348E+02  0.65368777823E+02  0.00000000000E+00 0. -1.
</event>
<event>
 7    1  0.2334784E-009  0.1405274E+03  0.7561462E-02  0.1212621E+00
          1   -1    0    0  501    0  0.00000000000E+00  0.00000000000E+00  0.82779640314E+03  0.82779640314E+03  0.00000000000E+00 0. -1.
         -1   -1    0    0    0  501 -0.00000000000E+00 -0.00000000000E+00 -0.32136730216E+02  0.32136730216E+02  0.00000000000E+00 0.  1.
         25    2    1    2    0    0  0.83874640196E+02  0.80428667823E+02  0.52136127385E+03  0.54860629763E+03  0.12509023165E+03 0.  0.
          5    1    3    3  502    0  0.78745374472E+02 -0.49188461988E+01  0.32372812081E+03  0.33323024720E+03  0.41800000000E+01 0. -1.
         -5    1    3    3    0  502  0.51292657248E+01  0.85347514022E+02  0.19763315304E+03  0.21537605043E+03  0.41800000000E+01 0. -1.
        -11    1    1    2    0    0 -0.28418442907E+02 -0.32204719321E+02  0.20787635572E+03  0.21226712207E+03  0.00000000000E+00 0. -1.
         11    1    1    2    0    0 -0.55456197289E+02 -0.48223948502E+02  0.66422043359E+02  0.99059713662E+02  0.00000000000E+00 0.  1.
</event>
<event>
 7    1  0.2334784E-009  0.1033180E+03  0.7561462E-02  0.1273469E+00
          2   -1    0    0  501    0  0.00000000000E+00  0.00000000000E+00  0.16800604335E+03  0.16800604335E+03  0.00000000000E+00 0. -1.
         -2   -1    0    0    0  501 -0.00000000000E+00 -0.00000000000E+00 -0.14267870613E+03  0.14267870613E+03  0.00000000000E+00 0.  1.
         25    2    1    2    0    0  0.69756264923E+02  0.40223343029E+02  0.97439952972E+02  0.17783517741E+03  0.12508777745E+03 0.  0.
          5    1    3    3  502    0  0.23291490318E+02  0.52643933097E+02  0.11318756294E+03  0.12705421684E+03  0.41800000000E+01 0.  1.
         -5    1    3    3    0  502  0.46464774605E+02 -0.12420590069E+02 -0.15747609964E+02  0.50780960569E+02  0.41800000000E+01 0.  1.
        -11    1    1    2    0    0 -0.31650956698E+02  0.13801626578E+02 -0.54354557458E+02  0.64394765878E+02  0.00000000000E+00 0.  1.
         11    1    1    2    0    0 -0.38105308225E+02 -0.54024969607E+02 -0.17758058296E+02  0.68454806189E+02  0.00000000000E+00 0. -1.
</event>
<event>
 7    1  0.2334784E-009  0.8185948E+02  0.7561462E-02  0.1323856E+00
         -2   -1    0    0    0  501 -0.00000000000E+00  0.00000000000E+00  0.15714662587E+02  0.15714662587E+02  0.00000000000E+00 0.  1.
          2   -1    0    0  501    0  0.00000000000E+00 -0.00000000000E+00 -0.89437399467E+03  0.89437399467E+03  0.00000000000E+00 0. -1.
         25    2    1    2    0    0 -0.28421890764E+02  0.36489384857E+02 -0.45652485566E+03  0.47559792693E+03  0.12505664787E+03 0.  0.
          5    1    3    3  502    0  0.10987759546E+02  0.16430522095E+02 -0.36257160587E+01  0.20525864978E+02  0.41800000000E+01 0.  1.
         -5    1    3    3    0  502 -0.39409650309E+02  0.20058862763E+02 -0.45289913960E+03  0.45507206195E+03  0.41800000000E+01 0.  1.
        -11    1    1    2    0    0  0.10759901721E+02  0.29177007717E+02 -0.83652905635E+02  0.89246186952E+02  0.00000000000E+00 0.  1.
         11    1    1    2    0    0  0.17661989042E+02 -0.65666392574E+02 -0.33848157079E+03  0.34524454338E+03  0.00000000000E+00 0. -1.
</event>
<event>
 7    1  0.2334784E-009  0.1820405E+03  0.7561462E-02  0.1165843E+00
          1   -1    0    0  501    0  0.00000000000E+00  0.00000000000E+00  0.64878342151E+03  0.64878342151E+03  0.00000000000E+00 0. -1.
         -1   -1    0    0    0  501 -0.00000000000E+00 -0.00000000000E+00 -0.62411453030E+02  0.62411453030E+02  0.00000000000E+00 0.  1.
         25    2    1    2    0    0  0.11432809175E+03 -0.12232079710E+03  0.26372594249E+03  0.33649896334E+03  0.12508752782E+03 0.  0.
          5    1    3    3  502    0  0.21099201201E+02  0.44583846102E+00  0.13183937303E+03  0.13358318661E+03  0.41800000000E+01 0. -1.
         -5    1    3    3    0  502  0.93228890553E+02 -0.12276663556E+03  0.13188656946E+03  0.20291577673E+03  0.41800000000E+01 0. -1.
        -11    1    1    2    0    0 -0.10839642360E+03  0.56440279535E+02  0.18137424781E+03  0.21870506983E+03  0.00000000000E+00 0.  1.
         11    1    1    2    0    0 -0.59316681579E+01  0.65880517566E+02  0.14127177818E+03  0.15599084137E+03  0.00000000000E+00 0. -1.
</event>
<event>
 7    1  0.2334784E-009  0.8735294E+02  0.7561462E-02  0.1309392E+00
          1   -1    0    0  501    0  0.00000000000E+00  0.00000000000E+00  0.53449868717E+03  0.53449868717E+03  0.00000000000E+00 0. -1.
         -1   -1    0    0    0  501 -0.00000000000E+00 -0.00000000000E+00 -0.36423680737E+02  0.36423680737E+02  0.00000000000E+00 0.  1.
         25    2    1    2    0    0 -0.71294300129E+02  0.44132443689E+01  0.17070827569E+03  0.22336229588E+03  0.12508815243E+03 0.  0.
          5    1    3    3  502    0 -0.51785598111E+02  0.26646564270E+02  0.18222148648E+03  0.19134766812E+03  0.41800000000E+01 0.  1.
         -5    1    3    3    0  502 -0.19508702018E+02 -0.22233319902E+02 -0.11513210794E+02  0.32014627767E+02  0.41800000000E+01 0.  1.
        -11    1    1    2    0    0  0.59620222711E+02  0.17051142460E+02  0.31327648902E+03  0.31935477292E+03  0.00000000000E+00 0. -1.
         11    1    1    2    0    0  0.11674077418E+02 -0.21464386828E+02  0.14090241728E+02  0.28205299102E+02  0.00000000000E+00 0.  1.
</event>
<event>
 7    1  0.2334784E-009  0.1407564E+03  0.7561462E-02  0.1212315E+00
         -4   -1    0    0    0  501 -0.00000000000E+00  0.00000000000E+00  0.15846301873E+03  0.15846301873E+03  0.00000000000E+00 0.  1.
          4   -1    0    0  501    0  0.00000000000E+00 -0.00000000000E+00 -0.24578221696E+03  0.24578221696E+03  0.00000000000E+00 0. -1.
         25    2    1    2    0    0 -0.10867835819E+03 -0.51349877967E+02 -0.15620101990E+03  0.23343919311E+03  0.12508917921E+03 0.  0.
          5    1    3    3  502    0  0.17363940999E+02 -0.26480872060E+02 -0.74690485578E+02  0.81233515669E+02  0.41800000000E+01 0. -1.
         -5    1    3    3    0  502 -0.12604229919E+03 -0.24869005907E+02 -0.81510534319E+02  0.15220567744E+03  0.41800000000E+01 0. -1.
        -11    1    1    2    0    0  0.30926960426E+02  0.77220795145E+01  0.74947482106E+02  0.81444658924E+02  0.00000000000E+00 0.  1.
         11    1    1    2    0    0  0.77751397762E+02  0.43627798452E+02 -0.60656604415E+01  0.89361383653E+02  0.00000000000E+00 0. -1.
</event>
<event>
 7    1  0.2334784E-009  0.1054112E+03  0.7561462E-02  0.1269312E+00
         -1   -1    0    0    0  501 -0.00000000000E+00  0.00000000000E+00  0.39462565938E+02  0.39462565938E+02  0.00000000000E+00 0.  1.
          1   -1    0    0  501    0  0.00000000000E+00 -0.00000000000E+00 -0.43228085892E+03  0.43228085892E+03  0.00000000000E+00 0. -1.
         25    2    1    2    0    0  0.48621044131E+02 -0.41630967867E+02 -0.26563887256E+03  0.30051434237E+03  0.12509083075E+03 0.  0.
          5    1    3    3  502    0 -0.28569953408E+02  0.98582190910E+01 -0.14546402643E+03  0.14862934470E+03  0.41800000000E+01 0.  1.
         -5    1    3    3    0  502  0.77190997539E+02 -0.51489186958E+02 -0.12017484612E+03  0.15188499767E+03  0.41800000000E+01 0.  1.
        -11    1    1    2    0    0 -0.50377075864E+02  0.48534177570E+01 -0.14440693310E+02  0.52630210524E+02  0.00000000000E+00 0.  1.
         11    1    1    2    0    0  0.17560317330E+01  0.36777550110E+02 -0.11273872711E+03  0.11859887196E+03  0.00000000000E+00 0. -1.
</event>
<event>
 7    1  0.2334784E-009  0.1099818E+03  0.7561462E-02  0.1260604E+00
         -1   -1    0    0    0  501 -0.00000000000E+00  0.00000000000E+00  0.66272382910E+02  0.66272382910E+02  0.00000000000E+00 0.  1.
          1   -1    0    0  501    0  0.00000000000E+00 -0.00000000000E+00 -0.18802727093E+03  0.18802727093E+03  0.00000000000E+00 0. -1.
         25    2    1    2    0    0 -0.20017256153E+02 -0.15723022776E+02 -0.82500234316E+02  0.15199324845E+03  0.12509098658E+03 0.  0.
          5    1    3    3  502    0  0.49047663784E+02  0.12982592008E+02 -0.20991657993E+02  0.55066715203E+02  0.41800000000E+01 0. -1.
         -5    1    3    3    0  502 -0.69064919938E+02 -0.28705614785E+02 -0.61508576323E+02  0.96926533248E+02  0.41800000000E+01 0. -1.
        -11    1    1    2    0    0  0.54289689073E+02 -0.42875739066E+01 -0.18463257853E+02  0.57503439203E+02  0.00000000000E+00 0.  1.
         11    1    1    2    0    0 -0.34272432920E+02  0.20010596683E+02 -0.20791395855E+02  0.44802966190E+02  0.00000000000E+00 0. -1.
</event>
<event>
 7    1  0.2334784E-009  0.8154043E+02  0.7561462E-02  0.1324736E+00
         -2   -1    0    0    0  501 -0.00000000000E+00  0.00000000000E+00  0.13479242166E+02  0.13479242166E+02  0.00000000000E+00 0.  1.
          2   -1    0    0  501    0  0.00000000000E+00 -0.00000000000E+00 -0.85725577343E+03  0.85725577343E+03  0.00000000000E+00 0. -1.
         25    2    1    2    0    0 -0.12488269478E+02  0.24932479289E+02 -0.55063193215E+03  0.56535010423E+03  0.12509048826E+03 0.  0.
          5    1    3    3  502    0 -0.42949696398E+02  0.13997019409E+02 -0.51514746458E+03  0.51714115640E+03  0.41800000000E+01 0.  1.
         -5    1    3    3    0  502  0.30461426920E+02  0.10935459880E+02 -0.35484467565E+02  0.48208947833E+02  0.41800000000E+01 0.  1.
        -11    1    1    2    0    0 -0.31369636236E+02  0.52982752316E+01 -0.12619588158E+03  0.13014425199E+03  0.00000000000E+00 0.  1.
         11    1    1    2    0    0  0.43857905714E+02 -0.30230754520E+02 -0.16694871754E+03  0.17524065939E+03  0.00000000000E+00 0. -1.
</event>
<event>
 7    1  0.2334784E-009  0.1685644E+03  0.7561462E-02  0.1179353E+00
          1   -1    0    0  501    0  0.00000000000E+00  0.00000000000E+00  0.22132580031E+04  0.22132580031E+04  0.00000000000E+00 0. -1.
         -1   -1    0    0    0  501 -0.00000000000E+00 -0.00000000000E+00 -0.15509047406E+02  0.15509047406E+02  0.00000000000E+00 0.  1.
         25    2    1    2    0    0  0.61145114209E+02  0.12888781257E+03  0.14363267672E+04  0.14488040391E+04  0.12509103989E+03 0.  0.
          5    1    3    3  502    0 -0.23148036021E+02  0.22252780284E+02  0.64986885781E+03  0.65067505143E+03  0.41800000000E+01 0. -1.
         -5    1    3    3    0  502  0.84293150229E+02  0.10663503228E+03  0.78645790938E+03  0.79812898764E+03  0.41800000000E+01 0. -1.
        -11    1    1    2    0    0  0.21670420093E+02 -0.49499695584E+02  0.26579933862E+03  0.27123627224E+03  0.00000000000E+00 0.  1.
         11    1    1    2    0    0 -0.82815534302E+02 -0.79388116983E+02  0.49562284984E+03  0.50872673915E+03  0.00000000000E+00 0. -1.
</event>
<event>
 7    1  0.2334784E-009  0.9968588E+02  0.7561462E-02  0.1280958E+00
          2   -1    0    0  501    0  0.00000000000E+00  0.00000000000E+00  0.16795582207E+03  0.16795582207E+03  0.00000000000E+00 0. -1.
         -2   -1    0    0    0  501 -0.00000000000E+00 -0.00000000000E+00 -0.88652554467E+02  0.88652554467E+02  0.00000000000E+00 0.  1.
         25    2    1    2    0    0  0.32461700284E+00  0.43923148517E+02  0.67368775866E+01  0.13275073511E+03  0.12509206130E+03 0.  0.
          5    1    3    3  502    0 -0.13755814456E+02  0.71850137101E+02 -0.34365826024E+02  0.80932978637E+02  0.41800000000E+01 0.  1.
         -5    1    3    3    0  502  0.14080431459E+02 -0.27926988584E+02  0.41102703610E+02  0.51817756470E+02  0.41800000000E+01 0.  1.
        -11    1    1    2    0    0  0.25577407328E+02 -0.59187974231E+02  0.28462249700E+02  0.70480633632E+02  0.00000000000E+00 0.  1.
         11    1    1    2    0    0 -0.25902024330E+02  0.15264825714E+02  0.44104140318E+02  0.53377007800E+02  0.00000000000E+00 0. -1.
</event>
<event>
 7    1  0.2334784E-009  0.1220394E+03  0.7561462E-02  0.1239770E+00
          2   -1    0    0  501    0  0.00000000000E+00  0.00000000000E+00  0.61719284657E+03  0.61719284657E+03  0.00000000000E+00 0. -1.
         -2   -1    0    0    0  501 -0.00000000000E+00 -0.00000000000E+00 -0.48131919717E+02  0.48131919717E+02  0.00000000000E+00 0.  1.
         25    2    1    2    0    0 -0.41505441120E+02  0.10493689310E+03  0.44040142868E+03  0.47152450464E+03  0.12508991533E+03 0.  0.
          5    1    3    3  502    0  0.10885631835E+01 -0.76106685402E+01 -0.50378878193E+01  0.10097522425E+02  0.41800000000E+01 0.  1.
         -5    1    3    3    0  502 -0.42594004303E+02  0.11254756164E+03  0.44543931650E+03  0.46142698221E+03  0.41800000000E+01 0.  1.
        -11    1    1    2    0    0  0.36837228275E+02 -0.65033626553E+02  0.19153425252E+02  0.77157032528E+02  0.00000000000E+00 0.  1.
         11    1    1    2    0    0  0.46682128443E+01 -0.39903266550E+02  0.10950607292E+03  0.11664322912E+03  0.00000000000E+00 0. -1.
</event>
<event>
 7    1  0.2334784E-009  0.1500743E+03  0.7561462E-02  0.1200382E+00
         -2   -1    0    0    0  501 -0.00000000000E+00  0.00000000000E+00  0.17427321416E+02  0.17427321416E+02  0.00000000000E+00 0.  1.
          2   -1    0    0  501    0  0.00000000000E+00 -0.00000000000E+00 -0.17924796738E+04  0.17924796738E+04  0.00000000000E+00 0. -1.
         25    2    1    2    0    0 -0.10628991391E+03 -0.57846264644E+02 -0.12774713041E+04  0.12892722224E+04  0.12508474934E+03 0.  0.
          5    1    3    3  502    0 -0.12673220868E+03 -0.28121429717E+02 -0.11279671294E+04  0.11354202680E+04  0.41800000000E+01 0. -1.
         -5    1    3    3    0  502  0.20442294767E+02 -0.29724834927E+02 -0.14950417471E+03  0.15385195443E+03  0.41800000000E+01 0. -1.
        -11    1    1    2    0    0  0.69867961304E+02  0.53724835223E+01 -0.13133092222E+03  0.14885632914E+03  0.00000000000E+00 0.  1.
         11    1    1    2    0    0  0.36421952605E+02  0.52473781121E+02 -0.36625012608E+03  0.37177844369E+03  0.00000000000E+00 0. -1.
</event>
<event>
 7    1  0.2334784E-009  0.1480335E+03  0.7561462E-02  0.1202910E+00
         -1   -1    0    0    0  501 -0.00000000000E+00  0.00000000000E+00  0.22443812946E+02  0.22443812946E+02  0.00000000000E+00 0.  1.
          1   -1    0    0  501    0  0.00000000000E+00 -0.00000000000E+00 -0.12093099745E+04  0.12093099745E+04  0.00000000000E+00 0. -1.
         25    2    1    2    0    0 -0.10951058405E+03  0.43198641514E+02 -0.76210164821E+03  0.78122040157E+03  0.12509077894E+03 0.  0.
          5    1    3    3  502    0 -0.11147888580E+03  0.74822998352E+01 -0.70428372055E+03  0.71310346950E+03  0.41800000000E+01 0.  1.
         -5    1    3    3    0  502  0.19683017548E+01  0.35716341679E+02 -0.57817927666E+02  0.68116932068E+02  0.41800000000E+01 0.  1.
        -11    1    1    2    0    0  0.87741075035E+02 -0.71046217083E+02 -0.28973319564E+03  0.31095238521E+03  0.00000000000E+00 0. -1.
         11    1    1    2    0    0  0.21769509014E+02  0.27847575568E+02 -0.13503131775E+03  0.13958100071E+03  0.00000000000E+00 0.  1.
</event>
<event>
 7    1  0.3055788E-009  0.4626278E+02  0.7561462E-02  0.1466609E+00
         -2   -1    0    0    0  501 -0.00000000000E+00  0.00000000000E+00  0.31119210618E+02  0.31119210618E+02  0.00000000000E+00 0.  1.
          2   -1    0    0  501    0  0.00000000000E+00 -0.00000000000E+00 -0.45628559300E+03  0.45628559300E+03  0.00000000000E+00 0. -1.
         25    2    1    2    0    0 -0.17493546525E+02 -0.63636351957E+01 -0.33437420972E+03  0.35749230439E+03  0.12509242802E+03 0.  0.
          5    1    3    3  502    0 -0.54554065682E+00  0.16815916627E+02  0.40690732336E+01  0.17807369924E+02  0.41800000000E+01 0.  1.
         -5    1    3    3    0  502 -0.16948005868E+02 -0.23179551823E+02 -0.33844328296E+03  0.33968493447E+03  0.41800000000E+01 0.  1.
        -11    1    1    2    0    0  0.28585026277E+02 -0.63690294661E+01  0.74588912157E+01  0.30220908685E+02  0.00000000000E+00 0.  1.
         11    1    1    2    0    0 -0.11091479751E+02  0.12732664662E+02 -0.98251063869E+02  0.99691590537E+02  0.00000000000E+00 0. -1.
</event>
<event>
 7    1  0.2334784E-009  0.3909068E+03  0.7561462E-02  0.1046975E+00
          1   -1    0    0  501    0  0.00000000000E+00  0.00000000000E+00  0.93550238868E+03  0.93550238868E+03  0.00000000000E+00 0. -1.
         -1   -1    0    0    0  501 -0.00000000000E+00 -0.00000000000E+00 -0.16608055605E+03  0.16608055605E+03  0.00000000000E+00 0.  1.
         25    2    1    2    0    0 -0.31336580476E+03  0.21217381559E+03  0.41862407661E+03  0.57802077647E+03  0.12508415128E+03 0.  0.
          5    1    3    3  502    0 -0.12137567711E+02  0.52269238163E+02  0.32671066241E+02  0.62962407653E+02  0.41800000000E+01 0. -1.
         -5    1    3    3    0  502 -0.30122823705E+03  0.15990457743E+03  0.38595301037E+03  0.51505836882E+03  0.41800000000E+01 0. -1.
        -11    1    1    2    0    0  0.52808318588E+02 -0.77063787189E+02  0.10669684582E+03  0.14181594662E+03  0.00000000000E+00 0.  1.
         11    1    1    2    0    0  0.26055748617E+03 -0.13511002840E+03  0.24410091020E+03  0.38174622164E+03  0.00000000000E+00 0. -1.
</event>
<event>
 7    1  0.2334784E-009  0.1131571E+03  0.7561462E-02  0.1254833E+00
         -2   -1    0    0    0  501 -0.00000000000E+00  0.00000000000E+00  0.52198560432E+02  0.52198560432E+02  0.00000000000E+00 0.  1.
          2   -1    0    0  501    0  0.00000000000E+00 -0.00000000000E+00 -0.28400219846E+03  0.28400219846E+03  0.00000000000E+00 0. -1.
         25    2    1    2    0    0 -0.47209985373E+02  0.55135265299E+01 -0.17953421968E+03  0.22391796953E+03  0.12509012491E+03 0.  0.
          5    1    3    3  502    0 -0.65854860462E+02  0.51702605558E+02 -0.11276669578E+03  0.14051271168E+03  0.41800000000E+01 0. -1.
         -5    1    3    3    0  502  0.18644875088E+02 -0.46189079028E+02 -0.66767523898E+02  0.83405257844E+02  0.41800000000E+01 0. -1.
        -11    1    1    2    0    0  0.34041575941E+02 -0.41793403209E+02 -0.96063644946E+01  0.54752166013E+02  0.00000000000E+00 0.  1.
         11    1    1    2    0    0  0.13168409432E+02  0.36279876679E+02 -0.42663053860E+02  0.57530623354E+02  0.00000000000E+00 0. -1.
</event>
<event>
 7    1  0.2334784E-009  0.1009256E+03  0.7561462E-02  0.1278361E+00
          1   -1    0    0  501    0  0.00000000000E+00  0.00000000000E+00  0.25273990926E+03  0.25273990926E+03  0.00000000000E+00 0. -1.
         -1   -1    0    0    0  501 -0.00000000000E+00 -0.00000000000E+00 -0.55957113545E+02  0.55957113545E+02  0.00000000000E+00 0.  1.
         25    2    1    2    0    0 -0.40156187767E+02 -0.23657919961E+02  0.10903719193E+03  0.17235989409E+03  0.12508639924E+03 0.  0.
          5    1    3    3  502    0 -0.54488683831E+02 -0.46438084357E+02  0.13446050206E+02  0.72964244740E+02  0.41800000000E+01 0. -1.
         -5    1    3    3    0  502  0.14332496064E+02  0.22780164395E+02  0.95591141726E+02  0.99395649351E+02  0.41800000000E+01 0. -1.
        -11    1    1    2    0    0  0.31890069947E+02 -0.32854469032E+02  0.50426266720E+02  0.68111680877E+02  0.00000000000E+00 0. -1.
         11    1    1    2    0    0  0.82661178197E+01  0.56512388993E+02  0.37319337063E+02  0.68225447835E+02  0.00000000000E+00 0.  1.
</event>
<event>
 7    1  0.2334784E-009  0.1859109E+03  0.7561462E-02  0.1162202E+00
          1   -1    0    0  501    0  0.00000000000E+00  0.00000000000E+00  0.65961850308E+03  0.65961850308E+03  0.00000000000E+00 0. -1.
         -1   -1    0    0    0  501 -0.00000000000E+00 -0.00000000000E+00 -0.53150909443E+02  0.53150909443E+02  0.00000000000E+00 0.  1.
         25    2    1    2    0    0 -0.14809886561E+03 -0.25483111201E+02  0.34360888887E+03  0.39534334499E+03  0.12508648595E+03 0.  0.
          5    1    3    3  502    0 -0.15365715255E+03 -0.55829789569E+02  0.27408702902E+03  0.31916869804E+03  0.41800000000E+01 0.  1.
         -5    1    3    3    0  502  0.55582869327E+01  0.30346678367E+02  0.69521859847E+02  0.76174646952E+02  0.41800000000E+01 0.  1.
        -11    1    1    2    0    0  0.76490703335E+02 -0.34335500043E+02  0.10949803241E+03  0.13791146929E+03  0.00000000000E+00 0.  1.
         11    1    1    2    0    0  0.71608162278E+02  0.59818611245E+02  0.15336067236E+03  0.17951459824E+03  0.00000000000E+00 0. -1.
</event>
<event>
 7    1  0.2334784E-009  0.1225642E+03  0.7561462E-02  0.1238926E+00
          2   -1    0    0  501    0  0.00000000000E+00  0.00000000000E+00  0.19756755752E+04  0.19756755752E+04  0.00000000000E+00 0. -1.
         -2   -1    0    0    0  501 -0.00000000000E+00 -0.00000000000E+00 -0.23773118654E+02  0.23773118654E+02  0.00000000000E+00 0.  1.
         25    2    1    2    0    0 -0.65767037033E+01 -0.97881605039E+02  0.17472057424E+04  0.17544227874E+04  0.12508936533E+03 0.  0.
          5    1    3    3  502    0 -0.30062392094E+02 -0.64397950358E+02  0.38073801599E+03  0.38733674322E+03  0.41800000000E+01 0. -1.
         -5    1    3    3    0  502  0.23485688391E+02 -0.33483654680E+02  0.13664677264E+04  0.13670860442E+04  0.41800000000E+01 0. -1.
        -11    1    1    2    0    0  0.92088794796E+01 -0.16241592217E+02  0.45048974860E+02  0.48764771249E+02  0.00000000000E+00 0. -1.
         11    1    1    2    0    0 -0.26321757763E+01  0.11412319726E+03  0.15964773929E+03  0.19626113512E+03  0.00000000000E+00 0.  1.
</event>
<event>
 7    1  0.2334784E-009  0.1232748E+03  0.7561462E-02  0.1237790E+00
          3   -1    0    0  501    0  0.00000000000E+00  0.00000000000E+00  0.26849353731E+03  0.26849353731E+03  0.00000000000E+00 0. -1.
         -3   -1    0    0    0  501 -0.00000000000E+00 -0.00000000000E+00 -0.62484123356E+02  0.62484123356E+02  0.00000000000E+00 0.  1.
         25    2    1    2    0    0  0.21737612049E+02  0.68612670189E+02  0.13192939368E+03  0.19553354125E+03  0.12509108102E+03 0.  0.
          5    1    3    3  502    0  0.62945551815E+02  0.12465848063E+02  0.27492552833E+02  0.69934631783E+02  0.41800000000E+01 0.  1.
         -5    1    3    3    0  502 -0.41207939767E+02  0.56146822126E+02  0.10443684084E+03  0.12559890947E+03  0.41800000000E+01 0.  1.
        -11    1    1    2    0    0  0.33238621926E+02 -0.18261634944E+02  0.17044278545E+02  0.41578849546E+02  0.00000000000E+00 0.  1.
         11    1    1    2    0    0 -0.54976233975E+02 -0.50351035245E+02  0.57035741732E+02  0.93865269867E+02  0.00000000000E+00 0. -1.
</event>
<event>
 7    1  0.2334784E-009  0.1181170E+03  0.7561462E-02  0.1246236E+00
          1   -1    0    0  501    0  0.00000000000E+00  0.00000000000E+00  0.17542532529E+03  0.17542532529E+03  0.00000000000E+00 0. -1.
         -1   -1    0    0    0  501 -0.00000000000E+00 -0.00000000000E+00 -0.10699135319E+03  0.10699135319E+03  0.00000000000E+00 0.  1.
         25    2    1    2    0    0  0.69291337252E+01  0.83590649863E+02  0.33500745826E+02  0.15429090290E+03  0.12509185869E+03 0.  0.
          5    1    3    3  502    0 -0.12063949237E+02  0.11387290947E+03  0.26895512566E+02  0.11770054961E+03  0.41800000000E+01 0.  1.
         -5    1    3    3    0  502  0.18993082962E+02 -0.30282259611E+02  0.66052332602E+01  0.36590353291E+02  0.41800000000E+01 0.  1.
        -11    1    1    2    0    0  0.25956247070E+01 -0.62068696642E+02 -0.22488409228E+02  0.66068062784E+02  0.00000000000E+00 0.  1.
         11    1    1    2    0    0 -0.95247584322E+01 -0.21521953221E+02  0.57421635501E+02  0.62057712794E+02  0.00000000000E+00 0. -1.
</event>
<event>
 7    1  0.2334784E-009  0.2647491E+03  0.7561462E-02  0.1104323E+00
          3   -1    0    0  501    0  0.00000000000E+00  0.00000000000E+00  0.30728499954E+03  0.30728499954E+03  0.00000000000E+00 0. -1.
         -3   -1    0    0    0  501 -0.00000000000E+00 -0.00000000000E+00 -0.26986990690E+03  0.26986990690E+03  0.00000000000E+00 0.  1.
         25    2    1    2    0    0 -0.63868330925E+02  0.24802534849E+03 -0.56119090979E+02  0.29050414700E+03  0.12509024688E+03 0.  0.
          5    1    3    3  502    0  0.25253973621E+02  0.61490128081E+02  0.20967870950E+02  0.69827809984E+02  0.41800000000E+01 0. -1.
         -5    1    3    3    0  502 -0.89122304545E+02  0.18653522040E+03 -0.77086961929E+02  0.22067633701E+03  0.41800000000E+01 0. -1.
        -11    1    1    2    0    0  0.32750642820E+02 -0.12911003738E+03  0.95196091843E+02  0.16372019503E+03  0.00000000000E+00 0. -1.
         11    1    1    2    0    0  0.31117688105E+02 -0.11891531110E+03 -0.16619082154E+01  0.12293056441E+03  0.00000000000E+00 0.  1.
</event>
<event>
 7    1  0.2334784E-009  0.9992172E+02  0.7561462E-02  0.1280461E+00
          1   -1    0    0  501    0  0.00000000000E+00  0.00000000000E+00  0.82208499295E+03  0.82208499295E+03  0.00000000000E+00 0. -1.
         -1   -1    0    0    0  501 -0.00000000000E+00 -0.00000000000E+00 -0.17368018661E+02  0.17368018661E+02  0.00000000000E+00 0.  1.
         25    2    1    2    0    0  0.45882436311E+02  0.51479166478E+01  0.49727822014E+03  0.51484490144E+03  0.12509174756E+03 0.  0.
          5    1    3    3  502    0  0.20844333760E+02 -0.47246782250E+02  0.38401756854E+03  0.38749672261E+03  0.41800000000E+01 0. -1.
         -5    1    3    3    0  502  0.25038102550E+02  0.52394698898E+02  0.11326065160E+03  0.12734817883E+03  0.41800000000E+01 0. -1.
        -11    1    1    2    0    0 -0.28460143236E+02  0.35552828482E+02  0.73111906912E+02  0.86135557689E+02  0.00000000000E+00 0.  1.
         11    1    1    2    0    0 -0.17422293074E+02 -0.40700745129E+02  0.23432684723E+03  0.23847255248E+03  0.00000000000E+00 0. -1.
</event>
<event>
 7    1  0.2334784E-009  0.1317068E+03  0.7561462E-02  0.1224945E+00
         -2   -1    0    0    0  501 -0.00000000000E+00  0.00000000000E+00  0.10858101955E+03  0.10858101955E+03  0.00000000000E+00 0.  1.
          2   -1    0    0  501    0  0.00000000000E+00 -0.00000000000E+00 -0.19920366065E+03  0.19920366065E+03  0.00000000000E+00 0. -1.
         25    2    1    2    0    0  0.73344586674E+02  0.40587432363E+02 -0.11306951226E+03  0.18830556899E+03  0.12508998620E+03 0.  0.
          5    1    3    3  502    0  0.10739217892E+03  0.29060957281E+02 -0.67813595164E+02  0.13036017575E+03  0.41800000000E+01 0.  1.
         -5    1    3    3    0  502 -0.34047592246E+02  0.11526475082E+02 -0.45255917097E+02  0.57945393241E+02  0.41800000000E+01 0.  1.
        -11    1    1    2    0    0 -0.13888973979E+02 -0.53311112303E+02  0.13038520967E+01  0.55106064307E+02  0.00000000000E+00 0. -1.
         11    1    1    2    0    0 -0.59455612695E+02  0.12723679939E+02  0.21143019067E+02  0.64373046902E+02  0.00000000000E+00 0.  1.
</event>
<event>
 7    1  0.2334784E-009  0.8112427E+02  0.7561462E-02  0.1325891E+00
         -2   -1    0    0    0  501 -0.00000000000E+00  0.00000000000E+00  0.35018447692E+02  0.35018447692E+02  0.00000000000E+00 0.  1.
          2   -1    0    0  501    0  0.00000000000E+00 -0.00000000000E+00 -0.59359640658E+03  0.59359640658E+03  0.00000000000E+00 0. -1.
         25    2    1    2    0    0 -0.32571419212E+02 -0.34561138808E+02 -0.47708399301E+03  0.49549148357E+03  0.12508918516E+03 0.  0.
          5    1    3    3  502    0 -0.38495436051E+02 -0.76564454490E+01 -0.46223537932E+03  0.46391759834E+03  0.41800000000E+01 0. -1.
         -5    1    3    3    0  502  0.59240168388E+01 -0.26904693359E+02 -0.14848613684E+02  0.31573885231E+02  0.41800000000E+01 0. -1.
        -11    1    1    2    0    0  0.60188712567E+02  0.28696152584E+02 -0.80961387719E+02  0.10488515908E+03  0.00000000000E+00 0. -1.
         11    1    1    2    0    0 -0.27617293355E+02  0.58649862235E+01 -0.53257815667E+00  0.28238211614E+02  0.00000000000E+00 0.  1.
</event>
<event>
 7    1  0.2334784E-009  0.1506149E+03  0.7561462E-02  0.1199719E+00
          1   -1    0    0  501    0  0.00000000000E+00  0.00000000000E+00  0.16037703276E+03  0.16037703276E+03  0.00000000000E+00 0. -1.
         -1   -1    0    0    0  501 -0.00000000000E+00 -0.00000000000E+00 -0.37064012236E+03  0.37064012236E+03  0.00000000000E+00 0.  1.
         25    2    1    2    0    0 -0.13968585499E+02  0.12564144509E+03 -0.29955446456E+03  0.34837005160E+03  0.12509165244E+03 0.  0.
          5    1    3    3  502    0 -0.62569185119E+02  0.35444297566E+02 -0.15730879179E+03  0.17301655855E+03  0.41800000000E+01 0. -1.
         -5    1    3    3    0  502  0.48600599619E+02  0.90197147527E+02 -0.14224567277E+03  0.17535349306E+03  0.41800000000E+01 0. -1.
        -11    1    1    2    0    0  0.43549745504E+01 -0.73860712278E+02  0.10430583753E+03  0.12788306520E+03  0.00000000000E+00 0. -1.
         11    1    1    2    0    0  0.96136109489E+01 -0.51780732815E+02 -0.15014462577E+02  0.54764038318E+02  0.00000000000E+00 0.  1.
</event>
<event>
 7    1  0.2334784E-009  0.8798477E+02  0.7561462E-02  0.1307807E+00
         -1   -1    0    0    0  501 -0.00000000000E+00  0.00000000000E+00  0.76273834645E+02  0.76273834645E+02  0.00000000000E+00 0.  1.
          1   -1    0    0  501    0  0.00000000000E+00 -0.00000000000E+00 -0.19447927694E+03  0.19447927694E+03  0.00000000000E+00 0. -1.
         25    2    1    2    0    0  0.38798607869E+02 -0.28766288408E+02 -0.99020393059E+02  0.16668959418E+03  0.12509017245E+03 0.  0.
          5    1    3    3  502    0  0.80542015831E+02 -0.15175075196E+02 -0.89775244890E+02  0.12163209369E+03  0.41800000000E+01 0.  1.
         -5    1    3    3    0  502 -0.41743407963E+02 -0.13591213212E+02 -0.92451481682E+01  0.45057500480E+02  0.41800000000E+01 0.  1.
        -11    1    1    2    0    0 -0.20443379047E+02  0.22522321676E+02 -0.55277336346E+02  0.63093348572E+02  0.00000000000E+00 0. -1.
         11    1    1    2    0    0 -0.18355228822E+02  0.62439667324E+01  0.36092287111E+02  0.40970168837E+02  0.00000000000E+00 0.  1.
</event>
<event>
 7    1  0.2334784E-009  0.1933722E+03  0.7561462E-02  0.1155455E+00
         -1   -1    0    0    0  501 -0.00000000000E+00  0.00000000000E+00  0.53715513848E+03  0.53715513848E+03  0.00000000000E+00 0.  1.
          1   -1    0    0  501    0  0.00000000000E+00 -0.00000000000E+00 -0.83908623515E+02  0.83908623515E+02  0.00000000000E+00 0. -1.
         25    2    1    2    0    0  0.16173305952E+03 -0.37999120401E+02  0.13279685050E+03  0.24674728369E+03  0.12509077830E+03 0.  0.
          5    1    3    3  502    0  0.17812505089E+03 -0.42399549740E+02  0.97795188866E+02  0.20762376294E+03  0.41800000000E+01 0.  1.
         -5    1    3    3    0  502 -0.16391991366E+02  0.44004293396E+01  0.35001661629E+02  0.39123520753E+02  0.41800000000E+01 0.  1.
        -11    1    1    2    0    0 -0.44187840772E+02 -0.27011824596E+02  0.48277042417E+02  0.70801672047E+02  0.00000000000E+00 0.  1.
         11    1    1    2    0    0 -0.11754521875E+03  0.65010944997E+02  0.27217262205E+03  0.30351480625E+03  0.00000000000E+00 0. -1.
</event>
<event>
 7    1  0.2485385E-009  0.1396794E+03  0.7561462E-02  0.1213761E+00
          3   -1    0    0  501    0  0.00000000000E+00  0.00000000000E+00  0.15346471138E+03  0.15346471138E+03  0.00000000000E+00 0. -1.
         -3   -1    0    0    0  501 -0.00000000000E+00 -0.00000000000E+00 -0.13204109823E+03  0.13204109823E+03  0.00000000000E+00 0.  1.
         25    2    1    2    0    0  0.64710397070E+02  0.64965870343E+02  0.10113588853E+02  0.15542824510E+03  0.12509058677E+03 0.  0.
          5    1    3    3  502    0 -0.15287503419E+02  0.71788334124E+02 -0.47440123186E+01  0.73669876680E+02  0.41800000000E+01 0.  1.
         -5    1    3    3    0  502  0.79997900490E+02 -0.68224637810E+01  0.14857601171E+02  0.81758368424E+02  0.41800000000E+01 0.  1.
        -11    1    1    2    0    0 -0.39482780885E+02  0.14507245016E+02 -0.11548092262E+02  0.43620047905E+02  0.00000000000E+00 0.  1.
         11    1    1    2    0    0 -0.25227616186E+02 -0.79473115359E+02  0.22858116558E+02  0.86457516596E+02  0.00000000000E+00 0. -1.
</event>
<event>
 7    1  0.2334784E-009  0.1189924E+03  0.7561462E-02  0.1244769E+00
          1   -1    0    0  501    0  0.00000000000E+00  0.00000000000E+00  0.76675888933E+02  0.76675888933E+02  0.00000000000E+00 0. -1.
         -1   -1    0    0    0  501 -0.00000000000E+00 -0.00000000000E+00 -0.21518247532E+03  0.21518247532E+03  0.00000000000E+00 0.  1.
         25    2    1    2    0    0  0.44267688447E+02 -0.25810152831E+02 -0.26346933363E+02  0.13772262894E+03  0.12509024501E+03 0.  0.
          5    1    3    3  502    0  0.65670425974E+02  0.30756124517E+02 -0.28125237435E+01  0.72690623417E+02  0.41800000000E+01 0.  1.
         -5    1    3    3    0  502 -0.21402737527E+02 -0.56566277348E+02 -0.23534409620E+02  0.65032005526E+02  0.41800000000E+01 0.  1.
        -11    1    1    2    0    0 -0.14168844647E+02 -0.34513484917E+02 -0.50407707960E+02  0.62712628884E+02  0.00000000000E+00 0.  1.
         11    1    1    2    0    0 -0.30098843800E+02  0.60323637748E+02 -0.61751945063E+02  0.91423106424E+02  0.00000000000E+00 0. -1.
</event>
<event>
 7    1  0.2334784E-009  0.7029690E+02  0.7561462E-02  0.1359086E+00
         -2   -1    0    0    0  501 -0.00000000000E+00  0.00000000000E+00  0.23264250882E+02  0.23264250882E+02  0.00000000000E+00 0.  1.
          2   -1    0    0  501    0  0.00000000000E+00 -0.00000000000E+00 -0.61725399470E+03  0.61725399470E+03  0.00000000000E+00 0. -1.
         25    2    1    2    0    0  0.21881216203E+02 -0.14929560681E+02 -0.22616940563E+03  0.25981226852E+03  0.12509250746E+03 0.  0.
          5    1    3    3  502    0 -0.84611398862E+01 -0.63740836903E+01 -0.22768994540E+03  0.22797456758E+03  0.41800000000E+01 0. -1.
         -5    1    3    3    0  502  0.30342356089E+02 -0.85554769909E+01  0.15205397619E+01  0.31837700934E+02  0.41800000000E+01 0. -1.
        -11    1    1    2    0    0 -0.18775807732E+01  0.53723634776E+02 -0.17847652819E+03  0.18639641992E+03  0.00000000000E+00 0.  1.
         11    1    1    2    0    0 -0.20003635430E+02 -0.38794074095E+02 -0.18934381000E+03  0.19430955715E+03  0.00000000000E+00 0. -1.
</event>
<event>
 7    1  0.2334784E-009  0.9897469E+02  0.7561462E-02  0.1282467E+00
          1   -1    0    0  501    0  0.00000000000E+00  0.00000000000E+00  0.56385087684E+03  0.56385087684E+03  0.00000000000E+00 0. -1.
         -1   -1    0    0    0  501 -0.00000000000E+00 -0.00000000000E+00 -0.23083375577E+02  0.23083375577E+02  0.00000000000E+00 0.  1.
         25    2    1    2    0    0 -0.22217907104E+02  0.24695959498E+02  0.31678186935E+03  0.34220323108E+03  0.12509505507E+03 0.  0.
          5    1    3    3  502    0 -0.46522401557E+02  0.54524361945E+02  0.10683247078E+03  0.12871631250E+03  0.41800000000E+01 0.  1.
         -5    1    3    3    0  502  0.24304494453E+02 -0.29828402447E+02  0.20994939857E+03  0.21348691858E+03  0.41800000000E+01 0.  1.
        -11    1    1    2    0    0  0.51028838342E+02 -0.28404214513E+02  0.87577900180E+02  0.10526457307E+03  0.00000000000E+00 0.  1.
         11    1    1    2    0    0 -0.28810931238E+02  0.37082550153E+01  0.13640773173E+03  0.13946644826E+03  0.00000000000E+00 0. -1.
</event>
<event>
 7    1  0.2334784E-009  0.6458413E+02  0.7561462E-02  0.1379543E+00
          1   -1    0    0  501    0  0.00000000000E+00  0.00000000000E+00  0.80358430493E+02  0.80358430493E+02  0.00000000000E+00 0. -1.
         -1   -1    0    0    0  501 -0.00000000000E+00 -0.00000000000E+00 -0.17633706168E+03  0.17633706168E+03  0.00000000000E+00 0.  1.
         25    2    1    2    0    0  0.78469803803E+01  0.16659503870E+02 -0.97726298978E+02  0.15980867021E+03  0.12509703191E+03 0.  0.
          5    1    3    3  502    0  0.23739830434E+02  0.48086293828E+02  0.21400096634E+01  0.53832362428E+02  0.41800000000E+01 0. -1.
         -5    1    3    3    0  502 -0.15892850054E+02 -0.31426789959E+02 -0.99866308642E+02  0.10597630778E+03  0.41800000000E+01 0. -1.
        -11    1    1    2    0    0  0.14118279474E+02 -0.45560099188E+01 -0.43056794567E+02  0.45540867362E+02  0.00000000000E+00 0.  1.
         11    1    1    2    0    0 -0.21965259854E+02 -0.12103493951E+02  0.44804462359E+02  0.51345954598E+02  0.00000000000E+00 0. -1.
</event>
<event>
 7    1  0.3129018E-009  0.5902215E+02  0.7561462E-02  0.1401982E+00
          2   -1    0    0  501    0  0.00000000000E+00  0.00000000000E+00  0.20063296605E+03  0.20063296605E+03  0.00000000000E+00 0. -1.
         -2   -1    0    0    0  501 -0.00000000000E+00 -0.00000000000E+00 -0.70257202654E+02  0.70257202654E+02  0.00000000000E+00 0.  1.
         25    2    1    2    0    0 -0.23843257323E+01 -0.33852469156E+02  0.11327237720E+03  0.17214163918E+03  0.12510170992E+03 0.  0.
          5    1    3    3  502    0 -0.90903986158E+01 -0.22040312692E+01 -0.26605809820E+02  0.28510254594E+02  0.41800000000E+01 0.  1.
         -5    1    3    3    0  502  0.67060728835E+01 -0.31648437886E+02  0.13987818702E+03  0.14363138459E+03  0.41800000000E+01 0.  1.
        -11    1    1    2    0    0  0.33390225412E+02  0.28106937321E+02 -0.21704571584E+02  0.48744184333E+02  0.00000000000E+00 0.  1.
         11    1    1    2    0    0 -0.31005899680E+02  0.57455318343E+01  0.38807957781E+02  0.50004345193E+02  0.00000000000E+00 0. -1.
</event>
<event>
 7    1  0.2334784E-009  0.9400455E+02  0.7561462E-02  0.1293434E+00
         -3   -1    0    0    0  501 -0.00000000000E+00  0.00000000000E+00  0.61326921685E+02  0.61326921685E+02  0.00000000000E+00 0.  1.
          3   -1    0    0  501    0  0.00000000000E+00 -0.00000000000E+00 -0.28352988216E+03  0.28352988216E+03  0.00000000000E+00 0. -1.
         25    2    1    2    0    0  0.91422110066E+01 -0.65843177513E+02 -0.77075322998E+02  0.16129408191E+03  0.12512502307E+03 0.  0.
          5    1    3    3  502    0  0.36119408424E+02 -0.34983834368E+01  0.20834962115E+02  0.42052567079E+02  0.41800000000E+01 0.  1.
         -5    1    3    3    0  502 -0.26977197418E+02 -0.62344794077E+02 -0.97910285113E+02  0.11924151483E+03  0.41800000000E+01 0.  1.
        -11    1    1    2    0    0 -0.12281803573E+02 -0.44460373853E+01  0.78087230022E+01  0.15217953291E+02  0.00000000000E+00 0.  1.
         11    1    1    2    0    0  0.31395925666E+01  0.70289214899E+02 -0.15293636048E+03  0.16834476864E+03  0.00000000000E+00 0. -1.
</event>
<event>
 7    1  0.2334784E-009  0.1366257E+03  0.7561462E-02  0.1217943E+00
          1   -1    0    0  501    0  0.00000000000E+00  0.00000000000E+00  0.63551408801E+03  0.63551408801E+03  0.00000000000E+00 0. -1.
         -1   -1    0    0    0  501 -0.00000000000E+00 -0.00000000000E+00 -0.33866668059E+02  0.33866668059E+02  0.00000000000E+00 0.  1.
         25    2    1    2    0    0  0.66631737550E+02  0.56000527475E+02  0.22454900752E+03  0.27137960822E+03  0.12509511362E+03 0.  0.
          5    1    3    3  502    0 -0.62410446160E+01  0.76025677231E+02  0.12145536979E+03  0.14348426216E+03  0.41800000000E+01 0.  1.
         -5    1    3    3    0  502  0.72872782166E+02 -0.20025149757E+02  0.10309363772E+03  0.12789534605E+03  0.41800000000E+01 0.  1.
        -11    1    1    2    0    0 -0.80405973033E+02 -0.20341790571E+02  0.19451864313E+03  0.21146255335E+03  0.00000000000E+00 0.  1.
         11    1    1    2    0    0  0.13774235483E+02 -0.35658736904E+02  0.18257976930E+03  0.18653859450E+03  0.00000000000E+00 0. -1.
</event>
<event>
 7    1  0.3686817E-009  0.1094468E+03  0.7561462E-02  0.1261598E+00
          1   -1    0    0  501    0  0.00000000000E+00  0.00000000000E+00  0.17400954472E+03  0.17400954472E+03  0.00000000000E+00 0. -1.
         -1   -1    0    0    0  501 -0.00000000000E+00 -0.00000000000E+00 -0.85760417340E+02  0.85760417340E+02  0.00000000000E+00 0.  1.
         25    2    1    2    0    0 -0.47307834254E+02  0.27833499231E+02  0.63950328415E+02  0.15082916387E+03  0.12508819811E+03 0.  0.
          5    1    3    3  502    0  0.15644717781E+02  0.55259957229E+02  0.10193239604E+01  0.57592807613E+02  0.41800000000E+01 0.  1.
         -5    1    3    3    0  502 -0.62952552035E+02 -0.27426457999E+02  0.62931004454E+02  0.93236356255E+02  0.41800000000E+01 0.  1.
        -11    1    1    2    0    0 -0.35699399282E+01  0.21412242571E+02 -0.16457903085E+02  0.27241350498E+02  0.00000000000E+00 0.  1.
         11    1    1    2    0    0  0.50877774183E+02 -0.49245741802E+02  0.40756702049E+02  0.81699447693E+02  0.00000000000E+00 0. -1.
</event>
<event>
 6    1  0.2334784E-009  0.1126111E+03  0.7561462E-02  0.1255809E+00
          2   -1    0    0  501    0  0.00000000000E+00  0.00000000000E+00  0.30732104019E+03  0.30732104019E+03  0.00000000000E+00 0. -1.
         -2   -1    0    0    0  501 -0.00000000000E+00 -0.00000000000E+00 -0.63193745161E+02  0.63193745161E+02  0.00000000000E+00 0.  1.
          5    1    1    2  502    0 -0.11419172512E+01  0.21430688827E+02  0.11108674795E+03  0.11321800373E+03  0.41800000000E+01 0. -1.
         -5    1    1    2    0  502 -0.75368260615E+02  0.19152973541E+02  0.51113988927E+01  0.78043641011E+02  0.41800000000E+01 0. -1.
        -11    1    1    2    0    0 -0.20660099265E+02 -0.13962729964E+01  0.23544977684E+02  0.31355306633E+02  0.00000000000E+00 0.  1.
         11    1    1    2    0    0  0.97170277131E+02 -0.39187389371E+02  0.10438417050E+03  0.14789783398E+03  0.00000000000E+00 0. -1.
</event>
<event>
 7    1  0.2334784E-009  0.9211061E+02  0.7561462E-02  0.1297820E+00
         -1   -1    0    0    0  501 -0.00000000000E+00  0.00000000000E+00  0.16620106914E+03  0.16620106914E+03  0.00000000000E+00 0.  1.
          1   -1    0    0  501    0  0.00000000000E+00 -0.00000000000E+00 -0.11001677526E+03  0.11001677526E+03  0.00000000000E+00 0. -1.
         25    2    1    2    0    0  0.49453521104E+02 -0.25205341021E+02  0.96437589551E+02  0.16741546075E+03  0.12508704112E+03 0.  0.
          5    1    3    3  502    0  0.73818475832E+02 -0.32026601970E+02  0.14901323731E+02  0.81941396478E+02  0.41800000000E+01 0.  1.
         -5    1    3    3    0  502 -0.24364954728E+02  0.68212609492E+01  0.81536265819E+02  0.85474064275E+02  0.41800000000E+01 0.  1.
        -11    1    1    2    0    0 -0.55289623240E+02  0.33618858593E+01  0.75672545858E+01  0.55906243449E+02  0.00000000000E+00 0.  1.
         11    1    1    2    0    0  0.58361021365E+01  0.21843455162E+02 -0.47820550251E+02  0.52896140198E+02  0.00000000000E+00 0. -1.
</event>
<event>
 7    1  0.2334784E-009  0.1289664E+03  0.7561462E-02  0.1228998E+00
          1   -1    0    0  501    0  0.00000000000E+00  0.00000000000E+00  0.22192577641E+03  0.22192577641E+03  0.00000000000E+00 0. -1.
         -1   -1    0    0    0  501 -0.00000000000E+00 -0.00000000000E+00 -0.94040998609E+02  0.94040998609E+02  0.00000000000E+00 0.  1.
         25    2    1    2    0    0 -0.93362550003E+02 -0.31955663912E+02  0.73473057134E+02  0.17544852288E+03  0.12508462678E+03 0.  0.
          5    1    3    3  502    0  0.53161587677E+01 -0.55076885906E+02  0.11790962785E+02  0.56729393691E+02  0.41800000000E+01 0.  1.
         -5    1    3    3    0  502 -0.98678708771E+02  0.23121221995E+02  0.61682094349E+02  0.11871912919E+03  0.41800000000E+01 0.  1.
        -11    1    1    2    0    0  0.19138059142E+02 -0.22648320134E+01  0.55528281127E+02  0.58777417234E+02  0.00000000000E+00 0. -1.
         11    1    1    2    0    0  0.74224490862E+02  0.34220495925E+02 -0.11165604551E+01  0.81740834913E+02  0.00000000000E+00 0.  1.
</event>
<event>
 7    1  0.2334784E-009  0.1515959E+03  0.7561462E-02  0.1198526E+00
         -1   -1    0    0    0  501 -0.00000000000E+00  0.00000000000E+00  0.30041301264E+02  0.30041301264E+02  0.00000000000E+00 0.  1.
          1   -1    0    0  501    0  0.00000000000E+00 -0.00000000000E+00 -0.88283207467E+03  0.88283207467E+03  0.00000000000E+00 0. -1.
         25    2    1    2    0    0 -0.11821825726E+03  0.26436330357E+02 -0.43190146634E+03  0.46568269569E+03  0.12508821096E+03 0.  0.
          5    1    3    3  502    0 -0.13862508631E+03  0.42181488560E+02 -0.32900218190E+03  0.35952204470E+03  0.41800000000E+01 0.  1.
         -5    1    3    3    0  502  0.20406829048E+02 -0.15745158202E+02 -0.10289928444E+03  0.10616065099E+03  0.41800000000E+01 0.  1.
        -11    1    1    2    0    0  0.11997401291E+03 -0.15416660378E+02 -0.41869598586E+03  0.43581850094E+03  0.00000000000E+00 0. -1.
         11    1    1    2    0    0 -0.17557556450E+01 -0.11019669980E+02 -0.21933212118E+01  0.11372179311E+02  0.00000000000E+00 0.  1.
</event>
<event>
 6    1  0.2334784E-009  0.1152573E+03  0.7561462E-02  0.1251133E+00
          2   -1    0    0  501    0  0.00000000000E+00  0.00000000000E+00  0.30049473728E+03  0.30049473728E+03  0.00000000000E+00 0.  1.
         -2   -1    0    0    0  501 -0.00000000000E+00 -0.00000000000E+00 -0.46376418256E+02  0.46376418256E+02  0.00000000000E+00 0. -1.
          5    1    1    2  502    0 -0.82355067599E+02  0.29139619475E+02  0.64808727592E+02  0.10885365476E+03  0.41800000000E+01 0. -1.
         -5    1    1    2    0  502  0.41807232226E+02 -0.12083815179E+02  0.52853968766E+02  0.68592110844E+02  0.41800000000E+01 0. -1.
        -11    1    1    2    0    0 -0.25852120687E+02 -0.20282935296E+02  0.57339755882E+02  0.66087647960E+02  0.00000000000E+00 0.  1.
         11    1    1    2    0    0  0.66399956060E+02  0.32271310008E+01  0.79115866786E+02  0.10333774198E+03  0.00000000000E+00 0. -1.
</event>
<event>
 7    1  0.2334784E-009  0.1515636E+03  0.7561462E-02  0.1198565E+00
         -2   -1    0    0    0  501 -0.00000000000E+00  0.00000000000E+00  0.29128154473E+02  0.29128154473E+02  0.00000000000E+00 0. -1.
          2   -1    0    0  501    0  0.00000000000E+00 -0.00000000000E+00 -0.10039895921E+04  0.10039895921E+04  0.00000000000E+00 0.  1.
         25    2    1    2    0    0 -0.97790310184E+02  0.50720045083E+02 -0.29864527809E+03  0.34201353934E+03  0.12509512872E+03 0.  0.
          5    1    3    3  502    0  0.17000529217E+02  0.41789525954E+02 -0.13084221928E+03  0.13846494581E+03  0.41800000000E+01 0. -1.
         -5    1    3    3    0  502 -0.11479083940E+03  0.89305191292E+01 -0.16780305881E+03  0.20354859353E+03  0.41800000000E+01 0. -1.
        -11    1    1    2    0    0  0.60788923509E+02  0.18988091887E+02 -0.31292209609E+03  0.31933693660E+03  0.00000000000E+00 0.  1.
         11    1    1    2    0    0  0.37001386675E+02 -0.69708136970E+02 -0.36329406347E+03  0.37176727065E+03  0.00000000000E+00 0. -1.
</event>
<event>
 6    1  0.2334784E-009  0.1111309E+03  0.7561462E-02  0.1258490E+00
          3   -1    0    0  501    0  0.00000000000E+00  0.00000000000E+00  0.43199043573E+02  0.43199043573E+02  0.00000000000E+00 0. -1.
         -3   -1    0    0    0  501 -0.00000000000E+00 -0.00000000000E+00 -0.35718902909E+03  0.35718902909E+03  0.00000000000E+00 0.  1.
          5    1    1    2  502    0  0.47689884349E+02 -0.62204390336E+02 -0.45851839274E+02  0.90904206785E+02  0.41800000000E+01 0. -1.
         -5    1    1    2    0  502  0.77329457005E+01  0.41868415750E+02 -0.10660594921E+03  0.11486976753E+03  0.41800000000E+01 0. -1.
        -11    1    1    2    0    0  0.21004937598E+02 -0.26654262309E+01 -0.70190803785E+02  0.73314806393E+02  0.00000000000E+00 0.  1.
         11    1    1    2    0    0 -0.76427767648E+02  0.23001400817E+02 -0.91341393248E+02  0.12129929195E+03  0.00000000000E+00 0. -1.
</event>
<event>
 7    1  0.2334784E-009  0.3486839E+03  0.7561462E-02  0.1063157E+00
          2   -1    0    0  501    0  0.00000000000E+00  0.00000000000E+00  0.24853622494E+03  0.24853622494E+03  0.00000000000E+00 0. -1.
         -2   -1    0    0    0  501 -0.00000000000E+00 -0.00000000000E+00 -0.53048861415E+03  0.53048861415E+03  0.00000000000E+00 0.  1.
         25    2    1    2    0    0 -0.32938902892E+03  0.11015889831E+03 -0.15687876286E+03  0.40110636508E+03  0.12507299716E+03 0.  0.
          5    1    3    3  502    0 -0.30147084568E+03  0.11201330148E+03 -0.98740346291E+02  0.33645026214E+03  0.41800000000E+01 0.  1.
         -5    1    3    3    0  502 -0.27918183238E+02 -0.18544031709E+01 -0.58138416569E+02  0.64656102941E+02  0.41800000000E+01 0.  1.
        -11    1    1    2    0    0  0.26717604254E+03 -0.85538388883E+02 -0.13314156261E+03  0.31052621367E+03  0.00000000000E+00 0.  1.
         11    1    1    2    0    0  0.62212986380E+02 -0.24620509428E+02  0.80679362608E+01  0.67392260345E+02  0.00000000000E+00 0. -1.
</event>
<event>
 7    1  0.2334784E-009  0.1266775E+03  0.7561462E-02  0.1232471E+00
         -1   -1    0    0    0  501 -0.00000000000E+00  0.00000000000E+00  0.45377175267E+02  0.45377175267E+02  0.00000000000E+00 0.  1.
          1   -1    0    0  501    0  0.00000000000E+00 -0.00000000000E+00 -0.44940589124E+03  0.44940589124E+03  0.00000000000E+00 0. -1.
         25    2    1    2    0    0 -0.44836934662E+02 -0.78457491967E+02 -0.24324947228E+03  0.28804522356E+03  0.12503526020E+03 0.  0.
          5    1    3    3  502    0 -0.63934284157E+01 -0.10630044533E+03 -0.17132391759E+03  0.20176723654E+03  0.41800000000E+01 0.  1.
         -5    1    3    3    0  502 -0.38443506246E+02  0.27842953368E+02 -0.71925554695E+02  0.86277987013E+02  0.41800000000E+01 0.  1.
        -11    1    1    2    0    0  0.10431472574E+02  0.58358650554E+02 -0.23463968887E+02  0.63758180263E+02  0.00000000000E+00 0.  1.
         11    1    1    2    0    0  0.34405462088E+02  0.20098841412E+02 -0.13731527480E+03  0.14297966268E+03  0.00000000000E+00 0. -1.
</event>
<event>
 7    1  0.2334784E-009  0.8970109E+02  0.7561462E-02  0.1303577E+00
         -3   -1    0    0    0  501 -0.00000000000E+00  0.00000000000E+00  0.26732672004E+03  0.26732672004E+03  0.00000000000E+00 0.  1.
          3   -1    0    0  501    0  0.00000000000E+00 -0.00000000000E+00 -0.68111811749E+02  0.68111811749E+02  0.00000000000E+00 0. -1.
         25    2    1    2    0    0 -0.34841104634E+02 -0.69767338765E+02  0.13160668532E+03  0.19760760416E+03  0.12508821475E+03 0.  0.
          5    1    3    3  502    0  0.10463241777E+02 -0.47733162489E+02 -0.74865432975E+01  0.49613052317E+02  0.41800000000E+01 0. -1.
         -5    1    3    3    0  502 -0.45304346411E+02 -0.22034176276E+02  0.13909322861E+03  0.14799455184E+03  0.41800000000E+01 0. -1.
        -11    1    1    2    0    0  0.35531276643E+02  0.58000445756E+02  0.89830130040E+02  0.11267641985E+03  0.00000000000E+00 0.  1.
         11    1    1    2    0    0 -0.69017200827E+00  0.11766893009E+02 -0.22221907061E+02  0.25154507785E+02  0.00000000000E+00 0. -1.
</event>
<event>
 7    1  0.2334784E-009  0.1215544E+03  0.7561462E-02  0.1240555E+00
         -2   -1    0    0    0  501 -0.00000000000E+00  0.00000000000E+00  0.12171855937E+03  0.12171855937E+03  0.00000000000E+00 0.  1.
          2   -1    0    0  501    0  0.00000000000E+00 -0.00000000000E+00 -0.13102243976E+03  0.13102243976E+03  0.00000000000E+00 0. -1.
         25    2    1    2    0    0  0.18181936891E+02 -0.61386822601E+02 -0.80229187146E+00  0.14050897994E+03  0.12507279862E+03 0.  0.
          5    1    3    3  502    0 -0.29399800799E+01  0.35017902051E+02  0.18389983191E+02  0.39881835823E+02  0.41800000000E+01 0.  1.
         -5    1    3    3    0  502  0.21121916971E+02 -0.96404724651E+02 -0.19192275062E+02  0.10062714412E+03  0.41800000000E+01 0.  1.
        -11    1    1    2    0    0  0.35182508953E+02  0.15052334528E+02 -0.15343686976E+02  0.41228757451E+02  0.00000000000E+00 0. -1.
         11    1    1    2    0    0 -0.53364445844E+02  0.46334488072E+02  0.68420984542E+01  0.71003261731E+02  0.00000000000E+00 0.  1.
</event>
<event>
 7    1  0.2334784E-009  0.1133757E+03  0.7561462E-02  0.1254443E+00
          1   -1    0    0  501    0  0.00000000000E+00  0.00000000000E+00  0.92820965269E+02  0.92820965269E+02  0.00000000000E+00 0. -1.
         -1   -1    0    0    0  501 -0.00000000000E+00 -0.00000000000E+00 -0.23021594081E+03  0.23021594081E+03  0.00000000000E+00 0.  1.
         25    2    1    2    0    0 -0.56314624188E+01 -0.88736814903E+02 -0.11664878889E+03  0.19277047059E+03  0.12509028217E+03 0.  0.
          5    1    3    3  502    0  0.48098682702E+02 -0.25487855264E+02 -0.90438407731E+02  0.10563944356E+03  0.41800000000E+01 0.  1.
         -5    1    3    3    0  502 -0.53730145121E+02 -0.63248959639E+02 -0.26210381155E+02  0.87131027025E+02  0.41800000000E+01 0.  1.
        -11    1    1    2    0    0  0.45517645127E+01  0.32814443667E+02 -0.55341358852E+02  0.64499397462E+02  0.00000000000E+00 0.  1.
         11    1    1    2    0    0  0.10796979061E+01  0.55922371236E+02  0.34595172195E+02  0.65767038031E+02  0.00000000000E+00 0. -1.
</event>
<event>
 7    1  0.2334784E-009  0.9471242E+02  0.7561462E-02  0.1291825E+00
         -1   -1    0    0    0  501 -0.00000000000E+00  0.00000000000E+00  0.49979009037E+02  0.49979009037E+02  0.00000000000E+00 0. -1.
          1   -1    0    0  501    0  0.00000000000E+00 -0.00000000000E+00 -0.29216557302E+03  0.29216557302E+03  0.00000000000E+00 0.  1.
         25    2    1    2    0    0  0.23876077078E+02 -0.24860557463E+02 -0.92133063329E+02  0.15913080828E+03  0.12508396545E+03 0.  0.
          5    1    3    3  502    0  0.48070090518E+02 -0.43194548385E+02 -0.10700030590E+03  0.12507214109E+03  0.41800000000E+01 0.  1.
         -5    1    3    3    0  502 -0.24194013440E+02  0.18333990922E+02  0.14867242575E+02  0.34058667197E+02  0.41800000000E+01 0.  1.
        -11    1    1    2    0    0 -0.47067617721E+02 -0.13702835715E+02 -0.11796357643E+03  0.12774401633E+03  0.00000000000E+00 0. -1.
         11    1    1    2    0    0  0.23191540642E+02  0.38563393177E+02 -0.32089924224E+02  0.55269757440E+02  0.00000000000E+00 0.  1.
</event>
<event>
 7    1  0.2334784E-009  0.1063765E+03  0.7561462E-02  0.1267431E+00
          3   -1    0    0  501    0  0.00000000000E+00  0.00000000000E+00  0.28134771487E+03  0.28134771487E+03  0.00000000000E+00 0. -1.
         -3   -1    0    0    0  501 -0.00000000000E+00 -0.00000000000E+00 -0.76783919878E+02  0.76783919878E+02  0.00000000000E+00 0.  1.
         25    2    1    2    0    0 -0.90740664986E+02 -0.37120343123E+02  0.88908490343E+02  0.18210739701E+03  0.12508635512E+03 0.  0.
          5    1    3    3  502    0 -0.23288393323E+02 -0.27538403612E+02  0.10574481686E+03  0.11180407698E+03  0.41800000000E+01 0. -1.
         -5    1    3    3    0  502 -0.67452271664E+02 -0.95819395110E+01 -0.16836326513E+02  0.70303320034E+02  0.41800000000E+01 0. -1.
        -11    1    1    2    0    0  0.33729360493E+02 -0.89419619343E+01 -0.45967880856E+01  0.35196006921E+02  0.00000000000E+00 0.  1.
         11    1    1    2    0    0  0.57011304494E+02  0.46062305058E+02  0.12025209274E+03  0.14082823082E+03  0.00000000000E+00 0. -1.
</event>
<event>
 7    1  0.2334784E-009  0.3234776E+03  0.7561462E-02  0.1074060E+00
         -3   -1    0    0    0  501 -0.00000000000E+00  0.00000000000E+00  0.21108372489E+03  0.21108372489E+03  0.00000000000E+00 0.  1.
          3   -1    0    0  501    0  0.00000000000E+00 -0.00000000000E+00 -0.56498018373E+03  0.56498018373E+03  0.00000000000E+00 0. -1.
         25    2    1    2    0    0 -0.51135776005E+02  0.30680298355E+03 -0.29542674672E+03  0.44684082912E+03  0.12508727187E+03 0.  0.
          5    1    3    3  502    0 -0.83825684206E+02  0.12576689914E+03 -0.13643405650E+03  0.20365603950E+03  0.41800000000E+01 0. -1.
         -5    1    3    3    0  502  0.32689908201E+02  0.18103608441E+03 -0.15899269022E+03  0.24318478962E+03  0.41800000000E+01 0. -1.
        -11    1    1    2    0    0  0.25726929799E+02 -0.95002015788E+02  0.22656548633E+02  0.10099790650E+03  0.00000000000E+00 0.  1.
         11    1    1    2    0    0  0.25408846206E+02 -0.21180096776E+03 -0.81126260750E+02  0.22822517301E+03  0.00000000000E+00 0. -1.
</event>
<event>
 7    1  0.2334784E-009  0.7034690E+02  0.7561462E-02  0.1358917E+00
         -1   -1    0    0    0  501 -0.00000000000E+00  0.00000000000E+00  0.27147277054E+03  0.27147277054E+03  0.00000000000E+00 0.  1.
          1   -1    0    0  501    0  0.00000000000E+00 -0.00000000000E+00 -0.58769445687E+02  0.58769445687E+02  0.00000000000E+00 0. -1.
         25    2    1    2    0    0  0.38622331213E+02  0.13560181480E+02  0.18050013406E+03  0.22339236163E+03  0.12509310872E+03 0.  0.
          5    1    3    3  502    0 -0.35062688212E+01  0.37111815747E+00 -0.18613922925E+02  0.19400571548E+02  0.41800000000E+01 0. -1.
         -5    1    3    3    0  502  0.42128600035E+02  0.13189063323E+02  0.19911405699E+03  0.20399179009E+03  0.41800000000E+01 0. -1.
        -11    1    1    2    0    0 -0.20301338431E+02  0.34176432417E+02  0.38491200109E+02  0.55333040407E+02  0.00000000000E+00 0. -1.
         11    1    1    2    0    0 -0.18320992782E+02 -0.47736613897E+02 -0.62880093181E+01  0.51516814188E+02  0.00000000000E+00 0.  1.
</event>
<event>
 7    1  0.2334784E-009  0.1525434E+03  0.7561462E-02  0.1197382E+00
          2   -1    0    0  501    0  0.00000000000E+00  0.00000000000E+00  0.21041639170E+03  0.21041639170E+03  0.00000000000E+00 0. -1.
         -2   -1    0    0    0  501 -0.00000000000E+00 -0.00000000000E+00 -0.12553186677E+03  0.12553186677E+03  0.00000000000E+00 0.  1.
         25    2    1    2    0    0  0.54540809224E+02 -0.10187922564E+03  0.82613288119E+02  0.18927822623E+03  0.12508882869E+03 0.  0.
          5    1    3    3  502    0  0.68534546109E+02 -0.66782977247E+01  0.57335256774E+02  0.89701659629E+02  0.41800000000E+01 0.  1.
         -5    1    3    3    0  502 -0.13993736886E+02 -0.95200927911E+02  0.25278031346E+02  0.99576566600E+02  0.41800000000E+01 0.  1.
        -11    1    1    2    0    0  0.35529718021E+00 -0.12715860051E+02  0.14177707965E+02  0.19048011342E+02  0.00000000000E+00 0. -1.
         11    1    1    2    0    0 -0.54896106404E+02  0.11459508569E+03 -0.11906471157E+02  0.12762202089E+03  0.00000000000E+00 0.  1.
</event>
<event>
 7    1  0.2334784E-009  0.1132807E+03  0.7561462E-02  0.1254612E+00
          3   -1    0    0  501    0  0.00000000000E+00  0.00000000000E+00  0.62374521667E+03  0.62374521667E+03  0.00000000000E+00 0. -1.
         -3   -1    0    0    0  501 -0.00000000000E+00 -0.00000000000E+00 -0.25870189398E+02  0.25870189398E+02  0.00000000000E+00 0.  1.
         25    2    1    2    0    0  0.45695853090E+02 -0.10621395640E+02  0.44790715296E+03  0.46740638109E+03  0.12508789860E+03 0.  0.
          5    1    3    3  502    0  0.32776835739E+02 -0.64929655202E+02  0.18988352372E+03  0.20337995492E+03  0.41800000000E+01 0.  1.
         -5    1    3    3    0  502  0.12919017352E+02  0.54308259562E+02  0.25802362924E+03  0.26402642617E+03  0.41800000000E+01 0.  1.
        -11    1    1    2    0    0 -0.26661916398E+02  0.48494601054E+02  0.11358243355E+03  0.12634695615E+03  0.00000000000E+00 0. -1.
         11    1    1    2    0    0 -0.19033936692E+02 -0.37873205413E+02  0.36385440763E+02  0.55862068828E+02  0.00000000000E+00 0.  1.
</event>
<event>
 7    1  0.2334784E-009  0.1745167E+03  0.7561462E-02  0.1173218E+00
         -1   -1    0    0    0  501 -0.00000000000E+00  0.00000000000E+00  0.11897428868E+03  0.11897428868E+03  0.00000000000E+00 0.  1.
          1   -1    0    0  501    0  0.00000000000E+00 -0.00000000000E+00 -0.29614616261E+03  0.29614616261E+03  0.00000000000E+00 0. -1.
         25    2    1    2    0    0 -0.12110023683E+02  0.15116594842E+03 -0.69846336905E+02  0.20862626546E+03  0.12509440925E+03 0.  0.
          5    1    3    3  502    0 -0.12726581011E+02 -0.93559136196E+01 -0.42766429259E+02  0.45781424787E+02  0.41800000000E+01 0. -1.
         -5    1    3    3    0  502  0.61655732794E+00  0.16052186204E+03 -0.27079907645E+02  0.16284484067E+03  0.41800000000E+01 0. -1.
        -11    1    1    2    0    0  0.36183643506E+02 -0.25749194210E+02 -0.89809378760E+01  0.45309318081E+02  0.00000000000E+00 0. -1.
         11    1    1    2    0    0 -0.24073619823E+02 -0.12541675421E+03 -0.98344599153E+02  0.16118486775E+03  0.00000000000E+00 0.  1.
</event>
<event>
 7    1  0.2334784E-009  0.1022048E+03  0.7561462E-02  0.1275727E+00
         -2   -1    0    0    0  501 -0.00000000000E+00  0.00000000000E+00  0.55768573679E+02  0.55768573679E+02  0.00000000000E+00 0.  1.
          2   -1    0    0  501    0  0.00000000000E+00 -0.00000000000E+00 -0.22413798746E+03  0.22413798746E+03  0.00000000000E+00 0. -1.
         25    2    1    2    0    0  0.13935831429E+02 -0.20675242849E+01 -0.12619509844E+03  0.17825056201E+03  0.12509827310E+03 0.  0.
          5    1    3    3  502    0  0.27530401743E+02  0.50525440099E+02 -0.24088348236E+02  0.62517709796E+02  0.41800000000E+01 0.  1.
         -5    1    3    3    0  502 -0.13594570315E+02 -0.52592964384E+02 -0.10210675020E+03  0.11573285221E+03  0.41800000000E+01 0.  1.
        -11    1    1    2    0    0 -0.23213388267E+02 -0.41576333580E+02 -0.25559705242E+02  0.54043976916E+02  0.00000000000E+00 0. -1.
         11    1    1    2    0    0  0.92775568388E+01  0.43643857865E+02 -0.16614610100E+02  0.47612022211E+02  0.00000000000E+00 0.  1.
</event>
<event>
 7    1  0.2334784E-009  0.1587300E+03  0.7561462E-02  0.1190138E+00
          1   -1    0    0  501    0  0.00000000000E+00  0.00000000000E+00  0.11120448714E+04  0.11120448714E+04  0.00000000000E+00 0. -1.
         -1   -1    0    0    0  501 -0.00000000000E+00 -0.00000000000E+00 -0.30920232526E+02  0.30920232526E+02  0.00000000000E+00 0.  1.
         25    2    1    2    0    0  0.49163618116E+02 -0.14204483791E+03  0.53313646886E+03  0.56786967914E+03  0.12509069005E+03 0.  0.
          5    1    3    3  502    0  0.36565824842E+02 -0.83151159563E+02  0.12112797782E+03  0.15146165948E+03  0.41800000000E+01 0.  1.
         -5    1    3    3    0  502  0.12597793275E+02 -0.58893678344E+02  0.41200849104E+03  0.41640801966E+03  0.41800000000E+01 0.  1.
        -11    1    1    2    0    0  0.15345026293E+02  0.77920418508E+01  0.19450190160E+02  0.25971053991E+02  0.00000000000E+00 0.  1.
         11    1    1    2    0    0 -0.64508644410E+02  0.13425279606E+03  0.52853797986E+03  0.54912437080E+03  0.00000000000E+00 0. -1.
</event>
<event>
 7    1  0.2334784E-009  0.1472517E+03  0.7561462E-02  0.1203891E+00
         -1   -1    0    0    0  501 -0.00000000000E+00  0.00000000000E+00  0.24861653228E+03  0.24861653228E+03  0.00000000000E+00 0. -1.
          1   -1    0    0  501    0  0.00000000000E+00 -0.00000000000E+00 -0.88225570326E+02  0.88225570326E+02  0.00000000000E+00 0.  1.
         25    2    1    2    0    0  0.50043754883E+02 -0.84812456811E+02  0.79512899296E+02  0.17798437443E+03  0.12513435242E+03 0.  0.
          5    1    3    3  502    0 -0.47814486109E+01  0.30123137022E+02  0.23861313458E+02  0.38949971948E+02  0.41800000000E+01 0. -1.
         -5    1    3    3    0  502  0.54825203494E+02 -0.11493559383E+03  0.55651585838E+02  0.13903440248E+03  0.41800000000E+01 0. -1.
        -11    1    1    2    0    0  0.28328631437E+02  0.21839025872E+02  0.15860154718E+02  0.39127981264E+02  0.00000000000E+00 0. -1.
         11    1    1    2    0    0 -0.78372386320E+02  0.62973430939E+02  0.65017907940E+02  0.11972974691E+03  0.00000000000E+00 0.  1.
</event>
<event>
 7    1  0.2334784E-009  0.9817040E+02  0.7561462E-02  0.1284191E+00
         -2   -1    0    0    0  501 -0.00000000000E+00  0.00000000000E+00  0.40955540578E+02  0.40955540578E+02  0.00000000000E+00 0.  1.
          2   -1    0    0  501    0  0.00000000000E+00 -0.00000000000E+00 -0.62438498019E+03  0.62438498019E+03  0.00000000000E+00 0. -1.
         25    2    1    2    0    0 -0.68594107845E+01 -0.61601681063E+02 -0.52026515452E+03  0.53866985728E+03  0.12509022944E+03 0.  0.
          5    1    3    3  502    0 -0.47705450453E+02 -0.43181878850E+02 -0.45407421464E+03  0.45862986107E+03  0.41800000000E+01 0. -1.
         -5    1    3    3    0  502  0.40846039669E+02 -0.18419802213E+02 -0.66190939881E+02  0.80039996205E+02  0.41800000000E+01 0. -1.
        -11    1    1    2    0    0 -0.70126841198E+01 -0.10943278203E+02  0.14514197381E+02  0.19483197941E+02  0.00000000000E+00 0.  1.
         11    1    1    2    0    0  0.13872094904E+02  0.72544959267E+02 -0.77678482466E+02  0.10718746555E+03  0.00000000000E+00 0. -1.
</event>
<event>
 7    1  0.2334784E-009  0.1529101E+03  0.7561462E-02  0.1196942E+00
         -1   -1    0    0    0  501 -0.00000000000E+00  0.00000000000E+00  0.45796337954E+03  0.45796337954E+03  0.00000000000E+00 0.  1.
          1   -1    0    0  501    0  0.00000000000E+00 -0.00000000000E+00 -0.80786009393E+02  0.80786009393E+02  0.00000000000E+00 0. -1.
         25    2    1    2    0    0 -0.97436784872E+02  0.86333483923E+02  0.32160831709E+03  0.36881978199E+03  0.12509486190E+03 0.  0.
          5    1    3    3  502    0 -0.12259403051E+03  0.83515053764E+02  0.23025908924E+03  0.27393572439E+03  0.41800000000E+01 0. -1.
         -5    1    3    3    0  502  0.25157245639E+02  0.28184301597E+01  0.91349227859E+02  0.94884057603E+02  0.41800000000E+01 0. -1.
        -11    1    1    2    0    0  0.77965149444E+02 -0.78904172420E+02  0.36859123982E+00  0.11092596095E+03  0.00000000000E+00 0. -1.
         11    1    1    2    0    0  0.19471635428E+02 -0.74293115037E+01  0.55200461811E+02  0.59003645987E+02  0.00000000000E+00 0.  1.
</event>
<event>
 7    1  0.2334784E-009  0.1135887E+03  0.7561462E-02  0.1254065E+00
          1   -1    0    0  501    0  0.00000000000E+00  0.00000000000E+00  0.18243234905E+03  0.18243234905E+03  0.00000000000E+00 0. -1.
         -1   -1    0    0    0  501 -0.00000000000E+00 -0.00000000000E+00 -0.10097963834E+03  0.10097963834E+03  0.00000000000E+00 0.  1.
         25    2    1    2    0    0 -0.72042438310E+02 -0.16623598682E+02  0.79696297772E+02  0.16572530215E+03  0.12508764505E+03 0.  0.
          5    1    3    3  502    0  0.18185609864E+02  0.21461901466E+02 -0.12582162416E+02  0.31098437770E+02  0.41800000000E+01 0. -1.
         -5    1    3    3    0  502 -0.90228048174E+02 -0.38085500147E+02  0.92278460188E+02  0.13462686438E+03  0.41800000000E+01 0. -1.
        -11    1    1    2    0    0  0.76426620016E+02 -0.69427075019E+01 -0.25987193261E+02  0.81021994841E+02  0.00000000000E+00 0.  1.
         11    1    1    2    0    0 -0.43841817056E+01  0.23566306183E+02  0.27743606198E+02  0.36664690387E+02  0.00000000000E+00 0. -1.
</event>
<event>
 7    1  0.2334784E-009  0.9444980E+02  0.7561462E-02  0.1292420E+00
         -1   -1    0    0    0  501 -0.00000000000E+00  0.00000000000E+00  0.15150050710E+02  0.15150050710E+02  0.00000000000E+00 0.  1.
          1   -1    0    0  501    0  0.00000000000E+00 -0.00000000000E+00 -0.86300037200E+03  0.86300037200E+03  0.00000000000E+00 0. -1.
         25    2    1    2    0    0 -0.64029306310E+01  0.13964766030E+02 -0.60512798312E+03  0.61810808539E+03  0.12506685036E+03 0.  0.
          5    1    3    3  502    0  0.21173620026E+02  0.50535173644E+02 -0.50430733557E+03  0.50729230930E+03  0.41800000000E+01 0.  1.
         -5    1    3    3    0  502 -0.27576550657E+02 -0.36570407614E+02 -0.10082064755E+03  0.11081577609E+03  0.41800000000E+01 0.  1.
        -11    1    1    2    0    0  0.26861258367E+02  0.29512204662E+02 -0.68112129089E+02  0.78941494501E+02  0.00000000000E+00 0.  1.
         11    1    1    2    0    0 -0.20458327736E+02 -0.43476970692E+02 -0.17461020908E+03  0.18110084282E+03  0.00000000000E+00 0. -1.
</event>
<event>
 7    1  0.2334784E-009  0.1877797E+03  0.7561462E-02  0.1160479E+00
          1   -1    0    0  501    0  0.00000000000E+00  0.00000000000E+00  0.17296076956E+04  0.17296076956E+04  0.00000000000E+00 0. -1.
         -1   -1    0    0    0  501 -0.00000000000E+00 -0.00000000000E+00 -0.21684609474E+02  0.21684609474E+02  0.00000000000E+00 0.  1.
         25    2    1    2    0    0  0.14390962822E+03 -0.64345424438E+02  0.10044174141E+04  0.10243789559E+04  0.12509032281E+03 0.  0.
          5    1    3    3  502    0 -0.22430116476E+02 -0.10866485743E+00  0.10602176716E+03  0.10844910993E+03  0.41800000000E+01 0.  1.
         -5    1    3    3    0  502  0.16633974470E+03 -0.64236759580E+02  0.89839564694E+03  0.91592984599E+03  0.41800000000E+01 0.  1.
        -11    1    1    2    0    0 -0.13746950121E+03  0.31660396858E+02  0.63816001525E+03  0.65356594890E+03  0.00000000000E+00 0.  1.
         11    1    1    2    0    0 -0.64401270126E+01  0.32685027579E+02  0.65345656761E+02  0.73347400235E+02  0.00000000000E+00 0. -1.
</event>
<event>
 7    1  0.2334784E-009  0.1029229E+03  0.7561462E-02  0.1274267E+00
          2   -1    0    0  501    0  0.00000000000E+00  0.00000000000E+00  0.99018558472E+02  0.99018558472E+02  0.00000000000E+00 0. -1.
         -2   -1    0    0    0  501 -0.00000000000E+00 -0.00000000000E+00 -0.19194718773E+03  0.19194718773E+03  0.00000000000E+00 0.  1.
         25    2    1    2    0    0 -0.12701028882E+02  0.17934513553E+02 -0.13385288949E+03  0.18451610617E+03  0.12508650806E+03 0.  0.
          5    1    3    3  502    0 -0.62893947668E+02  0.28964977060E+02 -0.10377108491E+03  0.12482198930E+03  0.41800000000E+01 0.  1.
         -5    1    3    3    0  502  0.50192918786E+02 -0.11030463507E+02 -0.30081804578E+02  0.59694116864E+02  0.41800000000E+01 0.  1.
        -11    1    1    2    0    0  0.11522483611E+02 -0.50769172348E+02  0.50188257548E+02  0.72312776777E+02  0.00000000000E+00 0. -1.
         11    1    1    2    0    0  0.11785452715E+01  0.32834658795E+02 -0.92639973187E+01  0.34136863264E+02  0.00000000000E+00 0.  1.
</event>
<event>
 6    1  0.2334784E-009  0.2230874E+03  0.7561462E-02  0.1131602E+00
         -2   -1    0    0    0  501 -0.00000000000E+00  0.00000000000E+00  0.78943217605E+03  0.78943217605E+03  0.00000000000E+00 0.  1.
          2   -1    0    0  501    0  0.00000000000E+00 -0.00000000000E+00 -0.75951113508E+02  0.75951113508E+02  0.00000000000E+00 0. -1.
          5    1    1    2  502    0  0.11452877884E+03 -0.52162606602E+02  0.28709379133E+03  0.31349337494E+03  0.41800000000E+01 0.  1.
         -5    1    1    2    0  502  0.99333886506E+02  0.69913477633E+01  0.63584484005E+02  0.11822249768E+03  0.41800000000E+01 0.  1.
        -11    1    1    2    0    0 -0.19521926620E+03  0.49612194351E+02  0.25897329400E+03  0.32808398121E+03  0.00000000000E+00 0. -1.
         11    1    1    2    0    0 -0.18643399149E+02 -0.44409355119E+01  0.10382949320E+03  0.10558343572E+03  0.00000000000E+00 0.  1.
</event>
<event>
 7    1  0.2765389E-009  0.1252497E+03  0.7561462E-02  0.1234680E+00
         -1   -1    0    0    0  501 -0.00000000000E+00  0.00000000000E+00  0.22111107215E+02  0.22111107215E+02  0.00000000000E+00 0.  1.
          1   -1    0    0  501    0  0.00000000000E+00 -0.00000000000E+00 -0.86533262411E+03  0.86533262411E+03  0.00000000000E+00 0. -1.
         25    2    1    2    0    0 -0.61145386459E+02 -0.59723289147E+02 -0.46490104085E+03  0.48896404735E+03  0.12508889746E+03 0.  0.
          5    1    3    3  502    0  0.34229067143E+02 -0.42086556629E+02 -0.16413457923E+03  0.17291772548E+03  0.41800000000E+01 0.  1.
         -5    1    3    3    0  502 -0.95374453601E+02 -0.17636732519E+02 -0.30076646162E+03  0.31604632187E+03  0.41800000000E+01 0.  1.
        -11    1    1    2    0    0  0.22066210739E+02 -0.57105860105E+01 -0.15081294804E+02  0.27330823294E+02  0.00000000000E+00 0.  1.
         11    1    1    2    0    0  0.39079175719E+02  0.65433875158E+02 -0.36323918124E+03  0.37114886068E+03  0.00000000000E+00 0. -1.
</event>
<event>
 7    1  0.2334784E-009  0.1555585E+03  0.7561462E-02  0.1193804E+00
          2   -1    0    0  501    0  0.00000000000E+00  0.00000000000E+00  0.18569803952E+03  0.18569803952E+03  0.00000000000E+00 0.  1.
         -2   -1    0    0    0  501 -0.00000000000E+00 -0.00000000000E+00 -0.15507517665E+03  0.15507517665E+03  0.00000000000E+00 0. -1.
         25    2    1    2    0    0 -0.78715535924E+01  0.12557337443E+03 -0.15951573293E+02  0.17813754694E+03  0.12509156334E+03 0.  0.
          5    1    3    3  502    0  0.41189140876E+02  0.71556918612E+02  0.34231965914E+02  0.89477582766E+02  0.41800000000E+01 0.  1.
         -5    1    3    3    0  502 -0.49060694469E+02  0.54016455814E+02 -0.50183539207E+02  0.88659964177E+02  0.41800000000E+01 0.  1.
        -11    1    1    2    0    0  0.34829567657E+02 -0.93716562094E+01  0.16212530910E+02  0.39544568297E+02  0.00000000000E+00 0. -1.
         11    1    1    2    0    0 -0.26958014064E+02 -0.11620171822E+03  0.30361905248E+02  0.12309110093E+03  0.00000000000E+00 0.  1.
</event>
<event>
 7    1  0.2334784E-009  0.1083337E+03  0.7561462E-02  0.1263687E+00
          1   -1    0    0  501    0  0.00000000000E+00  0.00000000000E+00  0.10650450172E+03  0.10650450172E+03  0.00000000000E+00 0. -1.
         -1   -1    0    0    0  501 -0.00000000000E+00 -0.00000000000E+00 -0.12875948415E+03  0.12875948415E+03  0.00000000000E+00 0.  1.
         25    2    1    2    0    0  0.30725042191E+02  0.28075634490E+02 -0.24859003183E+02  0.13415638182E+03  0.12509074816E+03 0.  0.
          5    1    3    3  502    0  0.71781351869E+02  0.20260554665E-01  0.10955304993E+02  0.72732757366E+02  0.41800000000E+01 0. -1.
         -5    1    3    3    0  502 -0.41056309677E+02  0.28055373935E+02 -0.35814308176E+02  0.61423624454E+02  0.41800000000E+01 0. -1.
        -11    1    1    2    0    0  0.24282751204E+02  0.11725645928E+02  0.16761325165E+02  0.31750351175E+02  0.00000000000E+00 0. -1.
         11    1    1    2    0    0 -0.55007793395E+02 -0.39801280418E+02 -0.14157304413E+02  0.69357252868E+02  0.00000000000E+00 0.  1.
</event>
<event>
 7    1  0.2334784E-009  0.9820075E+02  0.7561462E-02  0.1284126E+00
          3   -1    0    0  501    0  0.00000000000E+00  0.00000000000E+00  0.36986259661E+02  0.36986259661E+02  0.00000000000E+00 0. -1.
         -3   -1    0    0    0  501 -0.00000000000E+00 -0.00000000000E+00 -0.40249493037E+03  0.40249493037E+03  0.00000000000E+00 0.  1.
         25    2    1    2    0    0 -0.29568081548E+02  0.19581333672E+02 -0.12958381562E+03  0.18357211656E+03  0.12509618952E+03 0.  0.
          5    1    3    3  502    0 -0.12509329904E+02 -0.43476288413E+02 -0.89248732244E+01  0.46301152803E+02  0.41800000000E+01 0. -1.
         -5    1    3    3    0  502 -0.17058751644E+02  0.63057622085E+02 -0.12065894240E+03  0.13727096376E+03  0.41800000000E+01 0. -1.
        -11    1    1    2    0    0  0.38487237169E+02  0.21080443843E+02 -0.55543626873E+02  0.70786630261E+02  0.00000000000E+00 0.  1.
         11    1    1    2    0    0 -0.89191556208E+01 -0.40661777515E+02 -0.18038122821E+03  0.18512244321E+03  0.00000000000E+00 0. -1.
</event>
<event>
 7    1  0.2334784E-009  0.1683614E+03  0.7561462E-02  0.1179567E+00
         -1   -1    0    0    0  501 -0.00000000000E+00  0.00000000000E+00  0.13362199166E+03  0.13362199166E+03  0.00000000000E+00 0.  1.
          1   -1    0    0  501    0  0.00000000000E+00 -0.00000000000E+00 -0.22950082537E+03  0.22950082537E+03  0.00000000000E+00 0. -1.
         25    2    1    2    0    0 -0.10116237285E+03  0.84843278944E+02 -0.22028165680E+02  0.18320924747E+03  0.12509268808E+03 0.  0.
          5    1    3    3  502    0 -0.31124028072E+02 -0.29372307367E+02 -0.23812863390E+02  0.49152440696E+02  0.41800000000E+01 0. -1.
         -5    1    3    3    0  502 -0.70038344777E+02  0.11421558631E+03  0.17846977110E+01  0.13405680677E+03  0.41800000000E+01 0. -1.
        -11    1    1    2    0    0  0.10607980862E+03 -0.38155860803E+02 -0.70249627184E+02  0.13282998769E+03  0.00000000000E+00 0. -1.
         11    1    1    2    0    0 -0.49174357694E+01 -0.46687418141E+02 -0.36010408517E+01  0.47083581878E+02  0.00000000000E+00 0.  1.
</event>
<event>
 7    1  0.2334784E-009  0.8614584E+02  0.7561462E-02  0.1312463E+00
         -1   -1    0    0    0  501 -0.00000000000E+00  0.00000000000E+00  0.10666476500E+03  0.10666476500E+03  0.00000000000E+00 0.  1.
          1   -1    0    0  501    0  0.00000000000E+00 -0.00000000000E+00 -0.12208690820E+03  0.12208690820E+03  0.00000000000E+00 0. -1.
         25    2    1    2    0    0  0.15774230044E+02  0.37935786262E+01 -0.11961329818E+02  0.12670993133E+03  0.12509642567E+03 0.  0.
          5    1    3    3  502    0 -0.33209220612E+02  0.10840263937E+01 -0.52945938666E+02  0.62648002906E+02  0.41800000000E+01 0.  1.
         -5    1    3    3    0  502  0.48983450656E+02  0.27095522325E+01  0.40984608849E+02  0.64061928428E+02  0.41800000000E+01 0.  1.
        -11    1    1    2    0    0  0.14393617050E+02  0.36497501310E+02 -0.25818135873E+02  0.46966157535E+02  0.00000000000E+00 0. -1.
         11    1    1    2    0    0 -0.30167847094E+02 -0.40291079936E+02  0.22357322493E+02  0.55075584334E+02  0.00000000000E+00 0.  1.
</event>
<event>
 7    1  0.2334784E-009  0.1988044E+03  0.7561462E-02  0.1150752E+00
         -2   -1    0    0    0  501 -0.00000000000E+00  0.00000000000E+00  0.17583400670E+02  0.17583400670E+02  0.00000000000E+00 0.  1.
          2   -1    0    0  501    0  0.00000000000E+00 -0.00000000000E+00 -0.31114844680E+04  0.31114844680E+04  0.00000000000E+00 0. -1.
         25    2    1    2    0    0 -0.14615034631E+03 -0.10185739639E+03 -0.22981265481E+04  0.23084122905E+04  0.12508724388E+03 0.  0.
          5    1    3    3  502    0  0.17892682539E+02  0.63774865847E+01 -0.13874272517E+03  0.14009938120E+03  0.41800000000E+01 0. -1.
         -5    1    3    3    0  502 -0.16404302885E+03 -0.10823488297E+03 -0.21593838230E+04  0.21683129093E+04  0.41800000000E+01 0. -1.
        -11    1    1    2    0    0  0.47544581182E+02  0.14127892200E+02 -0.91094550334E+02  0.10372223310E+03  0.00000000000E+00 0.  1.
         11    1    1    2    0    0  0.98605765129E+02  0.87729504187E+02 -0.70467996887E+03  0.71693334513E+03  0.00000000000E+00 0. -1.
</event>
<event>
 7    1  0.2334784E-009  0.2542808E+03  0.7561462E-02  0.1110629E+00
         -2   -1    0    0    0  501 -0.00000000000E+00  0.00000000000E+00  0.75273931796E+02  0.75273931796E+02  0.00000000000E+00 0.  1.
          2   -1    0    0  501    0  0.00000000000E+00 -0.00000000000E+00 -0.10354357077E+04  0.10354357077E+04  0.00000000000E+00 0. -1.
         25    2    1    2    0    0  0.22023928412E+03 -0.10826677624E+03 -0.33314564278E+03  0.43227917820E+03  0.12510887856E+03 0.  0.
          5    1    3    3  502    0  0.22587394067E+03 -0.11187759895E+03 -0.33899433777E+03  0.42245741521E+03  0.41800000000E+01 0.  1.
         -5    1    3    3    0  502 -0.56346565473E+01  0.36108227132E+01  0.58486949968E+01  0.98217629903E+01  0.41800000000E+01 0.  1.
        -11    1    1    2    0    0 -0.22602087803E+02 -0.12220412404E+01 -0.18208240682E+02  0.29049746756E+02  0.00000000000E+00 0. -1.
         11    1    1    2    0    0 -0.19763719632E+03  0.10948881748E+03 -0.60880789244E+03  0.64938071454E+03  0.00000000000E+00 0.  1.
</event>
<event>
 7    1  0.2334784E-009  0.1771689E+03  0.7561462E-02  0.1170571E+00
          2   -1    0    0  501    0  0.00000000000E+00  0.00000000000E+00  0.70796389942E+03  0.70796389942E+03  0.00000000000E+00 0. -1.
         -2   -1    0    0    0  501 -0.00000000000E+00 -0.00000000000E+00 -0.46118643619E+02  0.46118643619E+02  0.00000000000E+00 0.  1.
         25    2    1    2    0    0 -0.13900435454E+03  0.18422421406E+02  0.27874494139E+03  0.33616649738E+03  0.12509026906E+03 0.  0.
          5    1    3    3  502    0 -0.47385242232E+02  0.68121076814E+02  0.13592707633E+03  0.15930939949E+03  0.41800000000E+01 0.  1.
         -5    1    3    3    0  502 -0.91619112313E+02 -0.49698655408E+02  0.14281786507E+03  0.17685709789E+03  0.41800000000E+01 0.  1.
        -11    1    1    2    0    0  0.95796912887E+02 -0.54880488538E+02  0.25860459737E+03  0.28118544472E+03  0.00000000000E+00 0.  1.
         11    1    1    2    0    0  0.43207441658E+02  0.36458067133E+02  0.12449571704E+03  0.13673060094E+03  0.00000000000E+00 0. -1.
</event>
<event>
 7    1  0.2334784E-009  0.1655685E+03  0.7561462E-02  0.1182550E+00
          1   -1    0    0  501    0  0.00000000000E+00  0.00000000000E+00  0.10162134167E+03  0.10162134167E+03  0.00000000000E+00 0. -1.
         -1   -1    0    0    0  501 -0.00000000000E+00 -0.00000000000E+00 -0.30187003092E+03  0.30187003092E+03  0.00000000000E+00 0.  1.
         25    2    1    2    0    0  0.11065674631E+03  0.80286994023E+02 -0.91760126910E+02  0.20677972725E+03  0.12508804018E+03 0.  0.
          5    1    3    3  502    0  0.12647549460E+03  0.50133943463E+02 -0.10298546399E+03  0.17068374620E+03  0.41800000000E+01 0. -1.
         -5    1    3    3    0  502 -0.15818748288E+02  0.30153050560E+02  0.11225337081E+02  0.36095981051E+02  0.41800000000E+01 0. -1.
        -11    1    1    2    0    0  0.25286169397E+01 -0.40745207066E+02 -0.11257675617E+02  0.42347385549E+02  0.00000000000E+00 0.  1.
         11    1    1    2    0    0 -0.11318536325E+03 -0.39541786957E+02 -0.97230886720E+02  0.15436425980E+03  0.00000000000E+00 0. -1.
</event>
<event>
 7    1  0.2334784E-009  0.1457835E+03  0.7561462E-02  0.1205752E+00
         -3   -1    0    0    0  501 -0.00000000000E+00  0.00000000000E+00  0.63951577745E+03  0.63951577745E+03  0.00000000000E+00 0.  1.
          3   -1    0    0  501    0  0.00000000000E+00 -0.00000000000E+00 -0.88603452752E+02  0.88603452752E+02  0.00000000000E+00 0. -1.
         25    2    1    2    0    0  0.44682731839E+02  0.10038344859E+03  0.82317810295E+01  0.16670639752E+03  0.12509947035E+03 0.  0.
          5    1    3    3  502    0  0.67980302447E+02  0.10645246656E+03 -0.21531799883E+02  0.12819726972E+03  0.41800000000E+01 0.  1.
         -5    1    3    3    0  502 -0.23297570608E+02 -0.60690179762E+01  0.29763580912E+02  0.38509127803E+02  0.41800000000E+01 0.  1.
        -11    1    1    2    0    0 -0.70081134289E+02 -0.56365448364E+02  0.39897683828E+03  0.40898770964E+03  0.00000000000E+00 0.  1.
         11    1    1    2    0    0  0.25398402450E+02 -0.44018000222E+02  0.14370370539E+03  0.15242512304E+03  0.00000000000E+00 0. -1.
</event>
<event>
 7    1  0.2334784E-009  0.9138912E+02  0.7561462E-02  0.1299522E+00
         -2   -1    0    0    0  501 -0.00000000000E+00  0.00000000000E+00  0.25379638361E+02  0.25379638361E+02  0.00000000000E+00 0. -1.
          2   -1    0    0  501    0  0.00000000000E+00 -0.00000000000E+00 -0.69741606918E+03  0.69741606918E+03  0.00000000000E+00 0.  1.
         25    2    1    2    0    0  0.17141577983E+02  0.58407789807E+02 -0.53271207077E+03  0.55059068601E+03  0.12515050766E+03 0.  0.
          5    1    3    3  502    0 -0.86285983191E+01 -0.18094157278E+02 -0.12193289903E+02  0.23832749635E+02  0.41800000000E+01 0. -1.
         -5    1    3    3    0  502  0.25770176302E+02  0.76501947084E+02 -0.52051878087E+03  0.52675793637E+03  0.41800000000E+01 0. -1.
        -11    1    1    2    0    0 -0.34757691320E+02 -0.22314663643E+02 -0.12138127254E+03  0.12821643671E+03  0.00000000000E+00 0.  1.
         11    1    1    2    0    0  0.17616113337E+02 -0.36093126164E+02 -0.17943087510E+02  0.43988584823E+02  0.00000000000E+00 0. -1.
</event>
<event>
 7    1  0.2334784E-009  0.1062892E+03  0.7561462E-02  0.1267600E+00
         -1   -1    0    0    0  501 -0.00000000000E+00  0.00000000000E+00  0.14334092614E+03  0.14334092614E+03  0.00000000000E+00 0.  1.
          1   -1    0    0  501    0  0.00000000000E+00 -0.00000000000E+00 -0.89219259032E+02  0.89219259032E+02  0.00000000000E+00 0. -1.
         25    2    1    2    0    0  0.81987160777E+01 -0.27973609557E+02  0.16753223979E+02  0.12953231824E+03  0.12509280226E+03 0.  0.
          5    1    3    3  502    0 -0.52436571380E+02 -0.38506212977E+02  0.18690385578E+02  0.67816851659E+02  0.41800000000E+01 0. -1.
         -5    1    3    3    0  502  0.60635287457E+02  0.10532603420E+02 -0.19371615992E+01  0.61715466578E+02  0.41800000000E+01 0. -1.
        -11    1    1    2    0    0 -0.42676314633E+02  0.28329668919E+02 -0.12738815727E+01  0.51239250052E+02  0.00000000000E+00 0. -1.
         11    1    1    2    0    0  0.34477598555E+02 -0.35605936194E+00  0.38642324702E+02  0.51788616884E+02  0.00000000000E+00 0.  1.
</event>
<event>
 7    1  0.2334784E-009  0.1220748E+03  0.7561462E-02  0.1239713E+00
          1   -1    0    0  501    0  0.00000000000E+00  0.00000000000E+00  0.26416888566E+03  0.26416888566E+03  0.00000000000E+00 0. -1.
         -1   -1    0    0    0  501 -0.00000000000E+00 -0.00000000000E+00 -0.12556682854E+03  0.12556682854E+03  0.00000000000E+00 0.  1.
         25    2    1    2    0    0  0.65028757369E+02 -0.95439765575E+02  0.16863316477E+03  0.23962911094E+03  0.12508988133E+03 0.  0.
          5    1    3    3  502    0  0.23501085477E+02 -0.58988221044E+02  0.16119409958E+01  0.63655180420E+02  0.41800000000E+01 0.  1.
         -5    1    3    3    0  502  0.41527671892E+02 -0.36451544531E+02  0.16702122377E+03  0.17597393052E+03  0.41800000000E+01 0.  1.
        -11    1    1    2    0    0 -0.13593714981E+02  0.62638731481E+02 -0.54738332686E+02  0.84289292521E+02  0.00000000000E+00 0.  1.
         11    1    1    2    0    0 -0.51435042388E+02  0.32801034094E+02  0.24707225036E+02  0.65817310733E+02  0.00000000000E+00 0. -1.
</event>
<event>
 7    1  0.2334784E-009  0.6111867E+02  0.7561462E-02  0.1393196E+00
          3   -1    0    0  501    0  0.00000000000E+00  0.00000000000E+00  0.86115057288E+02  0.86115057288E+02  0.00000000000E+00 0. -1.
         -3   -1    0    0    0  501 -0.00000000000E+00 -0.00000000000E+00 -0.13868827439E+03  0.13868827439E+03  0.00000000000E+00 0.  1.
         25    2    1    2    0    0 -0.78802586951E+01  0.47657444247E+01 -0.40286673182E+02  0.13173715281E+03  0.12508737185E+03 0.  0.
          5    1    3    3  502    0 -0.58308509471E+01 -0.37124872726E+02  0.31018273630E+02  0.48906652888E+02  0.41800000000E+01 0. -1.
         -5    1    3    3    0  502 -0.20494077481E+01  0.41890617151E+02 -0.71304946812E+02  0.82830499921E+02  0.41800000000E+01 0. -1.
        -11    1    1    2    0    0  0.22068512804E+02 -0.13254842505E+02 -0.47576687328E+02  0.54094836023E+02  0.00000000000E+00 0.  1.
         11    1    1    2    0    0 -0.14188254109E+02  0.84890980800E+01  0.35290143412E+02  0.38971342842E+02  0.00000000000E+00 0. -1.
</event>
<event>
 7    1  0.2334784E-009  0.1408387E+03  0.7561462E-02  0.1212205E+00
         -3   -1    0    0    0  501 -0.00000000000E+00  0.00000000000E+00  0.17221893877E+03  0.17221893877E+03  0.00000000000E+00 0.  1.
          3   -1    0    0  501    0  0.00000000000E+00 -0.00000000000E+00 -0.17309752732E+03  0.17309752732E+03  0.00000000000E+00 0. -1.
         25    2    1    2    0    0  0.11036394315E+03 -0.33237133795E+02  0.67655599948E+02  0.18305739864E+03  0.12509126261E+03 0.  0.
          5    1    3    3  502    0  0.69078000508E+02 -0.76936813385E+02  0.18137822056E+02  0.10505948980E+03  0.41800000000E+01 0.  1.
         -5    1    3    3    0  502  0.41285942638E+02  0.43699679590E+02  0.49517777892E+02  0.77997908838E+02  0.41800000000E+01 0.  1.
        -11    1    1    2    0    0 -0.88173295292E+02  0.36638121173E+02 -0.89989223307E+02  0.13120572486E+03  0.00000000000E+00 0. -1.
         11    1    1    2    0    0 -0.22190647854E+02 -0.34009873782E+01  0.21455034809E+02  0.31053342589E+02  0.00000000000E+00 0.  1.
</event>
<event>
 7    1  0.2334784E-009  0.1782926E+03  0.7561462E-02  0.1169466E+00
         -1   -1    0    0    0  501 -0.00000000000E+00  0.00000000000E+00  0.32021416413E+03  0.32021416413E+03  0.00000000000E+00 0.  1.
          1   -1    0    0  501    0  0.00000000000E+00 -0.00000000000E+00 -0.18943893690E+03  0.18943893690E+03  0.00000000000E+00 0. -1.
         25    2    1    2    0    0 -0.67533491343E+02  0.14744236197E+03 -0.87149110050E+02  0.22258213918E+03  0.12509124167E+03 0.  0.
          5    1    3    3  502    0  0.28693061207E+02  0.23506747603E+02  0.91518840253E+01  0.38432906806E+02  0.41800000000E+01 0. -1.
         -5    1    3    3    0  502 -0.96226552550E+02  0.12393561437E+03 -0.96300994076E+02  0.18414923238E+03  0.41800000000E+01 0. -1.
        -11    1    1    2    0    0  0.17200349725E+02 -0.44462069209E+02  0.14147830817E+03  0.14929447181E+03  0.00000000000E+00 0.  1.
         11    1    1    2    0    0  0.50333141618E+02 -0.10298029277E+03  0.76446029103E+02  0.13777649004E+03  0.00000000000E+00 0. -1.
</event>
<event>
 7    1  0.2334784E-009  0.1054970E+03  0.7561462E-02  0.1269143E+00
          2   -1    0    0  501    0  0.00000000000E+00  0.00000000000E+00  0.70920083399E+03  0.70920083399E+03  0.00000000000E+00 0. -1.
         -2   -1    0    0    0  501 -0.00000000000E+00 -0.00000000000E+00 -0.26660228482E+02  0.26660228482E+02  0.00000000000E+00 0.  1.
         25    2    1    2    0    0  0.16752583380E+02 -0.54247916073E+02  0.20975057909E+03  0.25073085501E+03  0.12508865167E+03 0.  0.
          5    1    3    3  502    0 -0.29439381687E+02 -0.57106284535E+02  0.18932150874E+03  0.19996977521E+03  0.41800000000E+01 0. -1.
         -5    1    3    3    0  502  0.46191965067E+02  0.28583684616E+01  0.20429070358E+02  0.50761079802E+02  0.41800000000E+01 0. -1.
        -11    1    1    2    0    0  0.16563827771E+01  0.73491744238E+02  0.41550436814E+03  0.42195694095E+03  0.00000000000E+00 0. -1.
         11    1    1    2    0    0 -0.18408966157E+02 -0.19243828164E+02  0.57285658279E+02  0.63173266512E+02  0.00000000000E+00 0.  1.
</event>
<event>
 7    1  0.2334784E-009  0.1172880E+03  0.7561462E-02  0.1247639E+00
         -2   -1    0    0    0  501 -0.00000000000E+00  0.00000000000E+00  0.76583035796E+02  0.76583035796E+02  0.00000000000E+00 0.  1.
          2   -1    0    0  501    0  0.00000000000E+00 -0.00000000000E+00 -0.21131771581E+03  0.21131771581E+03  0.00000000000E+00 0. -1.
         25    2    1    2    0    0 -0.42858779071E+02 -0.52813102514E+02 -0.82082032237E+02  0.16435028986E+03  0.12508980382E+03 0.  0.
          5    1    3    3  502    0  0.20718414134E+02  0.18213860072E+02 -0.60353549252E+02  0.66490756427E+02  0.41800000000E+01 0.  1.
         -5    1    3    3    0  502 -0.63577193205E+02 -0.71026962587E+02 -0.21728482984E+02  0.97859533429E+02  0.41800000000E+01 0.  1.
        -11    1    1    2    0    0 -0.68685500100E+01  0.60545017876E+02 -0.22938410987E+02  0.65107963165E+02  0.00000000000E+00 0.  1.
         11    1    1    2    0    0  0.49727329081E+02 -0.77319153620E+01 -0.29714236788E+02  0.58442498583E+02  0.00000000000E+00 0. -1.
</event>
<event>
 7    1  0.2334784E-009  0.1572894E+03  0.7561462E-02  0.1191791E+00
         -2   -1    0    0    0  501 -0.00000000000E+00  0.00000000000E+00  0.36535592332E+02  0.36535592332E+02  0.00000000000E+00 0.  1.
          2   -1    0    0  501    0  0.00000000000E+00 -0.00000000000E+00 -0.93434251069E+03  0.93434251069E+03  0.00000000000E+00 0. -1.
         25    2    1    2    0    0  0.16199669902E+02  0.12854202150E+03 -0.27720531290E+03  0.33056981510E+03  0.12509251201E+03 0.  0.
          5    1    3    3  502    0  0.43698910475E+02  0.26712157001E+02 -0.17957557563E+03  0.18678328049E+03  0.41800000000E+01 0.  1.
         -5    1    3    3    0  502 -0.27499240573E+02  0.10182986450E+03 -0.97629737272E+02  0.14378653461E+03  0.41800000000E+01 0.  1.
        -11    1    1    2    0    0 -0.50189711570E+02 -0.44883272585E+02 -0.26345021865E+03  0.27191824693E+03  0.00000000000E+00 0. -1.
         11    1    1    2    0    0  0.33990041668E+02 -0.83658748916E+02 -0.35715138680E+03  0.36839004099E+03  0.00000000000E+00 0.  1.
</event>
<event>
 7    1  0.2334784E-009  0.1127502E+03  0.7561462E-02  0.1255560E+00
          1   -1    0    0  501    0  0.00000000000E+00  0.00000000000E+00  0.59645390971E+02  0.59645390971E+02  0.00000000000E+00 0.  1.
         -1   -1    0    0    0  501 -0.00000000000E+00 -0.00000000000E+00 -0.26216298504E+03  0.26216298504E+03  0.00000000000E+00 0. -1.
         25    2    1    2    0    0 -0.51897732304E+02  0.12617273057E+02 -0.13236238705E+03  0.18979719617E+03  0.12510237395E+03 0.  0.
          5    1    3    3  502    0 -0.91844762299E+02 -0.44872956803E+01 -0.95765584877E+02  0.13283115535E+03  0.41800000000E+01 0. -1.
         -5    1    3    3    0  502  0.39947029995E+02  0.17104568737E+02 -0.36596802177E+02  0.56966040820E+02  0.41800000000E+01 0. -1.
        -11    1    1    2    0    0 -0.14950993304E+02  0.11359735067E+02  0.12863265274E+02  0.22760478358E+02  0.00000000000E+00 0.  1.
         11    1    1    2    0    0  0.66848725608E+02 -0.23977008124E+02 -0.83018472288E+02  0.10925070149E+03  0.00000000000E+00 0. -1.
</event>
<event>
 7    1  0.2334784E-009  0.1856365E+03  0.7561462E-02  0.1162457E+00
          1   -1    0    0  501    0  0.00000000000E+00  0.00000000000E+00  0.51657644121E+02  0.51657644121E+02  0.00000000000E+00 0. -1.
         -1   -1    0    0    0  501 -0.00000000000E+00 -0.00000000000E+00 -0.80205817036E+03  0.80205817036E+03  0.00000000000E+00 0.  1.
         25    2    1    2    0    0 -0.25465614364E+02 -0.16738717894E+03 -0.32492244935E+03  0.38715439352E+03  0.12508781372E+03 0.  0.
          5    1    3    3  502    0  0.85652301732E+01  0.82659248735E+01 -0.94776046151E+02  0.95612028563E+02  0.41800000000E+01 0. -1.
         -5    1    3    3    0  502 -0.34030844537E+02 -0.17565310381E+03 -0.23014640320E+03  0.29154236495E+03  0.41800000000E+01 0. -1.
        -11    1    1    2    0    0  0.36431848215E+02  0.50398891671E+02 -0.23207247903E+03  0.24026019930E+03  0.00000000000E+00 0.  1.
         11    1    1    2    0    0 -0.10966233851E+02  0.11698828726E+03 -0.19340559786E+03  0.22630122166E+03  0.00000000000E+00 0. -1.
</event>
<event>
 7    1  0.2334784E-009  0.1358709E+03  0.7561462E-02  0.1218995E+00
         -2   -1    0    0    0  501 -0.00000000000E+00  0.00000000000E+00  0.94922936057E+02  0.94922936057E+02  0.00000000000E+00 0.  1.
          2   -1    0    0  501    0  0.00000000000E+00 -0.00000000000E+00 -0.24957814255E+03  0.24957814255E+03  0.00000000000E+00 0. -1.
         25    2    1    2    0    0  0.59965362308E+02  0.87514891671E+02 -0.56428620882E+02  0.17345430270E+03  0.12508998732E+03 0.  0.
          5    1    3    3  502    0 -0.30240831430E+02 -0.84142837738E+01 -0.51608208925E+01  0.32084490479E+02  0.41800000000E+01 0. -1.
         -5    1    3    3    0  502  0.90206193738E+02  0.95929175445E+02 -0.51267799989E+02  0.14136981222E+03  0.41800000000E+01 0. -1.
        -11    1    1    2    0    0 -0.49961005577E+02 -0.54973341464E+02 -0.11193865277E+03  0.13434445405E+03  0.00000000000E+00 0. -1.
         11    1    1    2    0    0 -0.10004356731E+02 -0.32541550207E+02  0.13712067168E+02  0.36702321855E+02  0.00000000000E+00 0.  1.
</event>
<event>
 7    1  0.2334784E-009  0.1507224E+03  0.7561462E-02  0.1199588E+00
         -3   -1    0    0    0  501 -0.00000000000E+00  0.00000000000E+00  0.86557968760E+02  0.86557968760E+02  0.00000000000E+00 0.  1.
          3   -1    0    0  501    0  0.00000000000E+00 -0.00000000000E+00 -0.27310158469E+03  0.27310158469E+03  0.00000000000E+00 0. -1.
         25    2    1    2    0    0  0.14566535787E+02 -0.10786669057E+03 -0.10086131647E+03  0.19408546379E+03  0.12509498470E+03 0.  0.
          5    1    3    3  502    0 -0.52544318835E+02 -0.69859203433E+02 -0.64502599966E+02  0.10871647322E+03  0.41800000000E+01 0.  1.
         -5    1    3    3    0  502  0.67110854622E+02 -0.38007487137E+02 -0.36358716505E+02  0.85368990579E+02  0.41800000000E+01 0.  1.
        -11    1    1    2    0    0  0.34637199990E+02  0.40999937240E+02 -0.12976734552E+02  0.55218892750E+02  0.00000000000E+00 0. -1.
         11    1    1    2    0    0 -0.49203735778E+02  0.66866753329E+02 -0.72705564902E+02  0.11035519690E+03  0.00000000000E+00 0.  1.
</event>
<event>
 7    1  0.3488892E-009  0.1035383E+03  0.7561462E-02  0.1273027E+00
         -2   -1    0    0    0  501 -0.00000000000E+00  0.00000000000E+00  0.26457687446E+02  0.26457687446E+02  0.00000000000E+00 0.  1.
          2   -1    0    0  501    0  0.00000000000E+00 -0.00000000000E+00 -0.83513047170E+03  0.83513047170E+03  0.00000000000E+00 0. -1.
         25    2    1    2    0    0  0.24432121476E+02 -0.96909415030E+02 -0.48429543503E+03  0.51007612900E+03  0.12508887121E+03 0.  0.
          5    1    3    3  502    0  0.25145170779E+02 -0.54882228265E+02 -0.65571007068E+02  0.89226498086E+02  0.41800000000E+01 0.  1.
         -5    1    3    3    0  502 -0.71304930316E+00 -0.42027186765E+02 -0.41872442796E+03  0.42084963091E+03  0.41800000000E+01 0.  1.
        -11    1    1    2    0    0 -0.23410627122E+02  0.33300471814E+02 -0.30598279134E+02  0.50923801618E+02  0.00000000000E+00 0.  1.
         11    1    1    2    0    0 -0.10214943540E+01  0.63608943216E+02 -0.29377907009E+03  0.30058822853E+03  0.00000000000E+00 0. -1.
</event>
<event>
 7    1  0.2334784E-009  0.1453103E+03  0.7561462E-02  0.1206357E+00
         -2   -1    0    0    0  501 -0.00000000000E+00  0.00000000000E+00  0.83220106446E+02  0.83220106446E+02  0.00000000000E+00 0.  1.
          2   -1    0    0  501    0  0.00000000000E+00 -0.00000000000E+00 -0.35644753658E+03  0.35644753658E+03  0.00000000000E+00 0. -1.
         25    2    1    2    0    0 -0.10423900887E+03  0.15169615693E+02 -0.40386538714E+02  0.16844597974E+03  0.12508831829E+03 0.  0.
          5    1    3    3  502    0 -0.10234119133E+03  0.51784609168E+02 -0.14235933071E+01  0.11478181131E+03  0.41800000000E+01 0.  1.
         -5    1    3    3    0  502 -0.18978175381E+01 -0.36614993475E+02 -0.38962945407E+02  0.53664168431E+02  0.41800000000E+01 0.  1.
        -11    1    1    2    0    0  0.76979589400E+02 -0.52167153498E+02 -0.16157378021E+03  0.18642251887E+03  0.00000000000E+00 0.  1.
         11    1    1    2    0    0  0.27259419473E+02  0.36997537805E+02 -0.71267111207E+02  0.84799144415E+02  0.00000000000E+00 0. -1.
</event>
<event>
 7    1  0.2334784E-009  0.1465052E+03  0.7561462E-02  0.1204834E+00
         -1   -1    0    0    0  501 -0.00000000000E+00  0.00000000000E+00  0.18997989487E+03  0.18997989487E+03  0.00000000000E+00 0.  1.
          1   -1    0    0  501    0  0.00000000000E+00 -0.00000000000E+00 -0.15196193220E+03  0.15196193220E+03  0.00000000000E+00 0. -1.
         25    2    1    2    0    0 -0.29898637126E+02  0.11810200747E+03  0.66314398023E+02  0.18678074656E+03  0.12508970873E+03 0.  0.
          5    1    3    3  502    0 -0.63588443818E+02  0.22440472455E+02  0.49817278296E+02  0.83942233756E+02  0.41800000000E+01 0.  1.
         -5    1    3    3    0  502  0.33689806691E+02  0.95661535011E+02  0.16497119727E+02  0.10283851280E+03  0.41800000000E+01 0.  1.
        -11    1    1    2    0    0  0.30881354674E+02 -0.78902691877E+02 -0.60752227695E+02  0.10425989652E+03  0.00000000000E+00 0. -1.
         11    1    1    2    0    0 -0.98271754800E+00 -0.39199315589E+02  0.32455792336E+02  0.50901184000E+02  0.00000000000E+00 0.  1.
</event>
<event>
 7    1  0.2334784E-009  0.1793390E+03  0.7561462E-02  0.1168444E+00
         -1   -1    0    0    0  501 -0.00000000000E+00  0.00000000000E+00  0.41032962818E+03  0.41032962818E+03  0.00000000000E+00 0.  1.
          1   -1    0    0  501    0  0.00000000000E+00 -0.00000000000E+00 -0.10937700900E+03  0.10937700900E+03  0.00000000000E+00 0. -1.
         25    2    1    2    0    0 -0.98611793366E+02  0.14089239740E+03  0.85836759703E+02  0.22932682717E+03  0.12509153012E+03 0.  0.
          5    1    3    3  502    0 -0.30275675980E+02  0.36368615570E+01 -0.25357527913E+02  0.39878815678E+02  0.41800000000E+01 0.  1.
         -5    1    3    3    0  502 -0.68336117386E+02  0.13725553584E+03  0.11119428762E+03  0.18944801149E+03  0.41800000000E+01 0.  1.
        -11    1    1    2    0    0  0.85170989847E+02 -0.13547771676E+03  0.13618574891E+03  0.21013059619E+03  0.00000000000E+00 0.  1.
         11    1    1    2    0    0  0.13440803520E+02 -0.54146806418E+01  0.78930110565E+02  0.80249213825E+02  0.00000000000E+00 0. -1.
</event>
<event>
 7    1  0.2334784E-009  0.1014577E+03  0.7561462E-02  0.1277260E+00
          2   -1    0    0  501    0  0.00000000000E+00  0.00000000000E+00  0.56388620036E+02  0.56388620036E+02  0.00000000000E+00 0. -1.
         -2   -1    0    0    0  501 -0.00000000000E+00 -0.00000000000E+00 -0.45797979864E+03  0.45797979864E+03  0.00000000000E+00 0.  1.
         25    2    1    2    0    0  0.23037674661E+02 -0.34466018407E+02 -0.39234464024E+03  0.41388369397E+03  0.12508698786E+03 0.  0.
          5    1    3    3  502    0  0.72718787229E+02 -0.13099065479E+02 -0.17778048612E+03  0.19256941912E+03  0.41800000000E+01 0.  1.
         -5    1    3    3    0  502 -0.49681112568E+02 -0.21366952927E+02 -0.21456415411E+03  0.22131427485E+03  0.41800000000E+01 0.  1.
        -11    1    1    2    0    0  0.17267748942E+02 -0.52825277435E+01 -0.34158224275E+02  0.38637605237E+02  0.00000000000E+00 0.  1.
         11    1    1    2    0    0 -0.40305423603E+02  0.39748546150E+02  0.24911685901E+02  0.61847119474E+02  0.00000000000E+00 0. -1.
</event>
<event>
 7    1  0.2334784E-009  0.1441356E+03  0.7561462E-02  0.1207870E+00
          1   -1    0    0  501    0  0.00000000000E+00  0.00000000000E+00  0.69314502901E+02  0.69314502901E+02  0.00000000000E+00 0. -1.
         -1   -1    0    0    0  501 -0.00000000000E+00 -0.00000000000E+00 -0.45428925610E+03  0.45428925610E+03  0.00000000000E+00 0.  1.
         25    2    1    2    0    0 -0.11227904232E+03 -0.48215119396E+02 -0.30208256990E+03  0.34904375693E+03  0.12508550730E+03 0.  0.
          5    1    3    3  502    0  0.14701602582E+02  0.65828147031E+01 -0.11584069167E+03  0.11702994836E+03  0.41800000000E+01 0. -1.
         -5    1    3    3    0  502 -0.12698064490E+03 -0.54797934099E+02 -0.18624187823E+03  0.23201380857E+03  0.41800000000E+01 0. -1.
        -11    1    1    2    0    0  0.61827652893E+01  0.23540199198E+02 -0.57891982229E+02  0.62800073020E+02  0.00000000000E+00 0.  1.
         11    1    1    2    0    0  0.10609627703E+03  0.24674920198E+02 -0.25000201071E+02  0.11175992905E+03  0.00000000000E+00 0. -1.
</event>
<event>
 7    1  0.2334784E-009  0.7268782E+02  0.7561462E-02  0.1351184E+00
         -2   -1    0    0    0  501 -0.00000000000E+00  0.00000000000E+00  0.29429692418E+03  0.29429692418E+03  0.00000000000E+00 0.  1.
          2   -1    0    0  501    0  0.00000000000E+00 -0.00000000000E+00 -0.56605716939E+02  0.56605716939E+02  0.00000000000E+00 0. -1.
         25    2    1    2    0    0  0.43359186125E+02  0.22592248044E+02  0.19715310870E+03  0.23855629085E+03  0.12509726993E+03 0.  0.
          5    1    3    3  502    0  0.10467951458E+02  0.18973813080E+01 -0.17209594441E+02  0.20659637082E+02  0.41800000000E+01 0. -1.
         -5    1    3    3    0  502  0.32891234667E+02  0.20694866736E+02  0.21436270314E+03  0.21789665377E+03  0.41800000000E+01 0. -1.
        -11    1    1    2    0    0 -0.65045854388E+02 -0.21851336375E+01  0.48911459830E+02  0.81412952808E+02  0.00000000000E+00 0.  1.
         11    1    1    2    0    0  0.21686668264E+02 -0.20407114406E+02 -0.83733612924E+01  0.30933397455E+02  0.00000000000E+00 0. -1.
</event>
<event>
 7    1  0.2334784E-009  0.1083769E+03  0.7561462E-02  0.1263605E+00
         -2   -1    0    0    0  501 -0.00000000000E+00  0.00000000000E+00  0.81080706430E+02  0.81080706430E+02  0.00000000000E+00 0. -1.
          2   -1    0    0  501    0  0.00000000000E+00 -0.00000000000E+00 -0.17086324961E+03  0.17086324961E+03  0.00000000000E+00 0.  1.
         25    2    1    2    0    0  0.41591328277E+02  0.16987180665E+02 -0.40369998401E+02  0.13890671855E+03  0.12508771640E+03 0.  0.
          5    1    3    3  502    0 -0.14983314047E+02 -0.35591199615E+02 -0.47351901584E+02  0.61244658326E+02  0.41800000000E+01 0. -1.
         -5    1    3    3    0  502  0.56574642324E+02  0.52578380280E+02  0.69819031827E+01  0.77662060229E+02  0.41800000000E+01 0. -1.
        -11    1    1    2    0    0 -0.91687877808E+01 -0.52024933829E+02 -0.34214819634E+02  0.62938972759E+02  0.00000000000E+00 0. -1.
         11    1    1    2    0    0 -0.32422540496E+02  0.35037753165E+02 -0.15197725145E+02  0.50098264727E+02  0.00000000000E+00 0.  1.
</event>
<event>
 7    1  0.2334784E-009  0.1173977E+03  0.7561462E-02  0.1247453E+00
          2   -1    0    0  501    0  0.00000000000E+00  0.00000000000E+00  0.53249118989E+03  0.53249118989E+03  0.00000000000E+00 0. -1.
         -2   -1    0    0    0  501 -0.00000000000E+00 -0.00000000000E+00 -0.45675607917E+02  0.45675607917E+02  0.00000000000E+00 0.  1.
         25    2    1    2    0    0 -0.60157912895E+02  0.59620596769E+02  0.39900006616E+03  0.42664080831E+03  0.12509091285E+03 0.  0.
          5    1    3    3  502    0 -0.19137497166E+02  0.94220277724E+02  0.27871945315E+03  0.29486558039E+03  0.41800000000E+01 0.  1.
         -5    1    3    3    0  502 -0.41020415730E+02 -0.34599680954E+02  0.12028061300E+03  0.13177522792E+03  0.41800000000E+01 0.  1.
        -11    1    1    2    0    0  0.72021853837E+01 -0.83197841520E+01 -0.18868847827E+02  0.21843161423E+02  0.00000000000E+00 0.  1.
         11    1    1    2    0    0  0.52955727511E+02 -0.51300812617E+02  0.10668436364E+03  0.12968282807E+03  0.00000000000E+00 0. -1.
</event>
<event>
 7    1  0.2334784E-009  0.1292304E+03  0.7561462E-02  0.1228602E+00
          1   -1    0    0  501    0  0.00000000000E+00  0.00000000000E+00  0.31296863082E+02  0.31296863082E+02  0.00000000000E+00 0.  1.
         -1   -1    0    0    0  501 -0.00000000000E+00 -0.00000000000E+00 -0.63724814471E+03  0.63724814471E+03  0.00000000000E+00 0. -1.
         25    2    1    2    0    0  0.63261754563E+02  0.62282011120E+02 -0.36574621270E+03  0.39660713367E+03  0.12508328373E+03 0.  0.
          5    1    3    3  502    0 -0.15081719847E+02  0.72541890307E+02 -0.17190410849E+03  0.18723856184E+03  0.41800000000E+01 0.  1.
         -5    1    3    3    0  502  0.78343474410E+02 -0.10259879187E+02 -0.19384210421E+03  0.20936857183E+03  0.41800000000E+01 0.  1.
        -11    1    1    2    0    0 -0.19202812442E+02 -0.57722385348E+02 -0.56689393874E+02  0.83152325005E+02  0.00000000000E+00 0.  1.
         11    1    1    2    0    0 -0.44058942120E+02 -0.45596257720E+01 -0.18351567505E+03  0.18878554912E+03  0.00000000000E+00 0. -1.
</event>
<event>
 7    1  0.2334784E-009  0.1032687E+03  0.7561462E-02  0.1273569E+00
         -1   -1    0    0    0  501 -0.00000000000E+00  0.00000000000E+00  0.13170617810E+03  0.13170617810E+03  0.00000000000E+00 0.  1.
          1   -1    0    0  501    0  0.00000000000E+00 -0.00000000000E+00 -0.10998827599E+03  0.10998827599E+03  0.00000000000E+00 0. -1.
         25    2    1    2    0    0  0.11123165652E+02  0.48340489919E+02  0.30366474864E+02  0.13794952030E+03  0.12508964615E+03 0.  0.
          5    1    3    3  502    0 -0.31912863715E+02  0.51758215668E+02 -0.26473975689E+02  0.66450639940E+02  0.41800000000E+01 0.  1.
         -5    1    3    3    0  502  0.43036029367E+02 -0.34177257494E+01  0.56840450554E+02  0.71498880356E+02  0.41800000000E+01 0.  1.
        -11    1    1    2    0    0 -0.29453562333E+02  0.17234848727E+02 -0.10267100620E+02  0.35636578117E+02  0.00000000000E+00 0. -1.
         11    1    1    2    0    0  0.18330396681E+02 -0.65575338646E+02  0.16185278602E+01  0.68108355680E+02  0.00000000000E+00 0.  1.
</event>
<event>
 7    1  0.2334784E-009  0.9293905E+02  0.7561462E-02  0.1295886E+00
         -1   -1    0    0    0  501 -0.00000000000E+00  0.00000000000E+00  0.10060870167E+02  0.10060870167E+02  0.00000000000E+00 0.  1.
          1   -1    0    0  501    0  0.00000000000E+00 -0.00000000000E+00 -0.12619322207E+04  0.12619322207E+04  0.00000000000E+00 0. -1.
         25    2    1    2    0    0  0.13226477328E+01 -0.80173700858E+01 -0.88595828903E+03  0.89478005188E+03  0.12507287366E+03 0.  0.
          5    1    3    3  502    0 -0.46039490178E+02 -0.70706336099E+01 -0.73549588266E+03  0.73698120351E+03  0.41800000000E+01 0. -1.
         -5    1    3    3    0  502  0.47362137911E+02 -0.94673647583E+00 -0.15046240637E+03  0.15779884838E+03  0.41800000000E+01 0. -1.
        -11    1    1    2    0    0  0.36366977741E+02 -0.22755266445E+02 -0.17937697852E+03  0.18443551622E+03  0.00000000000E+00 0.  1.
         11    1    1    2    0    0 -0.37689625474E+02  0.30772636530E+02 -0.18653608296E+03  0.19277752274E+03  0.00000000000E+00 0. -1.
</event>
<event>
 7    1  0.2334784E-009  0.1172957E+03  0.7561462E-02  0.1247626E+00
         -2   -1    0    0    0  501 -0.00000000000E+00  0.00000000000E+00  0.14402259630E+03  0.14402259630E+03  0.00000000000E+00 0.  1.
          2   -1    0    0  501    0  0.00000000000E+00 -0.00000000000E+00 -0.19712633390E+03  0.19712633390E+03  0.00000000000E+00 0. -1.
         25    2    1    2    0    0  0.21480250420E+02 -0.73138733521E+02  0.93444587375E+01  0.14678571340E+03  0.12509217102E+03 0.  0.
          5    1    3    3  502    0  0.16804543260E+02 -0.84797159728E+02  0.52784204441E+02  0.10137354492E+03  0.41800000000E+01 0. -1.
         -5    1    3    3    0  502  0.46757071597E+01  0.11658426207E+02 -0.43439745704E+02  0.45412168478E+02  0.41800000000E+01 0. -1.
        -11    1    1    2    0    0 -0.60090180141E+02  0.75057795200E+02  0.24489565171E+02  0.99218149408E+02  0.00000000000E+00 0.  1.
         11    1    1    2    0    0  0.38609929721E+02 -0.19190616797E+01 -0.86937761518E+02  0.95145067389E+02  0.00000000000E+00 0. -1.
</event>
<event>
 7    1  0.2334784E-009  0.1142337E+03  0.7561462E-02  0.1252925E+00
          3   -1    0    0  501    0  0.00000000000E+00  0.00000000000E+00  0.61484246577E+02  0.61484246577E+02  0.00000000000E+00 0. -1.
         -3   -1    0    0    0  501 -0.00000000000E+00 -0.00000000000E+00 -0.23544205107E+03  0.23544205107E+03  0.00000000000E+00 0.  1.
         25    2    1    2    0    0  0.16065408767E+02 -0.52242665942E+02 -0.96655086974E+02  0.16726452788E+03  0.12509125846E+03 0.  0.
          5    1    3    3  502    0  0.19472701798E+02  0.34305630868E+02 -0.62581221110E+02  0.74094156720E+02  0.41800000000E+01 0. -1.
         -5    1    3    3    0  502 -0.34072930308E+01 -0.86548296809E+02 -0.34073865864E+02  0.93170371156E+02  0.41800000000E+01 0. -1.
        -11    1    1    2    0    0  0.65836574450E+01  0.71835069232E+02 -0.42408239163E+02  0.83678434891E+02  0.00000000000E+00 0. -1.
         11    1    1    2    0    0 -0.22649066212E+02 -0.19592403290E+02 -0.34894478357E+02  0.45983334881E+02  0.00000000000E+00 0.  1.
</event>
<event>
 7    1  0.2334784E-009  0.1474137E+03  0.7561462E-02  0.1203687E+00
          1   -1    0    0  501    0  0.00000000000E+00  0.00000000000E+00  0.14395453905E+03  0.14395453905E+03  0.00000000000E+00 0.  1.
         -1   -1    0    0    0  501 -0.00000000000E+00 -0.00000000000E+00 -0.20803620341E+03  0.20803620341E+03  0.00000000000E+00 0. -1.
         25    2    1    2    0    0  0.11034225195E+03  0.49050261105E+02  0.26711535546E+02  0.17590158288E+03  0.12508605058E+03 0.  0.
          5    1    3    3  502    0  0.73304082017E+02  0.82445643035E+02 -0.14136734098E+02  0.11130180657E+03  0.41800000000E+01 0.  1.
         -5    1    3    3    0  502  0.37038169931E+02 -0.33395381930E+02  0.40848269644E+02  0.64599776308E+02  0.41800000000E+01 0.  1.
        -11    1    1    2    0    0 -0.26317154144E+02  0.13550246852E+02  0.94571794868E+01  0.31074749168E+02  0.00000000000E+00 0. -1.
         11    1    1    2    0    0 -0.84025097803E+02 -0.62600507957E+02 -0.10025037940E+03  0.14501441041E+03  0.00000000000E+00 0.  1.
</event>
<event>
 7    1  0.2334784E-009  0.1003847E+03  0.7561462E-02  0.1279489E+00
         -3   -1    0    0    0  501 -0.00000000000E+00  0.00000000000E+00  0.14859121117E+03  0.14859121117E+03  0.00000000000E+00 0.  1.
          3   -1    0    0  501    0  0.00000000000E+00 -0.00000000000E+00 -0.10500936156E+03  0.10500936156E+03  0.00000000000E+00 0. -1.
         25    2    1    2    0    0 -0.22054076918E+01  0.19119891956E+01 -0.39271265055E+02  0.13114410318E+03  0.12509206215E+03 0.  0.
          5    1    3    3  502    0 -0.15336028226E+02 -0.52425045940E+02 -0.49884368149E+02  0.74091172140E+02  0.41800000000E+01 0.  1.
         -5    1    3    3    0  502  0.13130620534E+02  0.54337035135E+02  0.10613103093E+02  0.57052931039E+02  0.41800000000E+01 0.  1.
        -11    1    1    2    0    0 -0.34224975046E+02 -0.28736815655E+02  0.45650040406E+02  0.63883328654E+02  0.00000000000E+00 0.  1.
         11    1    1    2    0    0  0.36430382738E+02  0.26824826460E+02  0.37203074257E+02  0.58573140903E+02  0.00000000000E+00 0. -1.
</event>
<event>
 7    1  0.2334784E-009  0.2059384E+03  0.7561462E-02  0.1144823E+00
          2   -1    0    0  501    0  0.00000000000E+00  0.00000000000E+00  0.10080237768E+04  0.10080237768E+04  0.00000000000E+00 0. -1.
         -2   -1    0    0    0  501 -0.00000000000E+00 -0.00000000000E+00 -0.49727620996E+02  0.49727620996E+02  0.00000000000E+00 0.  1.
         25    2    1    2    0    0  0.70660961670E+02 -0.17830764111E+03  0.58848711673E+03  0.63146729192E+03  0.12508903957E+03 0.  0.
          5    1    3    3  502    0  0.79999856541E+02 -0.11395643529E+03  0.51381869599E+03  0.53236563651E+03  0.41800000000E+01 0. -1.
         -5    1    3    3    0  502 -0.93388948709E+01 -0.64351205823E+02  0.74668420741E+02  0.99101655406E+02  0.41800000000E+01 0. -1.
        -11    1    1    2    0    0 -0.68188364885E+01  0.12230986837E+03  0.26049131442E+03  0.28785747397E+03  0.00000000000E+00 0. -1.
         11    1    1    2    0    0 -0.63842125182E+02  0.55997772746E+02  0.10931772468E+03  0.13842663193E+03  0.00000000000E+00 0.  1.
</event>
<event>
 7    1  0.2334784E-009  0.1123901E+03  0.7561462E-02  0.1256207E+00
          1   -1    0    0  501    0  0.00000000000E+00  0.00000000000E+00  0.25875136050E+03  0.25875136050E+03  0.00000000000E+00 0. -1.
         -1   -1    0    0    0  501 -0.00000000000E+00 -0.00000000000E+00 -0.66044942008E+02  0.66044942008E+02  0.00000000000E+00 0.  1.
         25    2    1    2    0    0 -0.63336406249E+02 -0.31649017149E+02  0.10782275117E+03  0.17968511977E+03  0.12509131046E+03 0.  0.
          5    1    3    3  502    0 -0.20804048673E+02 -0.75750126236E+02  0.40214383968E+02  0.88349075512E+02  0.41800000000E+01 0. -1.
         -5    1    3    3    0  502 -0.42532357576E+02  0.44101109087E+02  0.67608367207E+02  0.91336044254E+02  0.41800000000E+01 0. -1.
        -11    1    1    2    0    0  0.81856646896E+01  0.28289011768E+02  0.84895345086E+02  0.89858182212E+02  0.00000000000E+00 0. -1.
         11    1    1    2    0    0  0.55150741560E+02  0.33600053814E+01 -0.11677772563E-01  0.55253000526E+02  0.00000000000E+00 0.  1.
</event>
<event>
 7    1  0.2334784E-009  0.1723792E+03  0.7561462E-02  0.1175389E+00
         -2   -1    0    0    0  501 -0.00000000000E+00  0.00000000000E+00  0.19538498127E+03  0.19538498127E+03  0.00000000000E+00 0.  1.
          2   -1    0    0  501    0  0.00000000000E+00 -0.00000000000E+00 -0.20399143863E+03  0.20399143863E+03  0.00000000000E+00 0. -1.
         25    2    1    2    0    0 -0.11922322036E+03 -0.11495903080E+03  0.18141872135E+01  0.20756023128E+03  0.12509277876E+03 0.  0.
          5    1    3    3  502    0 -0.64142038822E+02 -0.24362188926E+02 -0.54233173090E+02  0.87558134156E+02  0.41800000000E+01 0. -1.
         -5    1    3    3    0  502 -0.55081181539E+02 -0.90596841878E+02  0.56047360304E+02  0.12000209713E+03  0.41800000000E+01 0. -1.
        -11    1    1    2    0    0  0.41863840460E+01  0.20895549255E+02 -0.35217431230E+02  0.41163299825E+02  0.00000000000E+00 0. -1.
         11    1    1    2    0    0  0.11503683631E+03  0.94063481550E+02  0.24796786659E+02  0.15065288878E+03  0.00000000000E+00 0.  1.
</event>
<event>
 7    1  0.2334784E-009  0.1200139E+03  0.7561462E-02  0.1243074E+00
         -2   -1    0    0    0  501 -0.00000000000E+00  0.00000000000E+00  0.92225736165E+03  0.92225736165E+03  0.00000000000E+00 0. -1.
          2   -1    0    0  501    0  0.00000000000E+00 -0.00000000000E+00 -0.17745018035E+02  0.17745018035E+02  0.00000000000E+00 0.  1.
         25    2    1    2    0    0  0.39025335493E+02 -0.59854864522E+02  0.51475871018E+03  0.53453973871E+03  0.12510244180E+03 0.  0.
          5    1    3    3  502    0  0.29236158184E+02 -0.95741271799E+02  0.29333149528E+03  0.30997093830E+03  0.41800000000E+01 0. -1.
         -5    1    3    3    0  502  0.97891773084E+01  0.35886407277E+02  0.22142721490E+03  0.22456880041E+03  0.41800000000E+01 0. -1.
        -11    1    1    2    0    0 -0.51851351785E+02  0.12492631626E+02  0.28286633358E+03  0.28785064043E+03  0.00000000000E+00 0. -1.
         11    1    1    2    0    0  0.12826016292E+02  0.47362232897E+02  0.10688729986E+03  0.11761200054E+03  0.00000000000E+00 0.  1.
</event>
<event>
 7    1  0.2334784E-009  0.9397163E+02  0.7561462E-02  0.1293509E+00
         -1   -1    0    0    0  501 -0.00000000000E+00  0.00000000000E+00  0.30552966594E+02  0.30552966594E+02  0.00000000000E+00 0.  1.
          1   -1    0    0  501    0  0.00000000000E+00 -0.00000000000E+00 -0.57319374142E+03  0.57319374142E+03  0.00000000000E+00 0. -1.
         25    2    1    2    0    0 -0.31719783947E+02 -0.25470231717E+02 -0.16095547908E+03  0.20786814137E+03  0.12509044949E+03 0.  0.
          5    1    3    3  502    0 -0.40278534723E+02  0.23552999987E+02 -0.87204110020E+01  0.47651045486E+02  0.41800000000E+01 0. -1.
         -5    1    3    3    0  502  0.85587507761E+01 -0.49023231704E+02 -0.15223506808E+03  0.16021709589E+03  0.41800000000E+01 0. -1.
        -11    1    1    2    0    0 -0.17157901691E+02  0.37134487493E+02 -0.78118546151E+02  0.88180899318E+02  0.00000000000E+00 0.  1.
         11    1    1    2    0    0  0.48877685639E+02 -0.11664255776E+02 -0.30356674959E+03  0.30769766732E+03  0.00000000000E+00 0. -1.
</event>
<event>
 7    1  0.2334784E-009  0.1939031E+03  0.7561462E-02  0.1154987E+00
          2   -1    0    0  501    0  0.00000000000E+00  0.00000000000E+00  0.12947826719E+04  0.12947826719E+04  0.00000000000E+00 0. -1.
         -2   -1    0    0    0  501 -0.00000000000E+00 -0.00000000000E+00 -0.31972928546E+02  0.31972928546E+02  0.00000000000E+00 0.  1.
         25    2    1    2    0    0 -0.44171404512E+02 -0.15898305645E+03  0.50838768698E+03  0.54893803779E+03  0.12509278096E+03 0.  0.
          5    1    3    3  502    0 -0.74224526644E+02 -0.56663242818E+02  0.30840864719E+03  0.32226288881E+03  0.41800000000E+01 0. -1.
         -5    1    3    3    0  502  0.30053122132E+02 -0.10231981363E+03  0.19997903979E+03  0.22667514899E+03  0.41800000000E+01 0. -1.
        -11    1    1    2    0    0 -0.21514825379E+02  0.89260233819E+02  0.42175668765E+03  0.43163524025E+03  0.00000000000E+00 0. -1.
         11    1    1    2    0    0  0.65686229891E+02  0.69722822629E+02  0.33266536870E+03  0.34618232237E+03  0.00000000000E+00 0.  1.
</event>
<event>
 7    1  0.2334784E-009  0.2014001E+03  0.7561462E-02  0.1148563E+00
         -4   -1    0    0    0  501 -0.00000000000E+00  0.00000000000E+00  0.90493710653E+03  0.90493710653E+03  0.00000000000E+00 0.  1.
          4   -1    0    0  501    0  0.00000000000E+00 -0.00000000000E+00 -0.61345708147E+02  0.61345708147E+02  0.00000000000E+00 0. -1.
         25    2    1    2    0    0  0.17018427367E+03 -0.29445452026E+02  0.19538132077E+03  0.28922307894E+03  0.12508559964E+03 0.  0.
          5    1    3    3  502    0  0.18470343441E+03 -0.13171138207E+02  0.14868459376E+03  0.23751509085E+03  0.41800000000E+01 0.  1.
         -5    1    3    3    0  502 -0.14519160732E+02 -0.16274313819E+02  0.46696727011E+02  0.51707988089E+02  0.41800000000E+01 0.  1.
        -11    1    1    2    0    0  0.92040707190E+01  0.12022918826E+02  0.43344072599E+02  0.45912679342E+02  0.00000000000E+00 0. -1.
         11    1    1    2    0    0 -0.17938834439E+03  0.17422533200E+02  0.60486600501E+03  0.63114705639E+03  0.00000000000E+00 0.  1.
</event>
<event>
 7    1  0.2334784E-009  0.1014807E+03  0.7561462E-02  0.1277213E+00
          2   -1    0    0  501    0  0.00000000000E+00  0.00000000000E+00  0.85257570400E+03  0.85257570400E+03  0.00000000000E+00 0. -1.
         -2   -1    0    0    0  501 -0.00000000000E+00 -0.00000000000E+00 -0.23456275234E+02  0.23456275234E+02  0.00000000000E+00 0.  1.
         25    2    1    2    0    0 -0.40453745338E+01 -0.49227934487E+02  0.69637771171E+03  0.70924569558E+03  0.12509110579E+03 0.  0.
          5    1    3    3  502    0 -0.10859885429E+01  0.32505421181E+02  0.41223074111E+03  0.41353287426E+03  0.41800000000E+01 0. -1.
         -5    1    3    3    0  502 -0.29593859909E+01 -0.81733355668E+02  0.28414697060E+03  0.29571282133E+03  0.41800000000E+01 0. -1.
        -11    1    1    2    0    0  0.37942473108E+02  0.17262714350E+02  0.23104246960E+02  0.47659613929E+02  0.00000000000E+00 0.  1.
         11    1    1    2    0    0 -0.33897098574E+02  0.31965220137E+02  0.10963747010E+03  0.11912666972E+03  0.00000000000E+00 0. -1.
</event>
<event>
 7    1  0.2334784E-009  0.9028213E+02  0.7561462E-02  0.1302170E+00
         -1   -1    0    0    0  501 -0.00000000000E+00  0.00000000000E+00  0.19480018556E+03  0.19480018556E+03  0.00000000000E+00 0.  1.
          1   -1    0    0  501    0  0.00000000000E+00 -0.00000000000E+00 -0.82553653952E+02  0.82553653952E+02  0.00000000000E+00 0. -1.
         25    2    1    2    0    0  0.25396063820E+02 -0.55242624751E+02  0.33697973632E+02  0.14310745208E+03  0.12508989474E+03 0.  0.
          5    1    3    3  502    0 -0.25295570723E+02 -0.29253637466E+02  0.66645890838E+02  0.77167275245E+02  0.41800000000E+01 0. -1.
         -5    1    3    3    0  502  0.50691634543E+02 -0.25988987285E+02 -0.32947917206E+02  0.65940176834E+02  0.41800000000E+01 0. -1.
        -11    1    1    2    0    0 -0.19092916179E+02 -0.82090447841E+01  0.66084752100E+02  0.69275697937E+02  0.00000000000E+00 0.  1.
         11    1    1    2    0    0 -0.63031476405E+01  0.63451669535E+02  0.12463805879E+02  0.64970689499E+02  0.00000000000E+00 0. -1.
</event>
<event>
 7    1  0.2693422E-009  0.1519179E+03  0.7561462E-02  0.1198136E+00
          2   -1    0    0  501    0  0.00000000000E+00  0.00000000000E+00  0.51205310085E+03  0.51205310085E+03  0.00000000000E+00 0.  1.
         -2   -1    0    0    0  501 -0.00000000000E+00 -0.00000000000E+00 -0.53438172987E+02  0.53438172987E+02  0.00000000000E+00 0. -1.
         25    2    1    2    0    0  0.52647591437E+02  0.11223121212E+03  0.26326305126E+03  0.31673441004E+03  0.12508252670E+03 0.  0.
          5    1    3    3  502    0  0.23269892570E+02  0.12919768667E+03  0.15479828137E+03  0.20301110919E+03  0.41800000000E+01 0. -1.
         -5    1    3    3    0  502  0.29377698867E+02 -0.16966474541E+02  0.10846476989E+03  0.11372330085E+03  0.41800000000E+01 0. -1.
        -11    1    1    2    0    0 -0.62333185765E+02 -0.64848376282E+02  0.68693382875E+02  0.11317914474E+03  0.00000000000E+00 0. -1.
         11    1    1    2    0    0  0.96855943278E+01 -0.47382835842E+02  0.12665849373E+03  0.13557771905E+03  0.00000000000E+00 0.  1.
</event>
<event>
 7    1  0.2334784E-009  0.4362332E+02  0.7561462E-02  0.1483124E+00
         -2   -1    0    0    0  501 -0.00000000000E+00  0.00000000000E+00  0.40338535714E+02  0.40338535714E+02  0.00000000000E+00 0.  1.
          2   -1    0    0  501    0  0.00000000000E+00 -0.00000000000E+00 -0.18635845308E+03  0.18635845308E+03  0.00000000000E+00 0. -1.
         25    2    1    2    0    0  0.18751317431E+02 -0.12318965191E+02 -0.11536220060E+03  0.17164286215E+03  0.12509782569E+03 0.  0.
          5    1    3    3  502    0  0.13264516776E+02 -0.24526574616E+02 -0.14026133739E+03  0.14306717105E+03  0.41800000000E+01 0. -1.
         -5    1    3    3    0  502  0.54868006553E+01  0.12207609425E+02  0.24899136783E+02  0.28575691100E+02  0.41800000000E+01 0. -1.
        -11    1    1    2    0    0  0.58217202656E+01  0.18746870068E+02 -0.18178068173E+02  0.26754060004E+02  0.00000000000E+00 0. -1.
         11    1    1    2    0    0 -0.24573037697E+02 -0.64279048766E+01 -0.12479648589E+02  0.28300066637E+02  0.00000000000E+00 0.  1.
</event>
<event>
 7    1  0.2334784E-009  0.7955022E+02  0.7561462E-02  0.1330333E+00
         -1   -1    0    0    0  501 -0.00000000000E+00  0.00000000000E+00  0.22033651422E+03  0.22033651422E+03  0.00000000000E+00 0.  1.
          1   -1    0    0  501    0  0.00000000000E+00 -0.00000000000E+00 -0.11725577373E+03  0.11725577373E+03  0.00000000000E+00 0. -1.
         25    2    1    2    0    0 -0.97803474312E+01  0.91234064306E+01 -0.68778856980E+02  0.14337816452E+03  0.12509146714E+03 0.  0.
          5    1    3    3  502    0 -0.36970897941E+02  0.39062026819E+02 -0.84111610105E+02  0.99924594511E+02  0.41800000000E+01 0. -1.
         -5    1    3    3    0  502  0.27190550510E+02 -0.29938620388E+02  0.15332753125E+02  0.43453570005E+02  0.41800000000E+01 0. -1.
        -11    1    1    2    0    0  0.32741565166E+02 -0.20745830274E+02  0.27368974612E+02  0.47449555684E+02  0.00000000000E+00 0. -1.
         11    1    1    2    0    0 -0.22961217735E+02  0.11622423843E+02  0.14449062285E+03  0.14676456775E+03  0.00000000000E+00 0.  1.
</event>
<event>
 7    1  0.2334784E-009  0.8133397E+02  0.7561462E-02  0.1325308E+00
          1   -1    0    0  501    0  0.00000000000E+00  0.00000000000E+00  0.38872730384E+03  0.38872730384E+03  0.00000000000E+00 0. -1.
         -1   -1    0    0    0  501 -0.00000000000E+00 -0.00000000000E+00 -0.37022597393E+02  0.37022597393E+02  0.00000000000E+00 0.  1.
         25    2    1    2    0    0  0.44246576540E+02  0.21893124774E+02  0.22341139541E+03  0.26076408972E+03  0.12509272737E+03 0.  0.
          5    1    3    3  502    0  0.67677682798E+01  0.25663835675E+02  0.22117277923E+03  0.22279880121E+03  0.41800000000E+01 0. -1.
         -5    1    3    3    0  502  0.37478808260E+02 -0.37707109008E+01  0.22386161793E+01  0.37965288511E+02  0.41800000000E+01 0. -1.
        -11    1    1    2    0    0 -0.51442674626E+02  0.20148208186E+02  0.98572997684E+02  0.11299971212E+03  0.00000000000E+00 0.  1.
         11    1    1    2    0    0  0.71960980859E+01 -0.42041332960E+02  0.29720313359E+02  0.51986099400E+02  0.00000000000E+00 0. -1.
</event>
<event>
 7    1  0.2334784E-009  0.1213302E+03  0.7561462E-02  0.1240919E+00
          2   -1    0    0  501    0  0.00000000000E+00  0.00000000000E+00  0.96049456977E+02  0.96049456977E+02  0.00000000000E+00 0.  1.
         -2   -1    0    0    0  501 -0.00000000000E+00 -0.00000000000E+00 -0.18123539932E+03  0.18123539932E+03  0.00000000000E+00 0. -1.
         25    2    1    2    0    0  0.11216713577E+02  0.74113680401E+02 -0.48969903295E+02  0.15383381482E+03  0.12509252123E+03 0.  0.
          5    1    3    3  502    0  0.33748376872E+02 -0.17295231193E+02 -0.45710359183E+02  0.59539795936E+02  0.41800000000E+01 0.  1.
         -5    1    3    3    0  502 -0.22531663295E+02  0.91408911593E+02 -0.32595441127E+01  0.94294018884E+02  0.41800000000E+01 0.  1.
        -11    1    1    2    0    0 -0.36627736500E+02 -0.54182218266E+01  0.80195558432E+01  0.37884845054E+02  0.00000000000E+00 0.  1.
         11    1    1    2    0    0  0.25411022922E+02 -0.68695458574E+02 -0.44235594889E+02  0.85566196420E+02  0.00000000000E+00 0. -1.
</event>
<event>
 7    1  0.2790589E-009  0.1280374E+03  0.7561462E-02  0.1230397E+00
         -1   -1    0    0    0  501 -0.00000000000E+00  0.00000000000E+00  0.22420277678E+03  0.22420277678E+03  0.00000000000E+00 0.  1.
          1   -1    0    0  501    0  0.00000000000E+00 -0.00000000000E+00 -0.91059384410E+02  0.91059384410E+02  0.00000000000E+00 0. -1.
         25    2    1    2    0    0  0.48461912221E+02 -0.78909586906E+02  0.68626939113E+02  0.17009612908E+03  0.12509099294E+03 0.  0.
          5    1    3    3  502    0  0.89807544032E+01 -0.10441001261E+03  0.29913529114E+02  0.10906143364E+03  0.41800000000E+01 0. -1.
         -5    1    3    3    0  502  0.39481157818E+02  0.25500425706E+02  0.38713409999E+02  0.61034695441E+02  0.41800000000E+01 0. -1.
        -11    1    1    2    0    0 -0.20190189818E+02  0.72177015776E+02  0.82126886861E+02  0.11118449045E+03  0.00000000000E+00 0.  1.
         11    1    1    2    0    0 -0.28271722403E+02  0.67325711298E+01 -0.17610433606E+02  0.33981541658E+02  0.00000000000E+00 0. -1.
</event>
<event>
 7    1  0.2334784E-009  0.1210862E+03  0.7561462E-02  0.1241316E+00
          2   -1    0    0  501    0  0.00000000000E+00  0.00000000000E+00  0.12755492820E+04  0.12755492820E+04  0.00000000000E+00 0. -1.
         -2   -1    0    0    0  501 -0.00000000000E+00 -0.00000000000E+00 -0.17458394045E+02  0.17458394045E+02  0.00000000000E+00 0.  1.
         25    2    1    2    0    0  0.14533037800E+02  0.87795231512E+02  0.92551199451E+03  0.93815749875E+03  0.12509128110E+03 0.  0.
          5    1    3    3  502    0 -0.31721119355E+02  0.45886266707E+02  0.14941389579E+03  0.15954235658E+03  0.41800000000E+01 0.  1.
         -5    1    3    3    0  502  0.46254157155E+02  0.41908964805E+02  0.77609809872E+03  0.77861514217E+03  0.41800000000E+01 0.  1.
        -11    1    1    2    0    0 -0.36533826449E+02 -0.36652098893E+01  0.10371592806E+03  0.11002339738E+03  0.00000000000E+00 0.  1.
         11    1    1    2    0    0  0.22000788649E+02 -0.84130021623E+02  0.22886296541E+03  0.24482677994E+03  0.00000000000E+00 0. -1.
</event>
<event>
 7    1  0.2334784E-009  0.1113432E+03  0.7561462E-02  0.1258102E+00
         -1   -1    0    0    0  501 -0.00000000000E+00  0.00000000000E+00  0.21420178593E+03  0.21420178593E+03  0.00000000000E+00 0.  1.
          1   -1    0    0  501    0  0.00000000000E+00 -0.00000000000E+00 -0.68348252528E+02  0.68348252528E+02  0.00000000000E+00 0. -1.
         25    2    1    2    0    0 -0.33548952336E+02 -0.10063690907E+02  0.13141325521E+03  0.18478032591E+03  0.12509002806E+03 0.  0.
          5    1    3    3  502    0 -0.48088997987E+02  0.47763825042E+02  0.86725090495E+02  0.11014830199E+03  0.41800000000E+01 0.  1.
         -5    1    3    3    0  502  0.14540045651E+02 -0.57827515949E+02  0.44688164717E+02  0.74632023919E+02  0.41800000000E+01 0.  1.
        -11    1    1    2    0    0 -0.25271314671E+02 -0.16794818466E+02 -0.38099021151E+01  0.30581377121E+02  0.00000000000E+00 0. -1.
         11    1    1    2    0    0  0.58820267007E+02  0.26858509373E+02  0.18250180307E+02  0.67188335430E+02  0.00000000000E+00 0.  1.
</event>
<event>
 7    1  0.2334784E-009  0.1678043E+03  0.7561462E-02  0.1180157E+00
          2   -1    0    0  501    0  0.00000000000E+00  0.00000000000E+00  0.98518063193E+02  0.98518063193E+02  0.00000000000E+00 0.  1.
         -2   -1    0    0    0  501 -0.00000000000E+00 -0.00000000000E+00 -0.36744888994E+03  0.36744888994E+03  0.00000000000E+00 0. -1.
         25    2    1    2    0    0 -0.80489971789E+02 -0.12675653230E+03 -0.19581814911E+03  0.27665312144E+03  0.12508536304E+03 0.  0.
          5    1    3    3  502    0  0.73996935246E+01 -0.30013090429E+02  0.10040838636E+02  0.32769374451E+02  0.41800000000E+01 0. -1.
         -5    1    3    3    0  502 -0.87889665314E+02 -0.96743441866E+02 -0.20585898774E+03  0.24388374699E+03  0.41800000000E+01 0. -1.
        -11    1    1    2    0    0 -0.15960589927E+01  0.78311408440E+02 -0.23038800619E+02  0.81645639382E+02  0.00000000000E+00 0.  1.
         11    1    1    2    0    0  0.82086030782E+02  0.48445123855E+02 -0.50073877022E+02  0.10766819231E+03  0.00000000000E+00 0. -1.
</event>
<event>
 7    1  0.2334784E-009  0.1367951E+03  0.7561462E-02  0.1217708E+00
         -2   -1    0    0    0  501 -0.00000000000E+00  0.00000000000E+00  0.52965008670E+02  0.52965008670E+02  0.00000000000E+00 0. -1.
          2   -1    0    0  501    0  0.00000000000E+00 -0.00000000000E+00 -0.42554080105E+03  0.42554080105E+03  0.00000000000E+00 0.  1.
         25    2    1    2    0    0 -0.10052850033E+03  0.62972660820E+01 -0.16030621373E+03  0.22691732332E+03  0.12509098499E+03 0.  0.
          5    1    3    3  502    0  0.86146466909E+01 -0.37501454662E+02 -0.64276551811E+02  0.75030118966E+02  0.41800000000E+01 0.  1.
         -5    1    3    3    0  502 -0.10914314702E+03  0.43798720744E+02 -0.96029661920E+02  0.15188720436E+03  0.41800000000E+01 0.  1.
        -11    1    1    2    0    0  0.47520288870E+02 -0.32999079105E+02 -0.16759776306E+03  0.17730236112E+03  0.00000000000E+00 0.  1.
         11    1    1    2    0    0  0.53008211455E+02  0.26701813023E+02 -0.44671815590E+02  0.74286125276E+02  0.00000000000E+00 0. -1.
</event>
<event>
 7    1  0.2334784E-009  0.1501466E+03  0.7561462E-02  0.1200293E+00
          2   -1    0    0  501    0  0.00000000000E+00  0.00000000000E+00  0.13847901487E+04  0.13847901487E+04  0.00000000000E+00 0.  1.
         -2   -1    0    0    0  501 -0.00000000000E+00 -0.00000000000E+00 -0.48559955618E+02  0.48559955618E+02  0.00000000000E+00 0. -1.
         25    2    1    2    0    0  0.10635911678E+03 -0.83692297494E+02  0.12047753486E+04  0.12187888352E+04  0.12508365922E+03 0.  0.
          5    1    3    3  502    0 -0.54186577830E+01  0.10676400721E+02  0.13365040148E+02  0.18424008323E+02  0.41800000000E+01 0.  1.
         -5    1    3    3    0  502  0.11177777456E+03 -0.94368698216E+02  0.11914103085E+04  0.12003648269E+04  0.41800000000E+01 0.  1.
        -11    1    1    2    0    0 -0.88512153030E+02  0.85827475397E+02  0.14624740774E+03  0.19128267312E+03  0.00000000000E+00 0.  1.
         11    1    1    2    0    0 -0.17846963751E+02 -0.21351779022E+01 -0.14792563316E+02  0.23278595947E+02  0.00000000000E+00 0. -1.
</event>
<event>
 7    1  0.2334784E-009  0.2054234E+03  0.7561462E-02  0.1145242E+00
          2   -1    0    0  501    0  0.00000000000E+00  0.00000000000E+00  0.16271798227E+04  0.16271798227E+04  0.00000000000E+00 0. -1.
         -2   -1    0    0    0  501 -0.00000000000E+00 -0.00000000000E+00 -0.29493873584E+02  0.29493873584E+02  0.00000000000E+00 0.  1.
         25    2    1    2    0    0  0.17616519304E+03 -0.68295261927E+02  0.74250506289E+03  0.77631174848E+03  0.12509094445E+03 0.  0.
          5    1    3    3  502    0  0.60388452223E+01  0.11851978845E+02  0.44099246943E+01  0.14623846620E+02  0.41800000000E+01 0.  1.
         -5    1    3    3    0  502  0.17012634781E+03 -0.80147240771E+02  0.73809513819E+03  0.76168790186E+03  0.41800000000E+01 0.  1.
        -11    1    1    2    0    0  0.44132902273E+01  0.21918756918E+02  0.10585912857E+03  0.10819456612E+03  0.00000000000E+00 0.  1.
         11    1    1    2    0    0 -0.18057848326E+03  0.46376505008E+02  0.74932175767E+03  0.77216738169E+03  0.00000000000E+00 0. -1.
</event>
<event>
 7    1  0.2334784E-009  0.1074989E+03  0.7561462E-02  0.1265273E+00
          1   -1    0    0  501    0  0.00000000000E+00  0.00000000000E+00  0.88895880855E+03  0.88895880855E+03  0.00000000000E+00 0. -1.
         -1   -1    0    0    0  501 -0.00000000000E+00 -0.00000000000E+00 -0.27343393556E+02  0.27343393556E+02  0.00000000000E+00 0.  1.
         25    2    1    2    0    0 -0.30518368646E+02 -0.45985197112E+02  0.74427923917E+03  0.75673365426E+03  0.12509287929E+03 0.  0.
          5    1    3    3  502    0 -0.43851562744E+02  0.30442255596E+02  0.41349231192E+03  0.41694490631E+03  0.41800000000E+01 0.  1.
         -5    1    3    3    0  502  0.13333194098E+02 -0.76427452708E+02  0.33078692726E+03  0.33978874795E+03  0.41800000000E+01 0.  1.
        -11    1    1    2    0    0  0.28504417433E+01  0.54681162621E+02  0.11850421451E+03  0.13054272642E+03  0.00000000000E+00 0. -1.
         11    1    1    2    0    0  0.27667926903E+02 -0.86959655092E+01 -0.11680386886E+01  0.29025821429E+02  0.00000000000E+00 0.  1.
</event>
<event>
 7    1  0.2334784E-009  0.7561171E+02  0.7561462E-02  0.1341987E+00
         -1   -1    0    0    0  501 -0.00000000000E+00  0.00000000000E+00  0.14639901466E+03  0.14639901466E+03  0.00000000000E+00 0.  1.
          1   -1    0    0  501    0  0.00000000000E+00 -0.00000000000E+00 -0.98498720437E+02  0.98498720437E+02  0.00000000000E+00 0. -1.
         25    2    1    2    0    0 -0.31957617060E+02  0.40503646866E+01 -0.10982478902E+02  0.12963654488E+03  0.12508926486E+03 0.  0.
          5    1    3    3  502    0  0.13900913173E+02 -0.98178615241E+01 -0.59077792593E+02  0.61622104554E+02  0.41800000000E+01 0. -1.
         -5    1    3    3    0  502 -0.45858530233E+02  0.13868226211E+02  0.48095313691E+02  0.68014440322E+02  0.41800000000E+01 0. -1.
        -11    1    1    2    0    0 -0.57283187051E+01 -0.35845770979E+02  0.54870324262E+02  0.65791225987E+02  0.00000000000E+00 0.  1.
         11    1    1    2    0    0  0.37685935765E+02  0.31795406292E+02  0.40124488676E+01  0.49469964238E+02  0.00000000000E+00 0. -1.
</event>
<event>
 7    1  0.2334784E-009  0.9050727E+02  0.7561462E-02  0.1301628E+00
         -1   -1    0    0    0  501 -0.00000000000E+00  0.00000000000E+00  0.27687391869E+02  0.27687391869E+02  0.00000000000E+00 0.  1.
          1   -1    0    0  501    0  0.00000000000E+00 -0.00000000000E+00 -0.51653355012E+03  0.51653355012E+03  0.00000000000E+00 0. -1.
         25    2    1    2    0    0  0.16776609781E+02  0.87829487560E+01 -0.38767313097E+03  0.40779325803E+03  0.12508513099E+03 0.  0.
          5    1    3    3  502    0 -0.35399843606E+02  0.45134970866E+02 -0.12655197922E+03  0.13900787879E+03  0.41800000000E+01 0.  1.
         -5    1    3    3    0  502  0.52176453387E+02 -0.36352022110E+02 -0.26112115175E+03  0.26878537924E+03  0.41800000000E+01 0.  1.
        -11    1    1    2    0    0 -0.27848998476E+02  0.16360559277E+02 -0.74305346722E+00  0.32307688627E+02  0.00000000000E+00 0.  1.
         11    1    1    2    0    0  0.11072388695E+02 -0.25143508033E+02 -0.10042997381E+03  0.10411999533E+03  0.00000000000E+00 0. -1.
</event>
<event>
 7    1  0.2334784E-009  0.9378083E+02  0.7561462E-02  0.1293946E+00
         -2   -1    0    0    0  501 -0.00000000000E+00  0.00000000000E+00  0.15462650676E+03  0.15462650676E+03  0.00000000000E+00 0.  1.
          2   -1    0    0  501    0  0.00000000000E+00 -0.00000000000E+00 -0.28603787684E+03  0.28603787684E+03  0.00000000000E+00 0. -1.
         25    2    1    2    0    0 -0.49910749549E+02 -0.12360151973E+02  0.11201178388E+03  0.17560557690E+03  0.12508726008E+03 0.  0.
          5    1    3    3  502    0 -0.60744511864E+02 -0.47954688088E+02  0.25919299785E+02  0.81724111085E+02  0.41800000000E+01 0. -1.
         -5    1    3    3    0  502  0.10833762315E+02  0.35594536116E+02  0.86092484092E+02  0.93881465819E+02  0.41800000000E+01 0. -1.
        -11    1    1    2    0    0  0.54075810240E+02 -0.54271411624E+01 -0.24049241522E+03  0.24655678634E+03  0.00000000000E+00 0. -1.
         11    1    1    2    0    0 -0.41650606906E+01  0.17787293135E+02 -0.29307387325E+01  0.18502020353E+02  0.00000000000E+00 0.  1.
</event>
<event>
 7    1  0.2334784E-009  0.1330312E+03  0.7561462E-02  0.1223026E+00
         -1   -1    0    0    0  501 -0.00000000000E+00  0.00000000000E+00  0.26650280135E+02  0.26650280135E+02  0.00000000000E+00 0.  1.
          1   -1    0    0  501    0  0.00000000000E+00 -0.00000000000E+00 -0.70009498117E+03  0.70009498117E+03  0.00000000000E+00 0. -1.
         25    2    1    2    0    0 -0.65479719408E+02  0.43979669485E+02 -0.43148703330E+03  0.45612492183E+03  0.12508828653E+03 0.  0.
          5    1    3    3  502    0  0.18824525586E+02  0.58472549577E+02 -0.20215012500E+03  0.21131859184E+03  0.41800000000E+01 0.  1.
         -5    1    3    3    0  502 -0.84304244994E+02 -0.14492880092E+02 -0.22933690829E+03  0.24480632999E+03  0.41800000000E+01 0.  1.
        -11    1    1    2    0    0  0.51886757427E+02 -0.71389816493E+02 -0.15403124234E+03  0.17752285799E+03  0.00000000000E+00 0.  1.
         11    1    1    2    0    0  0.13592961981E+02  0.27410147008E+02 -0.87926425407E+02  0.93097481487E+02  0.00000000000E+00 0. -1.
</event>
<event>
 7    1  0.2334784E-009  0.8843247E+02  0.7561462E-02  0.1306693E+00
          2   -1    0    0  501    0  0.00000000000E+00  0.00000000000E+00  0.44614009678E+03  0.44614009678E+03  0.00000000000E+00 0. -1.
         -2   -1    0    0    0  501 -0.00000000000E+00 -0.00000000000E+00 -0.38441667659E+02  0.38441667659E+02  0.00000000000E+00 0.  1.
         25    2    1    2    0    0  0.71847619211E+01 -0.76564196543E+01  0.16404009828E+03  0.20656090392E+03  0.12509201262E+03 0.  0.
          5    1    3    3  502    0  0.62691739563E+01 -0.48115706040E+02  0.15811644120E+03  0.16544698573E+03  0.41800000000E+01 0.  1.
         -5    1    3    3    0  502  0.91558796483E+00  0.40459286385E+02  0.59236570834E+01  0.41113918195E+02  0.41800000000E+01 0.  1.
        -11    1    1    2    0    0 -0.11588738573E+02  0.46735792496E+02  0.22066984624E+02  0.52966828981E+02  0.00000000000E+00 0.  1.
         11    1    1    2    0    0  0.44039766518E+01 -0.39079372841E+02  0.22159134621E+03  0.22505403153E+03  0.00000000000E+00 0. -1.
</event>
<event>
 7    1  0.2334784E-009  0.1034364E+03  0.7561462E-02  0.1273231E+00
          2   -1    0    0  501    0  0.00000000000E+00  0.00000000000E+00  0.28783708008E+03  0.28783708008E+03  0.00000000000E+00 0. -1.
         -2   -1    0    0    0  501 -0.00000000000E+00 -0.00000000000E+00 -0.44758834786E+02  0.44758834786E+02  0.00000000000E+00 0.  1.
         25    2    1    2    0    0 -0.18350807613E+02  0.31071308095E+02  0.14371092427E+03  0.19391088952E+03  0.12508567061E+03 0.  0.
          5    1    3    3  502    0  0.22724969558E+02  0.62025743640E+02  0.38112479128E+02  0.76378338427E+02  0.41800000000E+01 0.  1.
         -5    1    3    3    0  502 -0.41075777172E+02 -0.30954435545E+02  0.10559844514E+03  0.11753255109E+03  0.41800000000E+01 0.  1.
        -11    1    1    2    0    0 -0.27894320915E+02  0.74729651311E+01  0.92774971797E+01  0.30331671584E+02  0.00000000000E+00 0.  1.
         11    1    1    2    0    0  0.46245128528E+02 -0.38544273226E+02  0.90089823850E+02  0.10835335377E+03  0.00000000000E+00 0. -1.
</event>
<event>
 7    1  0.2334784E-009  0.1387412E+03  0.7561462E-02  0.1215033E+00
          1   -1    0    0  501    0  0.00000000000E+00  0.00000000000E+00  0.22147582644E+02  0.22147582644E+02  0.00000000000E+00 0. -1.
         -1   -1    0    0    0  501 -0.00000000000E+00 -0.00000000000E+00 -0.92586191989E+03  0.92586191989E+03  0.00000000000E+00 0.  1.
         25    2    1    2    0    0  0.67179950200E+01  0.88792406185E+02 -0.57539062774E+03  0.59552514067E+03  0.12508635348E+03 0.  0.
          5    1    3    3  502    0 -0.24462740125E+02  0.11146814020E+03 -0.45074545420E+03  0.46498656843E+03  0.41800000000E+01 0.  1.
         -5    1    3    3    0  502  0.31180735145E+02 -0.22675734011E+02 -0.12464517354E+03  0.13053857225E+03  0.41800000000E+01 0.  1.
        -11    1    1    2    0    0 -0.46339748271E+02 -0.58500371050E+02 -0.23642168175E+03  0.24792111101E+03  0.00000000000E+00 0.  1.
         11    1    1    2    0    0  0.39621753251E+02 -0.30292035135E+02 -0.91902027755E+02  0.10456325085E+03  0.00000000000E+00 0. -1.
</event>
<event>
 7    1  0.2334784E-009  0.8425579E+02  0.7561462E-02  0.1317390E+00
         -2   -1    0    0    0  501 -0.00000000000E+00  0.00000000000E+00  0.24007411364E+02  0.24007411364E+02  0.00000000000E+00 0.  1.
          2   -1    0    0  501    0  0.00000000000E+00 -0.00000000000E+00 -0.63922718011E+03  0.63922718011E+03  0.00000000000E+00 0. -1.
         25    2    1    2    0    0 -0.68094106257E+01  0.48514618991E+02 -0.45542359261E+03  0.47482377319E+03  0.12508769146E+03 0.  0.
          5    1    3    3  502    0 -0.36585617160E+02  0.10691594617E+02 -0.35901034059E+02  0.52527842379E+02  0.41800000000E+01 0. -1.
         -5    1    3    3    0  502  0.29776206535E+02  0.37823024374E+02 -0.41952255855E+03  0.42229593081E+03  0.41800000000E+01 0. -1.
        -11    1    1    2    0    0  0.35464723473E+02 -0.36143758800E+02 -0.39755085756E+02  0.64378449458E+02  0.00000000000E+00 0.  1.
         11    1    1    2    0    0 -0.28655312847E+02 -0.12370860191E+02 -0.12004109039E+03  0.12403236883E+03  0.00000000000E+00 0. -1.
</event>
<event>
 7    1  0.2334784E-009  0.1016342E+03  0.7561462E-02  0.1276896E+00
         -1   -1    0    0    0  501 -0.00000000000E+00  0.00000000000E+00  0.30842406024E+02  0.30842406024E+02  0.00000000000E+00 0.  1.
          1   -1    0    0  501    0  0.00000000000E+00 -0.00000000000E+00 -0.45397711478E+03  0.45397711478E+03  0.00000000000E+00 0. -1.
         25    2    1    2    0    0  0.24615405922E+02 -0.38514637991E+02 -0.22335022010E+03  0.26003779904E+03  0.12508013656E+03 0.  0.
          5    1    3    3  502    0  0.29719080312E+02 -0.74169119481E+02 -0.83836918458E+02  0.11588953066E+03  0.41800000000E+01 0. -1.
         -5    1    3    3    0  502 -0.51036743898E+01  0.35654481491E+02 -0.13951330164E+03  0.14414826838E+03  0.41800000000E+01 0. -1.
        -11    1    1    2    0    0  0.85481665145E+01 -0.18872021622E+02 -0.11657141434E+03  0.11839813762E+03  0.00000000000E+00 0. -1.
         11    1    1    2    0    0 -0.33163572437E+02  0.57386659613E+02 -0.83213074319E+02  0.10638358415E+03  0.00000000000E+00 0.  1.
</event>
<event>
 7    1  0.2334784E-009  0.1118052E+03  0.7561462E-02  0.1257263E+00
          2   -1    0    0  501    0  0.00000000000E+00  0.00000000000E+00  0.50400184538E+03  0.50400184538E+03  0.00000000000E+00 0. -1.
         -2   -1    0    0    0  501 -0.00000000000E+00 -0.00000000000E+00 -0.29291257490E+02  0.29291257490E+02  0.00000000000E+00 0.  1.
         25    2    1    2    0    0  0.10414609205E+02  0.32282232010E+02  0.36237071685E+03  0.38485150318E+03  0.12509011345E+03 0.  0.
          5    1    3    3  502    0 -0.45416863239E+02 -0.21789981983E+02  0.11759422327E+03  0.12799753329E+03  0.41800000000E+01 0.  1.
         -5    1    3    3    0  502  0.55831472444E+02  0.54072213994E+02  0.24477649358E+03  0.25685396990E+03  0.41800000000E+01 0.  1.
        -11    1    1    2    0    0 -0.18046275344E+02  0.28628021264E+02  0.26870340667E+02  0.43211651934E+02  0.00000000000E+00 0.  1.
         11    1    1    2    0    0  0.76316661390E+01 -0.60910253274E+02  0.85469530375E+02  0.10522994776E+03  0.00000000000E+00 0. -1.
</event>
<event>
 7    1  0.2334784E-009  0.1192045E+03  0.7561462E-02  0.1244415E+00
          2   -1    0    0  501    0  0.00000000000E+00  0.00000000000E+00  0.20009598235E+03  0.20009598235E+03  0.00000000000E+00 0. -1.
         -2   -1    0    0    0  501 -0.00000000000E+00 -0.00000000000E+00 -0.74194036614E+02  0.74194036614E+02  0.00000000000E+00 0.  1.
         25    2    1    2    0    0 -0.83889106497E+02 -0.53743175545E+01  0.80227678889E+02  0.17073805032E+03  0.12509490753E+03 0.  0.
          5    1    3    3  502    0 -0.65386785501E+02 -0.62479389898E+02  0.47391606545E+02  0.10218875991E+03  0.41800000000E+01 0.  1.
         -5    1    3    3    0  502 -0.18502320996E+02  0.57105072343E+02  0.32836072344E+02  0.68549290416E+02  0.41800000000E+01 0.  1.
        -11    1    1    2    0    0  0.64046436973E+02 -0.68236573725E+01  0.17009573845E+02  0.66617069818E+02  0.00000000000E+00 0.  1.
         11    1    1    2    0    0  0.19842669524E+02  0.12197974927E+02  0.28664693003E+02  0.36934898823E+02  0.00000000000E+00 0. -1.
</event>
<event>
 7    1  0.2334784E-009  0.7815201E+02  0.7561462E-02  0.1334379E+00
         -1   -1    0    0    0  501 -0.00000000000E+00  0.00000000000E+00  0.15702866447E+02  0.15702866447E+02  0.00000000000E+00 0.  1.
          1   -1    0    0  501    0  0.00000000000E+00 -0.00000000000E+00 -0.76191552525E+03  0.76191552525E+03  0.00000000000E+00 0. -1.
         25    2    1    2    0    0  0.74033873809E+01  0.91600201548E+00 -0.36989134082E+03  0.39054076534E+03  0.12508731420E+03 0.  0.
          5    1    3    3  502    0 -0.12053762515E+02 -0.30810075060E+02 -0.20492233830E+02  0.39140234584E+02  0.41800000000E+01 0.  1.
         -5    1    3    3    0  502  0.19457149896E+02  0.31726077075E+02 -0.34939910699E+03  0.35140053075E+03  0.41800000000E+01 0.  1.
        -11    1    1    2    0    0 -0.63935470552E+01  0.42047256908E+02 -0.12321172482E+03  0.13034561132E+03  0.00000000000E+00 0. -1.
         11    1    1    2    0    0 -0.10098403256E+01 -0.42963258923E+02 -0.25310959317E+03  0.25673201504E+03  0.00000000000E+00 0.  1.
</event>
<event>
 7    1  0.2334784E-009  0.9870964E+02  0.7561462E-02  0.1283033E+00
         -1   -1    0    0    0  501 -0.00000000000E+00  0.00000000000E+00  0.14496423970E+03  0.14496423970E+03  0.00000000000E+00 0.  1.
          1   -1    0    0  501    0  0.00000000000E+00 -0.00000000000E+00 -0.10051440554E+03  0.10051440554E+03  0.00000000000E+00 0. -1.
         25    2    1    2    0    0 -0.43412941295E+02  0.23295664310E+02  0.44272864804E+02  0.14154484579E+03  0.12508990912E+03 0.  0.
          5    1    3    3  502    0 -0.53254336635E+02 -0.13572616503E+02 -0.26405683405E+02  0.61114423872E+02  0.41800000000E+01 0.  1.
         -5    1    3    3    0  502  0.98413953400E+01  0.36868280813E+02  0.70678548208E+02  0.80430421913E+02  0.41800000000E+01 0.  1.
        -11    1    1    2    0    0  0.11945736792E+02 -0.56746947188E+02 -0.84166562528E+00  0.57996767528E+02  0.00000000000E+00 0.  1.
         11    1    1    2    0    0  0.31467204503E+02  0.33451282878E+02  0.10186349839E+01  0.45937031931E+02  0.00000000000E+00 0. -1.
</event>
<event>
 7    1  0.2334784E-009  0.8810120E+02  0.7561462E-02  0.1307516E+00
          2   -1    0    0  501    0  0.00000000000E+00  0.00000000000E+00  0.95910096662E+03  0.95910096662E+03  0.00000000000E+00 0. -1.
         -2   -1    0    0    0  501 -0.00000000000E+00 -0.00000000000E+00 -0.17738623107E+02  0.17738623107E+02  0.00000000000E+00 0.  1.
         25    2    1    2    0    0  0.28962899803E+02 -0.23407505560E+02  0.71757961863E+03  0.72935255077E+03  0.12509145995E+03 0.  0.
          5    1    3    3  502    0  0.13297306840E+02 -0.47114749223E+02  0.10317234734E+03  0.11427433491E+03  0.41800000000E+01 0.  1.
         -5    1    3    3    0  502  0.15665592963E+02  0.23707243663E+02  0.61440727129E+03  0.61507821585E+03  0.41800000000E+01 0.  1.
        -11    1    1    2    0    0 -0.48531674131E+02  0.47092685310E+02  0.19071567120E+03  0.20234997318E+03  0.00000000000E+00 0. -1.
         11    1    1    2    0    0  0.19568774327E+02 -0.23685179750E+02  0.33067053686E+02  0.45137065787E+02  0.00000000000E+00 0.  1.
</event>
<event>
 7    1  0.2334784E-009  0.1245174E+03  0.7561462E-02  0.1235825E+00
          1   -1    0    0  501    0  0.00000000000E+00  0.00000000000E+00  0.92144298689E+02  0.92144298689E+02  0.00000000000E+00 0.  1.
         -1   -1    0    0    0  501 -0.00000000000E+00 -0.00000000000E+00 -0.29222211252E+03  0.29222211252E+03  0.00000000000E+00 0. -1.
         25    2    1    2    0    0 -0.75291638630E+02 -0.95516877425E+02 -0.13937463018E+03  0.22330271119E+03  0.12508600468E+03 0.  0.
          5    1    3    3  502    0 -0.38454538314E+02 -0.31698977480E+02 -0.14086878300E+03  0.14948265155E+03  0.41800000000E+01 0. -1.
         -5    1    3    3    0  502 -0.36837100316E+02 -0.63817899945E+02  0.14941528227E+01  0.73820059643E+02  0.41800000000E+01 0. -1.
        -11    1    1    2    0    0  0.15292339757E+02  0.42445812861E+02  0.18178740361E+02  0.48641230307E+02  0.00000000000E+00 0.  1.
         11    1    1    2    0    0  0.59999298873E+02  0.53071064564E+02 -0.78881924015E+02  0.11242246971E+03  0.00000000000E+00 0. -1.
</event>
<event>
 7    1  0.2334784E-009  0.1929845E+03  0.7561462E-02  0.1155797E+00
          1   -1    0    0  501    0  0.00000000000E+00  0.00000000000E+00  0.50109091689E+03  0.50109091689E+03  0.00000000000E+00 0. -1.
         -1   -1    0    0    0  501 -0.00000000000E+00 -0.00000000000E+00 -0.95265965555E+02  0.95265965555E+02  0.00000000000E+00 0.  1.
         25    2    1    2    0    0 -0.99209744878E+02 -0.16108238986E+03  0.19496514506E+03  0.29908068989E+03  0.12509093283E+03 0.  0.
          5    1    3    3  502    0 -0.51506017358E+02 -0.36576734619E+02  0.14214552855E+03  0.15560704041E+03  0.41800000000E+01 0. -1.
         -5    1    3    3    0  502 -0.47703727520E+02 -0.12450565524E+03  0.52819616506E+02  0.14347364948E+03  0.41800000000E+01 0. -1.
        -11    1    1    2    0    0  0.21136531086E+02  0.38722965425E+02  0.11542003527E+03  0.12356377115E+03  0.00000000000E+00 0. -1.
         11    1    1    2    0    0  0.78073213792E+02  0.12235942444E+03  0.95439771004E+02  0.17371242140E+03  0.00000000000E+00 0.  1.
</event>
<event>
 7    1  0.2334784E-009  0.8991672E+02  0.7561462E-02  0.1303053E+00
         -2   -1    0    0    0  501 -0.00000000000E+00  0.00000000000E+00  0.18268315131E+02  0.18268315131E+02  0.00000000000E+00 0.  1.
          2   -1    0    0  501    0  0.00000000000E+00 -0.00000000000E+00 -0.63517993941E+03  0.63517993941E+03  0.00000000000E+00 0. -1.
         25    2    1    2    0    0  0.20932271918E+02 -0.32196775673E+02 -0.47071097202E+03  0.48855750364E+03  0.12507926610E+03 0.  0.
          5    1    3    3  502    0  0.72639734264E+02 -0.30564981822E+02 -0.27965693859E+03  0.29057911971E+03  0.41800000000E+01 0. -1.
         -5    1    3    3    0  502 -0.51707462346E+02 -0.16317938512E+01 -0.19105403343E+03  0.19797838393E+03  0.41800000000E+01 0. -1.
        -11    1    1    2    0    0  0.14386561475E+01  0.25668175262E+02 -0.11455481023E+02  0.28145212706E+02  0.00000000000E+00 0.  1.
         11    1    1    2    0    0 -0.22370928066E+02  0.65286004111E+01 -0.13474517123E+03  0.13674553819E+03  0.00000000000E+00 0. -1.
</event>
<event>
 7    1  0.2334784E-009  0.1145935E+03  0.7561462E-02  0.1252292E+00
          2   -1    0    0  501    0  0.00000000000E+00  0.00000000000E+00  0.28850440993E+03  0.28850440993E+03  0.00000000000E+00 0. -1.
         -2   -1    0    0    0  501 -0.00000000000E+00 -0.00000000000E+00 -0.52487197383E+02  0.52487197383E+02  0.00000000000E+00 0.  1.
         25    2    1    2    0    0 -0.22943128042E+02  0.17032036852E+02  0.17817360640E+03  0.21956697949E+03  0.12508935630E+03 0.  0.
          5    1    3    3  502    0 -0.19212496549E+02  0.71165585215E+02  0.10578918561E+03  0.12900575466E+03  0.41800000000E+01 0.  1.
         -5    1    3    3    0  502 -0.37306314925E+01 -0.54133548363E+02  0.72384420793E+02  0.90561224833E+02  0.41800000000E+01 0.  1.
        -11    1    1    2    0    0  0.41580358354E+02 -0.48793221731E+02  0.16778891679E+02  0.66266400941E+02  0.00000000000E+00 0.  1.
         11    1    1    2    0    0 -0.18637230312E+02  0.31761184879E+02  0.41064714463E+02  0.55158226881E+02  0.00000000000E+00 0. -1.
</event>
<event>
 7    1  0.2334784E-009  0.2743645E+03  0.7561462E-02  0.1098807E+00
          2   -1    0    0  501    0  0.00000000000E+00  0.00000000000E+00  0.12083797031E+04  0.12083797031E+04  0.00000000000E+00 0.  1.
         -2   -1    0    0    0  501 -0.00000000000E+00 -0.00000000000E+00 -0.79297858016E+02  0.79297858016E+02  0.00000000000E+00 0. -1.
         25    2    1    2    0    0 -0.17676222896E+03 -0.20631007973E+03  0.78436708856E+03  0.83945607878E+03  0.12508414766E+03 0.  0.
          5    1    3    3  502    0 -0.23071844751E+02 -0.59688368271E+02  0.35104738441E+03  0.35685676374E+03  0.41800000000E+01 0.  1.
         -5    1    3    3    0  502 -0.15369038421E+03 -0.14662171146E+03  0.43331970415E+03  0.48259931504E+03  0.41800000000E+01 0.  1.
        -11    1    1    2    0    0  0.49980314119E+02  0.69750919672E+02  0.18046306215E+03  0.19982527216E+03  0.00000000000E+00 0.  1.
         11    1    1    2    0    0  0.12678191484E+03  0.13655916006E+03  0.16425169438E+03  0.24839621018E+03  0.00000000000E+00 0. -1.
</event>
<event>
 7    1  0.2334784E-009  0.1600450E+03  0.7561462E-02  0.1188646E+00
         -2   -1    0    0    0  501 -0.00000000000E+00  0.00000000000E+00  0.19178358325E+03  0.19178358325E+03  0.00000000000E+00 0.  1.
          2   -1    0    0  501    0  0.00000000000E+00 -0.00000000000E+00 -0.14594527403E+03  0.14594527403E+03  0.00000000000E+00 0. -1.
         25    2    1    2    0    0  0.77130416383E+02 -0.88146662068E+02 -0.22665872257E+02  0.17285737000E+03  0.12508794279E+03 0.  0.
          5    1    3    3  502    0  0.70207562674E+02 -0.11924463812E+03 -0.11821991756E+02  0.13894465613E+03  0.41800000000E+01 0.  1.
         -5    1    3    3    0  502  0.69228537091E+01  0.31097976050E+02 -0.10843880501E+02  0.33912713873E+02  0.41800000000E+01 0.  1.
        -11    1    1    2    0    0  0.67968725158E+01 -0.15042258171E+02  0.11736335731E+02  0.20253606673E+02  0.00000000000E+00 0.  1.
         11    1    1    2    0    0 -0.83927288899E+02  0.10318892024E+03  0.56767845741E+02  0.14461788061E+03  0.00000000000E+00 0. -1.
</event>
<event>
 7    1  0.2334784E-009  0.1264997E+03  0.7561462E-02  0.1232744E+00
          2   -1    0    0  501    0  0.00000000000E+00  0.00000000000E+00  0.33233085958E+03  0.33233085958E+03  0.00000000000E+00 0. -1.
         -2   -1    0    0    0  501 -0.00000000000E+00 -0.00000000000E+00 -0.73024566858E+02  0.73024566858E+02  0.00000000000E+00 0.  1.
         25    2    1    2    0    0 -0.59904410041E+02  0.81932050400E+02  0.79893575857E+02  0.17981101784E+03  0.12509044507E+03 0.  0.
          5    1    3    3  502    0 -0.53596346935E+02 -0.72394471934E+01  0.71752783927E+02  0.89949499175E+02  0.41800000000E+01 0. -1.
         -5    1    3    3    0  502 -0.63080631060E+01  0.89171497594E+02  0.81407919299E+01  0.89861518664E+02  0.41800000000E+01 0. -1.
        -11    1    1    2    0    0  0.33988922525E+02 -0.75143760359E+02  0.57047309255E+02  0.10028074126E+03  0.00000000000E+00 0.  1.
         11    1    1    2    0    0  0.25915487517E+02 -0.67882900409E+01  0.12236540761E+03  0.12526366734E+03  0.00000000000E+00 0. -1.
</event>
<event>
 7    1  0.2334784E-009  0.1142577E+03  0.7561462E-02  0.1252882E+00
          1   -1    0    0  501    0  0.00000000000E+00  0.00000000000E+00  0.10318963589E+04  0.10318963589E+04  0.00000000000E+00 0. -1.
         -1   -1    0    0    0  501 -0.00000000000E+00 -0.00000000000E+00 -0.14932796977E+02  0.14932796977E+02  0.00000000000E+00 0.  1.
         25    2    1    2    0    0  0.60489118748E+02  0.68427273358E+01  0.53832033863E+03  0.55600601438E+03  0.12509254428E+03 0.  0.
          5    1    3    3  502    0 -0.17343613435E+02 -0.30955095748E+02  0.59421101022E+02  0.69335117556E+02  0.41800000000E+01 0. -1.
         -5    1    3    3    0  502  0.77832732183E+02  0.37797823084E+02  0.47889923761E+03  0.48667089682E+03  0.41800000000E+01 0. -1.
        -11    1    1    2    0    0  0.22564340599E+02  0.19254529501E+01  0.64967940620E+02  0.68801817884E+02  0.00000000000E+00 0. -1.
         11    1    1    2    0    0 -0.83053459347E+02 -0.87681802859E+01  0.41367528272E+03  0.42202132367E+03  0.00000000000E+00 0.  1.
</event>
<event>
 7    1  0.2334784E-009  0.1141866E+03  0.7561462E-02  0.1253008E+00
          2   -1    0    0  501    0  0.00000000000E+00  0.00000000000E+00  0.38941542148E+03  0.38941542148E+03  0.00000000000E+00 0. -1.
         -2   -1    0    0    0  501 -0.00000000000E+00 -0.00000000000E+00 -0.39574314437E+02  0.39574314437E+02  0.00000000000E+00 0.  1.
         25    2    1    2    0    0  0.36314110931E+02 -0.45316307322E+02  0.21892944670E+03  0.25874447817E+03  0.12508525090E+03 0.  0.
          5    1    3    3  502    0 -0.21856925508E+02  0.32973058004E+02  0.53689625744E+02  0.66820626002E+02  0.41800000000E+01 0.  1.
         -5    1    3    3    0  502  0.58171036439E+02 -0.78289365326E+02  0.16523982095E+03  0.19192385217E+03  0.41800000000E+01 0.  1.
        -11    1    1    2    0    0  0.21133221761E+02  0.15771184321E+02  0.89992721160E+02  0.93776506539E+02  0.00000000000E+00 0. -1.
         11    1    1    2    0    0 -0.57447332692E+02  0.29545123001E+02  0.40918939181E+02  0.76468751201E+02  0.00000000000E+00 0.  1.
</event>
<event>
 7    1  0.2334784E-009  0.4049421E+03  0.7561462E-02  0.1042082E+00
          2   -1    0    0  501    0  0.00000000000E+00  0.00000000000E+00  0.61862523957E+03  0.61862523957E+03  0.00000000000E+00 0. -1.
         -2   -1    0    0    0  501 -0.00000000000E+00 -0.00000000000E+00 -0.27676207341E+03  0.27676207341E+03  0.00000000000E+00 0.  1.
         25    2    1    2    0    0 -0.24046737761E+03 -0.31531027129E+03  0.22074934285E+03  0.47077202742E+03  0.12510356731E+03 0.  0.
          5    1    3    3  502    0 -0.20862637666E+03 -0.31743012797E+03  0.21913352388E+03  0.43854740322E+03  0.41800000000E+01 0.  1.
         -5    1    3    3    0  502 -0.31841000953E+02  0.21198566774E+01  0.16158189701E+01  0.32224624202E+02  0.41800000000E+01 0.  1.
        -11    1    1    2    0    0  0.29973634513E+02  0.58852338808E+02 -0.12000992169E+02  0.67127046428E+02  0.00000000000E+00 0.  1.
         11    1    1    2    0    0  0.21049374310E+03  0.25645793248E+03  0.13311481548E+03  0.35748823913E+03  0.00000000000E+00 0. -1.
</event>
<event>
 7    1  0.2334784E-009  0.9377640E+02  0.7561462E-02  0.1293956E+00
          3   -1    0    0  501    0  0.00000000000E+00  0.00000000000E+00  0.73345748933E+02  0.73345748933E+02  0.00000000000E+00 0. -1.
         -3   -1    0    0    0  501 -0.00000000000E+00 -0.00000000000E+00 -0.20025820279E+03  0.20025820279E+03  0.00000000000E+00 0.  1.
         25    2    1    2    0    0 -0.32692551294E+02 -0.20736878252E+02 -0.86009561303E+02  0.15666719624E+03  0.12509254460E+03 0.  0.
          5    1    3    3  502    0 -0.59972541081E+02 -0.41158678465E+02 -0.10358588265E+02  0.73590184451E+02  0.41800000000E+01 0.  1.
         -5    1    3    3    0  502  0.27279989787E+02  0.20421800213E+02 -0.75650973038E+02  0.83077011792E+02  0.41800000000E+01 0.  1.
        -11    1    1    2    0    0 -0.22255211526E+02  0.21602577204E+01  0.22003514544E+02  0.31370620105E+02  0.00000000000E+00 0. -1.
         11    1    1    2    0    0  0.54947762820E+02  0.18576620532E+02 -0.62906407102E+02  0.85566135379E+02  0.00000000000E+00 0.  1.
</event>
<event>
 7    1  0.2334784E-009  0.9708736E+02  0.7561462E-02  0.1286543E+00
         -2   -1    0    0    0  501 -0.00000000000E+00  0.00000000000E+00  0.62227163005E+02  0.62227163005E+02  0.00000000000E+00 0. -1.
          2   -1    0    0  501    0  0.00000000000E+00 -0.00000000000E+00 -0.28222377943E+03  0.28222377943E+03  0.00000000000E+00 0.  1.
         25    2    1    2    0    0  0.70407792201E+01  0.34420927010E+02 -0.20590176591E+03  0.24347080212E+03  0.12509245178E+03 0.  0.
          5    1    3    3  502    0 -0.18701564197E+02  0.61098775596E+02 -0.44909079597E+02  0.78211934595E+02  0.41800000000E+01 0. -1.
         -5    1    3    3    0  502  0.25742343418E+02 -0.26677848586E+02 -0.16099268631E+03  0.16525886753E+03  0.41800000000E+01 0. -1.
        -11    1    1    2    0    0  0.27822762158E+02  0.15572696609E+02 -0.23094804164E+02  0.39369848274E+02  0.00000000000E+00 0.  1.
         11    1    1    2    0    0 -0.34863541378E+02 -0.49993623619E+02  0.89999536464E+01  0.61610292043E+02  0.00000000000E+00 0. -1.
</event>
<event>
 7    1  0.2334784E-009  0.1023385E+03  0.7561462E-02  0.1275454E+00
          2   -1    0    0  501    0  0.00000000000E+00  0.00000000000E+00  0.10836801195E+04  0.10836801195E+04  0.00000000000E+00 0. -1.
         -2   -1    0    0    0  501 -0.00000000000E+00 -0.00000000000E+00 -0.14520500272E+02  0.14520500272E+02  0.00000000000E+00 0.  1.
         25    2    1    2    0    0 -0.50490674897E+02  0.15893987363E+02  0.80076040530E+03  0.81219520766E+03  0.12506758798E+03 0.  0.
          5    1    3    3  502    0 -0.31703510279E+02 -0.54297372480E+02  0.36629140451E+03  0.37167214402E+03  0.41800000000E+01 0.  1.
         -5    1    3    3    0  502 -0.18787164619E+02  0.70191359843E+02  0.43446900079E+03  0.44052306364E+03  0.41800000000E+01 0.  1.
        -11    1    1    2    0    0  0.17548628198E+02  0.15471230696E+02  0.13357813374E+02  0.26939645674E+02  0.00000000000E+00 0.  1.
         11    1    1    2    0    0  0.32942046699E+02 -0.31365218059E+02  0.25504140058E+03  0.25906576646E+03  0.00000000000E+00 0. -1.
</event>
<event>
 7    1  0.2334784E-009  0.1082392E+03  0.7561462E-02  0.1263866E+00
         -3   -1    0    0    0  501 -0.00000000000E+00  0.00000000000E+00  0.12216738609E+03  0.12216738609E+03  0.00000000000E+00 0.  1.
          3   -1    0    0  501    0  0.00000000000E+00 -0.00000000000E+00 -0.14167233966E+03  0.14167233966E+03  0.00000000000E+00 0. -1.
         25    2    1    2    0    0  0.22179091339E+02 -0.71235683888E+02 -0.10722215039E+02  0.14604202824E+03  0.12508746286E+03 0.  0.
          5    1    3    3  502    0  0.44299381662E+02 -0.72829428263E+02 -0.51323673631E+02  0.99589922742E+02  0.41800000000E+01 0. -1.
         -5    1    3    3    0  502 -0.22120290323E+02  0.15937443755E+01  0.40601458592E+02  0.46452105495E+02  0.41800000000E+01 0. -1.
        -11    1    1    2    0    0 -0.34275819388E+02 -0.20015742163E+01  0.18146069388E+02  0.38834494052E+02  0.00000000000E+00 0.  1.
         11    1    1    2    0    0  0.12096728049E+02  0.73237258104E+02 -0.26928807919E+02  0.78963203456E+02  0.00000000000E+00 0. -1.
</event>
<event>
 7    1  0.2334784E-009  0.1378458E+03  0.7561462E-02  0.1216257E+00
         -2   -1    0    0    0  501 -0.00000000000E+00  0.00000000000E+00  0.13265435165E+03  0.13265435165E+03  0.00000000000E+00 0.  1.
          2   -1    0    0  501    0  0.00000000000E+00 -0.00000000000E+00 -0.16034589385E+03  0.16034589385E+03  0.00000000000E+00 0. -1.
         25    2    1    2    0    0 -0.79969804558E+02 -0.40174189834E+02 -0.44293503191E+02  0.16006033780E+03  0.12509301397E+03 0.  0.
          5    1    3    3  502    0 -0.16983530264E+02 -0.71676067999E+02  0.50751710753E+01  0.73953558302E+02  0.41800000000E+01 0. -1.
         -5    1    3    3    0  502 -0.62986274294E+02  0.31501878165E+02 -0.49368674266E+02  0.86106779502E+02  0.41800000000E+01 0. -1.
        -11    1    1    2    0    0  0.13311314899E+02 -0.31067935580E+02  0.95414004273E+01  0.35120450562E+02  0.00000000000E+00 0.  1.
         11    1    1    2    0    0  0.66658489660E+02  0.71242125414E+02  0.70605605607E+01  0.97819457127E+02  0.00000000000E+00 0. -1.
</event>
<event>
 7    1  0.2334784E-009  0.2464807E+03  0.7561462E-02  0.1115549E+00
          2   -1    0    0  501    0  0.00000000000E+00  0.00000000000E+00  0.65687727904E+03  0.65687727904E+03  0.00000000000E+00 0. -1.
         -2   -1    0    0    0  501 -0.00000000000E+00 -0.00000000000E+00 -0.11387528083E+03  0.11387528083E+03  0.00000000000E+00 0.  1.
         25    2    1    2    0    0  0.16774117013E+03  0.15783555265E+03  0.41807305830E+03  0.49343548472E+03  0.12507731074E+03 0.  0.
          5    1    3    3  502    0  0.10346558662E+03  0.36056348420E+02  0.26881513540E+03  0.29031747673E+03  0.41800000000E+01 0.  1.
         -5    1    3    3    0  502  0.64275583514E+02  0.12177920423E+03  0.14925792290E+03  0.20311800799E+03  0.41800000000E+01 0.  1.
        -11    1    1    2    0    0 -0.15421588601E+03 -0.94678409117E+02  0.75926951425E+02  0.19624332499E+03  0.00000000000E+00 0. -1.
         11    1    1    2    0    0 -0.13525284124E+02 -0.63157143536E+02  0.49001988480E+02  0.81073750161E+02  0.00000000000E+00 0.  1.
</event>
<event>
 7    1  0.2334784E-009  0.2001067E+03  0.7561462E-02  0.1149649E+00
          3   -1    0    0  501    0  0.00000000000E+00  0.00000000000E+00  0.13396377660E+03  0.13396377660E+03  0.00000000000E+00 0. -1.
         -3   -1    0    0    0  501 -0.00000000000E+00 -0.00000000000E+00 -0.36927224539E+03  0.36927224539E+03  0.00000000000E+00 0.  1.
         25    2    1    2    0    0 -0.18647890280E+03 -0.39185660508E+02 -0.76940084339E+02  0.24057664056E+03  0.12508975268E+03 0.  0.
          5    1    3    3  502    0 -0.21151254964E+02  0.22811539200E+02  0.21813801024E+02  0.38223765151E+02  0.41800000000E+01 0. -1.
         -5    1    3    3    0  502 -0.16532764784E+03 -0.61997199708E+02 -0.98753885364E+02  0.20235287541E+03  0.41800000000E+01 0. -1.
        -11    1    1    2    0    0  0.45088737115E+02 -0.13857199768E+01  0.18620544594E+01  0.45148440519E+02  0.00000000000E+00 0.  1.
         11    1    1    2    0    0  0.14139016568E+03  0.40571380485E+02 -0.16023043890E+03  0.21751094092E+03  0.00000000000E+00 0. -1.
</event>
<event>
 7    1  0.2334784E-009  0.1080570E+03  0.7561462E-02  0.1264211E+00
         -1   -1    0    0    0  501 -0.00000000000E+00  0.00000000000E+00  0.15424281825E+02  0.15424281825E+02  0.00000000000E+00 0.  1.
          1   -1    0    0  501    0  0.00000000000E+00 -0.00000000000E+00 -0.94800260612E+03  0.94800260612E+03  0.00000000000E+00 0. -1.
         25    2    1    2    0    0 -0.29301368458E+02  0.11296454629E+02 -0.70115385215E+03  0.71291687077E+03  0.12509020806E+03 0.  0.
          5    1    3    3  502    0 -0.46449258871E+02  0.55735195431E+02 -0.53846038214E+03  0.54334243456E+03  0.41800000000E+01 0.  1.
         -5    1    3    3    0  502  0.17147890413E+02 -0.44438740802E+02 -0.16269347001E+03  0.16957443621E+03  0.41800000000E+01 0.  1.
        -11    1    1    2    0    0  0.60974162913E+01  0.39400934561E+02 -0.10604996693E+03  0.11329698855E+03  0.00000000000E+00 0.  1.
         11    1    1    2    0    0  0.23203952167E+02 -0.50697389191E+02 -0.12537450522E+03  0.13721302863E+03  0.00000000000E+00 0. -1.
</event>
<event>
 7    1  0.2334784E-009  0.1358935E+03  0.7561462E-02  0.1218964E+00
          1   -1    0    0  501    0  0.00000000000E+00  0.00000000000E+00  0.35641401725E+03  0.35641401725E+03  0.00000000000E+00 0. -1.
         -1   -1    0    0    0  501 -0.00000000000E+00 -0.00000000000E+00 -0.68549524874E+02  0.68549524874E+02  0.00000000000E+00 0.  1.
         25    2    1    2    0    0  0.73652138307E+02 -0.76146234517E+02  0.20467199664E+03  0.26222176527E+03  0.12508693563E+03 0.  0.
          5    1    3    3  502    0 -0.35351900369E+02 -0.24406589161E+02  0.55956550383E+02  0.70668567163E+02  0.41800000000E+01 0.  1.
         -5    1    3    3    0  502  0.10900403868E+03 -0.51739645356E+02  0.14871544626E+03  0.19155319811E+03  0.41800000000E+01 0.  1.
        -11    1    1    2    0    0 -0.53534862811E+02  0.41134414541E+02  0.98619816106E+02  0.11951522800E+03  0.00000000000E+00 0. -1.
         11    1    1    2    0    0 -0.20117275495E+02  0.35011819976E+02 -0.15427320374E+02  0.43226548848E+02  0.00000000000E+00 0.  1.
</event>
<event>
 7    1  0.2334784E-009  0.9587889E+02  0.7561462E-02  0.1289209E+00
         -2   -1    0    0    0  501 -0.00000000000E+00  0.00000000000E+00  0.57391657053E+03  0.57391657053E+03  0.00000000000E+00 0.  1.
          2   -1    0    0  501    0  0.00000000000E+00 -0.00000000000E+00 -0.26278655173E+02  0.26278655173E+02  0.00000000000E+00 0. -1.
         25    2    1    2    0    0  0.22250039870E+02 -0.51959098343E+02  0.33268541931E+03  0.35989202054E+03  0.12509143077E+03 0.  0.
          5    1    3    3  502    0  0.72357658751E+02 -0.40953608360E+02  0.17056062803E+03  0.18979259483E+03  0.41800000000E+01 0.  1.
         -5    1    3    3    0  502 -0.50107618881E+02 -0.11005489983E+02  0.16212479128E+03  0.17009942571E+03  0.41800000000E+01 0.  1.
        -11    1    1    2    0    0 -0.14409145097E+02  0.41737659538E+02  0.22149595090E+03  0.22585418294E+03  0.00000000000E+00 0.  1.
         11    1    1    2    0    0 -0.78408947730E+01  0.10221438805E+02 -0.65434548462E+01  0.14449022230E+02  0.00000000000E+00 0. -1.
</event>
<event>
 7    1  0.2334784E-009  0.9622741E+02  0.7561462E-02  0.1288435E+00
          1   -1    0    0  501    0  0.00000000000E+00  0.00000000000E+00  0.24978767206E+03  0.24978767206E+03  0.00000000000E+00 0. -1.
         -1   -1    0    0    0  501 -0.00000000000E+00 -0.00000000000E+00 -0.56187621285E+02  0.56187621285E+02  0.00000000000E+00 0.  1.
         25    2    1    2    0    0 -0.26165560580E+02 -0.15894405236E+02  0.67533125335E+02  0.14541941419E+03  0.12509522104E+03 0.  0.
          5    1    3    3  502    0  0.39923775440E+02  0.43713641076E+01 -0.98596120092E+01  0.41565623038E+02  0.41800000000E+01 0.  1.
         -5    1    3    3    0  502 -0.66089336021E+02 -0.20265769344E+02  0.77392737345E+02  0.10385379115E+03  0.41800000000E+01 0.  1.
        -11    1    1    2    0    0  0.43944820087E+02 -0.15620447682E+02  0.11272209442E+03  0.12198941007E+03  0.00000000000E+00 0. -1.
         11    1    1    2    0    0 -0.17779259507E+02  0.31514852918E+02  0.13344831019E+02  0.38566469089E+02  0.00000000000E+00 0.  1.
</event>
<event>
 7    1  0.2334784E-009  0.1495681E+03  0.7561462E-02  0.1201005E+00
          2   -1    0    0  501    0  0.00000000000E+00  0.00000000000E+00  0.26769856508E+03  0.26769856508E+03  0.00000000000E+00 0.  1.
         -2   -1    0    0    0  501 -0.00000000000E+00 -0.00000000000E+00 -0.95751705884E+02  0.95751705884E+02  0.00000000000E+00 0. -1.
         25    2    1    2    0    0  0.79090110876E+02 -0.79512162428E+02  0.49588722406E+02  0.17517160081E+03  0.12509443923E+03 0.  0.
          5    1    3    3  502    0 -0.28853170403E+02 -0.36047604343E+01  0.29487348063E+02  0.41623020504E+02  0.41800000000E+01 0. -1.
         -5    1    3    3    0  502  0.10794328128E+03 -0.75907401994E+02  0.20101374343E+02  0.13354858030E+03  0.41800000000E+01 0. -1.
        -11    1    1    2    0    0  0.86394090025E+01  0.41037952140E+02  0.15356086763E+02  0.44660522886E+02  0.00000000000E+00 0. -1.
         11    1    1    2    0    0 -0.87729519879E+02  0.38474210288E+02  0.10700205003E+03  0.14361814727E+03  0.00000000000E+00 0.  1.
</event>
<event>
 7    1  0.2334784E-009  0.1218494E+03  0.7561462E-02  0.1240077E+00
          1   -1    0    0  501    0  0.00000000000E+00  0.00000000000E+00  0.13000237355E+03  0.13000237355E+03  0.00000000000E+00 0. -1.
         -1   -1    0    0    0  501 -0.00000000000E+00 -0.00000000000E+00 -0.14793191780E+03  0.14793191780E+03  0.00000000000E+00 0.  1.
         25    2    1    2    0    0 -0.74485415723E+02 -0.45063252735E+02 -0.12822541221E+02  0.15294054116E+03  0.12509043794E+03 0.  0.
          5    1    3    3  502    0  0.19234535585E+02 -0.48913841284E+02 -0.24837185971E+02  0.58282839973E+02  0.41800000000E+01 0.  1.
         -5    1    3    3    0  502 -0.93719951307E+02  0.38505885484E+01  0.12014644750E+02  0.94657701185E+02  0.41800000000E+01 0.  1.
        -11    1    1    2    0    0  0.40809526395E+02 -0.19060284904E-01 -0.41321160831E+02  0.58076295855E+02  0.00000000000E+00 0.  1.
         11    1    1    2    0    0  0.33675889328E+02  0.45082313020E+02  0.36214157806E+02  0.66917454337E+02  0.00000000000E+00 0. -1.
</event>
<event>
 7    1  0.2334784E-009  0.9728694E+02  0.7561462E-02  0.1286107E+00
          3   -1    0    0  501    0  0.00000000000E+00  0.00000000000E+00  0.20461465543E+03  0.20461465543E+03  0.00000000000E+00 0. -1.
         -3   -1    0    0    0  501 -0.00000000000E+00 -0.00000000000E+00 -0.72457911228E+02  0.72457911228E+02  0.00000000000E+00 0.  1.
         25    2    1    2    0    0  0.31982943329E+02 -0.40659236056E+02  0.47236610326E+02  0.14337007263E+03  0.12509036026E+03 0.  0.
          5    1    3    3  502    0  0.55844332063E+02 -0.65972962259E+02  0.25346838000E+01  0.86573195591E+02  0.41800000000E+01 0. -1.
         -5    1    3    3    0  502 -0.23861388733E+02  0.25313726204E+02  0.44701926526E+02  0.56796877042E+02  0.41800000000E+01 0. -1.
        -11    1    1    2    0    0 -0.46289540966E+02  0.30026900065E+02  0.97400481013E+02  0.11194279804E+03  0.00000000000E+00 0. -1.
         11    1    1    2    0    0  0.14306597637E+02  0.10632335990E+02 -0.12480347142E+02  0.21759695984E+02  0.00000000000E+00 0.  1.
</event>
<event>
 7    1  0.2334784E-009  0.8887747E+02  0.7561462E-02  0.1305593E+00
         -1   -1    0    0    0  501 -0.00000000000E+00  0.00000000000E+00  0.21057424336E+02  0.21057424336E+02  0.00000000000E+00 0.  1.
          1   -1    0    0  501    0  0.00000000000E+00 -0.00000000000E+00 -0.61879939885E+03  0.61879939885E+03  0.00000000000E+00 0. -1.
         25    2    1    2    0    0  0.21532290841E+01  0.21205975742E+02 -0.42830356004E+03  0.44670864058E+03  0.12510131983E+03 0.  0.
          5    1    3    3  502    0 -0.40914151117E+02  0.22592209100E+02 -0.61488898687E+02  0.77348126903E+02  0.41800000000E+01 0. -1.
         -5    1    3    3    0  502  0.43067380201E+02 -0.13862333579E+01 -0.36681466135E+03  0.36936051368E+03  0.41800000000E+01 0. -1.
        -11    1    1    2    0    0 -0.18673210883E+02  0.29107872122E+02 -0.37672083383E+02  0.51138467816E+02  0.00000000000E+00 0. -1.
         11    1    1    2    0    0  0.16519981799E+02 -0.50313847864E+02 -0.13176633109E+03  0.14200971479E+03  0.00000000000E+00 0.  1.
</event>
<event>
 7    1  0.2334784E-009  0.1585284E+03  0.7561462E-02  0.1190368E+00
         -1   -1    0    0    0  501 -0.00000000000E+00  0.00000000000E+00  0.17779992150E+03  0.17779992150E+03  0.00000000000E+00 0.  1.
          1   -1    0    0  501    0  0.00000000000E+00 -0.00000000000E+00 -0.17355561887E+03  0.17355561887E+03  0.00000000000E+00 0. -1.
         25    2    1    2    0    0 -0.10750649980E+03  0.60000269081E+02 -0.52707354738E+02  0.18326442472E+03  0.12510037704E+03 0.  0.
          5    1    3    3  502    0 -0.73332709521E+02 -0.24137573306E+02  0.16685045274E+01  0.77334113030E+02  0.41800000000E+01 0.  1.
         -5    1    3    3    0  502 -0.34173790284E+02  0.84137842387E+02 -0.54375859265E+02  0.10593031169E+03  0.41800000000E+01 0.  1.
        -11    1    1    2    0    0  0.22972045758E+02 -0.60053203116E+02  0.53235051602E+02  0.83474983138E+02  0.00000000000E+00 0.  1.
         11    1    1    2    0    0  0.84534454047E+02  0.52934035338E-01  0.37166057624E+01  0.84616132512E+02  0.00000000000E+00 0. -1.
</event>
<event>
 7    1  0.2334784E-009  0.1309081E+03  0.7561462E-02  0.1226114E+00
         -2   -1    0    0    0  501 -0.00000000000E+00  0.00000000000E+00  0.33454457048E+02  0.33454457048E+02  0.00000000000E+00 0.  1.
          2   -1    0    0  501    0  0.00000000000E+00 -0.00000000000E+00 -0.59296696344E+03  0.59296696344E+03  0.00000000000E+00 0. -1.
         25    2    1    2    0    0 -0.76679887422E+02 -0.35590350648E+02 -0.24201026850E+03  0.28524457922E+03  0.12509604998E+03 0.  0.
          5    1    3    3  502    0 -0.10870344445E+03 -0.17109512358E+02 -0.15072661291E+03  0.18666857927E+03  0.41800000000E+01 0. -1.
         -5    1    3    3    0  502  0.32023557025E+02 -0.18480838290E+02 -0.91283655593E+02  0.98575999953E+02  0.41800000000E+01 0. -1.
        -11    1    1    2    0    0  0.50158037552E+02 -0.19125838241E+02 -0.82434130415E+02  0.98371806310E+02  0.00000000000E+00 0. -1.
         11    1    1    2    0    0  0.26521849870E+02  0.54716188889E+02 -0.23506810747E+03  0.24280503495E+03  0.00000000000E+00 0.  1.
</event>
<event>
 7    1  0.2334784E-009  0.6755888E+02  0.7561462E-02  0.1368597E+00
          1   -1    0    0  501    0  0.00000000000E+00  0.00000000000E+00  0.47700900021E+03  0.47700900021E+03  0.00000000000E+00 0. -1.
         -1   -1    0    0    0  501 -0.00000000000E+00 -0.00000000000E+00 -0.27132636417E+02  0.27132636417E+02  0.00000000000E+00 0.  1.
         25    2    1    2    0    0  0.13220809991E+02 -0.17694188546E+02  0.33811537604E+03  0.36118935557E+03  0.12509144228E+03 0.  0.
          5    1    3    3  502    0  0.26885022768E+02 -0.19775942783E+02  0.13485417009E+02  0.36238394475E+02  0.41800000000E+01 0.  1.
         -5    1    3    3    0  502 -0.13664212777E+02  0.20817542366E+01  0.32462995903E+03  0.32495096109E+03  0.41800000000E+01 0.  1.
        -11    1    1    2    0    0 -0.23633653457E+02  0.48809623055E+02  0.54049962161E+02  0.76565836298E+02  0.00000000000E+00 0.  1.
         11    1    1    2    0    0  0.10412843466E+02 -0.31115434508E+02  0.57711025593E+02  0.66386444766E+02  0.00000000000E+00 0. -1.
</event>
<event>
 7    1  0.2334784E-009  0.1014321E+03  0.7561462E-02  0.1277313E+00
         -2   -1    0    0    0  501 -0.00000000000E+00  0.00000000000E+00  0.31694244945E+02  0.31694244945E+02  0.00000000000E+00 0. -1.
          2   -1    0    0  501    0  0.00000000000E+00 -0.00000000000E+00 -0.64628217813E+03  0.64628217813E+03  0.00000000000E+00 0.  1.
         25    2    1    2    0    0 -0.81275253913E+02 -0.33727053861E+02 -0.28851507380E+03  0.32654090031E+03  0.12507929764E+03 0.  0.
          5    1    3    3  502    0 -0.70798030603E+02 -0.30177731235E+02 -0.59884552220E+02  0.97604757027E+02  0.41800000000E+01 0.  1.
         -5    1    3    3    0  502 -0.10477223311E+02 -0.35493226263E+01 -0.22863052158E+03  0.22893614328E+03  0.41800000000E+01 0.  1.
        -11    1    1    2    0    0  0.54331831930E+02 -0.16657172716E+02 -0.24953129016E+03  0.25592044493E+03  0.00000000000E+00 0.  1.
         11    1    1    2    0    0  0.26943421984E+02  0.50384226577E+02 -0.76541569218E+02  0.95515077838E+02  0.00000000000E+00 0. -1.
</event>
<event>
 7    1  0.2334784E-009  0.1328883E+03  0.7561462E-02  0.1223232E+00
         -2   -1    0    0    0  501 -0.00000000000E+00  0.00000000000E+00  0.15945356648E+03  0.15945356648E+03  0.00000000000E+00 0.  1.
          2   -1    0    0  501    0  0.00000000000E+00 -0.00000000000E+00 -0.12740592129E+03  0.12740592129E+03  0.00000000000E+00 0. -1.
         25    2    1    2    0    0 -0.60048544478E+02 -0.70015091517E+02  0.14260614739E+02  0.15607405892E+03  0.12509119074E+03 0.  0.
          5    1    3    3  502    0  0.30644108921E+02 -0.15190347753E+02  0.33758703197E+02  0.48238268190E+02  0.41800000000E+01 0. -1.
         -5    1    3    3    0  502 -0.90692653399E+02 -0.54824743764E+02 -0.19498088458E+02  0.10783579073E+03  0.41800000000E+01 0. -1.
        -11    1    1    2    0    0  0.62255182339E+02  0.74978773473E+01  0.25627403299E+02  0.67739867822E+02  0.00000000000E+00 0.  1.
         11    1    1    2    0    0 -0.22066378609E+01  0.62517214170E+02 -0.78403728537E+01  0.63045561023E+02  0.00000000000E+00 0. -1.
</event>
<event>
 7    1  0.2334784E-009  0.3226002E+03  0.7561462E-02  0.1074459E+00
          1   -1    0    0  501    0  0.00000000000E+00  0.00000000000E+00  0.78362623753E+03  0.78362623753E+03  0.00000000000E+00 0. -1.
         -1   -1    0    0    0  501 -0.00000000000E+00 -0.00000000000E+00 -0.14082853348E+03  0.14082853348E+03  0.00000000000E+00 0.  1.
         25    2    1    2    0    0 -0.14786930189E+03 -0.27600762188E+03  0.35703281026E+03  0.49109022638E+03  0.12510653489E+03 0.  0.
          5    1    3    3  502    0 -0.13662858645E+03 -0.19816371707E+03  0.32861260765E+03  0.40735727280E+03  0.41800000000E+01 0.  1.
         -5    1    3    3    0  502 -0.11240715433E+02 -0.77843904806E+02  0.28420202612E+02  0.83732953581E+02  0.41800000000E+01 0.  1.
        -11    1    1    2    0    0  0.45944801379E+02  0.17967960623E+03  0.15755232696E+03  0.24334835401E+03  0.00000000000E+00 0.  1.
         11    1    1    2    0    0  0.10192450051E+03  0.96328015644E+02  0.12821256684E+03  0.19001619062E+03  0.00000000000E+00 0. -1.
</event>
<event>
 7    1  0.2334784E-009  0.3451604E+03  0.7561462E-02  0.1064619E+00
         -1   -1    0    0    0  501 -0.00000000000E+00  0.00000000000E+00  0.31697040701E+03  0.31697040701E+03  0.00000000000E+00 0.  1.
          1   -1    0    0  501    0  0.00000000000E+00 -0.00000000000E+00 -0.44922866721E+03  0.44922866721E+03  0.00000000000E+00 0. -1.
         25    2    1    2    0    0  0.32405546663E+03  0.57496505852E+02  0.84624622518E+02  0.36211366760E+03  0.12508872007E+03 0.  0.
          5    1    3    3  502    0  0.32708106569E+03  0.71240529676E+02  0.89692932344E+02  0.34658264687E+03  0.41800000000E+01 0. -1.
         -5    1    3    3    0  502 -0.30255990539E+01 -0.13744023824E+02 -0.50683098266E+01  0.15531020733E+02  0.41800000000E+01 0. -1.
        -11    1    1    2    0    0 -0.87389495544E+02 -0.56746414001E+02 -0.70486253106E+02  0.12579901156E+03  0.00000000000E+00 0.  1.
         11    1    1    2    0    0 -0.23666597109E+03 -0.75009185112E+00 -0.14639662962E+03  0.27828639505E+03  0.00000000000E+00 0. -1.
</event>
<event>
 7    1  0.2334784E-009  0.1246226E+03  0.7561462E-02  0.1235660E+00
          2   -1    0    0  501    0  0.00000000000E+00  0.00000000000E+00  0.41431038178E+03  0.41431038178E+03  0.00000000000E+00 0. -1.
         -2   -1    0    0    0  501 -0.00000000000E+00 -0.00000000000E+00 -0.49440733945E+02  0.49440733945E+02  0.00000000000E+00 0.  1.
         25    2    1    2    0    0  0.18609095046E+02  0.68018862308E+02  0.12302853941E+03  0.18909312230E+03  0.12508926150E+03 0.  0.
          5    1    3    3  502    0 -0.33112205091E+02  0.57218957489E+02  0.11867783004E+03  0.13591293892E+03  0.41800000000E+01 0. -1.
         -5    1    3    3    0  502  0.51721300137E+02  0.10799904819E+02  0.43507093708E+01  0.53180183377E+02  0.41800000000E+01 0. -1.
        -11    1    1    2    0    0 -0.47961157699E+02  0.78992115337E+01  0.97685049014E+02  0.10911021488E+03  0.00000000000E+00 0.  1.
         11    1    1    2    0    0  0.29352062653E+02 -0.75918073842E+02  0.14415605941E+03  0.16554777855E+03  0.00000000000E+00 0. -1.
</event>
<event>
 6    1  0.2844096E-009  0.1381032E+03  0.7561462E-02  0.1215904E+00
         -3   -1    0    0    0  501 -0.00000000000E+00  0.00000000000E+00  0.11653740397E+03  0.11653740397E+03  0.00000000000E+00 0.  1.
          3   -1    0    0  501    0  0.00000000000E+00 -0.00000000000E+00 -0.31014416596E+03  0.31014416596E+03  0.00000000000E+00 0. -1.
          5    1    1    2  502    0  0.19379206589E+01  0.73530476299E+02 -0.71731202519E+02  0.10282667113E+03  0.41800000000E+01 0. -1.
         -5    1    1    2    0  502 -0.26236150373E+01  0.62950014950E+02  0.53988979992E+02  0.83077494538E+02  0.41800000000E+01 0. -1.
        -11    1    1    2    0    0  0.11585570118E+02 -0.11191860026E+03 -0.18128522150E+03  0.21336431298E+03  0.00000000000E+00 0. -1.
         11    1    1    2    0    0 -0.10899875739E+02 -0.24561890985E+02  0.54206820296E+01  0.27413091281E+02  0.00000000000E+00 0.  1.
</event>
<event>
 7    1  0.2334784E-009  0.1334928E+03  0.7561462E-02  0.1222363E+00
         -2   -1    0    0    0  501 -0.00000000000E+00  0.00000000000E+00  0.29842232892E+03  0.29842232892E+03  0.00000000000E+00 0. -1.
          2   -1    0    0  501    0  0.00000000000E+00 -0.00000000000E+00 -0.68639496283E+02  0.68639496283E+02  0.00000000000E+00 0.  1.
         25    2    1    2    0    0  0.23280976408E+02  0.87698929794E+02  0.15744451028E+03  0.22061194980E+03  0.12509097660E+03 0.  0.
          5    1    3    3  502    0  0.60083368386E+02  0.12448286176E+01  0.55544866723E+02  0.81940621026E+02  0.41800000000E+01 0.  1.
         -5    1    3    3    0  502 -0.36802391978E+02  0.86454101176E+02  0.10189964356E+03  0.13867132877E+03  0.41800000000E+01 0.  1.
        -11    1    1    2    0    0 -0.45125846806E+02 -0.74693626746E+02  0.21909422145E+02  0.89975011560E+02  0.00000000000E+00 0. -1.
         11    1    1    2    0    0  0.21844870398E+02 -0.13005303048E+02  0.50428900206E+02  0.56474863843E+02  0.00000000000E+00 0.  1.
</event>
<event>
 7    1  0.2427118E-009  0.1230585E+03  0.7561462E-02  0.1238135E+00
         -2   -1    0    0    0  501 -0.00000000000E+00  0.00000000000E+00  0.18494967436E+03  0.18494967436E+03  0.00000000000E+00 0.  1.
          2   -1    0    0  501    0  0.00000000000E+00 -0.00000000000E+00 -0.15531988421E+03  0.15531988421E+03  0.00000000000E+00 0. -1.
         25    2    1    2    0    0 -0.99965059138E+02 -0.65560591914E+02  0.65843009453E+02  0.18513325960E+03  0.12509123732E+03 0.  0.
          5    1    3    3  502    0 -0.52619921448E+02 -0.55136598134E+02 -0.26462558283E+02  0.80787622678E+02  0.41800000000E+01 0. -1.
         -5    1    3    3    0  502 -0.47345137690E+02 -0.10423993780E+02  0.92305567736E+02  0.10434563692E+03  0.41800000000E+01 0. -1.
        -11    1    1    2    0    0  0.52814234632E+02  0.46152515821E+02 -0.65811058844E+02  0.96179486184E+02  0.00000000000E+00 0. -1.
         11    1    1    2    0    0  0.47150824506E+02  0.19408076093E+02  0.29597839535E+02  0.58956812790E+02  0.00000000000E+00 0.  1.
</event>
<event>
 7    1  0.2334784E-009  0.1062044E+03  0.7561462E-02  0.1267765E+00
         -1   -1    0    0    0  501 -0.00000000000E+00  0.00000000000E+00  0.15775657932E+03  0.15775657932E+03  0.00000000000E+00 0.  1.
          1   -1    0    0  501    0  0.00000000000E+00 -0.00000000000E+00 -0.79080003262E+02  0.79080003262E+02  0.00000000000E+00 0. -1.
         25    2    1    2    0    0 -0.12803413517E+02  0.22296507019E+02  0.46183029027E+02  0.13579972243E+03  0.12509049052E+03 0.  0.
          5    1    3    3  502    0 -0.15952242639E+02 -0.49277949077E+02  0.30149355688E+01  0.52051441353E+02  0.41800000000E+01 0. -1.
         -5    1    3    3    0  502  0.31488291227E+01  0.71574456096E+02  0.43168093458E+02  0.83748281075E+02  0.41800000000E+01 0. -1.
        -11    1    1    2    0    0 -0.75502733569E+01 -0.52069452866E+02  0.18192961035E+00  0.52614329302E+02  0.00000000000E+00 0. -1.
         11    1    1    2    0    0  0.20353686874E+02  0.29772945847E+02  0.32311617425E+02  0.48422530855E+02  0.00000000000E+00 0.  1.
</event>
<event>
 7    1  0.2334784E-009  0.1033330E+03  0.7561462E-02  0.1273439E+00
          1   -1    0    0  501    0  0.00000000000E+00  0.00000000000E+00  0.27896877138E+03  0.27896877138E+03  0.00000000000E+00 0. -1.
         -1   -1    0    0    0  501 -0.00000000000E+00 -0.00000000000E+00 -0.84040660821E+02  0.84040660821E+02  0.00000000000E+00 0.  1.
         25    2    1    2    0    0  0.46574943985E+02 -0.25384333631E+02  0.21553654575E+03  0.25478688978E+03  0.12508703708E+03 0.  0.
          5    1    3    3  502    0  0.68806127418E+02 -0.36114849005E+01  0.47378414589E+02  0.83722831786E+02  0.41800000000E+01 0.  1.
         -5    1    3    3    0  502 -0.22231183433E+02 -0.21772848731E+02  0.16815813117E+03  0.17106405799E+03  0.41800000000E+01 0.  1.
        -11    1    1    2    0    0  0.65709984315E+01 -0.29275581833E+02 -0.59691192577E+01  0.30591961309E+02  0.00000000000E+00 0. -1.
         11    1    1    2    0    0 -0.53145942416E+02  0.54659915464E+02 -0.14639315935E+02  0.77630581119E+02  0.00000000000E+00 0.  1.
</event>
<event>
 7    1  0.2334784E-009  0.9755578E+02  0.7561462E-02  0.1285521E+00
          2   -1    0    0  501    0  0.00000000000E+00  0.00000000000E+00  0.18411377096E+03  0.18411377096E+03  0.00000000000E+00 0. -1.
         -2   -1    0    0    0  501 -0.00000000000E+00 -0.00000000000E+00 -0.72650568488E+02  0.72650568488E+02  0.00000000000E+00 0.  1.
         25    2    1    2    0    0  0.29338772129E+01  0.23821087903E+02  0.29838317254E+02  0.13081967931E+03  0.12508961370E+03 0.  0.
          5    1    3    3  502    0  0.61377331932E+02 -0.44384472884E+01  0.21074511163E+02  0.65180396671E+02  0.41800000000E+01 0.  1.
         -5    1    3    3    0  502 -0.58443454719E+02  0.28259535192E+02  0.87638060911E+01  0.65639282644E+02  0.41800000000E+01 0.  1.
        -11    1    1    2    0    0 -0.13196766938E+02 -0.43894692469E+02  0.50417638327E+01  0.46112016515E+02  0.00000000000E+00 0.  1.
         11    1    1    2    0    0  0.10262889725E+02  0.20073604566E+02  0.76583121386E+02  0.79832643618E+02  0.00000000000E+00 0. -1.
</event>
<event>
 7    1  0.2334784E-009  0.1033274E+03  0.7561462E-02  0.1273450E+00
         -1   -1    0    0    0  501 -0.00000000000E+00  0.00000000000E+00  0.46945856785E+02  0.46945856785E+02  0.00000000000E+00 0.  1.
          1   -1    0    0  501    0  0.00000000000E+00 -0.00000000000E+00 -0.25861117076E+03  0.25861117076E+03  0.00000000000E+00 0. -1.
         25    2    1    2    0    0 -0.10215615608E+02 -0.14611294975E+02 -0.14538305638E+03  0.19260655019E+03  0.12507278421E+03 0.  0.
          5    1    3    3  502    0  0.53307112437E+02 -0.25071042672E+02 -0.89645871963E+02  0.10735017549E+03  0.41800000000E+01 0.  1.
         -5    1    3    3    0  502 -0.63522728045E+02  0.10459747697E+02 -0.55737184420E+02  0.85256374701E+02  0.41800000000E+01 0.  1.
        -11    1    1    2    0    0 -0.20789888530E+01  0.47720836804E+02 -0.60625285408E+02  0.77181770456E+02  0.00000000000E+00 0. -1.
         11    1    1    2    0    0  0.12294604461E+02 -0.33109541829E+02 -0.56569721828E+01  0.35768706900E+02  0.00000000000E+00 0.  1.
</event>
<event>
 7    1  0.2334784E-009  0.1157338E+03  0.7561462E-02  0.1250306E+00
         -4   -1    0    0    0  501 -0.00000000000E+00  0.00000000000E+00  0.78355625297E+03  0.78355625297E+03  0.00000000000E+00 0.  1.
          4   -1    0    0  501    0  0.00000000000E+00 -0.00000000000E+00 -0.25028803410E+02  0.25028803410E+02  0.00000000000E+00 0. -1.
         25    2    1    2    0    0 -0.76245933366E+02 -0.12047432104E+02  0.54085507208E+03  0.56047542414E+03  0.12509959671E+03 0.  0.
          5    1    3    3  502    0 -0.78717765048E+02  0.22251764489E+02  0.50107807923E+03  0.50772861003E+03  0.41800000000E+01 0.  1.
         -5    1    3    3    0  502  0.24718316817E+01 -0.34299196593E+02  0.39776992850E+02  0.52746814112E+02  0.41800000000E+01 0.  1.
        -11    1    1    2    0    0  0.32320295000E+00  0.35463990523E+02  0.10020263630E+03  0.10629377877E+03  0.00000000000E+00 0. -1.
         11    1    1    2    0    0  0.75922730416E+02 -0.23416558419E+02  0.11746974118E+03  0.14181585347E+03  0.00000000000E+00 0.  1.
</event>
<event>
 7    1  0.2334784E-009  0.1075013E+03  0.7561462E-02  0.1265268E+00
          1   -1    0    0  501    0  0.00000000000E+00  0.00000000000E+00  0.95726253471E+03  0.95726253471E+03  0.00000000000E+00 0. -1.
         -1   -1    0    0    0  501 -0.00000000000E+00 -0.00000000000E+00 -0.16488239892E+02  0.16488239892E+02  0.00000000000E+00 0.  1.
         25    2    1    2    0    0 -0.30694009361E+02 -0.52730548574E+01  0.73085770645E+03  0.74213950371E+03  0.12509248007E+03 0.  0.
          5    1    3    3  502    0 -0.15726059803E+02 -0.65094905082E+02  0.37695361326E+03  0.38287877269E+03  0.41800000000E+01 0. -1.
         -5    1    3    3    0  502 -0.14967949558E+02  0.59821850225E+02  0.35390409319E+03  0.35926073103E+03  0.41800000000E+01 0. -1.
        -11    1    1    2    0    0 -0.19118976576E+02  0.25891714982E+02  0.13815743827E+03  0.14185694879E+03  0.00000000000E+00 0.  1.
         11    1    1    2    0    0  0.49812985937E+02 -0.20618660124E+02  0.71759150092E+02  0.89754322097E+02  0.00000000000E+00 0. -1.
</event>
<event>
 7    1  0.2334784E-009  0.7397362E+02  0.7561462E-02  0.1347079E+00
         -2   -1    0    0    0  501 -0.00000000000E+00  0.00000000000E+00  0.21329055665E+03  0.21329055665E+03  0.00000000000E+00 0.  1.
          2   -1    0    0  501    0  0.00000000000E+00 -0.00000000000E+00 -0.71953039733E+02  0.71953039733E+02  0.00000000000E+00 0. -1.
         25    2    1    2    0    0  0.12850168554E+01 -0.27063634361E+02  0.12118661360E+03  0.17625957789E+03  0.12508857625E+03 0.  0.
          5    1    3    3  502    0  0.46574107268E+02 -0.50126009662E+01  0.11633576282E+03  0.12548209333E+03  0.41800000000E+01 0.  1.
         -5    1    3    3    0  502 -0.45289090413E+02 -0.22051033395E+02  0.48508507778E+01  0.50777484553E+02  0.41800000000E+01 0.  1.
        -11    1    1    2    0    0 -0.14798039034E+02  0.32575309227E+02  0.58151823610E+02  0.68277136142E+02  0.00000000000E+00 0.  1.
         11    1    1    2    0    0  0.13513022179E+02 -0.55116748664E+01 -0.38000920291E+02  0.40706882357E+02  0.00000000000E+00 0. -1.
</event>
<event>
 7    1  0.2334784E-009  0.1293645E+03  0.7561462E-02  0.1228402E+00
          1   -1    0    0  501    0  0.00000000000E+00  0.00000000000E+00  0.41528895405E+03  0.41528895405E+03  0.00000000000E+00 0. -1.
         -1   -1    0    0    0  501 -0.00000000000E+00 -0.00000000000E+00 -0.52266342744E+02  0.52266342744E+02  0.00000000000E+00 0.  1.
         25    2    1    2    0    0 -0.89415945822E+02 -0.14044673710E+01  0.13049500042E+03  0.20167476349E+03  0.12508629500E+03 0.  0.
          5    1    3    3  502    0 -0.22034468594E+01 -0.48213502602E+02  0.17764337987E+02  0.51598848004E+02  0.41800000000E+01 0.  1.
         -5    1    3    3    0  502 -0.87212498963E+02  0.46809035231E+02  0.11273066244E+03  0.15007591548E+03  0.41800000000E+01 0.  1.
        -11    1    1    2    0    0  0.77718344755E+02 -0.25568099619E+02  0.95590441976E+02  0.12582289707E+03  0.00000000000E+00 0.  1.
         11    1    1    2    0    0  0.11697601068E+02  0.26972566990E+02  0.13693716891E+03  0.14005763624E+03  0.00000000000E+00 0. -1.
</event>
<event>
 6    1  0.2334784E-009  0.1422203E+03  0.7561462E-02  0.1210372E+00
         -2   -1    0    0    0  501 -0.00000000000E+00  0.00000000000E+00  0.46464379184E+02  0.46464379184E+02  0.00000000000E+00 0.  1.
          2   -1    0    0  501    0  0.00000000000E+00 -0.00000000000E+00 -0.65930557295E+03  0.65930557295E+03  0.00000000000E+00 0. -1.
          5    1    1    2  502    0  0.48385322099E+02 -0.84766851291E+02 -0.41468928347E+03  0.42604135093E+03  0.41800000000E+01 0. -1.
         -5    1    1    2    0  502  0.40366808709E+02  0.34445736059E+02 -0.95441204075E+02  0.10928167190E+03  0.41800000000E+01 0. -1.
        -11    1    1    2    0    0 -0.10378852102E+03  0.29622608350E+02 -0.94837688122E+02  0.14367930648E+03  0.00000000000E+00 0. -1.
         11    1    1    2    0    0  0.15036390217E+02  0.20698506881E+02 -0.78730180953E+01  0.26767622827E+02  0.00000000000E+00 0.  1.
</event>
<event>
 7    1  0.2398533E-009  0.1314582E+03  0.7561462E-02  0.1225308E+00
          1   -1    0    0  501    0  0.00000000000E+00  0.00000000000E+00  0.80154524540E+03  0.80154524540E+03  0.00000000000E+00 0. -1.
         -1   -1    0    0    0  501 -0.00000000000E+00 -0.00000000000E+00 -0.40963175698E+02  0.40963175698E+02  0.00000000000E+00 0.  1.
         25    2    1    2    0    0 -0.17449764561E+02  0.10907178274E+03  0.18355630331E+03  0.24807477116E+03  0.12508807909E+03 0.  0.
          5    1    3    3  502    0 -0.31064304224E+02  0.95408080977E+02  0.19907301897E+03  0.22296912835E+03  0.41800000000E+01 0.  1.
         -5    1    3    3    0  502  0.13614539663E+02  0.13663701759E+02 -0.15516715668E+02  0.25105642814E+02  0.41800000000E+01 0.  1.
        -11    1    1    2    0    0  0.54768682671E+02 -0.65999057412E+02  0.35415398505E+03  0.36439062736E+03  0.00000000000E+00 0.  1.
         11    1    1    2    0    0 -0.37318918110E+02 -0.43072725324E+02  0.22287178134E+03  0.23004302257E+03  0.00000000000E+00 0. -1.
</event>
<event>
 7    1  0.2334784E-009  0.6064846E+02  0.7561462E-02  0.1395130E+00
         -1   -1    0    0    0  501 -0.00000000000E+00  0.00000000000E+00  0.81977075060E+03  0.81977075060E+03  0.00000000000E+00 0.  1.
          1   -1    0    0  501    0  0.00000000000E+00 -0.00000000000E+00 -0.16863835281E+02  0.16863835281E+02  0.00000000000E+00 0. -1.
         25    2    1    2    0    0  0.18187638263E+02  0.29077504063E+02  0.56856579688E+03  0.58317283821E+03  0.12508877813E+03 0.  0.
          5    1    3    3  502    0 -0.20215847921E+01 -0.66173356681E+01 -0.40727619422E+01  0.90518355185E+01  0.41800000000E+01 0. -1.
         -5    1    3    3    0  502  0.20209223055E+02  0.35694839731E+02  0.57263855882E+03  0.57412100269E+03  0.41800000000E+01 0. -1.
        -11    1    1    2    0    0  0.97330460491E+01 -0.40619755189E+02  0.21150466475E+03  0.21558970270E+03  0.00000000000E+00 0.  1.
         11    1    1    2    0    0 -0.27920684312E+02  0.11542251126E+02  0.22836453685E+02  0.37872044973E+02  0.00000000000E+00 0. -1.
</event>
<event>
 7    1  0.2334784E-009  0.1201589E+03  0.7561462E-02  0.1242835E+00
         -1   -1    0    0    0  501 -0.00000000000E+00  0.00000000000E+00  0.25055051441E+02  0.25055051441E+02  0.00000000000E+00 0.  1.
          1   -1    0    0  501    0  0.00000000000E+00 -0.00000000000E+00 -0.93727579330E+03  0.93727579330E+03  0.00000000000E+00 0. -1.
         25    2    1    2    0    0 -0.10833397788E+02  0.67638159969E+02 -0.75685063599E+03  0.77017086912E+03  0.12509196318E+03 0.  0.
          5    1    3    3  502    0 -0.58268529658E+02 -0.59299456095E+00 -0.35779949391E+03  0.36253761657E+03  0.41800000000E+01 0.  1.
         -5    1    3    3    0  502  0.47435131870E+02  0.68231154530E+02 -0.39905114208E+03  0.40763325255E+03  0.41800000000E+01 0.  1.
        -11    1    1    2    0    0 -0.29977495267E+02 -0.37223999227E+02 -0.28948966582E+02  0.55877714763E+02  0.00000000000E+00 0.  1.
         11    1    1    2    0    0  0.40810893055E+02 -0.30414160742E+02 -0.12642113929E+03  0.13628226086E+03  0.00000000000E+00 0. -1.
</event>
<event>
 7    1  0.2334784E-009  0.9076481E+02  0.7561462E-02  0.1301010E+00
          2   -1    0    0  501    0  0.00000000000E+00  0.00000000000E+00  0.56431467080E+02  0.56431467080E+02  0.00000000000E+00 0. -1.
         -2   -1    0    0    0  501 -0.00000000000E+00 -0.00000000000E+00 -0.25888041224E+03  0.25888041224E+03  0.00000000000E+00 0.  1.
         25    2    1    2    0    0  0.14863892839E+02 -0.13206277820E+02 -0.17898427479E+03  0.21926701507E+03  0.12508921692E+03 0.  0.
          5    1    3    3  502    0  0.31007371847E+02 -0.58805933305E+02 -0.14626342361E+03  0.16071731825E+03  0.41800000000E+01 0. -1.
         -5    1    3    3    0  502 -0.16143479007E+02  0.45599655485E+02 -0.32720851187E+02  0.58549696816E+02  0.41800000000E+01 0. -1.
        -11    1    1    2    0    0 -0.35869469264E+02 -0.77460879730E+01  0.21233224867E+02  0.42396586448E+02  0.00000000000E+00 0. -1.
         11    1    1    2    0    0  0.21005576424E+02  0.20952365793E+02 -0.44697895236E+02  0.53648277808E+02  0.00000000000E+00 0.  1.
</event>
<event>
 7    1  0.2334784E-009  0.1364610E+03  0.7561462E-02  0.1218172E+00
         -2   -1    0    0    0  501 -0.00000000000E+00  0.00000000000E+00  0.48122304009E+02  0.48122304009E+02  0.00000000000E+00 0.  1.
          2   -1    0    0  501    0  0.00000000000E+00 -0.00000000000E+00 -0.41466931521E+03  0.41466931521E+03  0.00000000000E+00 0. -1.
         25    2    1    2    0    0  0.82513250157E+02  0.17015976466E+02 -0.24944594861E+03  0.29149375252E+03  0.12508935437E+03 0.  0.
          5    1    3    3  502    0 -0.74436805038E+01  0.51666778916E+02 -0.11109094521E+03  0.12281504359E+03  0.41800000000E+01 0.  1.
         -5    1    3    3    0  502  0.89956930661E+02 -0.34650802450E+02 -0.13835500339E+03  0.16867870894E+03  0.41800000000E+01 0.  1.
        -11    1    1    2    0    0 -0.44728249285E+02 -0.54727329881E+02 -0.77063922179E+02  0.10456837486E+03  0.00000000000E+00 0. -1.
         11    1    1    2    0    0 -0.37785000873E+02  0.37711353415E+02 -0.40037140414E+02  0.66729491830E+02  0.00000000000E+00 0.  1.
</event>
<event>
 7    1  0.2334784E-009  0.1112060E+03  0.7561462E-02  0.1258353E+00
         -2   -1    0    0    0  501 -0.00000000000E+00  0.00000000000E+00  0.21235937829E+02  0.21235937829E+02  0.00000000000E+00 0.  1.
          2   -1    0    0  501    0  0.00000000000E+00 -0.00000000000E+00 -0.65137375423E+03  0.65137375423E+03  0.00000000000E+00 0. -1.
         25    2    1    2    0    0 -0.27181714268E+02 -0.18249561362E+02 -0.42807094350E+03  0.44717346130E+03  0.12508988663E+03 0.  0.
          5    1    3    3  502    0  0.42526490952E+02  0.20855666117E+02 -0.19612465820E+03  0.20180638047E+03  0.41800000000E+01 0.  1.
         -5    1    3    3    0  502 -0.69708205220E+02 -0.39105227479E+02 -0.23194628530E+03  0.24536708083E+03  0.41800000000E+01 0.  1.
        -11    1    1    2    0    0  0.38803378027E+02 -0.27540776319E+02 -0.65725175691E+02  0.81141821684E+02  0.00000000000E+00 0.  1.
         11    1    1    2    0    0 -0.11621663759E+02  0.45790337682E+02 -0.13634169721E+03  0.14429440907E+03  0.00000000000E+00 0. -1.
</event>
<event>
 7    1  0.3052817E-009  0.9514207E+02  0.7561462E-02  0.1290856E+00
         -2   -1    0    0    0  501 -0.00000000000E+00  0.00000000000E+00  0.16195892259E+03  0.16195892259E+03  0.00000000000E+00 0.  1.
          2   -1    0    0  501    0  0.00000000000E+00 -0.00000000000E+00 -0.11992533245E+03  0.11992533245E+03  0.00000000000E+00 0. -1.
         25    2    1    2    0    0 -0.39013312611E+02  0.77073129338E+02  0.30674654929E+02  0.15508206379E+03  0.12508879338E+03 0.  0.
          5    1    3    3  502    0 -0.92682487560E+01  0.24112778370E+02  0.75219465714E+02  0.79641490054E+02  0.41800000000E+01 0. -1.
         -5    1    3    3    0  502 -0.29745063855E+02  0.52960350967E+02 -0.44544810785E+02  0.75440573740E+02  0.41800000000E+01 0. -1.
        -11    1    1    2    0    0  0.53836016759E+02 -0.59517087313E+02  0.40337109164E+02  0.89820280330E+02  0.00000000000E+00 0.  1.
         11    1    1    2    0    0 -0.14822704149E+02 -0.17556042024E+02 -0.28978173947E+02  0.36981910918E+02  0.00000000000E+00 0. -1.
</event>
<event>
 7    1  0.2334784E-009  0.1547613E+03  0.7561462E-02  0.1194741E+00
         -2   -1    0    0    0  501 -0.00000000000E+00  0.00000000000E+00  0.13182457304E+03  0.13182457304E+03  0.00000000000E+00 0.  1.
          2   -1    0    0  501    0  0.00000000000E+00 -0.00000000000E+00 -0.25317279859E+03  0.25317279859E+03  0.00000000000E+00 0. -1.
         25    2    1    2    0    0 -0.92489349430E+02 -0.10453861831E+03 -0.59471057021E+01  0.18752893474E+03  0.12509648605E+03 0.  0.
          5    1    3    3  502    0 -0.10778658647E+03 -0.74428130177E+02  0.33662819139E+02  0.13530762202E+03  0.41800000000E+01 0. -1.
         -5    1    3    3    0  502  0.15297237036E+02 -0.30110488137E+02 -0.39609924841E+02  0.52221312725E+02  0.41800000000E+01 0. -1.
        -11    1    1    2    0    0  0.73210069938E+02  0.10114877835E+03 -0.59647980841E+02  0.13837872423E+03  0.00000000000E+00 0.  1.
         11    1    1    2    0    0  0.19279279491E+02  0.33898399622E+01 -0.55753139007E+02  0.59089712656E+02  0.00000000000E+00 0. -1.
</event>
<event>
 7    1  0.2334784E-009  0.1142693E+03  0.7561462E-02  0.1252862E+00
          1   -1    0    0  501    0  0.00000000000E+00  0.00000000000E+00  0.30277436087E+03  0.30277436087E+03  0.00000000000E+00 0. -1.
         -1   -1    0    0    0  501 -0.00000000000E+00 -0.00000000000E+00 -0.57370513988E+02  0.57370513988E+02  0.00000000000E+00 0.  1.
         25    2    1    2    0    0 -0.73469155609E+02 -0.56897788762E+01  0.15414330879E+03  0.21174868071E+03  0.12508898324E+03 0.  0.
          5    1    3    3  502    0  0.51492217615E+01 -0.52084444093E+02  0.70199018819E+02  0.87662297736E+02  0.41800000000E+01 0. -1.
         -5    1    3    3    0  502 -0.78618377371E+02  0.46394665217E+02  0.83944289974E+02  0.12408638298E+03  0.41800000000E+01 0. -1.
        -11    1    1    2    0    0  0.13747745878E+02  0.19011848440E+02  0.83480010074E+02  0.86714260533E+02  0.00000000000E+00 0. -1.
         11    1    1    2    0    0  0.59721409731E+02 -0.13322069564E+02  0.77805280136E+01  0.61681933610E+02  0.00000000000E+00 0.  1.
</event>
<event>
 7    1  0.2334784E-009  0.2760696E+03  0.7561462E-02  0.1097855E+00
          3   -1    0    0  501    0  0.00000000000E+00  0.00000000000E+00  0.91804894418E+02  0.91804894418E+02  0.00000000000E+00 0. -1.
         -3   -1    0    0    0  501 -0.00000000000E+00 -0.00000000000E+00 -0.85481603783E+03  0.85481603783E+03  0.00000000000E+00 0.  1.
         25    2    1    2    0    0  0.24113892299E+03  0.83318005077E+02 -0.32742887222E+03  0.43352747805E+03  0.12508612116E+03 0.  0.
          5    1    3    3  502    0  0.95636277290E+02  0.96765569001E+02 -0.13331304002E+03  0.19052483281E+03  0.41800000000E+01 0.  1.
         -5    1    3    3    0  502  0.14550264571E+03 -0.13447563924E+02 -0.19411583221E+03  0.24300264524E+03  0.41800000000E+01 0.  1.
        -11    1    1    2    0    0 -0.88566835579E+02 -0.76640748635E+02 -0.21448357847E+03  0.24437899695E+03  0.00000000000E+00 0.  1.
         11    1    1    2    0    0 -0.15257208742E+03 -0.66772564413E+01 -0.22109869272E+03  0.26871445725E+03  0.00000000000E+00 0. -1.
</event>
<event>
 7    1  0.2334784E-009  0.1599318E+03  0.7561462E-02  0.1188774E+00
         -2   -1    0    0    0  501 -0.00000000000E+00  0.00000000000E+00  0.31099540852E+03  0.31099540852E+03  0.00000000000E+00 0. -1.
          2   -1    0    0  501    0  0.00000000000E+00 -0.00000000000E+00 -0.11581442054E+03  0.11581442054E+03  0.00000000000E+00 0.  1.
         25    2    1    2    0    0  0.72092529255E+02  0.13503672885E+03  0.13742169129E+03  0.24075750517E+03  0.12508878505E+03 0.  0.
          5    1    3    3  502    0  0.26310348099E+02  0.14067472290E+02  0.10233166340E+03  0.10667412961E+03  0.41800000000E+01 0. -1.
         -5    1    3    3    0  502  0.45782181156E+02  0.12096925656E+03  0.35090027886E+02  0.13408337555E+03  0.41800000000E+01 0. -1.
        -11    1    1    2    0    0 -0.27906809010E+02 -0.10033381378E+03  0.73779556194E+02  0.12762870793E+03  0.00000000000E+00 0. -1.
         11    1    1    2    0    0 -0.44185720246E+02 -0.34702915066E+02 -0.16020259492E+02  0.58423615961E+02  0.00000000000E+00 0.  1.
</event>
<event>
 7    1  0.2334784E-009  0.7158976E+02  0.7561462E-02  0.1354769E+00
         -1   -1    0    0    0  501 -0.00000000000E+00  0.00000000000E+00  0.16931741778E+03  0.16931741778E+03  0.00000000000E+00 0.  1.
          1   -1    0    0  501    0  0.00000000000E+00 -0.00000000000E+00 -0.85230456214E+02  0.85230456214E+02  0.00000000000E+00 0. -1.
         25    2    1    2    0    0 -0.21200016208E+02  0.63620273398E+00  0.93825348132E+02  0.15780369923E+03  0.12509582766E+03 0.  0.
          5    1    3    3  502    0  0.23910951383E+01  0.21724018627E+02  0.11652954005E+03  0.11863497134E+03  0.41800000000E+01 0. -1.
         -5    1    3    3    0  502 -0.23591111346E+02 -0.21087815893E+02 -0.22704191917E+02  0.39168727887E+02  0.41800000000E+01 0. -1.
        -11    1    1    2    0    0  0.14777346745E+02  0.42708615729E+02 -0.23339395795E+02  0.50863771295E+02  0.00000000000E+00 0. -1.
         11    1    1    2    0    0  0.64226694628E+01 -0.43344818463E+02  0.13601009230E+02  0.45880403472E+02  0.00000000000E+00 0.  1.
</event>
<event>
 7    1  0.2334784E-009  0.1614843E+03  0.7561462E-02  0.1187031E+00
         -1   -1    0    0    0  501 -0.00000000000E+00  0.00000000000E+00  0.50516229023E+03  0.50516229023E+03  0.00000000000E+00 0.  1.
          1   -1    0    0  501    0  0.00000000000E+00 -0.00000000000E+00 -0.68139603810E+02  0.68139603810E+02  0.00000000000E+00 0. -1.
         25    2    1    2    0    0  0.26462223032E+02  0.13198189074E+03  0.33173558473E+03  0.37922177110E+03  0.12506472231E+03 0.  0.
          5    1    3    3  502    0 -0.30505695978E+02  0.73987810934E+02  0.25521379074E+03  0.26750017764E+03  0.41800000000E+01 0.  1.
         -5    1    3    3    0  502  0.56967919010E+02  0.57994079803E+02  0.76521793994E+02  0.11172159346E+03  0.41800000000E+01 0.  1.
        -11    1    1    2    0    0 -0.58783197693E+02 -0.69056391829E+02  0.45516723709E+02  0.10146931418E+03  0.00000000000E+00 0.  1.
         11    1    1    2    0    0  0.32320974661E+02 -0.62925498909E+02  0.59770377981E+02  0.92610808764E+02  0.00000000000E+00 0. -1.
</event>
<event>
 7    1  0.2334784E-009  0.1143093E+03  0.7561462E-02  0.1252792E+00
         -2   -1    0    0    0  501 -0.00000000000E+00  0.00000000000E+00  0.82190511681E+02  0.82190511681E+02  0.00000000000E+00 0.  1.
          2   -1    0    0  501    0  0.00000000000E+00 -0.00000000000E+00 -0.22860498694E+03  0.22860498694E+03  0.00000000000E+00 0. -1.
         25    2    1    2    0    0 -0.15079647460E+02 -0.81327207184E+02 -0.11545144954E+03  0.18925760941E+03  0.12509154697E+03 0.  0.
          5    1    3    3  502    0  0.30217575611E+02 -0.92335485129E+02 -0.51588633330E+02  0.11008089379E+03  0.41800000000E+01 0.  1.
         -5    1    3    3    0  502 -0.45297223071E+02  0.11008277945E+02 -0.63862816211E+02  0.79176715616E+02  0.41800000000E+01 0.  1.
        -11    1    1    2    0    0  0.30525800375E+01  0.60074461230E+02  0.21331756922E+02  0.63822433284E+02  0.00000000000E+00 0.  1.
         11    1    1    2    0    0  0.12027067422E+02  0.21252745954E+02 -0.52294782644E+02  0.57715455929E+02  0.00000000000E+00 0. -1.
</event>
<event>
 7    1  0.2334784E-009  0.8455962E+02  0.7561462E-02  0.1316588E+00
         -2   -1    0    0    0  501 -0.00000000000E+00  0.00000000000E+00  0.70598104901E+02  0.70598104901E+02  0.00000000000E+00 0.  1.
          2   -1    0    0  501    0  0.00000000000E+00 -0.00000000000E+00 -0.21379836201E+03  0.21379836201E+03  0.00000000000E+00 0. -1.
         25    2    1    2    0    0 -0.16562927581E+02  0.40884530910E+01 -0.14143035996E+02  0.12703688294E+03  0.12508916077E+03 0.  0.
          5    1    3    3  502    0  0.10153353411E+02  0.41263381056E+02 -0.52142511051E+02  0.67394888978E+02  0.41800000000E+01 0.  1.
         -5    1    3    3    0  502 -0.26716280992E+02 -0.37174927965E+02  0.37999475055E+02  0.59641993962E+02  0.41800000000E+01 0.  1.
        -11    1    1    2    0    0  0.47805105304E+02 -0.95082771353E+01 -0.40749514653E+02  0.63531554142E+02  0.00000000000E+00 0.  1.
         11    1    1    2    0    0 -0.31242177724E+02  0.54198240443E+01 -0.88307706462E+02  0.93828029832E+02  0.00000000000E+00 0. -1.
</event>
<event>
 7    1  0.2334784E-009  0.9114693E+02  0.7561462E-02  0.1300098E+00
          1   -1    0    0  501    0  0.00000000000E+00  0.00000000000E+00  0.15346655066E+03  0.15346655066E+03  0.00000000000E+00 0.  1.
         -1   -1    0    0    0  501 -0.00000000000E+00 -0.00000000000E+00 -0.86153467706E+02  0.86153467706E+02  0.00000000000E+00 0. -1.
         25    2    1    2    0    0 -0.40102405472E+02 -0.56907213580E+01  0.37831661707E+02  0.13681931689E+03  0.12509078148E+03 0.  0.
          5    1    3    3  502    0 -0.42857584943E+02  0.45625981335E+02 -0.13379852994E+02  0.64148231668E+02  0.41800000000E+01 0. -1.
         -5    1    3    3    0  502  0.27551794711E+01 -0.51316702693E+02  0.51211514701E+02  0.72671085221E+02  0.41800000000E+01 0. -1.
        -11    1    1    2    0    0  0.30795446149E+01 -0.21715798260E+02 -0.23802165125E+02  0.32366688952E+02  0.00000000000E+00 0. -1.
         11    1    1    2    0    0  0.37022860857E+02  0.27406519618E+02  0.53283586368E+02  0.70434012521E+02  0.00000000000E+00 0.  1.
</event>
<event>
 7    1  0.2334784E-009  0.1280835E+03  0.7561462E-02  0.1230327E+00
          1   -1    0    0  501    0  0.00000000000E+00  0.00000000000E+00  0.58046173895E+03  0.58046173895E+03  0.00000000000E+00 0. -1.
         -1   -1    0    0    0  501 -0.00000000000E+00 -0.00000000000E+00 -0.34947425773E+02  0.34947425773E+02  0.00000000000E+00 0.  1.
         25    2    1    2    0    0 -0.13011805568E+02  0.87225488197E+02  0.35269760833E+03  0.38447455832E+03  0.12508992845E+03 0.  0.
          5    1    3    3  502    0  0.35033958757E+02  0.95190597358E+02  0.26941185132E+03  0.28790423082E+03  0.41800000000E+01 0.  1.
         -5    1    3    3    0  502 -0.48045764325E+02 -0.79651091612E+01  0.83285757010E+02  0.96570327504E+02  0.41800000000E+01 0.  1.
        -11    1    1    2    0    0  0.28271435393E+02 -0.15111543099E+02  0.13059880529E+03  0.13447557673E+03  0.00000000000E+00 0. -1.
         11    1    1    2    0    0 -0.15259629825E+02 -0.72113945097E+02  0.62217899562E+02  0.96459029675E+02  0.00000000000E+00 0.  1.
</event>
<event>
 7    1  0.2334784E-009  0.8526477E+02  0.7561462E-02  0.1314742E+00
         -3   -1    0    0    0  501 -0.00000000000E+00  0.00000000000E+00  0.71430105561E+03  0.71430105561E+03  0.00000000000E+00 0.  1.
          3   -1    0    0  501    0  0.00000000000E+00 -0.00000000000E+00 -0.18836750413E+02  0.18836750413E+02  0.00000000000E+00 0. -1.
         25    2    1    2    0    0  0.37274373156E+01  0.20307889887E+02  0.49035801442E+03  0.50648299722E+03  0.12509092686E+03 0.  0.
          5    1    3    3  502    0 -0.20854639954E+01  0.46875749374E+02  0.46974866750E+03  0.47210482740E+03  0.41800000000E+01 0. -1.
         -5    1    3    3    0  502  0.58129013110E+01 -0.26567859487E+02  0.20609346923E+02  0.34378169817E+02  0.41800000000E+01 0. -1.
        -11    1    1    2    0    0  0.33261453299E+02 -0.41571941819E+02  0.10171653730E+03  0.11480768520E+03  0.00000000000E+00 0.  1.
         11    1    1    2    0    0 -0.36988890614E+02  0.21264051931E+02  0.10338975348E+03  0.11184712360E+03  0.00000000000E+00 0. -1.
</event>
<event>
 7    1  0.2334784E-009  0.1603660E+03  0.7561462E-02  0.1188284E+00
          1   -1    0    0  501    0  0.00000000000E+00  0.00000000000E+00  0.41920518488E+02  0.41920518488E+02  0.00000000000E+00 0. -1.
         -1   -1    0    0    0  501 -0.00000000000E+00 -0.00000000000E+00 -0.72806114834E+03  0.72806114834E+03  0.00000000000E+00 0.  1.
         25    2    1    2    0    0  0.12547952916E+03  0.28299133250E+02 -0.27137976635E+03  0.32533333154E+03  0.12509534700E+03 0.  0.
          5    1    3    3  502    0 -0.14102895652E+01 -0.31137473499E+02 -0.94766795607E+02  0.99848631048E+02  0.41800000000E+01 0.  1.
         -5    1    3    3    0  502  0.12688981873E+03  0.59436606749E+02 -0.17661297075E+03  0.22548470049E+03  0.41800000000E+01 0.  1.
        -11    1    1    2    0    0 -0.87280972186E+02  0.17959129863E+02 -0.32260977908E+03  0.33469025682E+03  0.00000000000E+00 0.  1.
         11    1    1    2    0    0 -0.38198556978E+02 -0.46258263113E+02 -0.92151084420E+02  0.10995807847E+03  0.00000000000E+00 0. -1.
</event>
<event>
 7    1  0.2334784E-009  0.2512118E+03  0.7561462E-02  0.1112541E+00
          2   -1    0    0  501    0  0.00000000000E+00  0.00000000000E+00  0.10378837474E+03  0.10378837474E+03  0.00000000000E+00 0. -1.
         -2   -1    0    0    0  501 -0.00000000000E+00 -0.00000000000E+00 -0.62579786239E+03  0.62579786239E+03  0.00000000000E+00 0.  1.
         25    2    1    2    0    0  0.19320032315E+03 -0.12530919350E+03 -0.28628289925E+03  0.38811458861E+03  0.12508507765E+03 0.  0.
          5    1    3    3  502    0  0.19137943269E+03 -0.66353128189E+02 -0.21328178696E+03  0.29416902951E+03  0.41800000000E+01 0.  1.
         -5    1    3    3    0  502  0.18208904633E+01 -0.58956065315E+02 -0.73001112286E+02  0.93945559100E+02  0.41800000000E+01 0.  1.
        -11    1    1    2    0    0 -0.13133665397E+03  0.43971514946E+02 -0.96662518605E+02  0.16889775992E+03  0.00000000000E+00 0. -1.
         11    1    1    2    0    0 -0.61863669175E+02  0.81337678558E+02 -0.13906406980E+03  0.17257388860E+03  0.00000000000E+00 0.  1.
</event>
<event>
 7    1  0.2334784E-009  0.8877424E+02  0.7561462E-02  0.1305847E+00
         -2   -1    0    0    0  501 -0.00000000000E+00  0.00000000000E+00  0.89084698579E+02  0.89084698579E+02  0.00000000000E+00 0.  1.
          2   -1    0    0  501    0  0.00000000000E+00 -0.00000000000E+00 -0.33145968525E+03  0.33145968525E+03  0.00000000000E+00 0. -1.
         25    2    1    2    0    0  0.16795310206E+02 -0.34603909364E+02  0.26689310054E+02  0.13357308627E+03  0.12509970870E+03 0.  0.
          5    1    3    3  502    0  0.34036984111E+02 -0.72027394286E+02  0.41077762310E+02  0.89729130005E+02  0.41800000000E+01 0. -1.
         -5    1    3    3    0  502 -0.17241673905E+02  0.37423484922E+02 -0.14388452256E+02  0.43843956266E+02  0.41800000000E+01 0. -1.
        -11    1    1    2    0    0  0.11013253796E+02 -0.11388986926E+01  0.27515371015E+01  0.11408760048E+02  0.00000000000E+00 0.  1.
         11    1    1    2    0    0 -0.27808564003E+02  0.35742808057E+02 -0.27181583383E+03  0.27556253751E+03  0.00000000000E+00 0. -1.
</event>
<event>
 7    1  0.2334784E-009  0.1198586E+03  0.7561462E-02  0.1243331E+00
         -1   -1    0    0    0  501 -0.00000000000E+00  0.00000000000E+00  0.13465229775E+03  0.13465229775E+03  0.00000000000E+00 0.  1.
          1   -1    0    0  501    0  0.00000000000E+00 -0.00000000000E+00 -0.28839230371E+03  0.28839230371E+03  0.00000000000E+00 0. -1.
         25    2    1    2    0    0 -0.59507870803E+02  0.84069333493E+02  0.55648797401E+02  0.17132240828E+03  0.12508293011E+03 0.  0.
          5    1    3    3  502    0 -0.79781013468E+02  0.76698561622E+02 -0.79669045216E+00  0.11075101165E+03  0.41800000000E+01 0.  1.
         -5    1    3    3    0  502  0.20273142665E+02  0.73707718706E+01  0.56445487853E+02  0.60571396637E+02  0.41800000000E+01 0.  1.
        -11    1    1    2    0    0  0.83829950772E+01 -0.35508065878E+02 -0.16366637633E+03  0.16768357132E+03  0.00000000000E+00 0. -1.
         11    1    1    2    0    0  0.51124875726E+02 -0.48561267615E+02 -0.45722427033E+02  0.84038621860E+02  0.00000000000E+00 0.  1.
</event>
<event>
 7    1  0.2334784E-009  0.1370626E+03  0.7561462E-02  0.1217337E+00
         -2   -1    0    0    0  501 -0.00000000000E+00  0.00000000000E+00  0.16485629070E+03  0.16485629070E+03  0.00000000000E+00 0.  1.
          2   -1    0    0  501    0  0.00000000000E+00 -0.00000000000E+00 -0.36011267297E+03  0.36011267297E+03  0.00000000000E+00 0. -1.
         25    2    1    2    0    0 -0.92956963813E+02  0.11501968509E+02  0.11109455183E+03  0.19173935357E+03  0.12509471556E+03 0.  0.
          5    1    3    3  502    0 -0.12208421715E+03  0.10646469542E+02  0.70012421294E+02  0.14119884888E+03  0.41800000000E+01 0. -1.
         -5    1    3    3    0  502  0.29127253334E+02  0.85549896674E+00  0.41082130534E+02  0.50540504692E+02  0.41800000000E+01 0. -1.
        -11    1    1    2    0    0  0.82159300628E+02 -0.40155895833E+02 -0.27320899318E+03  0.28810727273E+03  0.00000000000E+00 0. -1.
         11    1    1    2    0    0  0.10797663185E+02  0.28653927324E+02 -0.33141940916E+02  0.45122337363E+02  0.00000000000E+00 0.  1.
</event>
<event>
 7    1  0.2334784E-009  0.1011414E+03  0.7561462E-02  0.1277914E+00
          2   -1    0    0  501    0  0.00000000000E+00  0.00000000000E+00  0.27803295059E+03  0.27803295059E+03  0.00000000000E+00 0. -1.
         -2   -1    0    0    0  501 -0.00000000000E+00 -0.00000000000E+00 -0.77213777644E+02  0.77213777644E+02  0.00000000000E+00 0.  1.
         25    2    1    2    0    0 -0.75807469273E+02  0.35779700722E+02  0.16503286643E+03  0.22340654069E+03  0.12509067127E+03 0.  0.
          5    1    3    3  502    0 -0.72692374154E+02  0.15268193158E+02  0.20274345427E+02  0.77109146442E+02  0.41800000000E+01 0.  1.
         -5    1    3    3    0  502 -0.31150951183E+01  0.20511507564E+02  0.14475852100E+03  0.14629739425E+03  0.41800000000E+01 0.  1.
        -11    1    1    2    0    0  0.15828941428E+02 -0.43461955142E+02 -0.19226519223E+02  0.50091476051E+02  0.00000000000E+00 0.  1.
         11    1    1    2    0    0  0.59978527844E+02  0.76822544198E+01  0.55012825739E+02  0.81748711495E+02  0.00000000000E+00 0. -1.
</event>
<event>
 7    1  0.2334784E-009  0.1653865E+03  0.7561462E-02  0.1182746E+00
          2   -1    0    0  501    0  0.00000000000E+00  0.00000000000E+00  0.80035171244E+03  0.80035171244E+03  0.00000000000E+00 0. -1.
         -2   -1    0    0    0  501 -0.00000000000E+00 -0.00000000000E+00 -0.82065739517E+02  0.82065739517E+02  0.00000000000E+00 0.  1.
         25    2    1    2    0    0  0.85819551488E+02 -0.11113037297E+03  0.68781903546E+03  0.71306231016E+03  0.12509147620E+03 0.  0.
          5    1    3    3  502    0  0.89714581824E+02 -0.18106777290E+02  0.40688665376E+03  0.41707407374E+03  0.41800000000E+01 0. -1.
         -5    1    3    3    0  502 -0.38950303365E+01 -0.93023595677E+02  0.28093238170E+03  0.29598823643E+03  0.41800000000E+01 0. -1.
        -11    1    1    2    0    0 -0.43187835921E+02  0.25127740643E+02 -0.27687048738E+02  0.57124120905E+02  0.00000000000E+00 0. -1.
         11    1    1    2    0    0 -0.42631715567E+02  0.86002632323E+02  0.58153986198E+02  0.11223102089E+03  0.00000000000E+00 0.  1.
</event>
<event>
 7    1  0.2334784E-009  0.2372487E+03  0.7561462E-02  0.1121639E+00
          1   -1    0    0  501    0  0.00000000000E+00  0.00000000000E+00  0.36949449921E+03  0.36949449921E+03  0.00000000000E+00 0. -1.
         -1   -1    0    0    0  501 -0.00000000000E+00 -0.00000000000E+00 -0.21650820170E+03  0.21650820170E+03  0.00000000000E+00 0.  1.
         25    2    1    2    0    0 -0.76182323700E+02  0.22222892661E+03  0.19554924467E+03  0.33026455825E+03  0.12508288882E+03 0.  0.
          5    1    3    3  502    0 -0.57861154892E+02  0.11989038910E+03  0.32916657575E+02  0.13719547146E+03  0.41800000000E+01 0. -1.
         -5    1    3    3    0  502 -0.18321168808E+02  0.10233853752E+03  0.16263258710E+03  0.19306908679E+03  0.41800000000E+01 0. -1.
        -11    1    1    2    0    0  0.77756185929E+02 -0.19422207239E+03 -0.65800316669E+02  0.21931237887E+03  0.00000000000E+00 0. -1.
         11    1    1    2    0    0 -0.15738622290E+01 -0.28006854226E+02  0.23237369503E+02  0.36425763786E+02  0.00000000000E+00 0.  1.
</event>
<event>
 7    1  0.2334784E-009  0.1083800E+03  0.7561462E-02  0.1263600E+00
          2   -1    0    0  501    0  0.00000000000E+00  0.00000000000E+00  0.57101401012E+02  0.57101401012E+02  0.00000000000E+00 0. -1.
         -2   -1    0    0    0  501 -0.00000000000E+00 -0.00000000000E+00 -0.26141191341E+03  0.26141191341E+03  0.00000000000E+00 0.  1.
         25    2    1    2    0    0  0.17827708540E+02  0.34575143182E+02 -0.16944640875E+03  0.21417928032E+03  0.12508961173E+03 0.  0.
          5    1    3    3  502    0  0.63272501440E+02  0.43132658128E+02 -0.13870140257E+03  0.15849096854E+03  0.41800000000E+01 0.  1.
         -5    1    3    3    0  502 -0.45444792899E+02 -0.85575149461E+01 -0.30745006180E+02  0.55688311778E+02  0.41800000000E+01 0.  1.
        -11    1    1    2    0    0 -0.44154998676E+02 -0.47033505309E+02 -0.38269947787E+02  0.75009355639E+02  0.00000000000E+00 0.  1.
         11    1    1    2    0    0  0.26327290136E+02  0.12458362127E+02  0.34058441332E+01  0.29324678464E+02  0.00000000000E+00 0. -1.
</event>
<event>
 7    1  0.2334784E-009  0.1546594E+03  0.7561462E-02  0.1194862E+00
         -2   -1    0    0    0  501 -0.00000000000E+00  0.00000000000E+00  0.17967680783E+03  0.17967680783E+03  0.00000000000E+00 0.  1.
          2   -1    0    0  501    0  0.00000000000E+00 -0.00000000000E+00 -0.20743933251E+03  0.20743933251E+03  0.00000000000E+00 0. -1.
         25    2    1    2    0    0 -0.78615422745E+01 -0.14173062091E+03  0.56117111658E+02  0.19734460285E+03  0.12508552795E+03 0.  0.
          5    1    3    3  502    0 -0.10887688789E+02 -0.39697871317E+02  0.82093409890E+02  0.91930751665E+02  0.41800000000E+01 0. -1.
         -5    1    3    3    0  502  0.30261465141E+01 -0.10203274959E+03 -0.25976298232E+02  0.10541385118E+03  0.41800000000E+01 0. -1.
        -11    1    1    2    0    0 -0.16388593929E+01  0.15187374828E+03 -0.62428967744E+02  0.16421235426E+03  0.00000000000E+00 0. -1.
         11    1    1    2    0    0  0.95004016675E+01 -0.10143127374E+02 -0.21450668595E+02  0.25559183240E+02  0.00000000000E+00 0.  1.
</event>
<event>
 7    1  0.2334784E-009  0.1073512E+03  0.7561462E-02  0.1265555E+00
          3   -1    0    0  501    0  0.00000000000E+00  0.00000000000E+00  0.41570335430E+02  0.41570335430E+02  0.00000000000E+00 0. -1.
         -3   -1    0    0    0  501 -0.00000000000E+00 -0.00000000000E+00 -0.40051416844E+03  0.40051416844E+03  0.00000000000E+00 0.  1.
         25    2    1    2    0    0 -0.62114563308E+02  0.43401551171E+01 -0.25234084168E+03  0.28844420921E+03  0.12508839084E+03 0.  0.
          5    1    3    3  502    0  0.25629629385E+02 -0.21641132455E+02 -0.13722863780E+03  0.14133077495E+03  0.41800000000E+01 0. -1.
         -5    1    3    3    0  502 -0.87744192693E+02  0.25981287572E+02 -0.11511220389E+03  0.14711343426E+03  0.41800000000E+01 0. -1.
        -11    1    1    2    0    0  0.38700779203E+02 -0.33993794278E+02 -0.13629890805E+02  0.53283227039E+02  0.00000000000E+00 0. -1.
         11    1    1    2    0    0  0.23413784105E+02  0.29653639161E+02 -0.92973100523E+02  0.10035706763E+03  0.00000000000E+00 0.  1.
</event>
<event>
 7    1  0.2334784E-009  0.1080307E+03  0.7561462E-02  0.1264261E+00
          2   -1    0    0  501    0  0.00000000000E+00  0.00000000000E+00  0.43875614983E+03  0.43875614983E+03  0.00000000000E+00 0. -1.
         -2   -1    0    0    0  501 -0.00000000000E+00 -0.00000000000E+00 -0.41412817175E+02  0.41412817175E+02  0.00000000000E+00 0.  1.
         25    2    1    2    0    0 -0.25728871336E+02 -0.69434803605E+02  0.26722154493E+03  0.30419272435E+03  0.12507075076E+03 0.  0.
          5    1    3    3  502    0  0.12348071323E+02  0.11841571791E+02  0.17337909373E+03  0.17427128344E+03  0.41800000000E+01 0.  1.
         -5    1    3    3    0  502 -0.38076942658E+02 -0.81276375396E+02  0.93842451201E+02  0.12992144091E+03  0.41800000000E+01 0.  1.
        -11    1    1    2    0    0  0.15782985020E+01  0.81560105545E+02  0.61303985104E+02  0.10204273826E+03  0.00000000000E+00 0.  1.
         11    1    1    2    0    0  0.24150572834E+02 -0.12125301939E+02  0.68817802614E+02  0.73933504394E+02  0.00000000000E+00 0. -1.
</event>
<event>
 7    1  0.2334784E-009  0.9418990E+02  0.7561462E-02  0.1293011E+00
         -2   -1    0    0    0  501 -0.00000000000E+00  0.00000000000E+00  0.11904808503E+03  0.11904808503E+03  0.00000000000E+00 0.  1.
          2   -1    0    0  501    0  0.00000000000E+00 -0.00000000000E+00 -0.17877364682E+03  0.17877364682E+03  0.00000000000E+00 0. -1.
         25    2    1    2    0    0  0.59719954635E+00 -0.47640438361E+02 -0.11892807541E+03  0.17905611022E+03  0.12508891027E+03 0.  0.
          5    1    3    3  502    0  0.44411581791E+02  0.11424301536E+02 -0.87691826046E+02  0.99046615379E+02  0.41800000000E+01 0.  1.
         -5    1    3    3    0  502 -0.43814382245E+02 -0.59064739898E+02 -0.31236249362E+02  0.80009494842E+02  0.41800000000E+01 0.  1.
        -11    1    1    2    0    0  0.18633505411E+00 -0.10512378876E+02  0.59686541557E+02  0.60605511906E+02  0.00000000000E+00 0.  1.
         11    1    1    2    0    0 -0.78353460047E+00  0.58152817237E+02 -0.48402793679E+00  0.58160109715E+02  0.00000000000E+00 0. -1.
</event>
<event>
 7    1  0.2334784E-009  0.1209564E+03  0.7561462E-02  0.1241528E+00
          3   -1    0    0  501    0  0.00000000000E+00  0.00000000000E+00  0.48347738614E+02  0.48347738614E+02  0.00000000000E+00 0. -1.
         -3   -1    0    0    0  501 -0.00000000000E+00 -0.00000000000E+00 -0.33897593600E+03  0.33897593600E+03  0.00000000000E+00 0.  1.
         25    2    1    2    0    0 -0.87687649435E+01 -0.61380901014E+02 -0.19541643963E+03  0.24015965479E+03  0.12507825015E+03 0.  0.
          5    1    3    3  502    0 -0.48527300613E+02 -0.80716493626E+02 -0.11951303462E+03  0.15221987088E+03  0.41800000000E+01 0.  1.
         -5    1    3    3    0  502  0.39758535669E+02  0.19335592612E+02 -0.75903405019E+02  0.87939783907E+02  0.41800000000E+01 0.  1.
        -11    1    1    2    0    0 -0.16407942903E+01  0.81002576589E+02 -0.45988905606E+02  0.93161628683E+02  0.00000000000E+00 0. -1.
         11    1    1    2    0    0  0.10409559234E+02 -0.19621675576E+02 -0.49222852145E+02  0.54002391143E+02  0.00000000000E+00 0.  1.
</event>
<event>
 7    1  0.2334784E-009  0.3034126E+03  0.7561462E-02  0.1083547E+00
          2   -1    0    0  501    0  0.00000000000E+00  0.00000000000E+00  0.45651529501E+03  0.45651529501E+03  0.00000000000E+00 0. -1.
         -2   -1    0    0    0  501 -0.00000000000E+00 -0.00000000000E+00 -0.22986425262E+03  0.22986425262E+03  0.00000000000E+00 0.  1.
         25    2    1    2    0    0 -0.15939699366E+03 -0.25161480547E+03  0.47499579873E+02  0.32653632942E+03  0.12510936185E+03 0.  0.
          5    1    3    3  502    0  0.10671887153E+01 -0.21192040161E+02  0.40166686202E+02  0.45618817810E+02  0.41800000000E+01 0.  1.
         -5    1    3    3    0  502 -0.16046418237E+03 -0.23042276531E+03  0.73328936713E+01  0.28091751161E+03  0.41800000000E+01 0.  1.
        -11    1    1    2    0    0  0.13432529160E+03  0.15760577661E+03  0.83128510492E+02  0.22314393122E+03  0.00000000000E+00 0.  1.
         11    1    1    2    0    0  0.25071702060E+02  0.94009028857E+02  0.96022952025E+02  0.13669928700E+03  0.00000000000E+00 0. -1.
</event>
<event>
 7    1  0.2334784E-009  0.1074922E+03  0.7561462E-02  0.1265286E+00
          1   -1    0    0  501    0  0.00000000000E+00  0.00000000000E+00  0.10002520316E+04  0.10002520316E+04  0.00000000000E+00 0. -1.
         -1   -1    0    0    0  501 -0.00000000000E+00 -0.00000000000E+00 -0.13889679820E+02  0.13889679820E+02  0.00000000000E+00 0.  1.
         25    2    1    2    0    0 -0.16075602701E+02  0.13432399973E+02  0.73553774606E+03  0.74639286217E+03  0.12509066488E+03 0.  0.
          5    1    3    3  502    0  0.18620564299E+02  0.63189203021E+02  0.38969133184E+03  0.39524221347E+03  0.41800000000E+01 0. -1.
         -5    1    3    3    0  502 -0.34696166999E+02 -0.49756803048E+02  0.34584641422E+03  0.35115064870E+03  0.41800000000E+01 0. -1.
        -11    1    1    2    0    0 -0.35309989759E+02 -0.10943645472E+01  0.14777531165E+03  0.15193925017E+03  0.00000000000E+00 0.  1.
         11    1    1    2    0    0  0.51385592460E+02 -0.12338035426E+02  0.10304929407E+03  0.11580959908E+03  0.00000000000E+00 0. -1.
</event>
<event>
 7    1  0.2334784E-009  0.1200339E+03  0.7561462E-02  0.1243041E+00
          1   -1    0    0  501    0  0.00000000000E+00  0.00000000000E+00  0.43272281864E+03  0.43272281864E+03  0.00000000000E+00 0. -1.
         -1   -1    0    0    0  501 -0.00000000000E+00 -0.00000000000E+00 -0.64925832924E+02  0.64925832924E+02  0.00000000000E+00 0.  1.
         25    2    1    2    0    0 -0.45727818341E+02  0.50495535113E+02  0.36165140622E+03  0.38869029930E+03  0.12509027425E+03 0.  0.
          5    1    3    3  502    0 -0.22305634399E+02  0.86647448962E+02  0.30193259312E+03  0.31493822398E+03  0.41800000000E+01 0. -1.
         -5    1    3    3    0  502 -0.23422183942E+02 -0.36151913849E+02  0.59718813104E+02  0.73752075321E+02  0.41800000000E+01 0. -1.
        -11    1    1    2    0    0 -0.25421076495E+01 -0.58271518282E+02  0.12510520581E+02  0.59653543729E+02  0.00000000000E+00 0. -1.
         11    1    1    2    0    0  0.48269925991E+02  0.77759831695E+01 -0.63649410867E+01  0.49304808532E+02  0.00000000000E+00 0.  1.
</event>
<event>
 7    1  0.2334784E-009  0.1134193E+03  0.7561462E-02  0.1254366E+00
         -1   -1    0    0    0  501 -0.00000000000E+00  0.00000000000E+00  0.21188717435E+03  0.21188717435E+03  0.00000000000E+00 0.  1.
          1   -1    0    0  501    0  0.00000000000E+00 -0.00000000000E+00 -0.10345249390E+03  0.10345249390E+03  0.00000000000E+00 0. -1.
         25    2    1    2    0    0  0.52511912493E+02  0.78818267624E+02  0.24152559876E+02  0.15874152343E+03  0.12508279197E+03 0.  0.
          5    1    3    3  502    0 -0.22100470214E+02  0.34916472235E+02 -0.34580175568E+02  0.54044905026E+02  0.41800000000E+01 0. -1.
         -5    1    3    3    0  502  0.74612382707E+02  0.43901795389E+02  0.58732735444E+02  0.10469661840E+03  0.41800000000E+01 0. -1.
        -11    1    1    2    0    0 -0.41121223879E+01 -0.28579115717E+02  0.81852146875E+02  0.86795445466E+02  0.00000000000E+00 0.  1.
         11    1    1    2    0    0 -0.48399790105E+02 -0.50239151906E+02  0.24299736990E+01  0.69802699365E+02  0.00000000000E+00 0. -1.
</event>
<event>
 7    1  0.2334784E-009  0.1205419E+03  0.7561462E-02  0.1242206E+00
          1   -1    0    0  501    0  0.00000000000E+00  0.00000000000E+00  0.25997120074E+03  0.25997120074E+03  0.00000000000E+00 0. -1.
         -1   -1    0    0    0  501 -0.00000000000E+00 -0.00000000000E+00 -0.63111963492E+02  0.63111963492E+02  0.00000000000E+00 0.  1.
         25    2    1    2    0    0  0.51046716553E+02  0.36576761548E+02  0.91822992997E+02  0.16739769389E+03  0.12508756581E+03 0.  0.
          5    1    3    3  502    0 -0.11459875951E+02 -0.31583331820E+02  0.61105618126E+02  0.69858460993E+02  0.41800000000E+01 0.  1.
         -5    1    3    3    0  502  0.62506592504E+02  0.68160093368E+02  0.30717374870E+02  0.97539232893E+02  0.41800000000E+01 0.  1.
        -11    1    1    2    0    0 -0.78142779680E+02 -0.39207012494E+02  0.84461790286E+02  0.12156182733E+03  0.00000000000E+00 0.  1.
         11    1    1    2    0    0  0.27096063127E+02  0.26302509465E+01  0.20574453966E+02  0.34123643021E+02  0.00000000000E+00 0. -1.
</event>
<event>
 7    1  0.2334784E-009  0.1627186E+03  0.7561462E-02  0.1185661E+00
         -1   -1    0    0    0  501 -0.00000000000E+00  0.00000000000E+00  0.10978748174E+04  0.10978748174E+04  0.00000000000E+00 0.  1.
          1   -1    0    0  501    0  0.00000000000E+00 -0.00000000000E+00 -0.33459442080E+02  0.33459442080E+02  0.00000000000E+00 0. -1.
         25    2    1    2    0    0 -0.12587078140E+03 -0.89228917224E+02  0.64625708208E+03  0.67609231204E+03  0.12508934803E+03 0.  0.
          5    1    3    3  502    0 -0.11785144976E+03 -0.79922656463E+02  0.64756565969E+03  0.66305003675E+03  0.41800000000E+01 0.  1.
         -5    1    3    3    0  502 -0.80193316482E+01 -0.93062607611E+01 -0.13085776144E+01  0.13042275293E+02  0.41800000000E+01 0.  1.
        -11    1    1    2    0    0  0.68458836212E+02  0.89387888118E+02  0.34072993437E+03  0.35885051898E+03  0.00000000000E+00 0.  1.
         11    1    1    2    0    0  0.57411945191E+02 -0.15897089472E+00  0.77428358903E+02  0.96391428482E+02  0.00000000000E+00 0. -1.
</event>
<event>
 7    1  0.2334784E-009  0.1109043E+03  0.7561462E-02  0.1258904E+00
         -2   -1    0    0    0  501 -0.00000000000E+00  0.00000000000E+00  0.42266213469E+02  0.42266213469E+02  0.00000000000E+00 0.  1.
          2   -1    0    0  501    0  0.00000000000E+00 -0.00000000000E+00 -0.41958604003E+03  0.41958604003E+03  0.00000000000E+00 0. -1.
         25    2    1    2    0    0  0.16239716836E+02  0.26729915476E+02 -0.33046389993E+03  0.35472816304E+03  0.12508982259E+03 0.  0.
          5    1    3    3  502    0  0.69075578311E+02  0.23136071256E+02 -0.22674824944E+03  0.23819940037E+03  0.41800000000E+01 0.  1.
         -5    1    3    3    0  502 -0.52835861474E+02  0.35938442209E+01 -0.10371565049E+03  0.11652876268E+03  0.41800000000E+01 0.  1.
        -11    1    1    2    0    0  0.11677921528E+02 -0.54858703047E+02 -0.33354949905E+02  0.65256446688E+02  0.00000000000E+00 0.  1.
         11    1    1    2    0    0 -0.27917638364E+02  0.28128787570E+02 -0.13500976727E+02  0.41867643767E+02  0.00000000000E+00 0. -1.
</event>
<event>
 7    1  0.2490002E-009  0.2088387E+03  0.7561462E-02  0.1142489E+00
         -1   -1    0    0    0  501 -0.00000000000E+00  0.00000000000E+00  0.53176594664E+02  0.53176594664E+02  0.00000000000E+00 0.  1.
          1   -1    0    0  501    0  0.00000000000E+00 -0.00000000000E+00 -0.90599147185E+03  0.90599147185E+03  0.00000000000E+00 0. -1.
         25    2    1    2    0    0  0.17788248322E+03  0.64246250440E+02 -0.48791448330E+03  0.53803024533E+03  0.12508494453E+03 0.  0.
          5    1    3    3  502    0  0.13543727722E+03  0.22617878143E+01 -0.20857865673E+03  0.24873861821E+03  0.41800000000E+01 0.  1.
         -5    1    3    3    0  502  0.42445205998E+02  0.61984462625E+02 -0.27933582657E+03  0.28929162712E+03  0.41800000000E+01 0.  1.
        -11    1    1    2    0    0 -0.11366044564E+03 -0.82155854157E+02 -0.21029703481E+03  0.25277089255E+03  0.00000000000E+00 0.  1.
         11    1    1    2    0    0 -0.64222037579E+02  0.17909603718E+02 -0.15460335908E+03  0.16836692863E+03  0.00000000000E+00 0. -1.
</event>
<event>
 7    1  0.2334784E-009  0.9041815E+02  0.7561462E-02  0.1301842E+00
         -1   -1    0    0    0  501 -0.00000000000E+00  0.00000000000E+00  0.34265001392E+02  0.34265001392E+02  0.00000000000E+00 0.  1.
          1   -1    0    0  501    0  0.00000000000E+00 -0.00000000000E+00 -0.48463870709E+03  0.48463870709E+03  0.00000000000E+00 0. -1.
         25    2    1    2    0    0  0.67585340188E+02  0.63550381914E+00 -0.26963318463E+03  0.30483035400E+03  0.12510518932E+03 0.  0.
          5    1    3    3  502    0 -0.12682979501E+02 -0.22422145942E+02 -0.18140401634E+03  0.18327165668E+03  0.41800000000E+01 0. -1.
         -5    1    3    3    0  502  0.80268319688E+02  0.23057649761E+02 -0.88229168284E+02  0.12155869732E+03  0.41800000000E+01 0. -1.
        -11    1    1    2    0    0 -0.15867642646E+02  0.93921003603E+01  0.65092086538E+01  0.19554115414E+02  0.00000000000E+00 0.  1.
         11    1    1    2    0    0 -0.51717697542E+02 -0.10027604179E+02 -0.18724972973E+03  0.19451923907E+03  0.00000000000E+00 0. -1.
</event>
<event>
 6    1  0.2334784E-009  0.8649286E+02  0.7561462E-02  0.1311574E+00
         -1   -1    0    0    0  501 -0.00000000000E+00  0.00000000000E+00  0.27395848128E+02  0.27395848128E+02  0.00000000000E+00 0.  1.
          1   -1    0    0  501    0  0.00000000000E+00 -0.00000000000E+00 -0.48969189417E+03  0.48969189417E+03  0.00000000000E+00 0. -1.
          5    1    1    2  502    0 -0.86210508485E+01 -0.34757217285E+02 -0.14080135737E+02  0.38705416849E+02  0.41800000000E+01 0. -1.
         -5    1    1    2    0  502  0.53487024413E+02  0.20862029148E+02 -0.25926178767E+03  0.26557528685E+03  0.41800000000E+01 0. -1.
        -11    1    1    2    0    0 -0.35539474544E+02 -0.22323150002E+02 -0.35834122766E+02  0.55185701330E+02  0.00000000000E+00 0.  1.
         11    1    1    2    0    0 -0.93264990197E+01  0.36218338138E+02 -0.15311999986E+03  0.15762133726E+03  0.00000000000E+00 0. -1.
</event>
<event>
 7    1  0.2334784E-009  0.9720617E+02  0.7561462E-02  0.1286283E+00
         -2   -1    0    0    0  501 -0.00000000000E+00  0.00000000000E+00  0.36336913015E+02  0.36336913015E+02  0.00000000000E+00 0.  1.
          2   -1    0    0  501    0  0.00000000000E+00 -0.00000000000E+00 -0.34364584610E+03  0.34364584610E+03  0.00000000000E+00 0. -1.
         25    2    1    2    0    0  0.15738429294E+01 -0.19874033018E+02 -0.15196489116E+03  0.19783384393E+03  0.12508975773E+03 0.  0.
          5    1    3    3  502    0 -0.33115859838E+02 -0.58998868402E+02 -0.11559010282E+03  0.13400026461E+03  0.41800000000E+01 0. -1.
         -5    1    3    3    0  502  0.34689702767E+02  0.39124835384E+02 -0.36374788339E+02  0.63833579319E+02  0.41800000000E+01 0. -1.
        -11    1    1    2    0    0  0.22001504769E+02 -0.18758262861E+02 -0.11097603479E+02  0.30969266065E+02  0.00000000000E+00 0.  1.
         11    1    1    2    0    0 -0.23575347698E+02  0.38632295878E+02 -0.14424643845E+03  0.15117964913E+03  0.00000000000E+00 0. -1.
</event>
<event>
 7    1  0.2334784E-009  0.5972248E+02  0.7561462E-02  0.1399000E+00
          1   -1    0    0  501    0  0.00000000000E+00  0.00000000000E+00  0.49662731029E+02  0.49662731029E+02  0.00000000000E+00 0. -1.
         -1   -1    0    0    0  501 -0.00000000000E+00 -0.00000000000E+00 -0.24168079500E+03  0.24168079500E+03  0.00000000000E+00 0.  1.
         25    2    1    2    0    0  0.18762914951E+02 -0.65816779144E+01 -0.12168170307E+03  0.17563847791E+03  0.12508825924E+03 0.  0.
          5    1    3    3  502    0 -0.11136362368E+02  0.41695170817E+01 -0.13875544458E+03  0.13932677144E+03  0.41800000000E+01 0.  1.
         -5    1    3    3    0  502  0.29899277319E+02 -0.10751194996E+02  0.17073741504E+02  0.36311706473E+02  0.41800000000E+01 0.  1.
        -11    1    1    2    0    0  0.12534801957E+02 -0.26461640594E+02 -0.63177335271E+02  0.69632717705E+02  0.00000000000E+00 0.  1.
         11    1    1    2    0    0 -0.31297716908E+02  0.33043318509E+02 -0.71590256271E+01  0.46072330413E+02  0.00000000000E+00 0. -1.
</event>
<event>
 7    1  0.2334784E-009  0.1688601E+03  0.7561462E-02  0.1179042E+00
         -2   -1    0    0    0  501 -0.00000000000E+00  0.00000000000E+00  0.12309418350E+03  0.12309418350E+03  0.00000000000E+00 0.  1.
          2   -1    0    0  501    0  0.00000000000E+00 -0.00000000000E+00 -0.35223629299E+03  0.35223629299E+03  0.00000000000E+00 0. -1.
         25    2    1    2    0    0 -0.82221859576E+02 -0.12768823351E+03 -0.22497279408E+03  0.29887249641E+03  0.12508913567E+03 0.  0.
          5    1    3    3  502    0 -0.44381191489E+02  0.76708683603E+01 -0.18062447406E+02  0.48705818807E+02  0.41800000000E+01 0. -1.
         -5    1    3    3    0  502 -0.37840668087E+02 -0.13535910187E+03 -0.20691034668E+03  0.25016667760E+03  0.41800000000E+01 0. -1.
        -11    1    1    2    0    0  0.66634468565E+02  0.10442058481E+03  0.34617965062E+02  0.12861654030E+03  0.00000000000E+00 0.  1.
         11    1    1    2    0    0  0.15587391011E+02  0.23267648698E+02 -0.38787280474E+02  0.47841439788E+02  0.00000000000E+00 0. -1.
</event>
<event>
 7    1  0.2334784E-009  0.8986878E+02  0.7561462E-02  0.1303170E+00
         -3   -1    0    0    0  501 -0.00000000000E+00  0.00000000000E+00  0.89697150611E+01  0.89697150611E+01  0.00000000000E+00 0.  1.
          3   -1    0    0  501    0  0.00000000000E+00 -0.00000000000E+00 -0.15105430649E+04  0.15105430649E+04  0.00000000000E+00 0. -1.
         25    2    1    2    0    0  0.20480904309E+02  0.24992873999E+02 -0.10678373597E+04  0.10756245956E+04  0.12509009849E+03 0.  0.
          5    1    3    3  502    0  0.51142101814E+02  0.25390380698E+02 -0.22336303967E+03  0.23058340335E+03  0.41800000000E+01 0.  1.
         -5    1    3    3    0  502 -0.30661197505E+02 -0.39750669910E+00 -0.84447432001E+03  0.84504119225E+03  0.41800000000E+01 0.  1.
        -11    1    1    2    0    0 -0.47998683336E+02 -0.37887597061E+02 -0.33659997633E+03  0.34210946739E+03  0.00000000000E+00 0. -1.
         11    1    1    2    0    0  0.27517779027E+02  0.12894723062E+02 -0.97136013836E+02  0.10177871698E+03  0.00000000000E+00 0.  1.
</event>
<event>
 7    1  0.2334784E-009  0.1007418E+03  0.7561462E-02  0.1278744E+00
         -2   -1    0    0    0  501 -0.00000000000E+00  0.00000000000E+00  0.16616505105E+03  0.16616505105E+03  0.00000000000E+00 0. -1.
          2   -1    0    0  501    0  0.00000000000E+00 -0.00000000000E+00 -0.80283606919E+02  0.80283606919E+02  0.00000000000E+00 0.  1.
         25    2    1    2    0    0  0.28822123872E+02  0.28048630989E+02  0.40458115627E+02  0.13748193425E+03  0.12508789950E+03 0.  0.
          5    1    3    3  502    0  0.50009874410E+02 -0.30591181326E+02  0.46158792377E+02  0.74732285039E+02  0.41800000000E+01 0.  1.
         -5    1    3    3    0  502 -0.21187750538E+02  0.58639812315E+02 -0.57006767497E+01  0.62749649215E+02  0.41800000000E+01 0.  1.
        -11    1    1    2    0    0  0.23003291115E+02 -0.12128280562E+02 -0.13160881394E+02  0.29145418003E+02  0.00000000000E+00 0.  1.
         11    1    1    2    0    0 -0.51825414986E+02 -0.15920350428E+02  0.58584209900E+02  0.79821305714E+02  0.00000000000E+00 0. -1.
</event>
<event>
 7    1  0.2334784E-009  0.1005681E+03  0.7561462E-02  0.1279106E+00
         -2   -1    0    0    0  501 -0.00000000000E+00  0.00000000000E+00  0.10293655773E+03  0.10293655773E+03  0.00000000000E+00 0.  1.
          2   -1    0    0  501    0  0.00000000000E+00 -0.00000000000E+00 -0.13028264191E+03  0.13028264191E+03  0.00000000000E+00 0. -1.
         25    2    1    2    0    0  0.35782005027E+02  0.16073580741E+02 -0.10497151429E+02  0.13151560261E+03  0.12508977440E+03 0.  0.
          5    1    3    3  502    0 -0.16432853549E+02 -0.34005193471E+02 -0.38248443197E+02  0.53914818610E+02  0.41800000000E+01 0. -1.
         -5    1    3    3    0  502  0.52214858576E+02  0.50078774212E+02  0.27751291768E+02  0.77600784000E+02  0.41800000000E+01 0. -1.
        -11    1    1    2    0    0 -0.31336940628E+02  0.30591245090E+02 -0.29921459661E+02  0.53038871334E+02  0.00000000000E+00 0.  1.
         11    1    1    2    0    0 -0.44450643984E+01 -0.46664825831E+02  0.13072526909E+02  0.48664725697E+02  0.00000000000E+00 0. -1.
</event>
<event>
 7    1  0.2334784E-009  0.1449852E+03  0.7561462E-02  0.1206774E+00
         -2   -1    0    0    0  501 -0.00000000000E+00  0.00000000000E+00  0.34028444399E+03  0.34028444399E+03  0.00000000000E+00 0.  1.
          2   -1    0    0  501    0  0.00000000000E+00 -0.00000000000E+00 -0.10033085641E+03  0.10033085641E+03  0.00000000000E+00 0. -1.
         25    2    1    2    0    0  0.55014933690E+02 -0.12608345682E+03  0.56392054278E+02  0.19429733171E+03  0.12509080027E+03 0.  0.
          5    1    3    3  502    0 -0.10131885907E+02 -0.51348976532E+02  0.76757767653E+02  0.92997848352E+02  0.41800000000E+01 0.  1.
         -5    1    3    3    0  502  0.65146819598E+02 -0.74734480283E+02 -0.20365713375E+02  0.10129948336E+03  0.41800000000E+01 0.  1.
        -11    1    1    2    0    0 -0.32021703853E+02  0.89161532912E+02  0.52682041190E+02  0.10840002737E+03  0.00000000000E+00 0. -1.
         11    1    1    2    0    0 -0.22993229837E+02  0.36921923904E+02  0.13087949212E+03  0.13791794133E+03  0.00000000000E+00 0.  1.
</event>
<event>
 7    1  0.2334784E-009  0.1296372E+03  0.7561462E-02  0.1227995E+00
         -2   -1    0    0    0  501 -0.00000000000E+00  0.00000000000E+00  0.23907413925E+03  0.23907413925E+03  0.00000000000E+00 0. -1.
          2   -1    0    0  501    0  0.00000000000E+00 -0.00000000000E+00 -0.89825672604E+02  0.89825672604E+02  0.00000000000E+00 0.  1.
         25    2    1    2    0    0 -0.74857191847E+02  0.52589808803E+01  0.15310645131E+03  0.21147460623E+03  0.12509463456E+03 0.  0.
          5    1    3    3  502    0 -0.21696857480E+02 -0.56323796083E+02  0.41777949674E+02  0.73525458915E+02  0.41800000000E+01 0. -1.
         -5    1    3    3    0  502 -0.53160334367E+02  0.61582776963E+02  0.11132850164E+03  0.13794914732E+03  0.41800000000E+01 0. -1.
        -11    1    1    2    0    0  0.76144116799E+02  0.30136837766E+02 -0.10956973595E+01  0.81898449719E+02  0.00000000000E+00 0. -1.
         11    1    1    2    0    0 -0.12869249525E+01 -0.35395818646E+02 -0.27622873129E+01  0.35526755898E+02  0.00000000000E+00 0.  1.
</event>
<event>
 7    1  0.2334784E-009  0.1006114E+03  0.7561462E-02  0.1279016E+00
          2   -1    0    0  501    0  0.00000000000E+00  0.00000000000E+00  0.11403205779E+03  0.11403205779E+03  0.00000000000E+00 0. -1.
         -2   -1    0    0    0  501 -0.00000000000E+00 -0.00000000000E+00 -0.12674510925E+03  0.12674510925E+03  0.00000000000E+00 0.  1.
         25    2    1    2    0    0 -0.42575742421E+02  0.18711757425E+02 -0.19694047355E+02  0.13490407898E+03  0.12509369015E+03 0.  0.
          5    1    3    3  502    0  0.27051283888E+02  0.36959208221E+01  0.35298413215E+02  0.44820555175E+02  0.41800000000E+01 0. -1.
         -5    1    3    3    0  502 -0.69627026309E+02  0.15015836603E+02 -0.54992460569E+02  0.90083523804E+02  0.41800000000E+01 0. -1.
        -11    1    1    2    0    0  0.24190622228E+02  0.36651862777E+02 -0.10150759574E+02  0.45073086968E+02  0.00000000000E+00 0.  1.
         11    1    1    2    0    0  0.18385120193E+02 -0.55363620202E+02  0.17131755469E+02  0.60800001084E+02  0.00000000000E+00 0. -1.
</event>
<event>
 7    1  0.2334784E-009  0.8500603E+02  0.7561462E-02  0.1315417E+00
          1   -1    0    0  501    0  0.00000000000E+00  0.00000000000E+00  0.85533691111E+02  0.85533691111E+02  0.00000000000E+00 0. -1.
         -1   -1    0    0    0  501 -0.00000000000E+00 -0.00000000000E+00 -0.17067294305E+03  0.17067294305E+03  0.00000000000E+00 0.  1.
         25    2    1    2    0    0  0.39291419709E+01  0.20375361544E+02 -0.95763087183E+02  0.15889885833E+03  0.12509070628E+03 0.  0.
          5    1    3    3  502    0  0.60129365225E+02 -0.12018088622E+02 -0.40760657192E+02  0.73748753150E+02  0.41800000000E+01 0.  1.
         -5    1    3    3    0  502 -0.56200223254E+02  0.32393450166E+02 -0.55002429992E+02  0.85150105182E+02  0.41800000000E+01 0.  1.
        -11    1    1    2    0    0 -0.16036442775E+02 -0.25723737767E+02  0.48495389905E+02  0.57189868190E+02  0.00000000000E+00 0. -1.
         11    1    1    2    0    0  0.12107300804E+02  0.53483762229E+01 -0.37871554656E+02  0.40117907635E+02  0.00000000000E+00 0.  1.
</event>
<event>
 7    1  0.2334784E-009  0.1176250E+03  0.7561462E-02  0.1247067E+00
          2   -1    0    0  501    0  0.00000000000E+00  0.00000000000E+00  0.31067320446E+03  0.31067320446E+03  0.00000000000E+00 0.  1.
         -2   -1    0    0    0  501 -0.00000000000E+00 -0.00000000000E+00 -0.67953244582E+02  0.67953244582E+02  0.00000000000E+00 0. -1.
         25    2    1    2    0    0  0.83666794589E+02  0.50708136423E+02  0.99594265347E+02  0.18745193930E+03  0.12509102382E+03 0.  0.
          5    1    3    3  502    0  0.43397801556E+02  0.52235859532E+02 -0.11676880372E+02  0.69034601007E+02  0.41800000000E+01 0.  1.
         -5    1    3    3    0  502  0.40268993033E+02 -0.15277231096E+01  0.11127114572E+03  0.11841733829E+03  0.41800000000E+01 0.  1.
        -11    1    1    2    0    0 -0.86406766838E+02 -0.11242304000E+02  0.96110656712E+02  0.12972963073E+03  0.00000000000E+00 0.  1.
         11    1    1    2    0    0  0.27399722493E+01 -0.39465832423E+02  0.47015037817E+02  0.61444879019E+02  0.00000000000E+00 0. -1.
</event>
<event>
 7    1  0.2334784E-009  0.1218653E+03  0.7561462E-02  0.1240051E+00
         -2   -1    0    0    0  501 -0.00000000000E+00  0.00000000000E+00  0.18317333437E+03  0.18317333437E+03  0.00000000000E+00 0.  1.
          2   -1    0    0  501    0  0.00000000000E+00 -0.00000000000E+00 -0.12187498734E+03  0.12187498734E+03  0.00000000000E+00 0. -1.
         25    2    1    2    0    0  0.10200904485E+03 -0.65703026590E+01  0.24031702543E+02  0.16330705765E+03  0.12507061302E+03 0.  0.
          5    1    3    3  502    0 -0.10720753217E+01 -0.25368373809E+02 -0.34634463630E+02  0.43147679035E+02  0.41800000000E+01 0. -1.
         -5    1    3    3    0  502  0.10308112018E+03  0.18798071150E+02  0.58666166172E+02  0.12015937861E+03  0.41800000000E+01 0. -1.
        -11    1    1    2    0    0 -0.23838627075E+02 -0.19428349571E+02  0.49682685484E+02  0.58430387169E+02  0.00000000000E+00 0.  1.
         11    1    1    2    0    0 -0.78170417780E+02  0.25998652230E+02 -0.12416040998E+02  0.83310876887E+02  0.00000000000E+00 0. -1.
</event>
<event>
 7    1  0.2334784E-009  0.9599187E+02  0.7561462E-02  0.1288958E+00
          2   -1    0    0  501    0  0.00000000000E+00  0.00000000000E+00  0.27030429910E+03  0.27030429910E+03  0.00000000000E+00 0. -1.
         -2   -1    0    0    0  501 -0.00000000000E+00 -0.00000000000E+00 -0.44460270419E+02  0.44460270419E+02  0.00000000000E+00 0.  1.
         25    2    1    2    0    0 -0.63178606412E+01  0.63304260060E+01  0.13652992841E+03  0.18538640524E+03  0.12509079998E+03 0.  0.
          5    1    3    3  502    0  0.50389975663E+02 -0.41498397667E+01  0.18582244939E+02  0.54029094425E+02  0.41800000000E+01 0. -1.
         -5    1    3    3    0  502 -0.56707836305E+02  0.10480265773E+02  0.11794768347E+03  0.13135731082E+03  0.41800000000E+01 0. -1.
        -11    1    1    2    0    0  0.23284289044E+02  0.33120831982E+02  0.72929658557E+02  0.83413924046E+02  0.00000000000E+00 0. -1.
         11    1    1    2    0    0 -0.16966428403E+02 -0.39451257988E+02  0.16384441713E+02  0.45964240229E+02  0.00000000000E+00 0.  1.
</event>
<event>
 7    1  0.2334784E-009  0.2125230E+03  0.7561462E-02  0.1139584E+00
          1   -1    0    0  501    0  0.00000000000E+00  0.00000000000E+00  0.67097617617E+02  0.67097617617E+02  0.00000000000E+00 0. -1.
         -1   -1    0    0    0  501 -0.00000000000E+00 -0.00000000000E+00 -0.93465126231E+03  0.93465126231E+03  0.00000000000E+00 0.  1.
         25    2    1    2    0    0  0.17775615636E+03 -0.10406993593E+03 -0.26282735229E+03  0.35658646709E+03  0.12509152136E+03 0.  0.
          5    1    3    3  502    0  0.26677052864E+02 -0.36699830115E+02 -0.14882784753E+03  0.15564621190E+03  0.41800000000E+01 0.  1.
         -5    1    3    3    0  502  0.15107910349E+03 -0.67370105819E+02 -0.11399950476E+03  0.20094025519E+03  0.41800000000E+01 0.  1.
        -11    1    1    2    0    0 -0.54354028929E+02  0.28892881698E+01 -0.25505762878E+03  0.26080088659E+03  0.00000000000E+00 0.  1.
         11    1    1    2    0    0 -0.12340212743E+03  0.10118064776E+03 -0.34966866363E+03  0.38436152625E+03  0.00000000000E+00 0. -1.
</event>
<event>
 7    1  0.2334784E-009  0.1371039E+03  0.7561462E-02  0.1217280E+00
          2   -1    0    0  501    0  0.00000000000E+00  0.00000000000E+00  0.10022169056E+04  0.10022169056E+04  0.00000000000E+00 0. -1.
         -2   -1    0    0    0  501 -0.00000000000E+00 -0.00000000000E+00 -0.19341688172E+02  0.19341688172E+02  0.00000000000E+00 0.  1.
         25    2    1    2    0    0 -0.12850764828E+01  0.84403820708E+02  0.45859645042E+03  0.48278704688E+03  0.12508785682E+03 0.  0.
          5    1    3    3  502    0 -0.35127912780E+02 -0.19768141408E+02  0.14651793756E+03  0.15201884126E+03  0.41800000000E+01 0.  1.
         -5    1    3    3    0  502  0.33842836297E+02  0.10417196212E+03  0.31207851285E+03  0.33076820561E+03  0.41800000000E+01 0.  1.
        -11    1    1    2    0    0  0.62870151163E+01  0.19274258573E+02  0.80114601205E+02  0.82640020141E+02  0.00000000000E+00 0.  1.
         11    1    1    2    0    0 -0.50019386335E+01 -0.10367807928E+03  0.44416416579E+03  0.45613152674E+03  0.00000000000E+00 0. -1.
</event>
<event>
 7    1  0.2334784E-009  0.9276917E+02  0.7561462E-02  0.1296281E+00
          4   -1    0    0  501    0  0.00000000000E+00  0.00000000000E+00  0.63941597760E+02  0.63941597760E+02  0.00000000000E+00 0. -1.
         -4   -1    0    0    0  501 -0.00000000000E+00 -0.00000000000E+00 -0.19860527962E+03  0.19860527962E+03  0.00000000000E+00 0.  1.
         25    2    1    2    0    0 -0.28182468160E+02 -0.14666631130E+02 -0.79665156079E+02  0.15167121866E+03  0.12509300499E+03 0.  0.
          5    1    3    3  502    0 -0.43906446788E+02  0.43870825127E+02 -0.17223412053E+02  0.64548769854E+02  0.41800000000E+01 0. -1.
         -5    1    3    3    0  502  0.15723978628E+02 -0.58537456257E+02 -0.62441744026E+02  0.87122448806E+02  0.41800000000E+01 0. -1.
        -11    1    1    2    0    0  0.32071230786E+02 -0.13021181331E+02  0.13295867245E+02  0.37079577845E+02  0.00000000000E+00 0. -1.
         11    1    1    2    0    0 -0.38887626259E+01  0.27687812461E+02 -0.68294393022E+02  0.73796080871E+02  0.00000000000E+00 0.  1.
</event>
<event>
 7    1  0.2334784E-009  0.1210972E+03  0.7561462E-02  0.1241298E+00
         -2   -1    0    0    0  501 -0.00000000000E+00  0.00000000000E+00  0.69939564192E+03  0.69939564192E+03  0.00000000000E+00 0.  1.
          2   -1    0    0  501    0  0.00000000000E+00 -0.00000000000E+00 -0.32107427602E+02  0.32107427602E+02  0.00000000000E+00 0. -1.
         25    2    1    2    0    0 -0.41766433218E+02 -0.97105372655E+02  0.37182669959E+03  0.40629647246E+03  0.12509132928E+03 0.  0.
          5    1    3    3  502    0  0.10854349316E+02 -0.62607053016E+02  0.31512013017E+03  0.32148970251E+03  0.41800000000E+01 0. -1.
         -5    1    3    3    0  502 -0.52620782534E+02 -0.34498319639E+02  0.56706569424E+02  0.84806769943E+02  0.41800000000E+01 0. -1.
        -11    1    1    2    0    0  0.28012761887E+02  0.14178703683E+02  0.20049870777E+02  0.37252486962E+02  0.00000000000E+00 0. -1.
         11    1    1    2    0    0  0.13753671330E+02  0.82926668972E+02  0.27541164395E+03  0.28795411010E+03  0.00000000000E+00 0.  1.
</event>
<event>
 7    1  0.2334784E-009  0.7701767E+02  0.7561462E-02  0.1337734E+00
          2   -1    0    0  501    0  0.00000000000E+00  0.00000000000E+00  0.10281294561E+03  0.10281294561E+03  0.00000000000E+00 0. -1.
         -2   -1    0    0    0  501 -0.00000000000E+00 -0.00000000000E+00 -0.16143956919E+03  0.16143956919E+03  0.00000000000E+00 0.  1.
         25    2    1    2    0    0 -0.40509662354E+02 -0.43982594539E+02 -0.65450821282E+02  0.15332491323E+03  0.12509683308E+03 0.  0.
          5    1    3    3  502    0 -0.49223588542E+02 -0.76454160125E+01 -0.93763615144E+02  0.10625677381E+03  0.41800000000E+01 0. -1.
         -5    1    3    3    0  502  0.87139261879E+01 -0.36337178526E+02  0.28312793862E+02  0.47068139427E+02  0.41800000000E+01 0. -1.
        -11    1    1    2    0    0  0.29372439156E+02  0.10554095815E+02 -0.40998228153E+02  0.51526535224E+02  0.00000000000E+00 0.  1.
         11    1    1    2    0    0  0.11137223198E+02  0.33428498724E+02  0.47822425855E+02  0.59401066338E+02  0.00000000000E+00 0. -1.
</event>
<event>
 7    1  0.2334784E-009  0.1085267E+03  0.7561462E-02  0.1263323E+00
          4   -1    0    0  501    0  0.00000000000E+00  0.00000000000E+00  0.81284513393E+02  0.81284513393E+02  0.00000000000E+00 0.  1.
         -4   -1    0    0    0  501 -0.00000000000E+00 -0.00000000000E+00 -0.16186690773E+03  0.16186690773E+03  0.00000000000E+00 0. -1.
         25    2    1    2    0    0  0.40090393815E+02  0.66426775983E+00 -0.20956272903E+02  0.13301872869E+03  0.12508851219E+03 0.  0.
          5    1    3    3  502    0  0.68328909107E+02  0.42594111801E+02 -0.12206744017E+02  0.81544927368E+02  0.41800000000E+01 0.  1.
         -5    1    3    3    0  502 -0.28238515292E+02 -0.41929844041E+02 -0.87495288860E+01  0.51473801326E+02  0.41800000000E+01 0.  1.
        -11    1    1    2    0    0  0.20295095479E+02  0.12585375990E+02  0.51139045219E+00  0.23886065174E+02  0.00000000000E+00 0.  1.
         11    1    1    2    0    0 -0.60385489294E+02 -0.13249643750E+02 -0.60137511884E+02  0.86246627252E+02  0.00000000000E+00 0. -1.
</event>
<event>
 7    1  0.2334784E-009  0.1148276E+03  0.7561462E-02  0.1251882E+00
          4   -1    0    0  501    0  0.00000000000E+00  0.00000000000E+00  0.94377738028E+02  0.94377738028E+02  0.00000000000E+00 0. -1.
         -4   -1    0    0    0  501 -0.00000000000E+00 -0.00000000000E+00 -0.25684129563E+03  0.25684129563E+03  0.00000000000E+00 0.  1.
         25    2    1    2    0    0  0.15332261356E+02  0.11044609781E+03 -0.78619619022E+02  0.18510065980E+03  0.12509113080E+03 0.  0.
          5    1    3    3  502    0 -0.10615479059E+02  0.58474172914E+02  0.26282186004E+02  0.65116380387E+02  0.41800000000E+01 0.  1.
         -5    1    3    3    0  502  0.25947740415E+02  0.51971924892E+02 -0.10490180503E+03  0.11998427942E+03  0.41800000000E+01 0.  1.
        -11    1    1    2    0    0 -0.28693954593E+01 -0.51988286750E+02 -0.92080475537E+02  0.10578198979E+03  0.00000000000E+00 0.  1.
         11    1    1    2    0    0 -0.12462865897E+02 -0.58457811056E+02  0.82365369621E+01  0.60336384056E+02  0.00000000000E+00 0. -1.
</event>
<event>
 7    1  0.2334784E-009  0.8027785E+02  0.7561462E-02  0.1328265E+00
          2   -1    0    0  501    0  0.00000000000E+00  0.00000000000E+00  0.34483675516E+03  0.34483675516E+03  0.00000000000E+00 0. -1.
         -2   -1    0    0    0  501 -0.00000000000E+00 -0.00000000000E+00 -0.47147150985E+02  0.47147150985E+02  0.00000000000E+00 0.  1.
         25    2    1    2    0    0 -0.13090642996E+02 -0.41779994807E+02  0.24444809881E+03  0.27806499012E+03  0.12509329645E+03 0.  0.
          5    1    3    3  502    0 -0.18461573799E+01  0.79546892802E+01 -0.12817213208E+02  0.15761939380E+02  0.41800000000E+01 0. -1.
         -5    1    3    3    0  502 -0.11244485616E+02 -0.49734684088E+02  0.25726531202E+03  0.26230305074E+03  0.41800000000E+01 0. -1.
        -11    1    1    2    0    0  0.36872319675E+02  0.59888820598E+02  0.32113446623E+02  0.77314372822E+02  0.00000000000E+00 0.  1.
         11    1    1    2    0    0 -0.23781676679E+02 -0.18108825790E+02  0.21128058742E+02  0.36604543207E+02  0.00000000000E+00 0. -1.
</event>
<event>
 7    1  0.2334784E-009  0.1149810E+03  0.7561462E-02  0.1251614E+00
          1   -1    0    0  501    0  0.00000000000E+00  0.00000000000E+00  0.69635834616E+03  0.69635834616E+03  0.00000000000E+00 0. -1.
         -1   -1    0    0    0  501 -0.00000000000E+00 -0.00000000000E+00 -0.59687322540E+02  0.59687322540E+02  0.00000000000E+00 0.  1.
         25    2    1    2    0    0 -0.14770966555E+02  0.41056796258E+02  0.64194231012E+03  0.65546986711E+03  0.12508786991E+03 0.  0.
          5    1    3    3  502    0  0.24983322403E+02  0.74927496767E+02  0.34595687796E+03  0.35488298068E+03  0.41800000000E+01 0.  1.
         -5    1    3    3    0  502 -0.39754288958E+02 -0.33870700508E+02  0.29598543216E+03  0.30058688643E+03  0.41800000000E+01 0.  1.
        -11    1    1    2    0    0 -0.31172423986E+02 -0.42263235717E+02  0.70673004745E+01  0.52989129512E+02  0.00000000000E+00 0. -1.
         11    1    1    2    0    0  0.45943390540E+02  0.12064394591E+01 -0.12338586975E+02  0.47586672073E+02  0.00000000000E+00 0.  1.
</event>
<event>
 7    1  0.2334784E-009  0.1392668E+03  0.7561462E-02  0.1214319E+00
          2   -1    0    0  501    0  0.00000000000E+00  0.00000000000E+00  0.24380169293E+03  0.24380169293E+03  0.00000000000E+00 0. -1.
         -2   -1    0    0    0  501 -0.00000000000E+00 -0.00000000000E+00 -0.95950109047E+02  0.95950109047E+02  0.00000000000E+00 0.  1.
         25    2    1    2    0    0 -0.86047179686E+02  0.53999616413E+02  0.10562634568E+03  0.19267867530E+03  0.12509225119E+03 0.  0.
          5    1    3    3  502    0 -0.54542839893E+02 -0.36072572201E+02  0.39554935862E+02  0.76538991369E+02  0.41800000000E+01 0.  1.
         -5    1    3    3    0  502 -0.31504339794E+02  0.90072188615E+02  0.66071409823E+02  0.11613968393E+03  0.41800000000E+01 0.  1.
        -11    1    1    2    0    0  0.56447786871E+02 -0.64842661546E+02 -0.95056668237E+01  0.86494399245E+02  0.00000000000E+00 0.  1.
         11    1    1    2    0    0  0.29599392815E+02  0.10843045133E+02  0.51730905023E+02  0.60578727431E+02  0.00000000000E+00 0. -1.
</event>
<event>
 7    1  0.2334784E-009  0.1338456E+03  0.7561462E-02  0.1221859E+00
         -1   -1    0    0    0  501 -0.00000000000E+00  0.00000000000E+00  0.12074017832E+03  0.12074017832E+03  0.00000000000E+00 0.  1.
          1   -1    0    0  501    0  0.00000000000E+00 -0.00000000000E+00 -0.38734989978E+03  0.38734989978E+03  0.00000000000E+00 0. -1.
         25    2    1    2    0    0 -0.31697115978E+02  0.99727635736E+02  0.42993982494E+02  0.16866196824E+03  0.12509224000E+03 0.  0.
          5    1    3    3  502    0  0.92739375725E+01 -0.26409449654E+02 -0.24476058841E+01  0.28406480311E+02  0.41800000000E+01 0. -1.
         -5    1    3    3    0  502 -0.40971053550E+02  0.12613708539E+03  0.45441588378E+02  0.14025548793E+03  0.41800000000E+01 0. -1.
        -11    1    1    2    0    0  0.39105565408E+01 -0.46429339620E+02 -0.34872270872E+02  0.58198378893E+02  0.00000000000E+00 0. -1.
         11    1    1    2    0    0  0.27786559437E+02 -0.53298296116E+02 -0.27473143309E+03  0.28122973097E+03  0.00000000000E+00 0.  1.
</event>
<event>
 7    1  0.2334784E-009  0.1625895E+03  0.7561462E-02  0.1185804E+00
          3   -1    0    0  501    0  0.00000000000E+00  0.00000000000E+00  0.29268829687E+03  0.29268829687E+03  0.00000000000E+00 0. -1.
         -3   -1    0    0    0  501 -0.00000000000E+00 -0.00000000000E+00 -0.93387554560E+02  0.93387554560E+02  0.00000000000E+00 0.  1.
         25    2    1    2    0    0 -0.10687003156E+03 -0.61037581240E+02  0.91576870239E+02  0.19794171913E+03  0.12509121089E+03 0.  0.
          5    1    3    3  502    0 -0.76080749009E+02 -0.99954129206E+02  0.65769582706E+02  0.14185280654E+03  0.41800000000E+01 0.  1.
         -5    1    3    3    0  502 -0.30789282554E+02  0.38916547966E+02  0.25807287533E+02  0.56088912591E+02  0.41800000000E+01 0.  1.
        -11    1    1    2    0    0  0.68535391917E+02  0.81301509647E+02  0.95895960993E+02  0.14318893376E+03  0.00000000000E+00 0. -1.
         11    1    1    2    0    0  0.38334639646E+02 -0.20263928407E+02  0.11827911081E+02  0.44945198540E+02  0.00000000000E+00 0.  1.
</event>
<event>
 7    1  0.2334784E-009  0.9722127E+02  0.7561462E-02  0.1286250E+00
         -2   -1    0    0    0  501 -0.00000000000E+00  0.00000000000E+00  0.86367015004E+02  0.86367015004E+02  0.00000000000E+00 0. -1.
          2   -1    0    0  501    0  0.00000000000E+00 -0.00000000000E+00 -0.38586882088E+03  0.38586882088E+03  0.00000000000E+00 0.  1.
         25    2    1    2    0    0 -0.81798850250E+01 -0.78608538535E+02 -0.31811447402E+03  0.35084083686E+03  0.12508501658E+03 0.  0.
          5    1    3    3  502    0 -0.18308221027E+02 -0.72844593989E+02 -0.71078085441E+02  0.10349440787E+03  0.41800000000E+01 0. -1.
         -5    1    3    3    0  502  0.10128336002E+02 -0.57639445454E+01 -0.24703638858E+03  0.24734642898E+03  0.41800000000E+01 0. -1.
        -11    1    1    2    0    0 -0.31181848900E+02  0.46758302056E+02  0.37266138478E+02  0.67434498508E+02  0.00000000000E+00 0.  1.
         11    1    1    2    0    0  0.39361733925E+02  0.31850236479E+02 -0.18653470334E+02  0.53960500524E+02  0.00000000000E+00 0. -1.
</event>
<event>
 7    1  0.2334784E-009  0.1115601E+03  0.7561462E-02  0.1257708E+00
          1   -1    0    0  501    0  0.00000000000E+00  0.00000000000E+00  0.28667731989E+03  0.28667731989E+03  0.00000000000E+00 0. -1.
         -1   -1    0    0    0  501 -0.00000000000E+00 -0.00000000000E+00 -0.76559645991E+02  0.76559645991E+02  0.00000000000E+00 0.  1.
         25    2    1    2    0    0  0.92734415552E+02  0.34733286088E+02  0.10782956870E+03  0.19256470454E+03  0.12509147276E+03 0.  0.
          5    1    3    3  502    0  0.74381362737E+02  0.53503120762E+02  0.11266748049E+02  0.92409864546E+02  0.41800000000E+01 0. -1.
         -5    1    3    3    0  502  0.18353052814E+02 -0.18769834673E+02  0.96562820651E+02  0.10015483999E+03  0.41800000000E+01 0. -1.
        -11    1    1    2    0    0 -0.10801276451E+02  0.69967884486E+01 -0.16201922090E+02  0.20691179303E+02  0.00000000000E+00 0.  1.
         11    1    1    2    0    0 -0.81933139101E+02 -0.41730074537E+02  0.11849002729E+03  0.14998108204E+03  0.00000000000E+00 0. -1.
</event>
<event>
 7    1  0.2334784E-009  0.1246365E+03  0.7561462E-02  0.1235638E+00
         -1   -1    0    0    0  501 -0.00000000000E+00  0.00000000000E+00  0.74648864438E+02  0.74648864438E+02  0.00000000000E+00 0.  1.
          1   -1    0    0  501    0  0.00000000000E+00 -0.00000000000E+00 -0.32129681050E+03  0.32129681050E+03  0.00000000000E+00 0. -1.
         25    2    1    2    0    0 -0.84429683297E+02 -0.61217999879E+01 -0.22262542108E+03  0.26902649578E+03  0.12508928596E+03 0.  0.
          5    1    3    3  502    0  0.21925819326E+02  0.15476478614E+02 -0.10699637148E+03  0.11039003058E+03  0.41800000000E+01 0.  1.
         -5    1    3    3    0  502 -0.10635550262E+03 -0.21598278602E+02 -0.11562904961E+03  0.15863646519E+03  0.41800000000E+01 0.  1.
        -11    1    1    2    0    0  0.86614291499E+02  0.28375788598E+02  0.38017391305E+01  0.91223210264E+02  0.00000000000E+00 0. -1.
         11    1    1    2    0    0 -0.21846082022E+01 -0.22253988610E+02 -0.27824264111E+02  0.35695968895E+02  0.00000000000E+00 0.  1.
</event>
<event>
 7    1  0.2334784E-009  0.1346867E+03  0.7561462E-02  0.1220663E+00
          2   -1    0    0  501    0  0.00000000000E+00  0.00000000000E+00  0.94748110812E+03  0.94748110812E+03  0.00000000000E+00 0. -1.
         -2   -1    0    0    0  501 -0.00000000000E+00 -0.00000000000E+00 -0.26073271622E+02  0.26073271622E+02  0.00000000000E+00 0.  1.
         25    2    1    2    0    0  0.11248450203E+02 -0.11253126082E+03  0.49196904254E+03  0.52006810672E+03  0.12508990573E+03 0.  0.
          5    1    3    3  502    0  0.27479999562E+02  0.65756495413E+00  0.25928956540E+03  0.26077602247E+03  0.41800000000E+01 0.  1.
         -5    1    3    3    0  502 -0.16231549359E+02 -0.11318882577E+03  0.23267947714E+03  0.25929208425E+03  0.41800000000E+01 0.  1.
        -11    1    1    2    0    0  0.14177641448E+02  0.27278736837E+01  0.65835052484E+01  0.15867871729E+02  0.00000000000E+00 0.  1.
         11    1    1    2    0    0 -0.25426091650E+02  0.10980338713E+03  0.42285528871E+03  0.43761840129E+03  0.00000000000E+00 0. -1.
</event>
<event>
 7    1  0.2334784E-009  0.1244532E+03  0.7561462E-02  0.1235926E+00
          1   -1    0    0  501    0  0.00000000000E+00  0.00000000000E+00  0.10666573114E+03  0.10666573114E+03  0.00000000000E+00 0. -1.
         -1   -1    0    0    0  501 -0.00000000000E+00 -0.00000000000E+00 -0.17326298676E+03  0.17326298676E+03  0.00000000000E+00 0.  1.
         25    2    1    2    0    0 -0.27226198714E+02  0.64313912939E+02  0.65009426307E+01  0.14341311026E+03  0.12509001816E+03 0.  0.
          5    1    3    3  502    0  0.47032886485E+02  0.47565574500E+02  0.35696476721E+01  0.67117740375E+02  0.41800000000E+01 0. -1.
         -5    1    3    3    0  502 -0.74259085199E+02  0.16748338439E+02  0.29312949585E+01  0.76295369881E+02  0.41800000000E+01 0. -1.
        -11    1    1    2    0    0  0.51172837040E+01  0.18880970932E+02 -0.39556430043E+02  0.44129228563E+02  0.00000000000E+00 0.  1.
         11    1    1    2    0    0  0.22108915010E+02 -0.83194883871E+02 -0.33541768201E+02  0.92386379079E+02  0.00000000000E+00 0. -1.
</event>
<event>
 7    1  0.2334784E-009  0.1345874E+03  0.7561462E-02  0.1220803E+00
         -1   -1    0    0    0  501 -0.00000000000E+00  0.00000000000E+00  0.55261619315E+02  0.55261619315E+02  0.00000000000E+00 0.  1.
          1   -1    0    0  501    0  0.00000000000E+00 -0.00000000000E+00 -0.46794606457E+03  0.46794606457E+03  0.00000000000E+00 0. -1.
         25    2    1    2    0    0 -0.94918939737E+02 -0.69297251268E+02 -0.20461455606E+03  0.26706967379E+03  0.12508948778E+03 0.  0.
          5    1    3    3  502    0 -0.95815350444E+02 -0.15122550786E+02 -0.63916071652E+02  0.11624116972E+03  0.41800000000E+01 0.  1.
         -5    1    3    3    0  502  0.89641070713E+00 -0.54174700482E+02 -0.14069848441E+03  0.15082850407E+03  0.41800000000E+01 0.  1.
        -11    1    1    2    0    0  0.47456978801E+02  0.30227680104E+02 -0.22408908456E+02  0.60564318369E+02  0.00000000000E+00 0.  1.
         11    1    1    2    0    0  0.47461960936E+02  0.39069571164E+02 -0.18566098074E+03  0.19557369173E+03  0.00000000000E+00 0. -1.
</event>
<event>
 7    1  0.2334784E-009  0.8672939E+02  0.7561462E-02  0.1310971E+00
          3   -1    0    0  501    0  0.00000000000E+00  0.00000000000E+00  0.59193158678E+02  0.59193158678E+02  0.00000000000E+00 0. -1.
         -3   -1    0    0    0  501 -0.00000000000E+00 -0.00000000000E+00 -0.25712100267E+03  0.25712100267E+03  0.00000000000E+00 0.  1.
         25    2    1    2    0    0 -0.21086873750E+01 -0.47567625281E+02 -0.66599285715E+02  0.14950045404E+03  0.12509114822E+03 0.  0.
          5    1    3    3  502    0 -0.27868441127E+01 -0.71660653001E+02 -0.90334460826E+02  0.11541578272E+03  0.41800000000E+01 0. -1.
         -5    1    3    3    0  502  0.67815673769E+00  0.24093027719E+02  0.23735175111E+02  0.34084671317E+02  0.41800000000E+01 0. -1.
        -11    1    1    2    0    0  0.28130404816E+02  0.41998470484E+02 -0.13076676031E+03  0.14019677885E+03  0.00000000000E+00 0.  1.
         11    1    1    2    0    0 -0.26021717441E+02  0.55691547974E+01 -0.56179797173E+00  0.26616928461E+02  0.00000000000E+00 0. -1.
</event>
<event>
 7    1  0.2457895E-009  0.1043979E+03  0.7561462E-02  0.1271310E+00
         -2   -1    0    0    0  501 -0.00000000000E+00  0.00000000000E+00  0.32578107530E+02  0.32578107530E+02  0.00000000000E+00 0.  1.
          2   -1    0    0  501    0  0.00000000000E+00 -0.00000000000E+00 -0.55856757823E+03  0.55856757823E+03  0.00000000000E+00 0. -1.
         25    2    1    2    0    0 -0.55751510581E+02 -0.56659433378E+02 -0.30839473807E+03  0.34215404331E+03  0.12507418824E+03 0.  0.
          5    1    3    3  502    0 -0.56616137085E+02 -0.59974018420E+02 -0.31939478762E+03  0.32989812461E+03  0.41800000000E+01 0.  1.
         -5    1    3    3    0  502  0.86462650398E+00  0.33145850417E+01  0.11000049553E+02  0.12255918699E+02  0.41800000000E+01 0.  1.
        -11    1    1    2    0    0 -0.10195015224E+02  0.53846712670E+02 -0.10629653405E+03  0.11959247448E+03  0.00000000000E+00 0.  1.
         11    1    1    2    0    0  0.65946525805E+02  0.28127207079E+01 -0.11129819858E+03  0.12939916797E+03  0.00000000000E+00 0. -1.
</event>
<event>
 7    1  0.2334784E-009  0.1061399E+03  0.7561462E-02  0.1267890E+00
         -2   -1    0    0    0  501 -0.00000000000E+00  0.00000000000E+00  0.18582141805E+03  0.18582141805E+03  0.00000000000E+00 0.  1.
          2   -1    0    0  501    0  0.00000000000E+00 -0.00000000000E+00 -0.66178120675E+02  0.66178120675E+02  0.00000000000E+00 0. -1.
         25    2    1    2    0    0  0.15247733684E+02  0.12072866681E+01  0.45541975450E+02  0.13400104589E+03  0.12509299680E+03 0.  0.
          5    1    3    3  502    0 -0.12082695434E+01  0.60886632284E+02  0.82179015662E+01  0.61592598682E+02  0.41800000000E+01 0. -1.
         -5    1    3    3    0  502  0.16456003227E+02 -0.59679345616E+02  0.37324073884E+02  0.72408447205E+02  0.41800000000E+01 0. -1.
        -11    1    1    2    0    0  0.36692050768E+02  0.43730520990E+01  0.44906621931E+02  0.58155265174E+02  0.00000000000E+00 0.  1.
         11    1    1    2    0    0 -0.51939784452E+02 -0.55803387671E+01  0.29194699997E+02  0.59843227667E+02  0.00000000000E+00 0. -1.
</event>
<event>
 7    1  0.2334784E-009  0.1178146E+03  0.7561462E-02  0.1246746E+00
          2   -1    0    0  501    0  0.00000000000E+00  0.00000000000E+00  0.10721375415E+04  0.10721375415E+04  0.00000000000E+00 0. -1.
         -2   -1    0    0    0  501 -0.00000000000E+00 -0.00000000000E+00 -0.18365820137E+02  0.18365820137E+02  0.00000000000E+00 0.  1.
         25    2    1    2    0    0 -0.22465846715E+02  0.77347981677E+02  0.71917413203E+03  0.73439990492E+03  0.12507743056E+03 0.  0.
          5    1    3    3  502    0 -0.63741749559E+02  0.47862212168E+02  0.59297913324E+03  0.59832727403E+03  0.41800000000E+01 0.  1.
         -5    1    3    3    0  502  0.41275902844E+02  0.29485769510E+02  0.12619499879E+03  0.13607263089E+03  0.41800000000E+01 0.  1.
        -11    1    1    2    0    0  0.44182140547E+02 -0.68389280653E+02  0.31547633415E+03  0.32581355506E+03  0.00000000000E+00 0. -1.
         11    1    1    2    0    0 -0.21716293832E+02 -0.89587010247E+01  0.19121255164E+02  0.30289901632E+02  0.00000000000E+00 0.  1.
</event>
<event>
 7    1  0.2334784E-009  0.8588551E+02  0.7561462E-02  0.1313133E+00
         -2   -1    0    0    0  501 -0.00000000000E+00  0.00000000000E+00  0.12124685697E+03  0.12124685697E+03  0.00000000000E+00 0.  1.
          2   -1    0    0  501    0  0.00000000000E+00 -0.00000000000E+00 -0.10090384370E+03  0.10090384370E+03  0.00000000000E+00 0. -1.
         25    2    1    2    0    0  0.88668341181E+01 -0.13317897271E+02 -0.46743961766E+01  0.12619880225E+03  0.12509316758E+03 0.  0.
          5    1    3    3  502    0 -0.33436059938E+02 -0.34784148246E+02 -0.43237066938E+02  0.64921671503E+02  0.41800000000E+01 0. -1.
         -5    1    3    3    0  502  0.42302894056E+02  0.21466250975E+02  0.38562670761E+02  0.61277130748E+02  0.41800000000E+01 0. -1.
        -11    1    1    2    0    0 -0.14580217648E+02 -0.29296812907E+02  0.38840495904E+02  0.50788484081E+02  0.00000000000E+00 0.  1.
         11    1    1    2    0    0  0.57133835299E+01  0.42614710178E+02 -0.13823086457E+02  0.45163414332E+02  0.00000000000E+00 0. -1.
</event>
<event>
 7    1  0.2334784E-009  0.7909110E+02  0.7561462E-02  0.1331651E+00
          1   -1    0    0  501    0  0.00000000000E+00  0.00000000000E+00  0.40310854397E+03  0.40310854397E+03  0.00000000000E+00 0. -1.
         -1   -1    0    0    0  501 -0.00000000000E+00 -0.00000000000E+00 -0.38380752636E+02  0.38380752636E+02  0.00000000000E+00 0.  1.
         25    2    1    2    0    0 -0.17494109272E+01  0.18926544743E+02  0.27917526972E+03  0.30650847187E+03  0.12508931837E+03 0.  0.
          5    1    3    3  502    0 -0.14233712310E+01  0.57479746000E+02  0.57343215296E+02  0.81312138863E+02  0.41800000000E+01 0.  1.
         -5    1    3    3    0  502 -0.32603969624E+00 -0.38553201257E+02  0.22183205443E+03  0.22519633301E+03  0.41800000000E+01 0.  1.
        -11    1    1    2    0    0 -0.14432581264E+02 -0.35662834290E+02 -0.73824129518E+01  0.39174445401E+02  0.00000000000E+00 0.  1.
         11    1    1    2    0    0  0.16181992191E+02  0.16736289546E+02  0.92934934564E+02  0.95806379336E+02  0.00000000000E+00 0. -1.
</event>
<event>
 7    1  0.2334784E-009  0.7116769E+02  0.7561462E-02  0.1356167E+00
          3   -1    0    0  501    0  0.00000000000E+00  0.00000000000E+00  0.93557605730E+02  0.93557605730E+02  0.00000000000E+00 0. -1.
         -3   -1    0    0    0  501 -0.00000000000E+00 -0.00000000000E+00 -0.14159842386E+03  0.14159842386E+03  0.00000000000E+00 0.  1.
         25    2    1    2    0    0 -0.38025333918E+02 -0.62999397648E+01 -0.26361699755E+02  0.13351862908E+03  0.12508664931E+03 0.  0.
          5    1    3    3  502    0 -0.18042740817E+02 -0.43321627746E+02 -0.62245378898E+02  0.78065764077E+02  0.41800000000E+01 0.  1.
         -5    1    3    3    0  502 -0.19982593100E+02  0.37021687981E+02  0.35883679143E+02  0.55452865001E+02  0.41800000000E+01 0.  1.
        -11    1    1    2    0    0  0.73845055555E+01  0.18533682521E+02 -0.52700900114E+02  0.56350804634E+02  0.00000000000E+00 0.  1.
         11    1    1    2    0    0  0.30640828362E+02 -0.12233742756E+02  0.31021781735E+02  0.45286595882E+02  0.00000000000E+00 0. -1.
</event>
<event>
 7    1  0.2334784E-009  0.6009735E+02  0.7561462E-02  0.1397424E+00
         -2   -1    0    0    0  501 -0.00000000000E+00  0.00000000000E+00  0.21045253625E+02  0.21045253625E+02  0.00000000000E+00 0.  1.
          2   -1    0    0  501    0  0.00000000000E+00 -0.00000000000E+00 -0.47825254094E+03  0.47825254094E+03  0.00000000000E+00 0. -1.
         25    2    1    2    0    0  0.12166717114E+02  0.16039041650E+01 -0.32577034467E+03  0.34917695020E+03  0.12509046153E+03 0.  0.
          5    1    3    3  502    0 -0.23602915876E+02 -0.38239688945E+01 -0.30745396598E+03  0.30841065801E+03  0.41800000000E+01 0.  1.
         -5    1    3    3    0  502  0.35769632991E+02  0.54278730595E+01 -0.18316378689E+02  0.40766292185E+02  0.41800000000E+01 0.  1.
        -11    1    1    2    0    0  0.23329735137E+02  0.36663297746E+01 -0.98901328117E+02  0.10168181361E+03  0.00000000000E+00 0.  1.
         11    1    1    2    0    0 -0.35496452252E+02 -0.52702339396E+01 -0.32535614524E+02  0.48439030757E+02  0.00000000000E+00 0. -1.
</event>
<event>
 7    1  0.2334784E-009  0.1334240E+03  0.7561462E-02  0.1222462E+00
         -1   -1    0    0    0  501 -0.00000000000E+00  0.00000000000E+00  0.26963705174E+02  0.26963705174E+02  0.00000000000E+00 0.  1.
          1   -1    0    0  501    0  0.00000000000E+00 -0.00000000000E+00 -0.77398826231E+03  0.77398826231E+03  0.00000000000E+00 0. -1.
         25    2    1    2    0    0  0.15806449321E+02  0.93467171574E+02 -0.38164638077E+03  0.41266003749E+03  0.12509352734E+03 0.  0.
          5    1    3    3  502    0 -0.45114472597E+02  0.79321806986E+02 -0.18606334273E+03  0.20727832643E+03  0.41800000000E+01 0. -1.
         -5    1    3    3    0  502  0.60920921918E+02  0.14145364588E+02 -0.19558303804E+03  0.20538171106E+03  0.41800000000E+01 0. -1.
        -11    1    1    2    0    0 -0.37823225195E+02 -0.40286389187E+02 -0.27949293936E+03  0.28490330407E+03  0.00000000000E+00 0. -1.
         11    1    1    2    0    0  0.22016775874E+02 -0.53180782387E+02 -0.85885237002E+02  0.10338862592E+03  0.00000000000E+00 0.  1.
</event>
<event>
 7    1  0.2334784E-009  0.1211174E+03  0.7561462E-02  0.1241265E+00
          2   -1    0    0  501    0  0.00000000000E+00  0.00000000000E+00  0.40909285275E+03  0.40909285275E+03  0.00000000000E+00 0. -1.
         -2   -1    0    0    0  501 -0.00000000000E+00 -0.00000000000E+00 -0.38646137966E+02  0.38646137966E+02  0.00000000000E+00 0.  1.
         25    2    1    2    0    0 -0.53331154115E+02 -0.16403177089E+02  0.25290123603E+03  0.28761005500E+03  0.12508889773E+03 0.  0.
          5    1    3    3  502    0  0.42192139474E+01 -0.61720126003E+02  0.13787981786E+03  0.15118033038E+03  0.41800000000E+01 0.  1.
         -5    1    3    3    0  502 -0.57550368063E+02  0.45316948914E+02  0.11502141818E+03  0.13642972463E+03  0.41800000000E+01 0.  1.
        -11    1    1    2    0    0  0.65499985464E+02 -0.19992715980E+02  0.60519035530E+02  0.91392069949E+02  0.00000000000E+00 0.  1.
         11    1    1    2    0    0 -0.12168831349E+02  0.36395893069E+02  0.57026443224E+02  0.68736865767E+02  0.00000000000E+00 0. -1.
</event>
<event>
 7    1  0.2334784E-009  0.1080561E+03  0.7561462E-02  0.1264213E+00
         -1   -1    0    0    0  501 -0.00000000000E+00  0.00000000000E+00  0.70168365096E+02  0.70168365096E+02  0.00000000000E+00 0.  1.
          1   -1    0    0  501    0  0.00000000000E+00 -0.00000000000E+00 -0.23125380173E+03  0.23125380173E+03  0.00000000000E+00 0. -1.
         25    2    1    2    0    0  0.17149511727E+02  0.50824987026E+02 -0.43814352476E+02  0.14298356852E+03  0.12508924145E+03 0.  0.
          5    1    3    3  502    0  0.24594802004E+02 -0.24260995939E+02 -0.56499544899E+02  0.66356395195E+02  0.41800000000E+01 0.  1.
         -5    1    3    3    0  502 -0.74452902770E+01  0.75085982965E+02  0.12685192422E+02  0.76627173325E+02  0.41800000000E+01 0.  1.
        -11    1    1    2    0    0  0.36284730675E+02 -0.77362992324E+01 -0.50628347809E+02  0.62766723731E+02  0.00000000000E+00 0. -1.
         11    1    1    2    0    0 -0.53434242402E+02 -0.43088687794E+02 -0.66642736351E+02  0.95671874578E+02  0.00000000000E+00 0.  1.
</event>
<event>
 7    1  0.2334784E-009  0.1109721E+03  0.7561462E-02  0.1258780E+00
          1   -1    0    0  501    0  0.00000000000E+00  0.00000000000E+00  0.12293628555E+03  0.12293628555E+03  0.00000000000E+00 0. -1.
         -1   -1    0    0    0  501 -0.00000000000E+00 -0.00000000000E+00 -0.12236148056E+03  0.12236148056E+03  0.00000000000E+00 0.  1.
         25    2    1    2    0    0  0.18686051473E+02 -0.43947211005E+02  0.31403417969E+02  0.13752888236E+03  0.12508993944E+03 0.  0.
          5    1    3    3  502    0 -0.29089065305E+02 -0.61782893473E+02  0.48183857679E+02  0.83680679891E+02  0.41800000000E+01 0.  1.
         -5    1    3    3    0  502  0.47775116778E+02  0.17835682468E+02 -0.16780439710E+02  0.53848202468E+02  0.41800000000E+01 0.  1.
        -11    1    1    2    0    0  0.36868550509E+02  0.16391991052E+02 -0.19165028622E+02  0.44668621082E+02  0.00000000000E+00 0.  1.
         11    1    1    2    0    0 -0.55554601981E+02  0.27555219953E+02 -0.11663584358E+02  0.63100262662E+02  0.00000000000E+00 0. -1.
</event>
<event>
 7    1  0.2334784E-009  0.2767272E+03  0.7561462E-02  0.1097490E+00
          4   -1    0    0  501    0  0.00000000000E+00  0.00000000000E+00  0.12660386302E+03  0.12660386302E+03  0.00000000000E+00 0. -1.
         -4   -1    0    0    0  501 -0.00000000000E+00 -0.00000000000E+00 -0.72405004851E+03  0.72405004851E+03  0.00000000000E+00 0.  1.
         25    2    1    2    0    0 -0.15327598099E+03 -0.22816288087E+03 -0.21354369024E+03  0.36986600619E+03  0.12509247915E+03 0.  0.
          5    1    3    3  502    0 -0.85135880753E+02 -0.13816666898E+03 -0.47699259885E+02  0.16920649634E+03  0.41800000000E+01 0. -1.
         -5    1    3    3    0  502 -0.68140100238E+02 -0.89996211882E+02 -0.16584443036E+03  0.20065950985E+03  0.41800000000E+01 0. -1.
        -11    1    1    2    0    0  0.46092646975E+02  0.10627245599E+03 -0.96709176186E+02  0.15090073481E+03  0.00000000000E+00 0. -1.
         11    1    1    2    0    0  0.10718333402E+03  0.12189042488E+03 -0.28719331906E+03  0.32988717053E+03  0.00000000000E+00 0.  1.
</event>
<event>
 7    1  0.2432038E-009  0.1179514E+03  0.7561462E-02  0.1246515E+00
          1   -1    0    0  501    0  0.00000000000E+00  0.00000000000E+00  0.49337520731E+03  0.49337520731E+03  0.00000000000E+00 0.  1.
         -1   -1    0    0    0  501 -0.00000000000E+00 -0.00000000000E+00 -0.46558253014E+02  0.46558253014E+02  0.00000000000E+00 0. -1.
         25    2    1    2    0    0  0.87826480560E+02  0.58879484915E+02  0.24402421091E+03  0.29389771283E+03  0.12509102951E+03 0.  0.
          5    1    3    3  502    0  0.91688561601E+02  0.68309970409E+02  0.10770210338E+03  0.15713134588E+03  0.41800000000E+01 0. -1.
         -5    1    3    3    0  502 -0.38620810414E+01 -0.94304854939E+01  0.13632210753E+03  0.13676636694E+03  0.41800000000E+01 0. -1.
        -11    1    1    2    0    0 -0.96629556217E+01 -0.22038270841E+02  0.13243671047E+03  0.13460512759E+03  0.00000000000E+00 0.  1.
         11    1    1    2    0    0 -0.78163524938E+02 -0.36841214074E+02  0.70356032910E+02  0.11143061990E+03  0.00000000000E+00 0. -1.
</event>
<event>
 7    1  0.2458175E-009  0.7401491E+02  0.7561462E-02  0.1346949E+00
          1   -1    0    0  501    0  0.00000000000E+00  0.00000000000E+00  0.79859878796E+03  0.79859878796E+03  0.00000000000E+00 0. -1.
         -1   -1    0    0    0  501 -0.00000000000E+00 -0.00000000000E+00 -0.18221031286E+02  0.18221031286E+02  0.00000000000E+00 0.  1.
         25    2    1    2    0    0 -0.52538593195E+02  0.42313475832E+01  0.42626375143E+03  0.44735361566E+03  0.12508502543E+03 0.  0.
          5    1    3    3  502    0 -0.35411862857E+02  0.14503756314E+02  0.25733131416E+02  0.46303622220E+02  0.41800000000E+01 0. -1.
         -5    1    3    3    0  502 -0.17126730339E+02 -0.10272408731E+02  0.40053062001E+03  0.40104999344E+03  0.41800000000E+01 0. -1.
        -11    1    1    2    0    0  0.28926904330E+02 -0.38104701446E+02  0.28476446795E+03  0.28875514935E+03  0.00000000000E+00 0. -1.
         11    1    1    2    0    0  0.23611688865E+02  0.33873353863E+02  0.69349537293E+02  0.80711054235E+02  0.00000000000E+00 0.  1.
</event>
<event>
 6    1  0.2334784E-009  0.1268189E+03  0.7561462E-02  0.1232254E+00
         -1   -1    0    0    0  501 -0.00000000000E+00  0.00000000000E+00  0.68880084329E+03  0.68880084329E+03  0.00000000000E+00 0.  1.
          1   -1    0    0  501    0  0.00000000000E+00 -0.00000000000E+00 -0.32045217099E+02  0.32045217099E+02  0.00000000000E+00 0. -1.
          5    1    1    2  502    0  0.11771653844E+02 -0.15359791686E+02  0.20730498812E+03  0.20824823057E+03  0.41800000000E+01 0.  1.
         -5    1    1    2    0  502 -0.80163498494E+02 -0.63821551295E+02  0.12347931642E+03  0.16051165342E+03  0.41800000000E+01 0.  1.
        -11    1    1    2    0    0  0.62771164882E+02  0.12044506296E+02  0.13011328142E+03  0.14496466906E+03  0.00000000000E+00 0. -1.
         11    1    1    2    0    0  0.56206797678E+01  0.67136836685E+02  0.19585804023E+03  0.20712150734E+03  0.00000000000E+00 0.  1.
</event>
<event>
 7    1  0.2334784E-009  0.9053498E+02  0.7561462E-02  0.1301561E+00
          1   -1    0    0  501    0  0.00000000000E+00  0.00000000000E+00  0.44495802461E+03  0.44495802461E+03  0.00000000000E+00 0. -1.
         -1   -1    0    0    0  501 -0.00000000000E+00 -0.00000000000E+00 -0.41903473086E+02  0.41903473086E+02  0.00000000000E+00 0.  1.
         25    2    1    2    0    0  0.12009558247E+02 -0.34579805916E+02  0.35520911496E+03  0.37837036366E+03  0.12510245511E+03 0.  0.
          5    1    3    3  502    0 -0.52792120411E+02 -0.19977796402E+01  0.20156055697E+03  0.20841096331E+03  0.41800000000E+01 0.  1.
         -5    1    3    3    0  502  0.64801678658E+02 -0.32582026276E+02  0.15364855799E+03  0.16995940034E+03  0.41800000000E+01 0.  1.
        -11    1    1    2    0    0  0.15209458341E+02  0.72430034420E+01  0.64359854079E+02  0.66528035736E+02  0.00000000000E+00 0. -1.
         11    1    1    2    0    0 -0.27219016588E+02  0.27336802474E+02 -0.16514417516E+02  0.41963098306E+02  0.00000000000E+00 0.  1.
</event>
<event>
 7    1  0.2334784E-009  0.1495991E+03  0.7561462E-02  0.1200967E+00
          1   -1    0    0  501    0  0.00000000000E+00  0.00000000000E+00  0.32553926988E+03  0.32553926988E+03  0.00000000000E+00 0. -1.
         -1   -1    0    0    0  501 -0.00000000000E+00 -0.00000000000E+00 -0.96686171475E+02  0.96686171475E+02  0.00000000000E+00 0.  1.
         25    2    1    2    0    0  0.31733567203E+02 -0.11099312781E+03  0.14864952707E+03  0.22598826223E+03  0.12509004382E+03 0.  0.
          5    1    3    3  502    0  0.55686270336E+02 -0.81349167320E+02  0.15822488533E+03  0.18647046540E+03  0.41800000000E+01 0.  1.
         -5    1    3    3    0  502 -0.23952703133E+02 -0.29643960486E+02 -0.95753582682E+01  0.39517796834E+02  0.41800000000E+01 0.  1.
        -11    1    1    2    0    0  0.43130013234E+02  0.45856440630E+02 -0.80138202309E+01  0.63460479855E+02  0.00000000000E+00 0.  1.
         11    1    1    2    0    0 -0.74863580437E+02  0.65136687176E+02  0.88217391570E+02  0.13277669926E+03  0.00000000000E+00 0. -1.
</event>
<event>
 7    1  0.2334784E-009  0.1151374E+03  0.7561462E-02  0.1251342E+00
          1   -1    0    0  501    0  0.00000000000E+00  0.00000000000E+00  0.43196485421E+02  0.43196485421E+02  0.00000000000E+00 0. -1.
         -1   -1    0    0    0  501 -0.00000000000E+00 -0.00000000000E+00 -0.31958913759E+03  0.31958913759E+03  0.00000000000E+00 0.  1.
         25    2    1    2    0    0 -0.19501545900E+02 -0.43609526410E+02 -0.16822435047E+03  0.21500439394E+03  0.12508139844E+03 0.  0.
          5    1    3    3  502    0  0.14579916765E+02 -0.81275256100E+02 -0.97652419750E+02  0.12795197814E+03  0.41800000000E+01 0.  1.
         -5    1    3    3    0  502 -0.34081462664E+02  0.37665729690E+02 -0.70571930724E+02  0.87052415800E+02  0.41800000000E+01 0.  1.
        -11    1    1    2    0    0 -0.15152921372E+02  0.57373398341E+02 -0.45175962927E+02  0.74580060940E+02  0.00000000000E+00 0.  1.
         11    1    1    2    0    0  0.34654467272E+02 -0.13763871931E+02 -0.62992338767E+02  0.73201168131E+02  0.00000000000E+00 0. -1.
</event>
<event>
 7    1  0.2683448E-009  0.1086901E+03  0.7561462E-02  0.1263015E+00
          1   -1    0    0  501    0  0.00000000000E+00  0.00000000000E+00  0.16350466607E+03  0.16350466607E+03  0.00000000000E+00 0. -1.
         -1   -1    0    0    0  501 -0.00000000000E+00 -0.00000000000E+00 -0.11162276396E+03  0.11162276396E+03  0.00000000000E+00 0.  1.
         25    2    1    2    0    0 -0.68646253283E+02 -0.19300213864E+01 -0.13703876812E+02  0.14335844232E+03  0.12509122141E+03 0.  0.
          5    1    3    3  502    0 -0.92589958208E+02  0.33240321323E+02 -0.18995734745E+02  0.10028025559E+03  0.41800000000E+01 0. -1.
         -5    1    3    3    0  502  0.23943704926E+02 -0.35170342709E+02  0.52918579329E+01  0.43078186733E+02  0.41800000000E+01 0. -1.
        -11    1    1    2    0    0  0.54912566690E+02 -0.12421188072E+02 -0.67982951475E+01  0.56708841555E+02  0.00000000000E+00 0.  1.
         11    1    1    2    0    0  0.13733686593E+02  0.14351209458E+02  0.72384074076E+02  0.75060146151E+02  0.00000000000E+00 0. -1.
</event>
<event>
 7    1  0.2334784E-009  0.1448193E+03  0.7561462E-02  0.1206987E+00
         -2   -1    0    0    0  501 -0.00000000000E+00  0.00000000000E+00  0.43454680312E+02  0.43454680312E+02  0.00000000000E+00 0.  1.
          2   -1    0    0  501    0  0.00000000000E+00 -0.00000000000E+00 -0.71971364326E+03  0.71971364326E+03  0.00000000000E+00 0. -1.
         25    2    1    2    0    0 -0.19621032686E+02  0.13090038560E+03 -0.45254736810E+03  0.48781610665E+03  0.12508212367E+03 0.  0.
          5    1    3    3  502    0 -0.48704495978E+02  0.91185295740E+02 -0.40924969904E+03  0.42212518836E+03  0.41800000000E+01 0. -1.
         -5    1    3    3    0  502  0.29083463292E+02  0.39715089859E+02 -0.43297669061E+02  0.65690918289E+02  0.41800000000E+01 0. -1.
        -11    1    1    2    0    0 -0.10912073173E+01 -0.97278984600E+02 -0.21341477916E+03  0.23454266039E+03  0.00000000000E+00 0. -1.
         11    1    1    2    0    0  0.20712240004E+02 -0.33621400998E+02 -0.10296815692E+02  0.40809556533E+02  0.00000000000E+00 0.  1.
</event>
<event>
 7    1  0.2334784E-009  0.1056406E+03  0.7561462E-02  0.1268863E+00
         -1   -1    0    0    0  501 -0.00000000000E+00  0.00000000000E+00  0.39127931292E+03  0.39127931292E+03  0.00000000000E+00 0.  1.
          1   -1    0    0  501    0  0.00000000000E+00 -0.00000000000E+00 -0.33105093743E+02  0.33105093743E+02  0.00000000000E+00 0. -1.
         25    2    1    2    0    0 -0.12387459751E+02 -0.65920227242E+02  0.26680844708E+03  0.30221610183E+03  0.12509556050E+03 0.  0.
          5    1    3    3  502    0 -0.67372080682E+02 -0.38075649855E+02  0.11892189142E+03  0.14194590880E+03  0.41800000000E+01 0. -1.
         -5    1    3    3    0  502  0.54984620931E+02 -0.27844577386E+02  0.14788655566E+03  0.16027019303E+03  0.41800000000E+01 0. -1.
        -11    1    1    2    0    0  0.20627939746E+02  0.44221190247E+02  0.85148230992E+02  0.98138915860E+02  0.00000000000E+00 0. -1.
         11    1    1    2    0    0 -0.82404799952E+01  0.21699036995E+02  0.62175411100E+01  0.24029388975E+02  0.00000000000E+00 0.  1.
</event>
<event>
 7    1  0.2858402E-009  0.1232206E+03  0.7561462E-02  0.1237877E+00
         -3   -1    0    0    0  501 -0.00000000000E+00  0.00000000000E+00  0.91456682381E+02  0.91456682381E+02  0.00000000000E+00 0.  1.
          3   -1    0    0  501    0  0.00000000000E+00 -0.00000000000E+00 -0.25187179850E+03  0.25187179850E+03  0.00000000000E+00 0. -1.
         25    2    1    2    0    0  0.91432287276E+02 -0.28357386053E+02 -0.13728370590E+03  0.20894627595E+03  0.12509087028E+03 0.  0.
          5    1    3    3  502    0 -0.13866828448E+02 -0.27602744816E+02  0.53257974741E+01  0.31623361164E+02  0.41800000000E+01 0.  1.
         -5    1    3    3    0  502  0.10529911572E+03 -0.75464123644E+00 -0.14260950337E+03  0.17732291478E+03  0.41800000000E+01 0.  1.
        -11    1    1    2    0    0 -0.47043414246E+02  0.42396380916E+02 -0.49947539157E+02  0.80655394157E+02  0.00000000000E+00 0. -1.
         11    1    1    2    0    0 -0.44388873029E+02 -0.14038994864E+02  0.26816128933E+02  0.53726810780E+02  0.00000000000E+00 0.  1.
</event>
<event>
 7    1  0.2334784E-009  0.1022378E+03  0.7561462E-02  0.1275659E+00
          1   -1    0    0  501    0  0.00000000000E+00  0.00000000000E+00  0.29254301631E+03  0.29254301631E+03  0.00000000000E+00 0. -1.
         -1   -1    0    0    0  501 -0.00000000000E+00 -0.00000000000E+00 -0.44423761989E+02  0.44423761989E+02  0.00000000000E+00 0.  1.
         25    2    1    2    0    0  0.13777622197E+02  0.47449757711E+02  0.16078512493E+03  0.20962074324E+03  0.12509075592E+03 0.  0.
          5    1    3    3  502    0  0.11610252259E+02  0.83384216287E+02  0.14956414107E+03  0.17168177008E+03  0.41800000000E+01 0. -1.
         -5    1    3    3    0  502  0.21673699380E+01 -0.35934458576E+02  0.11220983861E+02  0.37938973159E+02  0.41800000000E+01 0. -1.
        -11    1    1    2    0    0 -0.39925721179E+02 -0.15926361898E+02  0.71517610360E+02  0.83441481331E+02  0.00000000000E+00 0. -1.
         11    1    1    2    0    0  0.26148098982E+02 -0.31523395814E+02  0.15816519029E+02  0.43904553730E+02  0.00000000000E+00 0.  1.
</event>
<event>
 7    1  0.2334784E-009  0.3840247E+03  0.7561462E-02  0.1049456E+00
          1   -1    0    0  501    0  0.00000000000E+00  0.00000000000E+00  0.80322124504E+03  0.80322124504E+03  0.00000000000E+00 0. -1.
         -1   -1    0    0    0  501 -0.00000000000E+00 -0.00000000000E+00 -0.21370801355E+03  0.21370801355E+03  0.00000000000E+00 0.  1.
         25    2    1    2    0    0  0.35830257671E+03 -0.11610873498E+03  0.46417231361E+03  0.61070794001E+03  0.12508507684E+03 0.  0.
          5    1    3    3  502    0  0.59596990505E+02 -0.56161978892E+02  0.16209708756E+03  0.18165601379E+03  0.41800000000E+01 0. -1.
         -5    1    3    3    0  502  0.29870558621E+03 -0.59946756084E+02  0.30207522605E+03  0.42905192621E+03  0.41800000000E+01 0. -1.
        -11    1    1    2    0    0 -0.22621882940E+03  0.10320870558E+03  0.50043778837E+02  0.25363630553E+03  0.00000000000E+00 0.  1.
         11    1    1    2    0    0 -0.13208374732E+03  0.12900029399E+02  0.75297139041E+02  0.15258501306E+03  0.00000000000E+00 0. -1.
</event>
<event>
 7    1  0.2334784E-009  0.9564126E+02  0.7561462E-02  0.1289738E+00
          3   -1    0    0  501    0  0.00000000000E+00  0.00000000000E+00  0.15879257069E+03  0.15879257069E+03  0.00000000000E+00 0. -1.
         -3   -1    0    0    0  501 -0.00000000000E+00 -0.00000000000E+00 -0.77843378830E+02  0.77843378830E+02  0.00000000000E+00 0.  1.
         25    2    1    2    0    0 -0.41399855882E+01 -0.29747103215E+02  0.55178712933E+02  0.13997985600E+03  0.12509052760E+03 0.  0.
          5    1    3    3  502    0 -0.26401560596E+02  0.41730218985E+02  0.51117684080E+01  0.49820238404E+02  0.41800000000E+01 0. -1.
         -5    1    3    3    0  502  0.22261575008E+02 -0.71477322200E+02  0.50066944525E+02  0.90159617594E+02  0.41800000000E+01 0. -1.
        -11    1    1    2    0    0  0.16668359044E+02 -0.13669570966E+02  0.43154845156E+02  0.48239320310E+02  0.00000000000E+00 0. -1.
         11    1    1    2    0    0 -0.12528373456E+02  0.43416674181E+02 -0.17384366233E+02  0.48416773206E+02  0.00000000000E+00 0.  1.
</event>
<event>
 7    1  0.2334784E-009  0.1033718E+03  0.7561462E-02  0.1273361E+00
         -1   -1    0    0    0  501 -0.00000000000E+00  0.00000000000E+00  0.17880688446E+03  0.17880688446E+03  0.00000000000E+00 0.  1.
          1   -1    0    0  501    0  0.00000000000E+00 -0.00000000000E+00 -0.67735631563E+02  0.67735631563E+02  0.00000000000E+00 0. -1.
         25    2    1    2    0    0  0.11509146132E+02 -0.35609620095E+01  0.48566470307E+02  0.13470480883E+03  0.12506615285E+03 0.  0.
          5    1    3    3  502    0 -0.55772597892E+02 -0.12111874560E+02  0.16431371797E+02  0.59537740637E+02  0.41800000000E+01 0.  1.
         -5    1    3    3    0  502  0.67281744023E+02  0.85509125504E+01  0.32135098509E+02  0.75167068191E+02  0.41800000000E+01 0.  1.
        -11    1    1    2    0    0  0.31333232063E+02 -0.15165323961E+02  0.54100579488E+02  0.64332193988E+02  0.00000000000E+00 0.  1.
         11    1    1    2    0    0 -0.42842378194E+02  0.18726285971E+02  0.84042031058E+01  0.47505513211E+02  0.00000000000E+00 0. -1.
</event>
<event>
 7    1  0.2334784E-009  0.8984182E+02  0.7561462E-02  0.1303235E+00
         -1   -1    0    0    0  501 -0.00000000000E+00  0.00000000000E+00  0.78472069951E+02  0.78472069951E+02  0.00000000000E+00 0.  1.
          1   -1    0    0  501    0  0.00000000000E+00 -0.00000000000E+00 -0.19273789624E+03  0.19273789624E+03  0.00000000000E+00 0. -1.
         25    2    1    2    0    0  0.11546205570E+02  0.18893392128E+02 -0.10544645432E+02  0.12747200723E+03  0.12509055900E+03 0.  0.
          5    1    3    3  502    0 -0.50996725726E+02  0.19262221972E+01 -0.30422085186E+02  0.59559651055E+02  0.41800000000E+01 0.  1.
         -5    1    3    3    0  502  0.62542931296E+02  0.16967169931E+02  0.19877439753E+02  0.67912356179E+02  0.41800000000E+01 0.  1.
        -11    1    1    2    0    0  0.14184490089E+02  0.15224643102E+02 -0.98515456685E+02  0.10068904967E+03  0.00000000000E+00 0. -1.
         11    1    1    2    0    0 -0.25730695659E+02 -0.34118035230E+02 -0.52057241708E+01  0.43048909292E+02  0.00000000000E+00 0.  1.
</event>
<event>
 7    1  0.2334784E-009  0.1135956E+03  0.7561462E-02  0.1254053E+00
         -2   -1    0    0    0  501 -0.00000000000E+00  0.00000000000E+00  0.20579593877E+02  0.20579593877E+02  0.00000000000E+00 0.  1.
          2   -1    0    0  501    0  0.00000000000E+00 -0.00000000000E+00 -0.74885611808E+03  0.74885611808E+03  0.00000000000E+00 0. -1.
         25    2    1    2    0    0  0.26600315916E+02 -0.37463705314E+02 -0.53101007267E+03  0.54747887767E+03  0.12510123181E+03 0.  0.
          5    1    3    3  502    0  0.74189338894E+02 -0.26633998080E+02 -0.24795078627E+03  0.26021239915E+03  0.41800000000E+01 0.  1.
         -5    1    3    3    0  502 -0.47589022978E+02 -0.10829707234E+02 -0.28305928639E+03  0.28726647852E+03  0.41800000000E+01 0.  1.
        -11    1    1    2    0    0 -0.58506512445E+02  0.32659780153E+02 -0.15433051492E+03  0.16824856931E+03  0.00000000000E+00 0.  1.
         11    1    1    2    0    0  0.31906196529E+02  0.48039251605E+01 -0.42935936614E+02  0.53708264977E+02  0.00000000000E+00 0. -1.
</event>
<event>
 7    1  0.2334784E-009  0.1049314E+03  0.7561462E-02  0.1270255E+00
          1   -1    0    0  501    0  0.00000000000E+00  0.00000000000E+00  0.51693928862E+02  0.51693928862E+02  0.00000000000E+00 0. -1.
         -1   -1    0    0    0  501 -0.00000000000E+00 -0.00000000000E+00 -0.26857975488E+03  0.26857975488E+03  0.00000000000E+00 0.  1.
         25    2    1    2    0    0  0.11551686722E+02 -0.16324330877E+02 -0.17892756160E+03  0.21923022957E+03  0.12508755338E+03 0.  0.
          5    1    3    3  502    0  0.64033658582E+02 -0.25201902743E+02 -0.71827425304E+02  0.99559513654E+02  0.41800000000E+01 0. -1.
         -5    1    3    3    0  502 -0.52481971860E+02  0.88775718656E+01 -0.10710013630E+03  0.11967071592E+03  0.41800000000E+01 0. -1.
        -11    1    1    2    0    0 -0.46758987142E+02 -0.39104286203E+01 -0.38088576405E+02  0.60435370298E+02  0.00000000000E+00 0.  1.
         11    1    1    2    0    0  0.35207300420E+02  0.20234759498E+02  0.13031198801E+00  0.40608083875E+02  0.00000000000E+00 0. -1.
</event>
<event>
 7    1  0.2334784E-009  0.7408516E+02  0.7561462E-02  0.1346728E+00
         -2   -1    0    0    0  501 -0.00000000000E+00  0.00000000000E+00  0.19436184913E+03  0.19436184913E+03  0.00000000000E+00 0.  1.
          2   -1    0    0  501    0  0.00000000000E+00 -0.00000000000E+00 -0.60673324809E+02  0.60673324809E+02  0.00000000000E+00 0. -1.
         25    2    1    2    0    0 -0.69405281623E+01 -0.27645690574E+02  0.92220005517E+02  0.15799968757E+03  0.12508763614E+03 0.  0.
          5    1    3    3  502    0  0.24612264654E+02 -0.33416299208E+02  0.11238886188E+03  0.11987969510E+03  0.41800000000E+01 0.  1.
         -5    1    3    3    0  502 -0.31552792816E+02  0.57706086340E+01 -0.20168856361E+02  0.38119992463E+02  0.41800000000E+01 0.  1.
        -11    1    1    2    0    0 -0.55503448448E+01  0.49031496460E+02  0.50564370214E+02  0.70651606550E+02  0.00000000000E+00 0.  1.
         11    1    1    2    0    0  0.12490873007E+02 -0.21385805885E+02 -0.90958514062E+01  0.26383879826E+02  0.00000000000E+00 0. -1.
</event>
<event>
 7    1  0.2334784E-009  0.1408365E+03  0.7561462E-02  0.1212208E+00
          1   -1    0    0  501    0  0.00000000000E+00  0.00000000000E+00  0.65431257393E+03  0.65431257393E+03  0.00000000000E+00 0. -1.
         -1   -1    0    0    0  501 -0.00000000000E+00 -0.00000000000E+00 -0.40566536100E+02  0.40566536100E+02  0.00000000000E+00 0.  1.
         25    2    1    2    0    0  0.16641781871E+02 -0.12044299291E+03  0.32208666039E+03  0.36629587718E+03  0.12509751954E+03 0.  0.
          5    1    3    3  502    0  0.30394412504E+02  0.44634419512E+01  0.14948076741E+02  0.34418890508E+02  0.41800000000E+01 0.  1.
         -5    1    3    3    0  502 -0.13752630633E+02 -0.12490643486E+03  0.30713858365E+03  0.33187698668E+03  0.41800000000E+01 0.  1.
        -11    1    1    2    0    0  0.78155821095E+01  0.43682925287E+02  0.20705807692E+03  0.21176007297E+03  0.00000000000E+00 0. -1.
         11    1    1    2    0    0 -0.24457363981E+02  0.76760067624E+02  0.84601300524E+02  0.11682315988E+03  0.00000000000E+00 0.  1.
</event>
<event>
 7    1  0.2334784E-009  0.1580241E+03  0.7561462E-02  0.1190946E+00
         -2   -1    0    0    0  501 -0.00000000000E+00  0.00000000000E+00  0.20981871236E+03  0.20981871236E+03  0.00000000000E+00 0.  1.
          2   -1    0    0  501    0  0.00000000000E+00 -0.00000000000E+00 -0.15847024717E+03  0.15847024717E+03  0.00000000000E+00 0. -1.
         25    2    1    2    0    0  0.23782476401E+02  0.11978557897E+03  0.10841288795E+03  0.20570752672E+03  0.12509213070E+03 0.  0.
          5    1    3    3  502    0 -0.46163444827E+02  0.46782977698E+02  0.14033830141E+02  0.67335959405E+02  0.41800000000E+01 0. -1.
         -5    1    3    3    0  502  0.69945921227E+02  0.73002601271E+02  0.94379057814E+02  0.13837156732E+03  0.41800000000E+01 0. -1.
        -11    1    1    2    0    0  0.32410414283E+02 -0.42582931627E+02 -0.48065601154E+01  0.53729359200E+02  0.00000000000E+00 0.  1.
         11    1    1    2    0    0 -0.56192890684E+02 -0.77202647342E+02 -0.52257862650E+02  0.10885207361E+03  0.00000000000E+00 0. -1.
</event>
<event>
 7    1  0.2334784E-009  0.1979822E+03  0.7561462E-02  0.1151453E+00
          2   -1    0    0  501    0  0.00000000000E+00  0.00000000000E+00  0.17676978454E+03  0.17676978454E+03  0.00000000000E+00 0.  1.
         -2   -1    0    0    0  501 -0.00000000000E+00 -0.00000000000E+00 -0.26352635711E+03  0.26352635711E+03  0.00000000000E+00 0. -1.
         25    2    1    2    0    0  0.16989119932E+03  0.54155399353E+02 -0.99344731474E+02  0.23940347337E+03  0.12509524573E+03 0.  0.
          5    1    3    3  502    0  0.17970272978E+03  0.48169279545E+02 -0.11558907487E+03  0.21906998245E+03  0.41800000000E+01 0.  1.
         -5    1    3    3    0  502 -0.98115304609E+01  0.59861198083E+01  0.16244343399E+02  0.20333490915E+02  0.41800000000E+01 0.  1.
        -11    1    1    2    0    0 -0.10472751272E+03  0.11230753018E+02  0.23557994835E+02  0.10793035187E+03  0.00000000000E+00 0.  1.
         11    1    1    2    0    0 -0.65163686598E+02 -0.65386152371E+02 -0.10969835925E+02  0.92962316415E+02  0.00000000000E+00 0. -1.
</event>
<event>
 7    1  0.2334784E-009  0.9644566E+02  0.7561462E-02  0.1287953E+00
         -3   -1    0    0    0  501 -0.00000000000E+00  0.00000000000E+00  0.48872028898E+02  0.48872028898E+02  0.00000000000E+00 0.  1.
          3   -1    0    0  501    0  0.00000000000E+00 -0.00000000000E+00 -0.24901704660E+03  0.24901704660E+03  0.00000000000E+00 0. -1.
         25    2    1    2    0    0  0.35942363417E+01 -0.23039644404E+02 -0.11779013651E+03  0.17340023458E+03  0.12509748736E+03 0.  0.
          5    1    3    3  502    0  0.41742443018E+02  0.36883684492E+02 -0.46612777571E+02  0.72753427161E+02  0.41800000000E+01 0.  1.
         -5    1    3    3    0  502 -0.38148206676E+02 -0.59923328895E+02 -0.71177358938E+02  0.10064680742E+03  0.41800000000E+01 0.  1.
        -11    1    1    2    0    0 -0.22806353917E+02  0.36058270812E+02 -0.40961094847E+01  0.42861483710E+02  0.00000000000E+00 0.  1.
         11    1    1    2    0    0  0.19212117575E+02 -0.13018626408E+02 -0.78258771708E+02  0.81627357207E+02  0.00000000000E+00 0. -1.
</event>
<event>
 7    1  0.2334784E-009  0.1178572E+03  0.7561462E-02  0.1246674E+00
          1   -1    0    0  501    0  0.00000000000E+00  0.00000000000E+00  0.67722138019E+03  0.67722138019E+03  0.00000000000E+00 0. -1.
         -1   -1    0    0    0  501 -0.00000000000E+00 -0.00000000000E+00 -0.41875202581E+02  0.41875202581E+02  0.00000000000E+00 0.  1.
         25    2    1    2    0    0  0.84566958966E+01 -0.83643955607E+02  0.54436040644E+03  0.56484007246E+03  0.12509287889E+03 0.  0.
          5    1    3    3  502    0 -0.43842392527E+02 -0.63135162486E+02  0.43567792339E+03  0.44242618531E+03  0.41800000000E+01 0. -1.
         -5    1    3    3    0  502  0.52299088424E+02 -0.20508793121E+02  0.10868248305E+03  0.12241388715E+03  0.41800000000E+01 0. -1.
        -11    1    1    2    0    0  0.23514488549E+02  0.53602585997E+02  0.93503585878E+02  0.11031359376E+03  0.00000000000E+00 0. -1.
         11    1    1    2    0    0 -0.31971184446E+02  0.30041369611E+02 -0.25178147109E+01  0.43942916538E+02  0.00000000000E+00 0.  1.
</event>
<event>
 7    1  0.2334784E-009  0.1140361E+03  0.7561462E-02  0.1253273E+00
          1   -1    0    0  501    0  0.00000000000E+00  0.00000000000E+00  0.15878595656E+02  0.15878595656E+02  0.00000000000E+00 0. -1.
         -1   -1    0    0    0  501 -0.00000000000E+00 -0.00000000000E+00 -0.96469992429E+03  0.96469992429E+03  0.00000000000E+00 0.  1.
         25    2    1    2    0    0 -0.16200290206E+02 -0.52762507235E+02 -0.57187462745E+03  0.58799193539E+03  0.12509034731E+03 0.  0.
          5    1    3    3  502    0  0.12678815008E+02 -0.80451754170E+02 -0.49032394318E+03  0.49705963299E+03  0.41800000000E+01 0. -1.
         -5    1    3    3    0  502 -0.28879105214E+02  0.27689246935E+02 -0.81550684269E+02  0.90932302393E+02  0.41800000000E+01 0. -1.
        -11    1    1    2    0    0 -0.37757728147E+02  0.27524307296E+02 -0.11885280604E+03  0.12770756842E+03  0.00000000000E+00 0. -1.
         11    1    1    2    0    0  0.53958018352E+02  0.25238199939E+02 -0.25809389515E+03  0.26487901614E+03  0.00000000000E+00 0.  1.
</event>
<event>
 7    1  0.2334784E-009  0.2196182E+03  0.7561462E-02  0.1134168E+00
         -1   -1    0    0    0  501 -0.00000000000E+00  0.00000000000E+00  0.12684322570E+03  0.12684322570E+03  0.00000000000E+00 0.  1.
          1   -1    0    0  501    0  0.00000000000E+00 -0.00000000000E+00 -0.47616310904E+03  0.47616310904E+03  0.00000000000E+00 0. -1.
         25    2    1    2    0    0 -0.28809971801E+02 -0.21025372748E+03 -0.25893101120E+03  0.35739008905E+03  0.12508302362E+03 0.  0.
          5    1    3    3  502    0 -0.54846742419E+02 -0.17177699077E+03 -0.13596762660E+03  0.22587644320E+03  0.41800000000E+01 0.  1.
         -5    1    3    3    0  502  0.26036770617E+02 -0.38476736714E+02 -0.12296338460E+03  0.13151364585E+03  0.41800000000E+01 0.  1.
        -11    1    1    2    0    0  0.11359036879E+02  0.78874148753E+02  0.86639912876E+01  0.80157493757E+02  0.00000000000E+00 0.  1.
         11    1    1    2    0    0  0.17450934922E+02  0.13137957873E+03 -0.99052863429E+02  0.16545875193E+03  0.00000000000E+00 0. -1.
</event>
<event>
 7    1  0.2334784E-009  0.8136554E+02  0.7561462E-02  0.1325220E+00
          2   -1    0    0  501    0  0.00000000000E+00  0.00000000000E+00  0.71558884975E+02  0.71558884975E+02  0.00000000000E+00 0. -1.
         -2   -1    0    0    0  501 -0.00000000000E+00 -0.00000000000E+00 -0.16774185897E+03  0.16774185897E+03  0.00000000000E+00 0.  1.
         25    2    1    2    0    0 -0.38227476445E+01 -0.89678787398E+01 -0.38520452705E+02  0.13124907246E+03  0.12508979773E+03 0.  0.
          5    1    3    3  502    0  0.16381600355E+02  0.40495270557E+02  0.23093002293E+02  0.49588132881E+02  0.41800000000E+01 0. -1.
         -5    1    3    3    0  502 -0.20204348000E+02 -0.49463149297E+02 -0.61613454998E+02  0.81660939581E+02  0.41800000000E+01 0. -1.
        -11    1    1    2    0    0  0.29584207193E+02 -0.12112143853E+02 -0.66350196164E+02  0.73649697046E+02  0.00000000000E+00 0.  1.
         11    1    1    2    0    0 -0.25761459548E+02  0.21080022593E+02  0.86876748729E+01  0.34401974439E+02  0.00000000000E+00 0. -1.
</event>
<event>
 7    1  0.3855792E-009  0.1396611E+03  0.7561462E-02  0.1213786E+00
         -1   -1    0    0    0  501 -0.00000000000E+00  0.00000000000E+00  0.11167548493E+03  0.11167548493E+03  0.00000000000E+00 0.  1.
          1   -1    0    0  501    0  0.00000000000E+00 -0.00000000000E+00 -0.21696153127E+03  0.21696153127E+03  0.00000000000E+00 0. -1.
         25    2    1    2    0    0  0.10321594439E+03 -0.38928626646E+02 -0.43574431904E+02  0.17239964908E+03  0.12511570140E+03 0.  0.
          5    1    3    3  502    0 -0.15679689172E+02 -0.44739149278E+02 -0.15146753025E+02  0.49943374514E+02  0.41800000000E+01 0.  1.
         -5    1    3    3    0  502  0.11889563356E+03  0.58105226323E+01 -0.28427678879E+02  0.12245627456E+03  0.41800000000E+01 0.  1.
        -11    1    1    2    0    0 -0.23146682862E+02  0.19405663254E+02  0.23064044840E+02  0.38003932141E+02  0.00000000000E+00 0.  1.
         11    1    1    2    0    0 -0.80069261529E+02  0.19522963392E+02 -0.84775659278E+02  0.11823343498E+03  0.00000000000E+00 0. -1.
</event>
<event>
 7    1  0.2334784E-009  0.1101327E+03  0.7561462E-02  0.1260324E+00
          1   -1    0    0  501    0  0.00000000000E+00  0.00000000000E+00  0.25722474215E+02  0.25722474215E+02  0.00000000000E+00 0. -1.
         -1   -1    0    0    0  501 -0.00000000000E+00 -0.00000000000E+00 -0.59916089175E+03  0.59916089175E+03  0.00000000000E+00 0.  1.
         25    2    1    2    0    0  0.28420288974E+02 -0.28783341030E+02 -0.44244663788E+03  0.46156594178E+03  0.12509155722E+03 0.  0.
          5    1    3    3  502    0  0.43207637113E+02 -0.72709229348E+02 -0.29892790666E+03  0.31069100038E+03  0.41800000000E+01 0. -1.
         -5    1    3    3    0  502 -0.14787348139E+02  0.43925888319E+02 -0.14351873122E+03  0.15087494140E+03  0.41800000000E+01 0. -1.
        -11    1    1    2    0    0  0.27010228218E+01 -0.25947151937E+02 -0.73742030087E+02  0.78220439907E+02  0.00000000000E+00 0.  1.
         11    1    1    2    0    0 -0.31121311796E+02  0.54730492967E+02 -0.57249749563E+02  0.85096984278E+02  0.00000000000E+00 0. -1.
</event>
<event>
 7    1  0.2334784E-009  0.1135768E+03  0.7561462E-02  0.1254086E+00
         -1   -1    0    0    0  501 -0.00000000000E+00  0.00000000000E+00  0.16479041432E+02  0.16479041432E+02  0.00000000000E+00 0. -1.
          1   -1    0    0  501    0  0.00000000000E+00 -0.00000000000E+00 -0.85966429315E+03  0.85966429315E+03  0.00000000000E+00 0.  1.
         25    2    1    2    0    0  0.28855682132E+02  0.24085324538E+02 -0.51939289108E+03  0.53556381767E+03  0.12508746638E+03 0.  0.
          5    1    3    3  502    0 -0.45684480141E+02  0.28882493215E+02 -0.17808571610E+03  0.18615387403E+03  0.41800000000E+01 0.  1.
         -5    1    3    3    0  502  0.74540162273E+02 -0.47971686775E+01 -0.34130717498E+03  0.34940994364E+03  0.41800000000E+01 0.  1.
        -11    1    1    2    0    0 -0.18315846132E+02  0.34256690563E+02 -0.71040642893E+02  0.80967672626E+02  0.00000000000E+00 0. -1.
         11    1    1    2    0    0 -0.10539836000E+02 -0.58342015101E+02 -0.25275171775E+03  0.25961184429E+03  0.00000000000E+00 0.  1.
</event>
<event>
 7    1  0.2334784E-009  0.1039409E+03  0.7561462E-02  0.1272220E+00
          1   -1    0    0  501    0  0.00000000000E+00  0.00000000000E+00  0.45600282398E+02  0.45600282398E+02  0.00000000000E+00 0. -1.
         -1   -1    0    0    0  501 -0.00000000000E+00 -0.00000000000E+00 -0.40507684772E+03  0.40507684772E+03  0.00000000000E+00 0.  1.
         25    2    1    2    0    0 -0.64374897509E+02 -0.34634938155E+02 -0.26148250564E+03  0.29893898106E+03  0.12509079610E+03 0.  0.
          5    1    3    3  502    0  0.87696913807E+01  0.61476482362E+01 -0.18527787534E+03  0.18563422248E+03  0.41800000000E+01 0. -1.
         -5    1    3    3    0  502 -0.73144588889E+02 -0.40782586391E+02 -0.76204630302E+02  0.11330475858E+03  0.41800000000E+01 0. -1.
        -11    1    1    2    0    0 -0.21306169408E+02  0.51178179598E+01 -0.62575700645E+01  0.22788200864E+02  0.00000000000E+00 0. -1.
         11    1    1    2    0    0  0.85681066917E+02  0.29517120195E+02 -0.91736489611E+02  0.12894994819E+03  0.00000000000E+00 0.  1.
</event>
<event>
 7    1  0.2334784E-009  0.3562101E+03  0.7561462E-02  0.1060095E+00
          2   -1    0    0  501    0  0.00000000000E+00  0.00000000000E+00  0.19378601061E+04  0.19378601061E+04  0.00000000000E+00 0. -1.
         -2   -1    0    0    0  501 -0.00000000000E+00 -0.00000000000E+00 -0.67412426393E+02  0.67412426393E+02  0.00000000000E+00 0.  1.
         25    2    1    2    0    0 -0.17634302513E+02  0.34394006317E+03  0.98173972581E+03  0.10478866326E+04  0.12509104599E+03 0.  0.
          5    1    3    3  502    0 -0.48036958667E+02  0.32412545991E+03  0.84393398314E+03  0.90532143654E+03  0.41800000000E+01 0.  1.
         -5    1    3    3    0  502  0.30402656154E+02  0.19814603258E+02  0.13780574267E+03  0.14256519602E+03  0.41800000000E+01 0.  1.
        -11    1    1    2    0    0 -0.14939719797E+02 -0.43430554772E+02  0.62052403136E+02  0.77200447216E+02  0.00000000000E+00 0.  1.
         11    1    1    2    0    0  0.32574022310E+02 -0.30050950840E+03  0.82665555074E+03  0.88018545269E+03  0.00000000000E+00 0. -1.
</event>
<event>
 7    1  0.2334784E-009  0.9001417E+02  0.7561462E-02  0.1302817E+00
         -1   -1    0    0    0  501 -0.00000000000E+00  0.00000000000E+00  0.82291544402E+02  0.82291544402E+02  0.00000000000E+00 0.  1.
          1   -1    0    0  501    0  0.00000000000E+00 -0.00000000000E+00 -0.26583487960E+03  0.26583487960E+03  0.00000000000E+00 0. -1.
         25    2    1    2    0    0  0.45361162861E+02 -0.33958200209E+02 -0.19638805417E+03  0.23963942917E+03  0.12509194113E+03 0.  0.
          5    1    3    3  502    0 -0.11332861371E+02 -0.34900552415E+01 -0.16916508356E+03  0.16963169553E+03  0.41800000000E+01 0.  1.
         -5    1    3    3    0  502  0.56694024232E+02 -0.30468144968E+02 -0.27222970614E+02  0.70007733648E+02  0.41800000000E+01 0.  1.
        -11    1    1    2    0    0 -0.20850567414E+02  0.62176869321E+02  0.23430194344E+02  0.69639667195E+02  0.00000000000E+00 0.  1.
         11    1    1    2    0    0 -0.24510595447E+02 -0.28218669112E+02 -0.10585475374E+02  0.38847327637E+02  0.00000000000E+00 0. -1.
</event>
<event>
 7    1  0.2334784E-009  0.1138830E+03  0.7561462E-02  0.1253544E+00
          3   -1    0    0  501    0  0.00000000000E+00  0.00000000000E+00  0.28554751013E+02  0.28554751013E+02  0.00000000000E+00 0.  1.
         -3   -1    0    0    0  501 -0.00000000000E+00 -0.00000000000E+00 -0.60096611858E+03  0.60096611858E+03  0.00000000000E+00 0. -1.
         25    2    1    2    0    0  0.33521607318E+02  0.59256873721E+02 -0.30048633026E+03  0.33252553414E+03  0.12508445524E+03 0.  0.
          5    1    3    3  502    0  0.60797237787E+02  0.63042056667E+02 -0.28966487643E+03  0.30264470600E+03  0.41800000000E+01 0. -1.
         -5    1    3    3    0  502 -0.27275630469E+02 -0.37851829461E+01 -0.10821453828E+02  0.29880828141E+02  0.41800000000E+01 0. -1.
        -11    1    1    2    0    0 -0.80187655339E+01 -0.79356399510E+02 -0.13993706393E+03  0.16107178711E+03  0.00000000000E+00 0. -1.
         11    1    1    2    0    0 -0.25502841784E+02  0.20099525790E+02 -0.13198797338E+03  0.13592354834E+03  0.00000000000E+00 0.  1.
</event>
<event>
 7    1  0.2334784E-009  0.1041869E+03  0.7561462E-02  0.1271730E+00
         -1   -1    0    0    0  501 -0.00000000000E+00  0.00000000000E+00  0.27515868005E+02  0.27515868005E+02  0.00000000000E+00 0.  1.
          1   -1    0    0  501    0  0.00000000000E+00 -0.00000000000E+00 -0.93433665939E+03  0.93433665939E+03  0.00000000000E+00 0. -1.
         25    2    1    2    0    0 -0.37842093016E+02 -0.86171340959E+02 -0.69367744472E+03  0.71113155340E+03  0.12514857141E+03 0.  0.
          5    1    3    3  502    0 -0.35574317903E+02 -0.85734158169E+02 -0.69831813681E+03  0.70447254778E+03  0.41800000000E+01 0.  1.
         -5    1    3    3    0  502 -0.22677751132E+01 -0.43718278969E+00  0.46406920956E+01  0.66590056226E+01  0.41800000000E+01 0.  1.
        -11    1    1    2    0    0 -0.15304186921E+02  0.12060718383E+02 -0.11542448204E+03  0.11705763589E+03  0.00000000000E+00 0. -1.
         11    1    1    2    0    0  0.53146279937E+02  0.74110622576E+02 -0.97718864622E+02  0.13366333810E+03  0.00000000000E+00 0.  1.
</event>
<event>
 7    1  0.2334784E-009  0.1378085E+03  0.7561462E-02  0.1216309E+00
         -2   -1    0    0    0  501 -0.00000000000E+00  0.00000000000E+00  0.48387427745E+02  0.48387427745E+02  0.00000000000E+00 0.  1.
          2   -1    0    0  501    0  0.00000000000E+00 -0.00000000000E+00 -0.60128263428E+03  0.60128263428E+03  0.00000000000E+00 0. -1.
         25    2    1    2    0    0  0.57039743879E+02  0.10706043068E+03 -0.19586902543E+03  0.26215943733E+03  0.12508967686E+03 0.  0.
          5    1    3    3  502    0  0.62252399298E+02  0.10496493529E+03 -0.79782682608E+02  0.14586208453E+03  0.41800000000E+01 0.  1.
         -5    1    3    3    0  502 -0.52126554196E+01  0.20954953844E+01 -0.11608634283E+03  0.11629735280E+03  0.41800000000E+01 0.  1.
        -11    1    1    2    0    0 -0.77296498557E+02 -0.70053999463E+02 -0.20896897150E+03  0.23356014767E+03  0.00000000000E+00 0.  1.
         11    1    1    2    0    0  0.20256754679E+02 -0.37006431214E+02 -0.14805720961E+03  0.15395047703E+03  0.00000000000E+00 0. -1.
</event>
<event>
 7    1  0.2334784E-009  0.1443693E+03  0.7561462E-02  0.1207568E+00
          1   -1    0    0  501    0  0.00000000000E+00  0.00000000000E+00  0.52380148596E+03  0.52380148596E+03  0.00000000000E+00 0. -1.
         -1   -1    0    0    0  501 -0.00000000000E+00 -0.00000000000E+00 -0.49165229840E+02  0.49165229840E+02  0.00000000000E+00 0.  1.
         25    2    1    2    0    0 -0.63732525007E+01  0.10369737196E+03  0.18016728793E+03  0.24269772986E+03  0.12509265821E+03 0.  0.
          5    1    3    3  502    0 -0.18021091359E+02 -0.19599478407E+02  0.76590751513E+02  0.81194303402E+02  0.41800000000E+01 0.  1.
         -5    1    3    3    0  502  0.11647838858E+02  0.12329685036E+03  0.10357653642E+03  0.16150342645E+03  0.41800000000E+01 0.  1.
        -11    1    1    2    0    0  0.10684344728E+02  0.15373783662E+02  0.86779727143E+01  0.20635301229E+02  0.00000000000E+00 0.  1.
         11    1    1    2    0    0 -0.43110922271E+01 -0.11907115562E+03  0.28579099547E+03  0.30963368471E+03  0.00000000000E+00 0. -1.
</event>
<event>
 7    1  0.2334784E-009  0.2337433E+03  0.7561462E-02  0.1124032E+00
         -2   -1    0    0    0  501 -0.00000000000E+00  0.00000000000E+00  0.26204192476E+03  0.26204192476E+03  0.00000000000E+00 0.  1.
          2   -1    0    0  501    0  0.00000000000E+00 -0.00000000000E+00 -0.38685930963E+03  0.38685930963E+03  0.00000000000E+00 0. -1.
         25    2    1    2    0    0 -0.72311200938E+02  0.20865832905E+03 -0.26895629111E+03  0.36980237458E+03  0.12509636946E+03 0.  0.
          5    1    3    3  502    0 -0.20814105446E+02  0.15258674299E+03 -0.97924060782E+02  0.18254461154E+03  0.41800000000E+01 0.  1.
         -5    1    3    3    0  502 -0.51497095492E+02  0.56071586061E+02 -0.17103223033E+03  0.18725776304E+03  0.41800000000E+01 0.  1.
        -11    1    1    2    0    0  0.91812974374E+02 -0.15576672066E+03  0.94657441055E+02  0.20409048159E+03  0.00000000000E+00 0.  1.
         11    1    1    2    0    0 -0.19501773435E+02 -0.52891608390E+02  0.49481465193E+02  0.75008378218E+02  0.00000000000E+00 0. -1.
</event>
<event>
 7    1  0.2334784E-009  0.1013065E+03  0.7561462E-02  0.1277572E+00
         -1   -1    0    0    0  501 -0.00000000000E+00  0.00000000000E+00  0.22158614436E+03  0.22158614436E+03  0.00000000000E+00 0.  1.
          1   -1    0    0  501    0  0.00000000000E+00 -0.00000000000E+00 -0.93549120546E+02  0.93549120546E+02  0.00000000000E+00 0. -1.
         25    2    1    2    0    0 -0.36962465553E+02 -0.35163502749E+02 -0.17667604281E+02  0.13624388841E+03  0.12509019587E+03 0.  0.
          5    1    3    3  502    0 -0.42044473193E+02 -0.61536970470E+02  0.30739248856E+02  0.80727382473E+02  0.41800000000E+01 0.  1.
         -5    1    3    3    0  502  0.50820076400E+01  0.26373467721E+02 -0.48406853137E+02  0.55516505942E+02  0.41800000000E+01 0.  1.
        -11    1    1    2    0    0  0.52921530522E+02 -0.91309535747E+01  0.56043832737E+02  0.77620705317E+02  0.00000000000E+00 0. -1.
         11    1    1    2    0    0 -0.15959064969E+02  0.44294456324E+02  0.89660795359E+02  0.10127067117E+03  0.00000000000E+00 0.  1.
</event>
<event>
 7    1  0.2334784E-009  0.1038433E+03  0.7561462E-02  0.1272415E+00
         -2   -1    0    0    0  501 -0.00000000000E+00  0.00000000000E+00  0.22299257084E+02  0.22299257084E+02  0.00000000000E+00 0.  1.
          2   -1    0    0  501    0  0.00000000000E+00 -0.00000000000E+00 -0.13165217292E+04  0.13165217292E+04  0.00000000000E+00 0. -1.
         25    2    1    2    0    0 -0.45764104327E+02 -0.42907115538E+02 -0.11463676183E+04  0.11548774704E+04  0.12509149243E+03 0.  0.
          5    1    3    3  502    0 -0.56094668555E+02 -0.18284890184E+01 -0.20607315790E+03  0.21362016295E+03  0.41800000000E+01 0. -1.
         -5    1    3    3    0  502  0.10330564228E+02 -0.41078626520E+02 -0.94029446043E+03  0.94125730745E+03  0.41800000000E+01 0. -1.
        -11    1    1    2    0    0  0.42423304116E+02 -0.19257119929E+02 -0.72785768095E+02  0.86419566287E+02  0.00000000000E+00 0. -1.
         11    1    1    2    0    0  0.33408002111E+01  0.62164235467E+02 -0.75069085671E+02  0.97523949575E+02  0.00000000000E+00 0.  1.
</event>
<event>
 7    1  0.2334784E-009  0.9221899E+02  0.7561462E-02  0.1297565E+00
         -1   -1    0    0    0  501 -0.00000000000E+00  0.00000000000E+00  0.33504789800E+02  0.33504789800E+02  0.00000000000E+00 0.  1.
          1   -1    0    0  501    0  0.00000000000E+00 -0.00000000000E+00 -0.38448151811E+03  0.38448151811E+03  0.00000000000E+00 0. -1.
         25    2    1    2    0    0 -0.10042657582E+02  0.71804443682E+01 -0.25706896334E+03  0.28615451347E+03  0.12509012717E+03 0.  0.
          5    1    3    3  502    0 -0.53976191603E+02  0.38809051426E+02 -0.10171004410E+03  0.12158115480E+03  0.41800000000E+01 0.  1.
         -5    1    3    3    0  502  0.43933534021E+02 -0.31628607057E+02 -0.15535891924E+03  0.16457335867E+03  0.41800000000E+01 0.  1.
        -11    1    1    2    0    0 -0.15244772528E+02 -0.27265510229E+02  0.13316457023E+01  0.31266346408E+02  0.00000000000E+00 0.  1.
         11    1    1    2    0    0  0.25287430110E+02  0.20085065860E+02 -0.95239410676E+02  0.10056544803E+03  0.00000000000E+00 0. -1.
</event>
<event>
 7    1  0.2334784E-009  0.8071549E+02  0.7561462E-02  0.1327033E+00
          1   -1    0    0  501    0  0.00000000000E+00  0.00000000000E+00  0.23772281704E+03  0.23772281704E+03  0.00000000000E+00 0. -1.
         -1   -1    0    0    0  501 -0.00000000000E+00 -0.00000000000E+00 -0.57874370267E+02  0.57874370267E+02  0.00000000000E+00 0.  1.
         25    2    1    2    0    0  0.16046450027E+02  0.41759714621E+02  0.10548498950E+03  0.16963207270E+03  0.12508634919E+03 0.  0.
          5    1    3    3  502    0  0.35444546938E+02  0.19521737432E+02 -0.16618451291E+02  0.43943821674E+02  0.41800000000E+01 0.  1.
         -5    1    3    3    0  502 -0.19398096910E+02  0.22237977189E+02  0.12210344079E+03  0.12568825103E+03  0.41800000000E+01 0.  1.
        -11    1    1    2    0    0  0.12009177115E+02 -0.57524776960E+02  0.18700385866E+02  0.61668668956E+02  0.00000000000E+00 0. -1.
         11    1    1    2    0    0 -0.28055627143E+02  0.15765062338E+02  0.55663071414E+02  0.64296445657E+02  0.00000000000E+00 0.  1.
</event>
<event>
 7    1  0.2334784E-009  0.1154014E+03  0.7561462E-02  0.1250882E+00
          2   -1    0    0  501    0  0.00000000000E+00  0.00000000000E+00  0.38170309846E+02  0.38170309846E+02  0.00000000000E+00 0. -1.
         -2   -1    0    0    0  501 -0.00000000000E+00 -0.00000000000E+00 -0.36328218960E+03  0.36328218960E+03  0.00000000000E+00 0.  1.
         25    2    1    2    0    0  0.34346552693E+01 -0.21982169971E+02 -0.21002643558E+03  0.24546668822E+03  0.12509108174E+03 0.  0.
          5    1    3    3  502    0  0.12194700606E+02 -0.72939180595E+02 -0.13914826106E+03  0.15763421502E+03  0.41800000000E+01 0. -1.
         -5    1    3    3    0  502 -0.87600453370E+01  0.50957010624E+02 -0.70878174518E+02  0.87832473203E+02  0.41800000000E+01 0. -1.
        -11    1    1    2    0    0 -0.39784387868E+02  0.46361574418E+02 -0.59989188883E+02  0.85620651034E+02  0.00000000000E+00 0.  1.
         11    1    1    2    0    0  0.36349732599E+02 -0.24379404447E+02 -0.55096255294E+02  0.70365160190E+02  0.00000000000E+00 0. -1.
</event>
<event>
 7    1  0.2334784E-009  0.1276815E+03  0.7561462E-02  0.1230937E+00
          2   -1    0    0  501    0  0.00000000000E+00  0.00000000000E+00  0.11991557624E+04  0.11991557624E+04  0.00000000000E+00 0. -1.
         -2   -1    0    0    0  501 -0.00000000000E+00 -0.00000000000E+00 -0.16930245221E+02  0.16930245221E+02  0.00000000000E+00 0.  1.
         25    2    1    2    0    0  0.56288084456E+02  0.65723441694E+02  0.81782854155E+03  0.83185300326E+03  0.12509187187E+03 0.  0.
          5    1    3    3  502    0 -0.14072496982E+02 -0.21154436002E+02  0.34541630710E+03  0.34637471464E+03  0.41800000000E+01 0. -1.
         -5    1    3    3    0  502  0.70360581438E+02  0.86877877696E+02  0.47241223445E+03  0.48547828861E+03  0.41800000000E+01 0. -1.
        -11    1    1    2    0    0 -0.68348330706E+02 -0.75770734723E+02  0.27197882911E+03  0.29049127704E+03  0.00000000000E+00 0.  1.
         11    1    1    2    0    0  0.12060246250E+02  0.10047293029E+02  0.92418146470E+02  0.93741727282E+02  0.00000000000E+00 0. -1.
</event>
<event>
 7    1  0.2334784E-009  0.9488727E+02  0.7561462E-02  0.1291430E+00
          2   -1    0    0  501    0  0.00000000000E+00  0.00000000000E+00  0.18156010525E+03  0.18156010525E+03  0.00000000000E+00 0. -1.
         -2   -1    0    0    0  501 -0.00000000000E+00 -0.00000000000E+00 -0.12656260401E+03  0.12656260401E+03  0.00000000000E+00 0.  1.
         25    2    1    2    0    0  0.19658257905E+01 -0.47723265308E+02 -0.65227348062E+02  0.14894258108E+03  0.12509161043E+03 0.  0.
          5    1    3    3  502    0  0.13037906906E+02  0.23324822213E+02  0.22679027257E+02  0.35296529929E+02  0.41800000000E+01 0.  1.
         -5    1    3    3    0  502 -0.11072081115E+02 -0.71048087520E+02 -0.87906375319E+02  0.11364605115E+03  0.41800000000E+01 0.  1.
        -11    1    1    2    0    0 -0.39547158179E+02  0.24832453320E+02  0.22146498008E+02  0.51682645366E+02  0.00000000000E+00 0.  1.
         11    1    1    2    0    0  0.37581332389E+02  0.22890811987E+02  0.98078351301E+02  0.10749748281E+03  0.00000000000E+00 0. -1.
</event>
<event>
 7    1  0.2334784E-009  0.1253689E+03  0.7561462E-02  0.1234494E+00
          3   -1    0    0  501    0  0.00000000000E+00  0.00000000000E+00  0.31029061411E+03  0.31029061411E+03  0.00000000000E+00 0. -1.
         -3   -1    0    0    0  501 -0.00000000000E+00 -0.00000000000E+00 -0.53125501491E+02  0.53125501491E+02  0.00000000000E+00 0.  1.
         25    2    1    2    0    0 -0.53542720298E+02  0.12575725342E+02  0.12025615064E+03  0.18200726596E+03  0.12506051068E+03 0.  0.
          5    1    3    3  502    0 -0.71787010494E+02 -0.37132130354E+02  0.89357487553E+02  0.12055871168E+03  0.41800000000E+01 0. -1.
         -5    1    3    3    0  502  0.18244290195E+02  0.49707855696E+02  0.30898663089E+02  0.61448554282E+02  0.41800000000E+01 0. -1.
        -11    1    1    2    0    0  0.34772584545E+02  0.44577955936E+02  0.48582795774E+02  0.74542704784E+02  0.00000000000E+00 0. -1.
         11    1    1    2    0    0  0.18770135753E+02 -0.57153681278E+02  0.88326166202E+02  0.10686614485E+03  0.00000000000E+00 0.  1.
</event>
<event>
 7    1  0.2334784E-009  0.6588230E+02  0.7561462E-02  0.1374683E+00
          1   -1    0    0  501    0  0.00000000000E+00  0.00000000000E+00  0.21720301716E+02  0.21720301716E+02  0.00000000000E+00 0. -1.
         -1   -1    0    0    0  501 -0.00000000000E+00 -0.00000000000E+00 -0.67646491934E+03  0.67646491934E+03  0.00000000000E+00 0.  1.
         25    2    1    2    0    0  0.12604760141E+02 -0.36815970250E+02 -0.47076525548E+03  0.48865469673E+03  0.12509672747E+03 0.  0.
          5    1    3    3  502    0 -0.90669997821E+01 -0.16210856596E+02 -0.45344641166E+03  0.45384592430E+03  0.41800000000E+01 0.  1.
         -5    1    3    3    0  502  0.21671759923E+02 -0.20605113654E+02 -0.17318843824E+02  0.34808772432E+02  0.41800000000E+01 0.  1.
        -11    1    1    2    0    0 -0.48472350602E+01 -0.22344596833E+02 -0.88525902280E+01  0.24518259504E+02  0.00000000000E+00 0. -1.
         11    1    1    2    0    0 -0.77575250803E+01  0.59160567083E+02 -0.17512677191E+03  0.18501226482E+03  0.00000000000E+00 0.  1.
</event>
<event>
 7    1  0.2334784E-009  0.1116309E+03  0.7561462E-02  0.1257579E+00
         -1   -1    0    0    0  501 -0.00000000000E+00  0.00000000000E+00  0.56376778676E+02  0.56376778676E+02  0.00000000000E+00 0.  1.
          1   -1    0    0  501    0  0.00000000000E+00 -0.00000000000E+00 -0.26060156834E+03  0.26060156834E+03  0.00000000000E+00 0. -1.
         25    2    1    2    0    0  0.29555735259E+02 -0.39430605787E+02 -0.13938101523E+03  0.19362149026E+03  0.12503559462E+03 0.  0.
          5    1    3    3  502    0  0.37867735327E+02  0.32521167105E+02 -0.20024705080E+02  0.53944906175E+02  0.41800000000E+01 0. -1.
         -5    1    3    3    0  502 -0.83120000673E+01 -0.71951772892E+02 -0.11935631015E+03  0.13967658408E+03  0.41800000000E+01 0. -1.
        -11    1    1    2    0    0  0.31495197523E+02  0.12282147540E+02 -0.39266065234E+02  0.51813342819E+02  0.00000000000E+00 0. -1.
         11    1    1    2    0    0 -0.61050932782E+02  0.27148458247E+02 -0.25577709192E+02  0.71543513936E+02  0.00000000000E+00 0.  1.
</event>
<event>
 7    1  0.2334784E-009  0.1094132E+03  0.7561462E-02  0.1261660E+00
          3   -1    0    0  501    0  0.00000000000E+00  0.00000000000E+00  0.51474768837E+02  0.51474768837E+02  0.00000000000E+00 0. -1.
         -3   -1    0    0    0  501 -0.00000000000E+00 -0.00000000000E+00 -0.29181397855E+03  0.29181397855E+03  0.00000000000E+00 0.  1.
         25    2    1    2    0    0 -0.26007347974E+02 -0.22553995601E+02 -0.77413504335E+02  0.15107729457E+03  0.12508570428E+03 0.  0.
          5    1    3    3  502    0 -0.68191204748E+02 -0.42750548712E+02 -0.61915451029E+02  0.10162994291E+03  0.41800000000E+01 0. -1.
         -5    1    3    3    0  502  0.42183856773E+02  0.20196553111E+02 -0.15498053306E+02  0.49447351659E+02  0.41800000000E+01 0. -1.
        -11    1    1    2    0    0 -0.28742154228E+02  0.22544215392E+02 -0.11060857212E+03  0.11648437365E+03  0.00000000000E+00 0. -1.
         11    1    1    2    0    0  0.54749502202E+02  0.97802092826E-02 -0.52317133252E+02  0.75727079164E+02  0.00000000000E+00 0.  1.
</event>
<event>
 7    1  0.2334784E-009  0.9957489E+02  0.7561462E-02  0.1281192E+00
          1   -1    0    0  501    0  0.00000000000E+00  0.00000000000E+00  0.28537082550E+03  0.28537082550E+03  0.00000000000E+00 0. -1.
         -1   -1    0    0    0  501 -0.00000000000E+00 -0.00000000000E+00 -0.47183620417E+02  0.47183620417E+02  0.00000000000E+00 0.  1.
         25    2    1    2    0    0 -0.42556754370E+02  0.68502174376E+01  0.12750970630E+03  0.18374899508E+03  0.12508782983E+03 0.  0.
          5    1    3    3  502    0 -0.26808986065E+02  0.49120912970E+02  0.89457324633E+01  0.56825032812E+02  0.41800000000E+01 0. -1.
         -5    1    3    3    0  502 -0.15747768305E+02 -0.42270695532E+02  0.11856397383E+03  0.12692396227E+03  0.41800000000E+01 0. -1.
        -11    1    1    2    0    0  0.68960145953E+02  0.42465585705E+01  0.64810374021E+02  0.94730774146E+02  0.00000000000E+00 0.  1.
         11    1    1    2    0    0 -0.26403391582E+02 -0.11096776008E+02  0.45867124768E+02  0.54074676692E+02  0.00000000000E+00 0. -1.
</event>
<event>
 7    1  0.2334784E-009  0.1496143E+03  0.7561462E-02  0.1200948E+00
          1   -1    0    0  501    0  0.00000000000E+00  0.00000000000E+00  0.54714707220E+03  0.54714707220E+03  0.00000000000E+00 0. -1.
         -1   -1    0    0    0  501 -0.00000000000E+00 -0.00000000000E+00 -0.47230295835E+02  0.47230295835E+02  0.00000000000E+00 0.  1.
         25    2    1    2    0    0  0.85282189043E+02  0.80927046777E+02  0.28478817602E+03  0.33252253888E+03  0.12507875516E+03 0.  0.
          5    1    3    3  502    0 -0.18701530098E+02 -0.89294302421E+01  0.99910755523E+02  0.10212303081E+03  0.41800000000E+01 0.  1.
         -5    1    3    3    0  502  0.10398371914E+03  0.89856477020E+02  0.18487742049E+03  0.23039950807E+03  0.41800000000E+01 0.  1.
        -11    1    1    2    0    0 -0.26252713581E+02 -0.77093397283E+02  0.16622528053E+03  0.18510386480E+03  0.00000000000E+00 0. -1.
         11    1    1    2    0    0 -0.59029475462E+02 -0.38336494944E+01  0.48903319823E+02  0.76750964368E+02  0.00000000000E+00 0.  1.
</event>
<event>
 7    1  0.2334784E-009  0.1458664E+03  0.7561462E-02  0.1205646E+00
         -1   -1    0    0    0  501 -0.00000000000E+00  0.00000000000E+00  0.20821002811E+02  0.20821002811E+02  0.00000000000E+00 0.  1.
          1   -1    0    0  501    0  0.00000000000E+00 -0.00000000000E+00 -0.10849347410E+04  0.10849347410E+04  0.00000000000E+00 0. -1.
         25    2    1    2    0    0 -0.61300229934E+02 -0.83672581580E+02 -0.54394939991E+03  0.56770406756E+03  0.12509252402E+03 0.  0.
          5    1    3    3  502    0 -0.24356457434E+02  0.28208397355E+02 -0.71167664014E+02  0.80444139011E+02  0.41800000000E+01 0.  1.
         -5    1    3    3    0  502 -0.36943772500E+02 -0.11188097893E+03 -0.47278173590E+03  0.48725992855E+03  0.41800000000E+01 0.  1.
        -11    1    1    2    0    0  0.48263868636E+02  0.10258042826E+03 -0.45667660030E+03  0.47053763138E+03  0.00000000000E+00 0. -1.
         11    1    1    2    0    0  0.13036361298E+02 -0.18907846682E+02 -0.63487738019E+02  0.67514044916E+02  0.00000000000E+00 0.  1.
</event>
<event>
 7    1  0.2334784E-009  0.1170316E+03  0.7561462E-02  0.1248076E+00
         -2   -1    0    0    0  501 -0.00000000000E+00  0.00000000000E+00  0.13460767836E+03  0.13460767836E+03  0.00000000000E+00 0.  1.
          2   -1    0    0  501    0  0.00000000000E+00 -0.00000000000E+00 -0.14959511127E+03  0.14959511127E+03  0.00000000000E+00 0. -1.
         25    2    1    2    0    0  0.26435971950E+02 -0.80946584507E+02 -0.31302331017E+02  0.15452533575E+03  0.12508810218E+03 0.  0.
          5    1    3    3  502    0  0.38649564785E+02 -0.83982532297E+02  0.25663621550E+02  0.96036183078E+02  0.41800000000E+01 0. -1.
         -5    1    3    3    0  502 -0.12213592835E+02  0.30359477896E+01 -0.56965952567E+02  0.58489152676E+02  0.41800000000E+01 0. -1.
        -11    1    1    2    0    0 -0.30768667213E+02 -0.13580186165E+02  0.87361969214E+01  0.34748431259E+02  0.00000000000E+00 0.  1.
         11    1    1    2    0    0  0.43326952624E+01  0.94526770672E+02  0.75787011846E+01  0.94929022609E+02  0.00000000000E+00 0. -1.
</event>
<event>
 7    1  0.2815389E-009  0.1832308E+03  0.7561462E-02  0.1164712E+00
          2   -1    0    0  501    0  0.00000000000E+00  0.00000000000E+00  0.11229456276E+04  0.11229456276E+04  0.00000000000E+00 0.  1.
         -2   -1    0    0    0  501 -0.00000000000E+00 -0.00000000000E+00 -0.44742026874E+02  0.44742026874E+02  0.00000000000E+00 0. -1.
         25    2    1    2    0    0 -0.95124652267E+02 -0.14583998111E+03  0.32537061793E+03  0.38966254864E+03  0.12511140334E+03 0.  0.
          5    1    3    3  502    0 -0.38523492626E+02 -0.71914913808E+02  0.26810922043E+03  0.28027814897E+03  0.41800000000E+01 0. -1.
         -5    1    3    3    0  502 -0.56601159641E+02 -0.73925067299E+02  0.57261397499E+02  0.10938439967E+03  0.41800000000E+01 0. -1.
        -11    1    1    2    0    0  0.46062332043E+02  0.13315431587E+03  0.46911622665E+03  0.48981817481E+03  0.00000000000E+00 0. -1.
         11    1    1    2    0    0  0.49062320224E+02  0.12685665236E+02  0.28371675613E+03  0.28820693100E+03  0.00000000000E+00 0.  1.
</event>
<event>
 7    1  0.2334784E-009  0.9628681E+02  0.7561462E-02  0.1288304E+00
          1   -1    0    0  501    0  0.00000000000E+00  0.00000000000E+00  0.34409790372E+03  0.34409790372E+03  0.00000000000E+00 0. -1.
         -1   -1    0    0    0  501 -0.00000000000E+00 -0.00000000000E+00 -0.34346462495E+02  0.34346462495E+02  0.00000000000E+00 0.  1.
         25    2    1    2    0    0 -0.96224578865E+01  0.62952992841E+01  0.22064361769E+03  0.25389825563E+03  0.12509394747E+03 0.  0.
          5    1    3    3  502    0 -0.67002146809E+01  0.64098476009E+02  0.88352872847E+02  0.10944044062E+03  0.41800000000E+01 0. -1.
         -5    1    3    3    0  502 -0.29222432055E+01 -0.57803176725E+02  0.13229074484E+03  0.14445781500E+03  0.41800000000E+01 0. -1.
        -11    1    1    2    0    0  0.10894236922E+02  0.30890469078E+02  0.57430380013E+01  0.33254893827E+02  0.00000000000E+00 0.  1.
         11    1    1    2    0    0 -0.12717790352E+01 -0.37185768362E+02  0.83364785535E+02  0.91291216762E+02  0.00000000000E+00 0. -1.
</event>
<event>
 7    1  0.2334784E-009  0.8379902E+02  0.7561462E-02  0.1318603E+00
         -1   -1    0    0    0  501 -0.00000000000E+00  0.00000000000E+00  0.37042550062E+02  0.37042550062E+02  0.00000000000E+00 0.  1.
          1   -1    0    0  501    0  0.00000000000E+00 -0.00000000000E+00 -0.35693571627E+03  0.35693571627E+03  0.00000000000E+00 0. -1.
         25    2    1    2    0    0 -0.27531070928E+02  0.14321001908E+02 -0.21063507653E+03  0.24693612039E+03  0.12508901282E+03 0.  0.
          5    1    3    3  502    0 -0.31742093231E+02  0.36240727127E+02 -0.21781591184E+03  0.22311923860E+03  0.41800000000E+01 0.  1.
         -5    1    3    3    0  502  0.42110223029E+01 -0.21919725219E+02  0.71808353055E+01  0.23816881790E+02  0.41800000000E+01 0.  1.
        -11    1    1    2    0    0  0.24276062805E+02  0.37465820200E+02 -0.36437016174E+02  0.57625264044E+02  0.00000000000E+00 0.  1.
         11    1    1    2    0    0  0.32550081236E+01 -0.51786822108E+02 -0.72821073504E+02  0.89416881897E+02  0.00000000000E+00 0. -1.
</event>
<event>
 7    1  0.2334784E-009  0.1599280E+03  0.7561462E-02  0.1188778E+00
         -2   -1    0    0    0  501 -0.00000000000E+00  0.00000000000E+00  0.69027491778E+02  0.69027491778E+02  0.00000000000E+00 0.  1.
          2   -1    0    0  501    0  0.00000000000E+00 -0.00000000000E+00 -0.48663817900E+03  0.48663817900E+03  0.00000000000E+00 0. -1.
         25    2    1    2    0    0 -0.12458800733E+03 -0.77221692870E+02 -0.23682943817E+03  0.30532988589E+03  0.12511113065E+03 0.  0.
          5    1    3    3  502    0 -0.10522176685E+02 -0.55566549493E+02 -0.21478893745E+02  0.60639697405E+02  0.41800000000E+01 0. -1.
         -5    1    3    3    0  502 -0.11406583064E+03 -0.21655143377E+02 -0.21535054443E+03  0.24469018848E+03  0.41800000000E+01 0. -1.
        -11    1    1    2    0    0  0.68398739657E+02  0.48628289661E+02 -0.16535021751E+03  0.18542867246E+03  0.00000000000E+00 0. -1.
         11    1    1    2    0    0  0.56189267672E+02  0.28593403209E+02 -0.15431031539E+02  0.64907112422E+02  0.00000000000E+00 0.  1.
</event>
<event>
 7    1  0.2334784E-009  0.8066439E+02  0.7561462E-02  0.1327177E+00
          4   -1    0    0  501    0  0.00000000000E+00  0.00000000000E+00  0.50485425190E+03  0.50485425190E+03  0.00000000000E+00 0. -1.
         -4   -1    0    0    0  501 -0.00000000000E+00 -0.00000000000E+00 -0.26989997964E+02  0.26989997964E+02  0.00000000000E+00 0.  1.
         25    2    1    2    0    0 -0.42093680802E+00  0.34729740221E+02  0.20671732955E+03  0.24410176330E+03  0.12508910611E+03 0.  0.
          5    1    3    3  502    0  0.27172526342E+02  0.21324218384E+02  0.21009561889E+03  0.21295706129E+03  0.41800000000E+01 0. -1.
         -5    1    3    3    0  502 -0.27593463150E+02  0.13405521837E+02 -0.33782893396E+01  0.31144702009E+02  0.41800000000E+01 0. -1.
        -11    1    1    2    0    0  0.43916266221E+02 -0.83433695736E+01  0.14462292217E+03  0.15137384144E+03  0.00000000000E+00 0.  1.
         11    1    1    2    0    0 -0.43495329413E+02 -0.26386370648E+02  0.12652400222E+03  0.13636864513E+03  0.00000000000E+00 0. -1.
</event>
<event>
 7    1  0.2334784E-009  0.1071672E+03  0.7561462E-02  0.1265908E+00
          1   -1    0    0  501    0  0.00000000000E+00  0.00000000000E+00  0.23767441455E+03  0.23767441455E+03  0.00000000000E+00 0. -1.
         -1   -1    0    0    0  501 -0.00000000000E+00 -0.00000000000E+00 -0.58322228729E+02  0.58322228729E+02  0.00000000000E+00 0.  1.
         25    2    1    2    0    0 -0.27461916887E+02 -0.34338018209E+02  0.13018183526E+03  0.18581751115E+03  0.12509029078E+03 0.  0.
          5    1    3    3  502    0  0.82406088400E+00  0.45002110147E+02  0.65266654933E+02  0.79391924276E+02  0.41800000000E+01 0. -1.
         -5    1    3    3    0  502 -0.28285977771E+02 -0.79340128356E+02  0.64915180325E+02  0.10642558688E+03  0.41800000000E+01 0. -1.
        -11    1    1    2    0    0  0.49546663688E+02  0.76156672037E+01  0.13739000746E+00  0.50128725753E+02  0.00000000000E+00 0.  1.
         11    1    1    2    0    0 -0.22084746802E+02  0.26722351006E+02  0.49032960551E+02  0.60050406368E+02  0.00000000000E+00 0. -1.
</event>
<event>
 7    1  0.2334784E-009  0.1088000E+03  0.7561462E-02  0.1262808E+00
         -2   -1    0    0    0  501 -0.00000000000E+00  0.00000000000E+00  0.62878134930E+02  0.62878134930E+02  0.00000000000E+00 0.  1.
          2   -1    0    0  501    0  0.00000000000E+00 -0.00000000000E+00 -0.26588391265E+03  0.26588391265E+03  0.00000000000E+00 0. -1.
         25    2    1    2    0    0  0.32056930355E+02 -0.44843682300E+02 -0.56101555048E+02  0.14775423791E+03  0.12508128443E+03 0.  0.
          5    1    3    3  502    0 -0.93975873275E+01  0.27257539335E+02 -0.57510195287E+02  0.64468465626E+02  0.41800000000E+01 0. -1.
         -5    1    3    3    0  502  0.41454517683E+02 -0.72101221635E+02  0.14086402392E+01  0.83285772283E+02  0.41800000000E+01 0. -1.
        -11    1    1    2    0    0 -0.16550624639E+01  0.67347691245E+02 -0.84957645728E+02  0.10842625289E+03  0.00000000000E+00 0.  1.
         11    1    1    2    0    0 -0.30401867891E+02 -0.22504008945E+02 -0.61946576944E+02  0.72581556782E+02  0.00000000000E+00 0. -1.
</event>
<event>
 7    1  0.2334784E-009  0.1651555E+03  0.7561462E-02  0.1182996E+00
         -1   -1    0    0    0  501 -0.00000000000E+00  0.00000000000E+00  0.10213024396E+03  0.10213024396E+03  0.00000000000E+00 0.  1.
          1   -1    0    0  501    0  0.00000000000E+00 -0.00000000000E+00 -0.34423486151E+03  0.34423486151E+03  0.00000000000E+00 0. -1.
         25    2    1    2    0    0  0.76191599769E+02 -0.11959781154E+03 -0.63759241951E+02  0.19955303412E+03  0.12508947234E+03 0.  0.
          5    1    3    3  502    0  0.72839119430E+02 -0.14003263094E+03 -0.75892693292E+02  0.17519089115E+03  0.41800000000E+01 0. -1.
         -5    1    3    3    0  502  0.33524803393E+01  0.20434819399E+02  0.12133451341E+02  0.24362142963E+02  0.41800000000E+01 0. -1.
        -11    1    1    2    0    0  0.78941690898E+01  0.16140813365E+02  0.63236199604E+01  0.19048147708E+02  0.00000000000E+00 0.  1.
         11    1    1    2    0    0 -0.84085768859E+02  0.10345699818E+03 -0.18466899556E+03  0.22776392365E+03  0.00000000000E+00 0. -1.
</event>
<event>
 7    1  0.2334784E-009  0.1010387E+03  0.7561462E-02  0.1278127E+00
         -1   -1    0    0    0  501 -0.00000000000E+00  0.00000000000E+00  0.16898144216E+02  0.16898144216E+02  0.00000000000E+00 0.  1.
          1   -1    0    0  501    0  0.00000000000E+00 -0.00000000000E+00 -0.87703719905E+03  0.87703719905E+03  0.00000000000E+00 0. -1.
         25    2    1    2    0    0  0.30984990790E+02 -0.25869244943E+02 -0.62631851950E+03  0.63995993542E+03  0.12507814987E+03 0.  0.
          5    1    3    3  502    0  0.64817179480E+02  0.33704815291E+01 -0.52651454971E+03  0.53051641856E+03  0.41800000000E+01 0. -1.
         -5    1    3    3    0  502 -0.33832188691E+02 -0.29239726472E+02 -0.99803969795E+02  0.10944351686E+03  0.41800000000E+01 0. -1.
        -11    1    1    2    0    0 -0.63175227857E+01 -0.30209179855E+02 -0.12829790884E+03  0.13195779270E+03  0.00000000000E+00 0. -1.
         11    1    1    2    0    0 -0.24667468004E+02  0.56078424798E+02 -0.10552262648E+03  0.12201761514E+03  0.00000000000E+00 0.  1.
</event>
<event>
 7    1  0.2334784E-009  0.1452383E+03  0.7561462E-02  0.1206449E+00
          1   -1    0    0  501    0  0.00000000000E+00  0.00000000000E+00  0.10318314712E+03  0.10318314712E+03  0.00000000000E+00 0. -1.
         -1   -1    0    0    0  501 -0.00000000000E+00 -0.00000000000E+00 -0.29087384529E+03  0.29087384529E+03  0.00000000000E+00 0.  1.
         25    2    1    2    0    0 -0.21351378160E+02  0.11682050120E+03 -0.26787306223E+02  0.17454874068E+03  0.12508713863E+03 0.  0.
          5    1    3    3  502    0  0.19411102497E+02  0.12776193669E+03 -0.27242078979E+02  0.13213442638E+03  0.41800000000E+01 0.  1.
         -5    1    3    3    0  502 -0.40762480657E+02 -0.10941435492E+02  0.45477275521E+00  0.42414314308E+02  0.41800000000E+01 0.  1.
        -11    1    1    2    0    0  0.15575407340E+02 -0.89423042138E+02 -0.16770563670E+03  0.19069413825E+03  0.00000000000E+00 0.  1.
         11    1    1    2    0    0  0.57759708199E+01 -0.27397459058E+02  0.68022447584E+01  0.28814113477E+02  0.00000000000E+00 0. -1.
</event>
<event>
 7    1  0.2334784E-009  0.9768491E+02  0.7561462E-02  0.1285241E+00
          1   -1    0    0  501    0  0.00000000000E+00  0.00000000000E+00  0.19565545365E+03  0.19565545365E+03  0.00000000000E+00 0. -1.
         -1   -1    0    0    0  501 -0.00000000000E+00 -0.00000000000E+00 -0.75793914440E+02  0.75793914440E+02  0.00000000000E+00 0.  1.
         25    2    1    2    0    0 -0.23839445578E+02  0.16165048276E+02  0.15944082472E+02  0.12933811003E+03  0.12507799562E+03 0.  0.
          5    1    3    3  502    0  0.16891236352E+02 -0.31393962875E+02  0.47144922384E+02  0.59253783652E+02  0.41800000000E+01 0. -1.
         -5    1    3    3    0  502 -0.40730681930E+02  0.47559011151E+02 -0.31200839912E+02  0.70084326375E+02  0.41800000000E+01 0. -1.
        -11    1    1    2    0    0  0.59043056361E+02 -0.29467902704E+01  0.58830907268E+02  0.83401688996E+02  0.00000000000E+00 0. -1.
         11    1    1    2    0    0 -0.35203610784E+02 -0.13218258006E+02  0.45086549470E+02  0.58709569067E+02  0.00000000000E+00 0.  1.
</event>
<event>
 7    1  0.2345761E-009  0.1134601E+03  0.7561462E-02  0.1254293E+00
         -2   -1    0    0    0  501 -0.00000000000E+00  0.00000000000E+00  0.52268317260E+02  0.52268317260E+02  0.00000000000E+00 0.  1.
          2   -1    0    0  501    0  0.00000000000E+00 -0.00000000000E+00 -0.41898468438E+03  0.41898468438E+03  0.00000000000E+00 0. -1.
         25    2    1    2    0    0 -0.92658173624E+01  0.10003872581E+03 -0.20741528924E+03  0.26222383182E+03  0.12508650499E+03 0.  0.
          5    1    3    3  502    0  0.30032108426E+01  0.46171935779E+02 -0.20117452263E+03  0.20646919355E+03  0.41800000000E+01 0.  1.
         -5    1    3    3    0  502 -0.12269028205E+02  0.53866790029E+02 -0.62407666146E+01  0.55754638274E+02  0.41800000000E+01 0.  1.
        -11    1    1    2    0    0 -0.32013568801E+02 -0.30657728689E+02 -0.21369515996E+02  0.49207937669E+02  0.00000000000E+00 0.  1.
         11    1    1    2    0    0  0.41279386163E+02 -0.69380997119E+02 -0.13793156188E+03  0.15982123215E+03  0.00000000000E+00 0. -1.
</event>
<event>
 7    1  0.2334784E-009  0.1597513E+03  0.7561462E-02  0.1188978E+00
          2   -1    0    0  501    0  0.00000000000E+00  0.00000000000E+00  0.18058504061E+04  0.18058504061E+04  0.00000000000E+00 0. -1.
         -2   -1    0    0    0  501 -0.00000000000E+00 -0.00000000000E+00 -0.19796717581E+02  0.19796717581E+02  0.00000000000E+00 0.  1.
         25    2    1    2    0    0 -0.93660158075E+02 -0.86257799071E+02  0.13574252601E+04  0.13691104004E+04  0.12508924262E+03 0.  0.
          5    1    3    3  502    0 -0.10915761283E+03 -0.94589366094E+02  0.91710092342E+03  0.92841483657E+03  0.41800000000E+01 0.  1.
         -5    1    3    3    0  502  0.15497454752E+02  0.83315670228E+01  0.44032433663E+03  0.44069556379E+03  0.41800000000E+01 0.  1.
        -11    1    1    2    0    0  0.10034759713E+03  0.99980260379E+02  0.37865103760E+03  0.40427997847E+03  0.00000000000E+00 0.  1.
         11    1    1    2    0    0 -0.66874390546E+01 -0.13722461308E+02  0.49977390879E+02  0.52256744871E+02  0.00000000000E+00 0. -1.
</event>
<event>
 7    1  0.2334784E-009  0.1215611E+03  0.7561462E-02  0.1240544E+00
          2   -1    0    0  501    0  0.00000000000E+00  0.00000000000E+00  0.80815200698E+03  0.80815200698E+03  0.00000000000E+00 0. -1.
         -2   -1    0    0    0  501 -0.00000000000E+00 -0.00000000000E+00 -0.25046139145E+02  0.25046139145E+02  0.00000000000E+00 0.  1.
         25    2    1    2    0    0 -0.77498699057E+02  0.40913742859E+02  0.50524973926E+03  0.52782992011E+03  0.12508853993E+03 0.  0.
          5    1    3    3  502    0  0.24616129196E+02 -0.51736058593E+00  0.25982013552E+02  0.36038297778E+02  0.41800000000E+01 0. -1.
         -5    1    3    3    0  502 -0.10211482825E+03  0.41431103445E+02  0.47926772571E+03  0.49179162233E+03  0.41800000000E+01 0. -1.
        -11    1    1    2    0    0 -0.46682751727E+01 -0.23394251999E+02  0.12301111958E+02  0.26840290145E+02  0.00000000000E+00 0.  1.
         11    1    1    2    0    0  0.82166974230E+02 -0.17519490860E+02  0.26555501662E+03  0.27852793588E+03  0.00000000000E+00 0. -1.
</event>
<event>
 7    1  0.2429275E-009  0.8335141E+02  0.7561462E-02  0.1319801E+00
          2   -1    0    0  501    0  0.00000000000E+00  0.00000000000E+00  0.28837726022E+03  0.28837726022E+03  0.00000000000E+00 0. -1.
         -2   -1    0    0    0  501 -0.00000000000E+00 -0.00000000000E+00 -0.83138024773E+02  0.83138024773E+02  0.00000000000E+00 0.  1.
         25    2    1    2    0    0 -0.13334950734E+02 -0.63221998925E+02  0.21735204092E+03  0.25896933197E+03  0.12509341770E+03 0.  0.
          5    1    3    3  502    0 -0.13242578725E+02 -0.58962467107E+00 -0.13715702208E+02  0.19527069304E+02  0.41800000000E+01 0. -1.
         -5    1    3    3    0  502 -0.92372009578E-01 -0.62632374254E+02  0.23106774313E+03  0.23944226267E+03  0.41800000000E+01 0. -1.
        -11    1    1    2    0    0 -0.43961219520E+00 -0.12782114876E+02 -0.30562663877E+02  0.33130833718E+02  0.00000000000E+00 0.  1.
         11    1    1    2    0    0  0.13774562930E+02  0.76004113801E+02  0.18449858404E+02  0.79415119302E+02  0.00000000000E+00 0. -1.
</event>
<event>
 7    1  0.2334784E-009  0.2551719E+03  0.7561462E-02  0.1110079E+00
          1   -1    0    0  501    0  0.00000000000E+00  0.00000000000E+00  0.17477748658E+03  0.17477748658E+03  0.00000000000E+00 0. -1.
         -1   -1    0    0    0  501 -0.00000000000E+00 -0.00000000000E+00 -0.53401486609E+03  0.53401486609E+03  0.00000000000E+00 0.  1.
         25    2    1    2    0    0  0.24666040188E+03 -0.29497232361E+02 -0.34559434504E+03  0.44361623821E+03  0.12509386437E+03 0.  0.
          5    1    3    3  502    0  0.19303318015E+03 -0.57115804323E+02 -0.31973704148E+03  0.37785350579E+03  0.41800000000E+01 0. -1.
         -5    1    3    3    0  502  0.53627221731E+02  0.27618571962E+02 -0.25857303565E+02  0.65762732421E+02  0.41800000000E+01 0. -1.
        -11    1    1    2    0    0 -0.86908701219E+02  0.13964845657E+02  0.38975105858E+02  0.96266287653E+02  0.00000000000E+00 0.  1.
         11    1    1    2    0    0 -0.15975170066E+03  0.15532386703E+02 -0.52618140331E+02  0.16890982681E+03  0.00000000000E+00 0. -1.
</event>
<event>
 7    1  0.2334784E-009  0.1058475E+03  0.7561462E-02  0.1268459E+00
          2   -1    0    0  501    0  0.00000000000E+00  0.00000000000E+00  0.94366840232E+02  0.94366840232E+02  0.00000000000E+00 0. -1.
         -2   -1    0    0    0  501 -0.00000000000E+00 -0.00000000000E+00 -0.12151690134E+03  0.12151690134E+03  0.00000000000E+00 0.  1.
         25    2    1    2    0    0 -0.43002894814E+00 -0.23042564982E+02 -0.16195293467E+02  0.12822225816E+03  0.12509002850E+03 0.  0.
          5    1    3    3  502    0 -0.47158917030E+02 -0.53233614478E+02 -0.12312625980E+02  0.72296986966E+02  0.41800000000E+01 0. -1.
         -5    1    3    3    0  502  0.46728888081E+02  0.30191049496E+02 -0.38826674872E+01  0.55925271191E+02  0.41800000000E+01 0. -1.
        -11    1    1    2    0    0  0.30531239657E+02 -0.16706570371E+02 -0.14438427176E+02  0.37679361299E+02  0.00000000000E+00 0. -1.
         11    1    1    2    0    0 -0.30101210709E+02  0.39749135353E+02  0.34836595360E+01  0.49982122116E+02  0.00000000000E+00 0.  1.
</event>
<event>
 7    1  0.2334784E-009  0.9621776E+02  0.7561462E-02  0.1288457E+00
         -1   -1    0    0    0  501 -0.00000000000E+00  0.00000000000E+00  0.68885484673E+02  0.68885484673E+02  0.00000000000E+00 0.  1.
          1   -1    0    0  501    0  0.00000000000E+00 -0.00000000000E+00 -0.17285480899E+03  0.17285480899E+03  0.00000000000E+00 0. -1.
         25    2    1    2    0    0  0.43390061788E+01 -0.66295007891E+01 -0.66077851232E+02  0.14169138993E+03  0.12508952914E+03 0.  0.
          5    1    3    3  502    0  0.52501381460E+02 -0.41788363368E+01  0.77615518666E+01  0.53400110634E+02  0.41800000000E+01 0.  1.
         -5    1    3    3    0  502 -0.48162375281E+02 -0.24506644523E+01 -0.73839403098E+02  0.88291279292E+02  0.41800000000E+01 0.  1.
        -11    1    1    2    0    0  0.37929750031E+02  0.24661989808E+02 -0.27464955361E+02  0.52926396549E+02  0.00000000000E+00 0. -1.
         11    1    1    2    0    0 -0.42268756210E+02 -0.18032489019E+02 -0.10426517723E+02  0.47122507187E+02  0.00000000000E+00 0.  1.
</event>
<event>
 7    1  0.2334784E-009  0.1589597E+03  0.7561462E-02  0.1189876E+00
          1   -1    0    0  501    0  0.00000000000E+00  0.00000000000E+00  0.21379749830E+03  0.21379749830E+03  0.00000000000E+00 0. -1.
         -1   -1    0    0    0  501 -0.00000000000E+00 -0.00000000000E+00 -0.18068211133E+03  0.18068211133E+03  0.00000000000E+00 0.  1.
         25    2    1    2    0    0  0.10654916787E+03  0.95436866808E+02  0.95929702548E+02  0.21286452900E+03  0.12509148315E+03 0.  0.
          5    1    3    3  502    0 -0.92897951148E+01  0.46216387605E+02 -0.99224310299E+01  0.48354749653E+02  0.41800000000E+01 0. -1.
         -5    1    3    3    0  502  0.11583896298E+03  0.49220479203E+02  0.10585213358E+03  0.16450977935E+03  0.41800000000E+01 0. -1.
        -11    1    1    2    0    0 -0.29324625613E+02 -0.14216974489E+02 -0.61423776374E+02  0.69533706467E+02  0.00000000000E+00 0.  1.
         11    1    1    2    0    0 -0.77224542255E+02 -0.81219892319E+02 -0.13905391954E+01  0.11208137416E+03  0.00000000000E+00 0. -1.
</event>
<event>
 7    1  0.2334784E-009  0.9284489E+02  0.7561462E-02  0.1296105E+00
          2   -1    0    0  501    0  0.00000000000E+00  0.00000000000E+00  0.52208960307E+03  0.52208960307E+03  0.00000000000E+00 0. -1.
         -2   -1    0    0    0  501 -0.00000000000E+00 -0.00000000000E+00 -0.27022093170E+02  0.27022093170E+02  0.00000000000E+00 0.  1.
         25    2    1    2    0    0 -0.61780256490E+01  0.35709620985E+02  0.32949654458E+03  0.35430387807E+03  0.12509964066E+03 0.  0.
          5    1    3    3  502    0  0.44621590319E+02 -0.18436404694E+02  0.19160963041E+03  0.19764288554E+03  0.41800000000E+01 0.  1.
         -5    1    3    3    0  502 -0.50799615968E+02  0.54146025679E+02  0.13788691417E+03  0.15666099253E+03  0.41800000000E+01 0.  1.
        -11    1    1    2    0    0  0.27808599447E+02 -0.10690819410E+02  0.15812475387E+03  0.16090695948E+03  0.00000000000E+00 0. -1.
         11    1    1    2    0    0 -0.21630573798E+02 -0.25018801575E+02  0.74462114525E+01  0.33900858693E+02  0.00000000000E+00 0.  1.
</event>
<event>
 7    1  0.2334784E-009  0.1806183E+03  0.7561462E-02  0.1167206E+00
          1   -1    0    0  501    0  0.00000000000E+00  0.00000000000E+00  0.15980457553E+04  0.15980457553E+04  0.00000000000E+00 0. -1.
         -1   -1    0    0    0  501 -0.00000000000E+00 -0.00000000000E+00 -0.35753677375E+02  0.35753677375E+02  0.00000000000E+00 0.  1.
         25    2    1    2    0    0  0.29130391863E+02 -0.15252856550E+03  0.13056359536E+04  0.13207763300E+04  0.12510526582E+03 0.  0.
          5    1    3    3  502    0 -0.40364361150E+02 -0.47835543212E+02  0.25310342257E+03  0.26076107025E+03  0.41800000000E+01 0. -1.
         -5    1    3    3    0  502  0.69494753012E+02 -0.10469302229E+03  0.10525325311E+04  0.10600152598E+04  0.41800000000E+01 0. -1.
        -11    1    1    2    0    0 -0.12953167203E+02 -0.53927498309E+01  0.39231003069E+01  0.14569042774E+02  0.00000000000E+00 0.  1.
         11    1    1    2    0    0 -0.16177224659E+02  0.15792131533E+03  0.25273302393E+03  0.29845405981E+03  0.00000000000E+00 0. -1.
</event>
<event>
 7    1  0.2334784E-009  0.1383618E+03  0.7561462E-02  0.1215550E+00
         -1   -1    0    0    0  501 -0.00000000000E+00  0.00000000000E+00  0.59084283988E+02  0.59084283988E+02  0.00000000000E+00 0.  1.
          1   -1    0    0  501    0  0.00000000000E+00 -0.00000000000E+00 -0.35385638383E+03  0.35385638383E+03  0.00000000000E+00 0. -1.
         25    2    1    2    0    0 -0.13789814213E+02  0.94965004148E+02 -0.15195850081E+03  0.21896252818E+03  0.12507874236E+03 0.  0.
          5    1    3    3  502    0 -0.57684949102E+02  0.84896989594E+02 -0.66788860496E+02  0.12252867616E+03  0.41800000000E+01 0. -1.
         -5    1    3    3    0  502  0.43895134889E+02  0.10068014554E+02 -0.85169640319E+02  0.96433852023E+02  0.41800000000E+01 0. -1.
        -11    1    1    2    0    0  0.14929027523E+02 -0.11134932969E+03 -0.13545300433E+03  0.17598029852E+03  0.00000000000E+00 0. -1.
         11    1    1    2    0    0 -0.11392133098E+01  0.16384325543E+02 -0.73605946966E+01  0.17997841114E+02  0.00000000000E+00 0.  1.
</event>
<event>
 7    1  0.2334784E-009  0.1083807E+03  0.7561462E-02  0.1263598E+00
          2   -1    0    0  501    0  0.00000000000E+00  0.00000000000E+00  0.22911103860E+03  0.22911103860E+03  0.00000000000E+00 0. -1.
         -2   -1    0    0    0  501 -0.00000000000E+00 -0.00000000000E+00 -0.66152327562E+02  0.66152327562E+02  0.00000000000E+00 0.  1.
         25    2    1    2    0    0  0.42837765569E+02  0.18880835613E+02  0.48955268168E+02  0.14229477040E+03  0.12513841652E+03 0.  0.
          5    1    3    3  502    0  0.77331464039E+02 -0.16032093235E+02  0.49004736750E+02  0.93038271522E+02  0.41800000000E+01 0. -1.
         -5    1    3    3    0  502 -0.34493698470E+02  0.34912928848E+02 -0.49468581511E-01  0.49256498881E+02  0.41800000000E+01 0. -1.
        -11    1    1    2    0    0  0.40940988964E+01  0.24300904425E+02  0.28350490324E+01  0.24805908664E+02  0.00000000000E+00 0.  1.
         11    1    1    2    0    0 -0.46931864466E+02 -0.43181740038E+02  0.11116839384E+03  0.12816268709E+03  0.00000000000E+00 0. -1.
</event>
<event>
 7    1  0.2334784E-009  0.9265657E+02  0.7561462E-02  0.1296543E+00
          1   -1    0    0  501    0  0.00000000000E+00  0.00000000000E+00  0.53054065901E+03  0.53054065901E+03  0.00000000000E+00 0. -1.
         -1   -1    0    0    0  501 -0.00000000000E+00 -0.00000000000E+00 -0.70959273426E+02  0.70959273426E+02  0.00000000000E+00 0.  1.
         25    2    1    2    0    0 -0.16595348529E+02  0.11135033943E+02  0.48657290394E+03  0.50279181515E+03  0.12508806479E+03 0.  0.
          5    1    3    3  502    0  0.34715645014E+02 -0.83706920930E+01  0.38980715388E+03  0.39146179138E+03  0.41800000000E+01 0. -1.
         -5    1    3    3    0  502 -0.51310993543E+02  0.19505726036E+02  0.96765750066E+02  0.11133002377E+03  0.41800000000E+01 0. -1.
        -11    1    1    2    0    0 -0.36894068607E+01 -0.50175311847E+02 -0.20093918535E+02  0.54175079179E+02  0.00000000000E+00 0.  1.
         11    1    1    2    0    0  0.20284755389E+02  0.39040277904E+02 -0.68975998236E+01  0.44533038110E+02  0.00000000000E+00 0. -1.
</event>
<event>
 7    1  0.2334784E-009  0.1238095E+03  0.7561462E-02  0.1236942E+00
          1   -1    0    0  501    0  0.00000000000E+00  0.00000000000E+00  0.63206892561E+03  0.63206892561E+03  0.00000000000E+00 0. -1.
         -1   -1    0    0    0  501 -0.00000000000E+00 -0.00000000000E+00 -0.39943300351E+02  0.39943300351E+02  0.00000000000E+00 0.  1.
         25    2    1    2    0    0 -0.84145449575E+02  0.72523606371E+02  0.39566915863E+03  0.42958113406E+03  0.12508292245E+03 0.  0.
          5    1    3    3  502    0 -0.36655478920E+02 -0.77741863034E+01  0.20401728093E+02  0.42869161605E+02  0.41800000000E+01 0. -1.
         -5    1    3    3    0  502 -0.47489970654E+02  0.80297792674E+02  0.37526743054E+03  0.38671197246E+03  0.41800000000E+01 0. -1.
        -11    1    1    2    0    0  0.37253000219E+02 -0.55091066827E+02  0.17642227819E+03  0.18854079641E+03  0.00000000000E+00 0. -1.
         11    1    1    2    0    0  0.46892449355E+02 -0.17432539544E+02  0.20034188442E+02  0.53890295490E+02  0.00000000000E+00 0.  1.
</event>
<event>
 7    1  0.2334784E-009  0.1065341E+03  0.7561462E-02  0.1267126E+00
          2   -1    0    0  501    0  0.00000000000E+00  0.00000000000E+00  0.27231807571E+03  0.27231807571E+03  0.00000000000E+00 0. -1.
         -2   -1    0    0    0  501 -0.00000000000E+00 -0.00000000000E+00 -0.54062957659E+02  0.54062957659E+02  0.00000000000E+00 0.  1.
         25    2    1    2    0    0  0.90736167776E-01  0.14290997534E+02  0.52121349243E+02  0.13626880558E+03  0.12509321119E+03 0.  0.
          5    1    3    3  502    0 -0.19237898443E+02  0.66842590051E+02  0.31216967676E+02  0.76354437017E+02  0.41800000000E+01 0.  1.
         -5    1    3    3    0  502  0.19328634611E+02 -0.52551592517E+02  0.20904381567E+02  0.59914368566E+02  0.41800000000E+01 0.  1.
        -11    1    1    2    0    0  0.10547738895E+02  0.35132689186E+02  0.40257917576E+02  0.54463387452E+02  0.00000000000E+00 0. -1.
         11    1    1    2    0    0 -0.10638475063E+02 -0.49423686720E+02  0.12587585123E+03  0.13564884034E+03  0.00000000000E+00 0.  1.
</event>
<event>
 7    1  0.2334784E-009  0.9623075E+02  0.7561462E-02  0.1288428E+00
         -2   -1    0    0    0  501 -0.00000000000E+00  0.00000000000E+00  0.54273661863E+02  0.54273661863E+02  0.00000000000E+00 0.  1.
          2   -1    0    0  501    0  0.00000000000E+00 -0.00000000000E+00 -0.31274329432E+03  0.31274329432E+03  0.00000000000E+00 0. -1.
         25    2    1    2    0    0  0.42114313562E+01 -0.36144841126E+02 -0.55360442732E+02  0.14154799178E+03  0.12508744807E+03 0.  0.
          5    1    3    3  502    0  0.55305500170E+01 -0.78336139463E+02 -0.59943256619E+02  0.98882779813E+02  0.41800000000E+01 0. -1.
         -5    1    3    3    0  502 -0.13191186609E+01  0.42191298337E+02  0.45828138874E+01  0.42665211971E+02  0.41800000000E+01 0. -1.
        -11    1    1    2    0    0 -0.47769453345E+01  0.53662172680E+02 -0.20066699685E+03  0.20777317346E+03  0.00000000000E+00 0. -1.
         11    1    1    2    0    0  0.56551397837E+00 -0.17517331553E+02 -0.24421928666E+01  0.17695790935E+02  0.00000000000E+00 0.  1.
</event>
<event>
 7    1  0.2334784E-009  0.2225923E+03  0.7561462E-02  0.1131965E+00
          2   -1    0    0  501    0  0.00000000000E+00  0.00000000000E+00  0.15361603970E+04  0.15361603970E+04  0.00000000000E+00 0. -1.
         -2   -1    0    0    0  501 -0.00000000000E+00 -0.00000000000E+00 -0.48885064770E+02  0.48885064770E+02  0.00000000000E+00 0.  1.
         25    2    1    2    0    0  0.20219117797E+03 -0.71141278325E+02  0.37819516562E+03  0.45235720864E+03  0.12511237743E+03 0.  0.
          5    1    3    3  502    0  0.15310748861E+02 -0.84992678274E+01  0.14880983117E+03  0.14989494600E+03  0.41800000000E+01 0. -1.
         -5    1    3    3    0  502  0.18688042911E+03 -0.62642010497E+02  0.22938533445E+03  0.30246226264E+03  0.41800000000E+01 0. -1.
        -11    1    1    2    0    0 -0.19865823853E+03  0.45043037160E+02  0.97794482915E+03  0.99893446222E+03  0.00000000000E+00 0.  1.
         11    1    1    2    0    0 -0.35329394393E+01  0.26098241165E+02  0.13113533749E+03  0.13375379094E+03  0.00000000000E+00 0. -1.
</event>
<event>
 7    1  0.2334784E-009  0.1334981E+03  0.7561462E-02  0.1222356E+00
          2   -1    0    0  501    0  0.00000000000E+00  0.00000000000E+00  0.47884595677E+03  0.47884595677E+03  0.00000000000E+00 0. -1.
         -2   -1    0    0    0  501 -0.00000000000E+00 -0.00000000000E+00 -0.57690661917E+02  0.57690661917E+02  0.00000000000E+00 0.  1.
         25    2    1    2    0    0 -0.91783934770E+02  0.59059794852E+01  0.36836997335E+03  0.39975385479E+03  0.12509011102E+03 0.  0.
          5    1    3    3  502    0 -0.11337615620E+03 -0.16173242707E+02  0.33516312815E+03  0.35421394869E+03  0.41800000000E+01 0.  1.
         -5    1    3    3    0  502  0.21592221434E+02  0.22079222192E+02  0.33206845199E+02  0.45539906095E+02  0.41800000000E+01 0.  1.
        -11    1    1    2    0    0  0.53602941979E+02  0.35977620423E+02  0.90365869077E+01  0.65186842714E+02  0.00000000000E+00 0.  1.
         11    1    1    2    0    0  0.38180992791E+02 -0.41883599908E+02  0.43748734590E+02  0.71595921182E+02  0.00000000000E+00 0. -1.
</event>
<event>
 7    1  0.2334784E-009  0.1254180E+03  0.7561462E-02  0.1234417E+00
         -2   -1    0    0    0  501 -0.00000000000E+00  0.00000000000E+00  0.24549172587E+02  0.24549172587E+02  0.00000000000E+00 0.  1.
          2   -1    0    0  501    0  0.00000000000E+00 -0.00000000000E+00 -0.77358838115E+03  0.77358838115E+03  0.00000000000E+00 0. -1.
         25    2    1    2    0    0 -0.50810098456E+02  0.60721734240E+02 -0.45876967943E+03  0.48206417230E+03  0.12508977709E+03 0.  0.
          5    1    3    3  502    0 -0.89322383977E+02  0.24636604894E+02 -0.33127358437E+03  0.34401324201E+03  0.41800000000E+01 0. -1.
         -5    1    3    3    0  502  0.38512285521E+02  0.36085129346E+02 -0.12749609506E+03  0.13805093029E+03  0.41800000000E+01 0. -1.
        -11    1    1    2    0    0 -0.13703166687E+02 -0.31437074234E+02 -0.19135193477E+03  0.19440069278E+03  0.00000000000E+00 0. -1.
         11    1    1    2    0    0  0.64513265143E+02 -0.29284660006E+02 -0.98917594366E+02  0.12167268866E+03  0.00000000000E+00 0.  1.
</event>
<event>
 7    1  0.2334784E-009  0.1011226E+03  0.7561462E-02  0.1277953E+00
         -2   -1    0    0    0  501 -0.00000000000E+00  0.00000000000E+00  0.11690532894E+03  0.11690532894E+03  0.00000000000E+00 0.  1.
          2   -1    0    0  501    0  0.00000000000E+00 -0.00000000000E+00 -0.13624405858E+03  0.13624405858E+03  0.00000000000E+00 0. -1.
         25    2    1    2    0    0 -0.84697962915E+01 -0.40022492100E+02  0.40433750965E+02  0.13768093286E+03  0.12509042223E+03 0.  0.
          5    1    3    3  502    0  0.30904641205E+02  0.29660343949E+02 -0.83693002762E+01  0.43844616982E+02  0.41800000000E+01 0. -1.
         -5    1    3    3    0  502 -0.39374437496E+02 -0.69682836049E+02  0.48803051241E+02  0.93836315882E+02  0.41800000000E+01 0. -1.
        -11    1    1    2    0    0  0.38116055655E+02  0.18141012175E+02  0.33848043299E+01  0.42348399283E+02  0.00000000000E+00 0.  1.
         11    1    1    2    0    0 -0.29646259364E+02  0.21881479924E+02 -0.63157284930E+02  0.73120055373E+02  0.00000000000E+00 0. -1.
</event>
<event>
 6    1  0.2901797E-009  0.1047879E+03  0.7561462E-02  0.1270538E+00
         -3   -1    0    0    0  501 -0.00000000000E+00  0.00000000000E+00  0.25617158519E+03  0.25617158519E+03  0.00000000000E+00 0.  1.
          3   -1    0    0  501    0  0.00000000000E+00 -0.00000000000E+00 -0.55611086017E+02  0.55611086017E+02  0.00000000000E+00 0. -1.
          5    1    1    2  502    0  0.10950609106E+02 -0.56158925492E+02  0.15351803240E+02  0.59387633519E+02  0.41800000000E+01 0. -1.
         -5    1    1    2    0  502  0.35120507132E+02  0.41611195045E+02  0.11628666875E+03  0.12847179965E+03  0.41800000000E+01 0. -1.
        -11    1    1    2    0    0 -0.38010761191E+02  0.49112162537E+02  0.23781954879E+02  0.66501156781E+02  0.00000000000E+00 0. -1.
         11    1    1    2    0    0 -0.80603550468E+01 -0.34564432090E+02  0.45140072298E+02  0.57422081260E+02  0.00000000000E+00 0.  1.
</event>
<event>
 7    1  0.2334784E-009  0.1792014E+03  0.7561462E-02  0.1168578E+00
         -1   -1    0    0    0  501 -0.00000000000E+00  0.00000000000E+00  0.47299607636E+03  0.47299607636E+03  0.00000000000E+00 0. -1.
          1   -1    0    0  501    0  0.00000000000E+00 -0.00000000000E+00 -0.10290322635E+03  0.10290322635E+03  0.00000000000E+00 0.  1.
         25    2    1    2    0    0  0.98470580888E+02  0.14242094040E+03  0.85224145923E+02  0.22998015034E+03  0.12509010728E+03 0.  0.
          5    1    3    3  502    0  0.40590477338E+02  0.95418506431E+02 -0.15145426030E+02  0.10487675886E+03  0.41800000000E+01 0. -1.
         -5    1    3    3    0  502  0.57880103549E+02  0.47002433966E+02  0.10036957195E+03  0.12510339148E+03  0.41800000000E+01 0. -1.
        -11    1    1    2    0    0 -0.88616859050E+02 -0.88887489476E+02  0.25405769304E+03  0.28337121394E+03  0.00000000000E+00 0. -1.
         11    1    1    2    0    0 -0.98537218375E+01 -0.53533450920E+02  0.30811011045E+02  0.62547938440E+02  0.00000000000E+00 0.  1.
</event>
<event>
 7    1  0.2334784E-009  0.1297018E+03  0.7561462E-02  0.1227899E+00
          1   -1    0    0  501    0  0.00000000000E+00  0.00000000000E+00  0.77720030097E+03  0.77720030097E+03  0.00000000000E+00 0. -1.
         -1   -1    0    0    0  501 -0.00000000000E+00 -0.00000000000E+00 -0.26126121628E+02  0.26126121628E+02  0.00000000000E+00 0.  1.
         25    2    1    2    0    0  0.61801573765E+02  0.66763852938E+02  0.37287708447E+03  0.40368339831E+03  0.12508444895E+03 0.  0.
          5    1    3    3  502    0 -0.24611820595E+02  0.24283086105E+01  0.18800352441E+03  0.18966928056E+03  0.41800000000E+01 0. -1.
         -5    1    3    3    0  502  0.86413394360E+02  0.64335544328E+02  0.18487356006E+03  0.21401411775E+03  0.41800000000E+01 0. -1.
        -11    1    1    2    0    0 -0.36533487125E+02  0.16065552276E+02  0.15968600939E+03  0.16459774982E+03  0.00000000000E+00 0.  1.
         11    1    1    2    0    0 -0.25268086640E+02 -0.82829405214E+02  0.21851108548E+03  0.23504527446E+03  0.00000000000E+00 0. -1.
</event>
<event>
 7    1  0.2334784E-009  0.1277609E+03  0.7561462E-02  0.1230817E+00
          2   -1    0    0  501    0  0.00000000000E+00  0.00000000000E+00  0.59001577191E+03  0.59001577191E+03  0.00000000000E+00 0. -1.
         -2   -1    0    0    0  501 -0.00000000000E+00 -0.00000000000E+00 -0.44774586338E+02  0.44774586338E+02  0.00000000000E+00 0.  1.
         25    2    1    2    0    0 -0.42025714613E+02  0.97996330656E+02  0.39709233089E+03  0.42976610170E+03  0.12508853427E+03 0.  0.
          5    1    3    3  502    0 -0.22060591170E+02  0.57952770963E+00  0.25665570404E+03  0.25763662075E+03  0.41800000000E+01 0.  1.
         -5    1    3    3    0  502 -0.19965123443E+02  0.97416802946E+02  0.14043662685E+03  0.17212948095E+03  0.41800000000E+01 0.  1.
        -11    1    1    2    0    0  0.54467376100E+02 -0.25795833825E+02  0.33462859626E+02  0.68933903678E+02  0.00000000000E+00 0. -1.
         11    1    1    2    0    0 -0.12441661486E+02 -0.72200496831E+02  0.11468599506E+03  0.13609035287E+03  0.00000000000E+00 0.  1.
</event>
<event>
 7    1  0.2334784E-009  0.1745420E+03  0.7561462E-02  0.1173192E+00
         -2   -1    0    0    0  501 -0.00000000000E+00  0.00000000000E+00  0.40629507084E+02  0.40629507084E+02  0.00000000000E+00 0.  1.
          2   -1    0    0  501    0  0.00000000000E+00 -0.00000000000E+00 -0.10301561320E+04  0.10301561320E+04  0.00000000000E+00 0. -1.
         25    2    1    2    0    0  0.10759905240E+03  0.95711890192E+02 -0.75986756436E+03  0.78344412916E+03  0.12509063175E+03 0.  0.
          5    1    3    3  502    0 -0.58361462764E+00  0.81434967542E+02 -0.32173669896E+03  0.33190958166E+03  0.41800000000E+01 0. -1.
         -5    1    3    3    0  502  0.10818266703E+03  0.14276922650E+02 -0.43813086540E+03  0.45153454750E+03  0.41800000000E+01 0. -1.
        -11    1    1    2    0    0 -0.75079346955E+02 -0.10052206906E+03 -0.21968475285E+03  0.25298811304E+03  0.00000000000E+00 0. -1.
         11    1    1    2    0    0 -0.32519705448E+02  0.48101788652E+01 -0.99743077135E+01  0.34353396884E+02  0.00000000000E+00 0.  1.
</event>
<event>
 7    1  0.2334784E-009  0.1132986E+03  0.7561462E-02  0.1254580E+00
          1   -1    0    0  501    0  0.00000000000E+00  0.00000000000E+00  0.41192596419E+03  0.41192596419E+03  0.00000000000E+00 0. -1.
         -1   -1    0    0    0  501 -0.00000000000E+00 -0.00000000000E+00 -0.69715409418E+02  0.69715409418E+02  0.00000000000E+00 0.  1.
         25    2    1    2    0    0  0.58093192470E+02 -0.35837629257E+02  0.33962178778E+03  0.36830492712E+03  0.12508559439E+03 0.  0.
          5    1    3    3  502    0  0.73632799242E+02  0.22004797974E+02  0.23948680942E+03  0.25155000406E+03  0.41800000000E+01 0. -1.
         -5    1    3    3    0  502 -0.15539606772E+02 -0.57842427230E+02  0.10013497836E+03  0.11675492306E+03  0.41800000000E+01 0. -1.
        -11    1    1    2    0    0 -0.42160573459E+02 -0.80336736196E+01 -0.33411537707E+02  0.54391035274E+02  0.00000000000E+00 0.  1.
         11    1    1    2    0    0 -0.15932619011E+02  0.43871302876E+02  0.36000304695E+02  0.58945411210E+02  0.00000000000E+00 0. -1.
</event>
<event>
 7    1  0.2334784E-009  0.1123415E+03  0.7561462E-02  0.1256294E+00
          2   -1    0    0  501    0  0.00000000000E+00  0.00000000000E+00  0.17200948573E+03  0.17200948573E+03  0.00000000000E+00 0. -1.
         -2   -1    0    0    0  501 -0.00000000000E+00 -0.00000000000E+00 -0.13599719176E+03  0.13599719176E+03  0.00000000000E+00 0.  1.
         25    2    1    2    0    0  0.71079334395E+02 -0.58284290499E+02  0.78715426912E+02  0.17404839027E+03  0.12508954163E+03 0.  0.
          5    1    3    3  502    0  0.80458806387E+02 -0.62131019041E+02  0.10461059950E+03  0.14592714957E+03  0.41800000000E+01 0.  1.
         -5    1    3    3    0  502 -0.93794719918E+01  0.38467285418E+01 -0.25895172591E+02  0.28121240706E+02  0.41800000000E+01 0.  1.
        -11    1    1    2    0    0 -0.90851600315E+01  0.48343440716E+02 -0.50728622252E+02  0.70661315503E+02  0.00000000000E+00 0.  1.
         11    1    1    2    0    0 -0.61994174364E+02  0.99408497822E+01  0.80254893175E+01  0.63296971714E+02  0.00000000000E+00 0. -1.
</event>
<event>
 7    1  0.2334784E-009  0.1503995E+03  0.7561462E-02  0.1199983E+00
          2   -1    0    0  501    0  0.00000000000E+00  0.00000000000E+00  0.14433431808E+04  0.14433431808E+04  0.00000000000E+00 0. -1.
         -2   -1    0    0    0  501 -0.00000000000E+00 -0.00000000000E+00 -0.18620658878E+02  0.18620658878E+02  0.00000000000E+00 0.  1.
         25    2    1    2    0    0  0.11310480445E+03  0.12375320546E+02  0.96469397563E+03  0.97940198469E+03  0.12509170896E+03 0.  0.
          5    1    3    3  502    0  0.74021341037E+02  0.58693969839E+02  0.38115731724E+03  0.39271174404E+03  0.41800000000E+01 0. -1.
         -5    1    3    3    0  502  0.39083463414E+02 -0.46318649293E+02  0.58353665839E+03  0.58669024065E+03  0.41800000000E+01 0. -1.
        -11    1    1    2    0    0 -0.14610065745E+02 -0.40503373745E+02  0.12361187126E+03  0.13089641715E+03  0.00000000000E+00 0.  1.
         11    1    1    2    0    0 -0.98494738706E+02  0.28128053199E+02  0.33641667499E+03  0.35166543780E+03  0.00000000000E+00 0. -1.
</event>
<event>
 7    1  0.2334784E-009  0.9369311E+02  0.7561462E-02  0.1294147E+00
          1   -1    0    0  501    0  0.00000000000E+00  0.00000000000E+00  0.49295844954E+02  0.49295844954E+02  0.00000000000E+00 0. -1.
         -1   -1    0    0    0  501 -0.00000000000E+00 -0.00000000000E+00 -0.28507744963E+03  0.28507744963E+03  0.00000000000E+00 0.  1.
         25    2    1    2    0    0  0.32774617291E+02  0.29111037125E+02 -0.16207354337E+03  0.20937127721E+03  0.12508745036E+03 0.  0.
          5    1    3    3  502    0  0.16840085144E+02 -0.25621373350E+02  0.62842503651E+01  0.31575424663E+02  0.41800000000E+01 0. -1.
         -5    1    3    3    0  502  0.15934532146E+02  0.54732410475E+02 -0.16835779374E+03  0.17779585255E+03  0.41800000000E+01 0. -1.
        -11    1    1    2    0    0  0.20029495161E+02  0.19177482677E+02 -0.31332141956E+02  0.41840884763E+02  0.00000000000E+00 0.  1.
         11    1    1    2    0    0 -0.52804112452E+02 -0.48288519802E+02 -0.42375919348E+02  0.83161132610E+02  0.00000000000E+00 0. -1.
</event>
<event>
 7    1  0.2334784E-009  0.1368469E+03  0.7561462E-02  0.1217636E+00
          2   -1    0    0  501    0  0.00000000000E+00  0.00000000000E+00  0.41993930647E+03  0.41993930647E+03  0.00000000000E+00 0. -1.
         -2   -1    0    0    0  501 -0.00000000000E+00 -0.00000000000E+00 -0.47808661144E+02  0.47808661144E+02  0.00000000000E+00 0.  1.
         25    2    1    2    0    0 -0.70103698620E+02 -0.55257471834E+02  0.21292230006E+03  0.26258671206E+03  0.12509180124E+03 0.  0.
          5    1    3    3  502    0  0.76369755106E+01 -0.66979764280E+02  0.13923090836E+03  0.15474925028E+03  0.41800000000E+01 0. -1.
         -5    1    3    3    0  502 -0.77740674130E+02  0.11722292446E+02  0.73691391693E+02  0.10783746178E+03  0.41800000000E+01 0. -1.
        -11    1    1    2    0    0  0.45602658197E+02 -0.18866860847E+02  0.44786060576E+02  0.66643470009E+02  0.00000000000E+00 0. -1.
         11    1    1    2    0    0  0.24501040423E+02  0.74124332681E+02  0.11442228470E+03  0.13851778554E+03  0.00000000000E+00 0.  1.
</event>
<event>
 7    1  0.2334784E-009  0.9045569E+02  0.7561462E-02  0.1301752E+00
         -2   -1    0    0    0  501 -0.00000000000E+00  0.00000000000E+00  0.10356615728E+03  0.10356615728E+03  0.00000000000E+00 0.  1.
          2   -1    0    0  501    0  0.00000000000E+00 -0.00000000000E+00 -0.18964355153E+03  0.18964355153E+03  0.00000000000E+00 0. -1.
         25    2    1    2    0    0 -0.17890302239E+02  0.36899067112E+02 -0.13039779003E+03  0.18528924122E+03  0.12508763009E+03 0.  0.
          5    1    3    3  502    0 -0.37229238897E+02  0.76393180815E+02 -0.68426371432E+02  0.10918596527E+03  0.41800000000E+01 0. -1.
         -5    1    3    3    0  502  0.19338936658E+02 -0.39494113703E+02 -0.61971418600E+02  0.76103275958E+02  0.41800000000E+01 0. -1.
        -11    1    1    2    0    0  0.12860201846E+02  0.14811919344E+01  0.63440140810E+02  0.64747433826E+02  0.00000000000E+00 0.  1.
         11    1    1    2    0    0  0.50301003935E+01 -0.38380259047E+02 -0.19119745031E+02  0.43173033766E+02  0.00000000000E+00 0. -1.
</event>
<event>
 7    1  0.2334784E-009  0.7706219E+02  0.7561462E-02  0.1337601E+00
          2   -1    0    0  501    0  0.00000000000E+00  0.00000000000E+00  0.14200492251E+03  0.14200492251E+03  0.00000000000E+00 0.  1.
         -2   -1    0    0    0  501 -0.00000000000E+00 -0.00000000000E+00 -0.11458028713E+03  0.11458028713E+03  0.00000000000E+00 0. -1.
         25    2    1    2    0    0 -0.42032254112E+02 -0.17166283001E+02  0.65331000003E+02  0.14824231912E+03  0.12508498695E+03 0.  0.
          5    1    3    3  502    0  0.20935021511E+02 -0.20726846293E+02  0.78261497115E+02  0.83727006477E+02  0.41800000000E+01 0.  1.
         -5    1    3    3    0  502 -0.62967275623E+02  0.35605632912E+01 -0.12930497112E+02  0.64515312647E+02  0.41800000000E+01 0.  1.
        -11    1    1    2    0    0  0.96405262992E+01  0.25882297339E+02  0.24870051176E+02  0.37166550934E+02  0.00000000000E+00 0.  1.
         11    1    1    2    0    0  0.32391727813E+02 -0.87160143375E+01 -0.62776415791E+02  0.71176339581E+02  0.00000000000E+00 0. -1.
</event>
<event>
 7    1  0.2334784E-009  0.1102595E+03  0.7561462E-02  0.1260090E+00
         -1   -1    0    0    0  501 -0.00000000000E+00  0.00000000000E+00  0.34750251075E+02  0.34750251075E+02  0.00000000000E+00 0. -1.
          1   -1    0    0  501    0  0.00000000000E+00 -0.00000000000E+00 -0.46929029158E+03  0.46929029158E+03  0.00000000000E+00 0.  1.
         25    2    1    2    0    0 -0.58159787753E+01 -0.30374169267E+02 -0.35832825924E+03  0.38079022443E+03  0.12508252428E+03 0.  0.
          5    1    3    3  502    0 -0.50223934890E+02 -0.54925541075E+02 -0.16849984506E+03  0.18425235109E+03  0.41800000000E+01 0.  1.
         -5    1    3    3    0  502  0.44407956115E+02  0.24551371808E+02 -0.18982841419E+03  0.19653787334E+03  0.41800000000E+01 0.  1.
        -11    1    1    2    0    0 -0.17656613665E+02  0.56937622835E+02 -0.35977568726E+02  0.69627827423E+02  0.00000000000E+00 0. -1.
         11    1    1    2    0    0  0.23472592440E+02 -0.26563453568E+02 -0.40234212531E+02  0.53622490797E+02  0.00000000000E+00 0.  1.
</event>
<event>
 7    1  0.2334784E-009  0.8173405E+02  0.7561462E-02  0.1324201E+00
         -1   -1    0    0    0  501 -0.00000000000E+00  0.00000000000E+00  0.10071543443E+03  0.10071543443E+03  0.00000000000E+00 0.  1.
          1   -1    0    0  501    0  0.00000000000E+00 -0.00000000000E+00 -0.13454674398E+03  0.13454674398E+03  0.00000000000E+00 0. -1.
         25    2    1    2    0    0 -0.43086056110E+02  0.18954170277E+01 -0.18926079228E+02  0.13366323529E+03  0.12509061978E+03 0.  0.
          5    1    3    3  502    0 -0.23789655725E+02  0.48512797897E+02 -0.50436234559E+02  0.74031921735E+02  0.41800000000E+01 0. -1.
         -5    1    3    3    0  502 -0.19296400385E+02 -0.46617380870E+02  0.31510155331E+02  0.59631313552E+02  0.41800000000E+01 0. -1.
        -11    1    1    2    0    0  0.41196733938E+02 -0.16164924405E+02  0.30644509115E+02  0.53829003401E+02  0.00000000000E+00 0.  1.
         11    1    1    2    0    0  0.18893221719E+01  0.14269507377E+02 -0.45549739434E+02  0.47769939728E+02  0.00000000000E+00 0. -1.
</event>
<event>
 7    1  0.2334784E-009  0.8341012E+02  0.7561462E-02  0.1319643E+00
         -3   -1    0    0    0  501 -0.00000000000E+00  0.00000000000E+00  0.47763783019E+02  0.47763783019E+02  0.00000000000E+00 0. -1.
          3   -1    0    0  501    0  0.00000000000E+00 -0.00000000000E+00 -0.39541510340E+03  0.39541510340E+03  0.00000000000E+00 0.  1.
         25    2    1    2    0    0 -0.34134363360E+02 -0.10421366750E+02 -0.67766292634E+02  0.14667916949E+03  0.12509495872E+03 0.  0.
          5    1    3    3  502    0 -0.56022889978E+02 -0.15401791034E+02 -0.94816018892E+02  0.11128040801E+03  0.41800000000E+01 0. -1.
         -5    1    3    3    0  502  0.21888526618E+02  0.49804242840E+01  0.27049726258E+02  0.35398761478E+02  0.41800000000E+01 0. -1.
        -11    1    1    2    0    0  0.38409611743E+02 -0.27711685391E+02 -0.80033979576E+02  0.92998245512E+02  0.00000000000E+00 0. -1.
         11    1    1    2    0    0 -0.42752483829E+01  0.38133052142E+02 -0.19985104817E+03  0.20350147142E+03  0.00000000000E+00 0.  1.
</event>
<event>
 7    1  0.2615589E-009  0.1575784E+03  0.7561462E-02  0.1191458E+00
         -1   -1    0    0    0  501 -0.00000000000E+00  0.00000000000E+00  0.17175236247E+03  0.17175236247E+03  0.00000000000E+00 0.  1.
          1   -1    0    0  501    0  0.00000000000E+00 -0.00000000000E+00 -0.24540078213E+03  0.24540078213E+03  0.00000000000E+00 0. -1.
         25    2    1    2    0    0  0.11342684856E+03  0.99933905348E+02  0.48444597187E+02  0.20210598631E+03  0.12509002875E+03 0.  0.
          5    1    3    3  502    0  0.27671321159E+02  0.16908112497E+02 -0.41325366494E+02  0.52695774013E+02  0.41800000000E+01 0.  1.
         -5    1    3    3    0  502  0.85755527405E+02  0.83025792851E+02  0.89769963681E+02  0.14941021230E+03  0.41800000000E+01 0.  1.
        -11    1    1    2    0    0 -0.29032136481E+02 -0.65927386931E+02 -0.96698286810E+02  0.12058127536E+03  0.00000000000E+00 0. -1.
         11    1    1    2    0    0 -0.84394712082E+02 -0.34006518417E+02 -0.25394730039E+02  0.94465882921E+02  0.00000000000E+00 0.  1.
</event>
<event>
 7    1  0.2334784E-009  0.1272463E+03  0.7561462E-02  0.1231600E+00
         -1   -1    0    0    0  501 -0.00000000000E+00  0.00000000000E+00  0.11254574047E+03  0.11254574047E+03  0.00000000000E+00 0. -1.
          1   -1    0    0  501    0  0.00000000000E+00 -0.00000000000E+00 -0.26111062090E+03  0.26111062090E+03  0.00000000000E+00 0.  1.
         25    2    1    2    0    0 -0.10684653294E+03  0.30647211151E+02 -0.15703857673E+03  0.22948215628E+03  0.12508202236E+03 0.  0.
          5    1    3    3  502    0 -0.22654181721E+02 -0.28814363890E+02 -0.11015875614E+03  0.11617187039E+03  0.41800000000E+01 0. -1.
         -5    1    3    3    0  502 -0.84192351217E+02  0.59461575041E+02 -0.46879820590E+02  0.11331028589E+03  0.41800000000E+01 0. -1.
        -11    1    1    2    0    0  0.28921003518E+02 -0.21387628784E+02  0.45005513262E+02  0.57613812003E+02  0.00000000000E+00 0. -1.
         11    1    1    2    0    0  0.77925529420E+02 -0.92595823668E+01 -0.36531816964E+02  0.86560393089E+02  0.00000000000E+00 0.  1.
</event>
<event>
 7    1  0.2334784E-009  0.1102121E+03  0.7561462E-02  0.1260178E+00
          1   -1    0    0  501    0  0.00000000000E+00  0.00000000000E+00  0.35692491886E+02  0.35692491886E+02  0.00000000000E+00 0. -1.
         -1   -1    0    0    0  501 -0.00000000000E+00 -0.00000000000E+00 -0.36318931549E+03  0.36318931549E+03  0.00000000000E+00 0.  1.
         25    2    1    2    0    0  0.24871301719E+02 -0.22361506210E+02 -0.18801181294E+03  0.22828442940E+03  0.12508685100E+03 0.  0.
          5    1    3    3  502    0  0.59770043580E+02  0.24918697953E+02 -0.13154514638E+03  0.14667991530E+03  0.41800000000E+01 0. -1.
         -5    1    3    3    0  502 -0.34898741861E+02 -0.47280204163E+02 -0.56466666560E+02  0.81604514101E+02  0.41800000000E+01 0. -1.
        -11    1    1    2    0    0  0.32660478027E+02  0.21461335021E+02 -0.41781672576E+02  0.57210172951E+02  0.00000000000E+00 0. -1.
         11    1    1    2    0    0 -0.57531779746E+02  0.90017118879E+00 -0.97703338088E+02  0.11338720502E+03  0.00000000000E+00 0.  1.
</event>
<event>
 7    1  0.2334784E-009  0.2680299E+03  0.7561462E-02  0.1102412E+00
         -1   -1    0    0    0  501 -0.00000000000E+00  0.00000000000E+00  0.45801652952E+03  0.45801652952E+03  0.00000000000E+00 0.  1.
          1   -1    0    0  501    0  0.00000000000E+00 -0.00000000000E+00 -0.38040062754E+03  0.38040062754E+03  0.00000000000E+00 0. -1.
         25    2    1    2    0    0 -0.85234121200E+02 -0.24452604876E+03 -0.27076002192E+03  0.39497751301E+03  0.12505359802E+03 0.  0.
          5    1    3    3  502    0 -0.49207292724E+02 -0.78211416636E+02 -0.24634242520E+02  0.95722001932E+02  0.41800000000E+01 0.  1.
         -5    1    3    3    0  502 -0.36026828477E+02 -0.16631463212E+03 -0.24612577940E+03  0.29925551108E+03  0.41800000000E+01 0.  1.
        -11    1    1    2    0    0  0.60861853858E+02  0.54318850430E+02  0.12198893023E+03  0.14675149698E+03  0.00000000000E+00 0.  1.
         11    1    1    2    0    0  0.24372267343E+02  0.19020719833E+03  0.22638699367E+03  0.29668814707E+03  0.00000000000E+00 0. -1.
</event>
<event>
 7    1  0.2334784E-009  0.1424823E+03  0.7561462E-02  0.1210027E+00
         -1   -1    0    0    0  501 -0.00000000000E+00  0.00000000000E+00  0.22632347924E+02  0.22632347924E+02  0.00000000000E+00 0.  1.
          1   -1    0    0  501    0  0.00000000000E+00 -0.00000000000E+00 -0.10854201312E+04  0.10854201312E+04  0.00000000000E+00 0. -1.
         25    2    1    2    0    0 -0.85788857809E+02  0.44752997695E+02 -0.78108938582E+03  0.79693831389E+03  0.12508992192E+03 0.  0.
          5    1    3    3  502    0 -0.11616653431E+03  0.49179140622E+02 -0.58956154757E+03  0.60292084252E+03  0.41800000000E+01 0.  1.
         -5    1    3    3    0  502  0.30377676504E+02 -0.44261429274E+01 -0.19152783825E+03  0.19401747137E+03  0.41800000000E+01 0.  1.
        -11    1    1    2    0    0 -0.12390733408E+02  0.94818744510E+01 -0.68018314845E+02  0.69784864919E+02  0.00000000000E+00 0.  1.
         11    1    1    2    0    0  0.98179591217E+02 -0.54234872146E+02 -0.21368008260E+03  0.24132930031E+03  0.00000000000E+00 0. -1.
</event>
<event>
 7    1  0.2334784E-009  0.2154026E+03  0.7561462E-02  0.1137358E+00
         -2   -1    0    0    0  501 -0.00000000000E+00  0.00000000000E+00  0.63697311048E+03  0.63697311048E+03  0.00000000000E+00 0.  1.
          2   -1    0    0  501    0  0.00000000000E+00 -0.00000000000E+00 -0.75502061485E+02  0.75502061485E+02  0.00000000000E+00 0. -1.
         25    2    1    2    0    0 -0.16719531922E+03  0.88866390329E+02  0.26055984697E+03  0.34552735121E+03  0.12508479719E+03 0.  0.
          5    1    3    3  502    0 -0.15682044374E+03  0.11538739028E+03  0.20378737736E+03  0.28187527203E+03  0.41800000000E+01 0.  1.
         -5    1    3    3    0  502 -0.10374875478E+02 -0.26520999947E+02  0.56772469610E+02  0.63652079189E+02  0.41800000000E+01 0.  1.
        -11    1    1    2    0    0  0.94555354270E+02 -0.95433628475E+02  0.16569351634E+03  0.21331346376E+03  0.00000000000E+00 0. -1.
         11    1    1    2    0    0  0.72639964948E+02  0.65672381459E+01  0.13521768569E+03  0.15363435699E+03  0.00000000000E+00 0.  1.
</event>
<event>
 6    1  0.2334784E-009  0.1037046E+03  0.7561462E-02  0.1272693E+00
         -4   -1    0    0    0  501 -0.00000000000E+00  0.00000000000E+00  0.15925878125E+03  0.15925878125E+03  0.00000000000E+00 0.  1.
          4   -1    0    0  501    0  0.00000000000E+00 -0.00000000000E+00 -0.88513487628E+02  0.88513487628E+02  0.00000000000E+00 0. -1.
          5    1    1    2  502    0  0.50744951072E+02  0.23198488550E+02 -0.29630712421E+02  0.63314069913E+02  0.41800000000E+01 0. -1.
         -5    1    1    2    0  502 -0.27484064689E+02 -0.47053462662E+02  0.37557190910E+02  0.66313023980E+02  0.41800000000E+01 0. -1.
        -11    1    1    2    0    0  0.22053716551E+02 -0.22830833344E+02  0.35385073058E+02  0.47536478205E+02  0.00000000000E+00 0.  1.
         11    1    1    2    0    0 -0.45314602934E+02  0.46685807456E+02  0.27433742077E+02  0.70608696781E+02  0.00000000000E+00 0. -1.
</event>
<event>
 7    1  0.2334784E-009  0.6621369E+02  0.7561462E-02  0.1373463E+00
          3   -1    0    0  501    0  0.00000000000E+00  0.00000000000E+00  0.11550343622E+03  0.11550343622E+03  0.00000000000E+00 0. -1.
         -3   -1    0    0    0  501 -0.00000000000E+00 -0.00000000000E+00 -0.12358446919E+03  0.12358446919E+03  0.00000000000E+00 0.  1.
         25    2    1    2    0    0  0.32631306550E+02 -0.25071700735E+02  0.29913276954E+02  0.13503953899E+03  0.12508989011E+03 0.  0.
          5    1    3    3  502    0 -0.20320437509E+01 -0.20918054664E+02 -0.46348692989E+02  0.51062392762E+02  0.41800000000E+01 0.  1.
         -5    1    3    3    0  502  0.34663350301E+02 -0.41536460713E+01  0.76261969944E+02  0.83977146233E+02  0.41800000000E+01 0.  1.
        -11    1    1    2    0    0 -0.29152515412E+02 -0.16917380748E+02 -0.49944213468E+02  0.60253559108E+02  0.00000000000E+00 0.  1.
         11    1    1    2    0    0 -0.34787911375E+01  0.41989081483E+02  0.11949903544E+02  0.43794807298E+02  0.00000000000E+00 0. -1.
</event>
<event>
 7    1  0.2334784E-009  0.1062051E+03  0.7561462E-02  0.1267763E+00
         -3   -1    0    0    0  501 -0.00000000000E+00  0.00000000000E+00  0.39527234584E+03  0.39527234584E+03  0.00000000000E+00 0.  1.
          3   -1    0    0  501    0  0.00000000000E+00 -0.00000000000E+00 -0.37887065473E+02  0.37887065473E+02  0.00000000000E+00 0. -1.
         25    2    1    2    0    0  0.35564402634E+02  0.41870224464E+02  0.23155780414E+03  0.26885945026E+03  0.12509374445E+03 0.  0.
          5    1    3    3  502    0 -0.38771704786E+02  0.12010478363E+02  0.26460267465E+02  0.48632446338E+02  0.41800000000E+01 0.  1.
         -5    1    3    3    0  502  0.74336107420E+02  0.29859746101E+02  0.20509753668E+03  0.22022700392E+03  0.41800000000E+01 0.  1.
        -11    1    1    2    0    0  0.11922803224E+02  0.13785900511E+02  0.69825022997E+02  0.72164659814E+02  0.00000000000E+00 0.  1.
         11    1    1    2    0    0 -0.47487205858E+02 -0.55656124975E+02  0.56002453228E+02  0.92135301242E+02  0.00000000000E+00 0. -1.
</event>
<event>
 7    1  0.2334784E-009  0.1343306E+03  0.7561462E-02  0.1221168E+00
          1   -1    0    0  501    0  0.00000000000E+00  0.00000000000E+00  0.34764492092E+02  0.34764492092E+02  0.00000000000E+00 0. -1.
         -1   -1    0    0    0  501 -0.00000000000E+00 -0.00000000000E+00 -0.88388393702E+03  0.88388393702E+03  0.00000000000E+00 0.  1.
         25    2    1    2    0    0  0.10562512033E+03  0.79388894088E+02 -0.34896864757E+03  0.39355665228E+03  0.12509380089E+03 0.  0.
          5    1    3    3  502    0  0.72888141359E+02  0.42257199308E+02 -0.68338372765E+02  0.10856315045E+03  0.41800000000E+01 0.  1.
         -5    1    3    3    0  502  0.32736978967E+02  0.37131694779E+02 -0.28063027480E+03  0.28499350183E+03  0.41800000000E+01 0.  1.
        -11    1    1    2    0    0 -0.44381869716E+02 -0.49489618783E+02 -0.38953628249E+03  0.39516767088E+03  0.00000000000E+00 0.  1.
         11    1    1    2    0    0 -0.61243250610E+02 -0.29899275304E+02 -0.11061451487E+03  0.12992410596E+03  0.00000000000E+00 0. -1.
</event>
<event>
 7    1  0.2334784E-009  0.9148438E+02  0.7561462E-02  0.1299296E+00
          2   -1    0    0  501    0  0.00000000000E+00  0.00000000000E+00  0.41225652088E+03  0.41225652088E+03  0.00000000000E+00 0. -1.
         -2   -1    0    0    0  501 -0.00000000000E+00 -0.00000000000E+00 -0.31759829706E+02  0.31759829706E+02  0.00000000000E+00 0.  1.
         25    2    1    2    0    0 -0.22212721942E+02 -0.10553970814E+02  0.27748330862E+03  0.30536589466E+03  0.12508617726E+03 0.  0.
          5    1    3    3  502    0  0.15776479494E+02 -0.60516589258E+02  0.16474872382E+03  0.17626902530E+03  0.41800000000E+01 0. -1.
         -5    1    3    3    0  502 -0.37989201436E+02  0.49962618444E+02  0.11273458480E+03  0.12909686936E+03  0.41800000000E+01 0. -1.
        -11    1    1    2    0    0  0.75314576060E+01  0.31175434875E+02  0.10816335351E+03  0.11281817954E+03  0.00000000000E+00 0. -1.
         11    1    1    2    0    0  0.14681264336E+02 -0.20621464061E+02 -0.51499709525E+01  0.25832276387E+02  0.00000000000E+00 0.  1.
</event>
<event>
 7    1  0.2334784E-009  0.1310963E+03  0.7561462E-02  0.1225838E+00
         -1   -1    0    0    0  501 -0.00000000000E+00  0.00000000000E+00  0.48457659018E+02  0.48457659018E+02  0.00000000000E+00 0.  1.
          1   -1    0    0  501    0  0.00000000000E+00 -0.00000000000E+00 -0.40668089896E+03  0.40668089896E+03  0.00000000000E+00 0. -1.
         25    2    1    2    0    0 -0.29441088957E+02  0.85428475666E+02 -0.21528552617E+03  0.26487978311E+03  0.12509452246E+03 0.  0.
          5    1    3    3  502    0  0.36968461934E+02  0.10458082124E+02 -0.16046152134E+02  0.41844833107E+02  0.41800000000E+01 0. -1.
         -5    1    3    3    0  502 -0.66409550890E+02  0.74970393542E+02 -0.19923937404E+03  0.22303495001E+03  0.41800000000E+01 0. -1.
        -11    1    1    2    0    0 -0.29706269201E+02 -0.26382934279E+02 -0.63807061366E+02  0.75165568788E+02  0.00000000000E+00 0.  1.
         11    1    1    2    0    0  0.59147358158E+02 -0.59045541388E+02 -0.79130652402E+02  0.11509320607E+03  0.00000000000E+00 0. -1.
</event>
<event>
 7    1  0.2334784E-009  0.1036432E+03  0.7561462E-02  0.1272816E+00
          1   -1    0    0  501    0  0.00000000000E+00  0.00000000000E+00  0.34750577697E+03  0.34750577697E+03  0.00000000000E+00 0. -1.
         -1   -1    0    0    0  501 -0.00000000000E+00 -0.00000000000E+00 -0.55897477395E+02  0.55897477395E+02  0.00000000000E+00 0.  1.
         25    2    1    2    0    0  0.80312402429E+02  0.44291840252E+02  0.11888412626E+03  0.19542924954E+03  0.12508919619E+03 0.  0.
          5    1    3    3  502    0  0.61308367782E+02  0.27675868894E+02 -0.62698258472E+01  0.67686429920E+02  0.41800000000E+01 0. -1.
         -5    1    3    3    0  502  0.19004034647E+02  0.16615971358E+02  0.12515395210E+03  0.12774281962E+03  0.41800000000E+01 0. -1.
        -11    1    1    2    0    0 -0.52433820250E+02 -0.62059322613E+02  0.10644310066E+03  0.13390593231E+03  0.00000000000E+00 0.  1.
         11    1    1    2    0    0 -0.27878582179E+02  0.17767482360E+02  0.66281072655E+02  0.74068072515E+02  0.00000000000E+00 0. -1.
</event>
<event>
 7    1  0.2334784E-009  0.1406130E+03  0.7561462E-02  0.1212507E+00
         -1   -1    0    0    0  501 -0.00000000000E+00  0.00000000000E+00  0.36026114706E+03  0.36026114706E+03  0.00000000000E+00 0.  1.
          1   -1    0    0  501    0  0.00000000000E+00 -0.00000000000E+00 -0.55403785612E+02  0.55403785612E+02  0.00000000000E+00 0. -1.
         25    2    1    2    0    0 -0.82932693027E+02 -0.17427753817E+02  0.15143641795E+03  0.21391927526E+03  0.12508760718E+03 0.  0.
          5    1    3    3  502    0 -0.11157287617E+03 -0.35075096551E+02  0.11321653429E+03  0.16283189225E+03  0.41800000000E+01 0.  1.
         -5    1    3    3    0  502  0.28640183146E+02  0.17647342735E+02  0.38219883662E+02  0.51087383015E+02  0.41800000000E+01 0.  1.
        -11    1    1    2    0    0  0.58397952034E+02 -0.38005244295E+02  0.92470007936E+02  0.11578178511E+03  0.00000000000E+00 0.  1.
         11    1    1    2    0    0  0.24534740993E+02  0.55432998112E+02  0.60950935557E+02  0.85963872298E+02  0.00000000000E+00 0. -1.
</event>
<event>
 7    1  0.3314414E-009  0.1541694E+03  0.7561462E-02  0.1195441E+00
         -1   -1    0    0    0  501 -0.00000000000E+00  0.00000000000E+00  0.19089381779E+03  0.19089381779E+03  0.00000000000E+00 0.  1.
          1   -1    0    0  501    0  0.00000000000E+00 -0.00000000000E+00 -0.20745183559E+03  0.20745183559E+03  0.00000000000E+00 0. -1.
         25    2    1    2    0    0  0.11308036036E+03 -0.31343952581E+02 -0.12673382363E+03  0.21326011326E+03  0.12509517414E+03 0.  0.
          5    1    3    3  502    0  0.47464807048E+02 -0.74390950161E+02 -0.42415180536E+02  0.97997149519E+02  0.41800000000E+01 0.  1.
         -5    1    3    3    0  502  0.65615553309E+02  0.43046997580E+02 -0.84318643097E+02  0.11526296374E+03  0.41800000000E+01 0.  1.
        -11    1    1    2    0    0 -0.40012530423E+02 -0.26691292394E+02  0.66467146291E+02  0.82044556288E+02  0.00000000000E+00 0.  1.
         11    1    1    2    0    0 -0.73067829934E+02  0.58035244975E+02  0.43708659547E+02  0.10304098384E+03  0.00000000000E+00 0. -1.
</event>
<event>
 7    1  0.2334784E-009  0.2230358E+03  0.7561462E-02  0.1131640E+00
         -2   -1    0    0    0  501 -0.00000000000E+00  0.00000000000E+00  0.37794837373E+02  0.37794837373E+02  0.00000000000E+00 0.  1.
          2   -1    0    0  501    0  0.00000000000E+00 -0.00000000000E+00 -0.15571750414E+04  0.15571750414E+04  0.00000000000E+00 0. -1.
         25    2    1    2    0    0 -0.21203100650E+03  0.23672303165E+02 -0.90054619436E+03  0.93388981372E+03  0.12509680388E+03 0.  0.
          5    1    3    3  502    0  0.12995746730E+00 -0.63962604994E+01 -0.22567532466E+03  0.22580468019E+03  0.41800000000E+01 0.  1.
         -5    1    3    3    0  502 -0.21216096397E+03  0.30068563664E+02 -0.67487086971E+03  0.70808513353E+03  0.41800000000E+01 0.  1.
        -11    1    1    2    0    0  0.11417934626E+03  0.21741938858E+02 -0.23202098886E+03  0.25950601976E+03  0.00000000000E+00 0. -1.
         11    1    1    2    0    0  0.97851660240E+02 -0.45414242023E+02 -0.38681302078E+03  0.40157404528E+03  0.00000000000E+00 0.  1.
</event>
<event>
 7    1  0.2334784E-009  0.1320676E+03  0.7561462E-02  0.1224420E+00
         -1   -1    0    0    0  501 -0.00000000000E+00  0.00000000000E+00  0.75324347440E+02  0.75324347440E+02  0.00000000000E+00 0.  1.
          1   -1    0    0  501    0  0.00000000000E+00 -0.00000000000E+00 -0.37985869478E+03  0.37985869478E+03  0.00000000000E+00 0. -1.
         25    2    1    2    0    0 -0.93877551000E+02  0.83068580364E+02 -0.20477059883E+03  0.27071699822E+03  0.12507322397E+03 0.  0.
          5    1    3    3  502    0 -0.57305855043E+02  0.14387739898E+02 -0.17915307642E+03  0.18869092525E+03  0.41800000000E+01 0.  1.
         -5    1    3    3    0  502 -0.36571695956E+02  0.68680840466E+02 -0.25617522415E+02  0.82026072970E+02  0.41800000000E+01 0.  1.
        -11    1    1    2    0    0  0.74466046152E+02 -0.53832570719E+02 -0.15497435893E+02  0.93184270234E+02  0.00000000000E+00 0.  1.
         11    1    1    2    0    0  0.19411504847E+02 -0.29236009645E+02 -0.84266312612E+02  0.91281773765E+02  0.00000000000E+00 0. -1.
</event>
<event>
 7    1  0.2334784E-009  0.2862232E+03  0.7561462E-02  0.1092338E+00
         -1   -1    0    0    0  501 -0.00000000000E+00  0.00000000000E+00  0.13612701384E+03  0.13612701384E+03  0.00000000000E+00 0.  1.
          1   -1    0    0  501    0  0.00000000000E+00 -0.00000000000E+00 -0.64688811012E+03  0.64688811012E+03  0.00000000000E+00 0. -1.
         25    2    1    2    0    0 -0.17750962529E+03 -0.20276442514E+03 -0.34707721426E+03  0.45687306689E+03  0.12508927777E+03 0.  0.
          5    1    3    3  502    0 -0.12420635867E+03 -0.49811521067E+02 -0.13685850133E+03  0.19145790386E+03  0.41800000000E+01 0. -1.
         -5    1    3    3    0  502 -0.53303266618E+02 -0.15295290407E+03 -0.21021871293E+03  0.26541516303E+03  0.41800000000E+01 0. -1.
        -11    1    1    2    0    0  0.10883594210E+03  0.77276284843E+02 -0.46914628315E+02  0.14148451803E+03  0.00000000000E+00 0. -1.
         11    1    1    2    0    0  0.68673683185E+02  0.12548814030E+03 -0.11676925370E+03  0.18465753905E+03  0.00000000000E+00 0.  1.
</event>
<event>
 7    1  0.2334784E-009  0.2832888E+03  0.7561462E-02  0.1093906E+00
          1   -1    0    0  501    0  0.00000000000E+00  0.00000000000E+00  0.10488487801E+03  0.10488487801E+03  0.00000000000E+00 0. -1.
         -1   -1    0    0    0  501 -0.00000000000E+00 -0.00000000000E+00 -0.82155926655E+03  0.82155926655E+03  0.00000000000E+00 0.  1.
         25    2    1    2    0    0  0.23882307440E+03 -0.12829233128E+03 -0.40599500402E+03  0.50396583426E+03  0.12511688808E+03 0.  0.
          5    1    3    3  502    0  0.20706697882E+03 -0.13706298620E+03 -0.28279658290E+03  0.37636999828E+03  0.41800000000E+01 0.  1.
         -5    1    3    3    0  502  0.31756095581E+02  0.87706549196E+01 -0.12319842112E+03  0.12759583598E+03  0.41800000000E+01 0.  1.
        -11    1    1    2    0    0 -0.86536597767E+02  0.96175696619E+02 -0.12125287509E+03  0.17731499398E+03  0.00000000000E+00 0.  1.
         11    1    1    2    0    0 -0.15228647664E+03  0.32116634665E+02 -0.18942650944E+03  0.24516331631E+03  0.00000000000E+00 0. -1.
</event>
<event>
 7    1  0.2334784E-009  0.1922162E+03  0.7561462E-02  0.1156477E+00
          4   -1    0    0  501    0  0.00000000000E+00  0.00000000000E+00  0.29024824726E+03  0.29024824726E+03  0.00000000000E+00 0. -1.
         -4   -1    0    0    0  501 -0.00000000000E+00 -0.00000000000E+00 -0.17333559766E+03  0.17333559766E+03  0.00000000000E+00 0.  1.
         25    2    1    2    0    0  0.18813811268E+03  0.28920859887E+02  0.10863435672E+03  0.25235039393E+03  0.12508769833E+03 0.  0.
          5    1    3    3  502    0  0.27482281857E+02  0.11070158410E+02  0.83513822421E+02  0.88712204113E+02  0.41800000000E+01 0. -1.
         -5    1    3    3    0  502  0.16065583083E+03  0.17850701477E+02  0.25120534304E+02  0.16363818981E+03  0.41800000000E+01 0. -1.
        -11    1    1    2    0    0 -0.11280467115E+03 -0.32502803241E+02 -0.37220821129E+02  0.12315321992E+03  0.00000000000E+00 0.  1.
         11    1    1    2    0    0 -0.75333441536E+02  0.35819433535E+01  0.45499114003E+02  0.88080231078E+02  0.00000000000E+00 0. -1.
</event>
<event>
 7    1  0.2334784E-009  0.1225813E+03  0.7561462E-02  0.1238898E+00
          2   -1    0    0  501    0  0.00000000000E+00  0.00000000000E+00  0.10242476902E+04  0.10242476902E+04  0.00000000000E+00 0. -1.
         -2   -1    0    0    0  501 -0.00000000000E+00 -0.00000000000E+00 -0.19142499888E+02  0.19142499888E+02  0.00000000000E+00 0.  1.
         25    2    1    2    0    0 -0.28231455667E+01 -0.78801196497E+02  0.69723921156E+03  0.71274644143E+03  0.12508945964E+03 0.  0.
          5    1    3    3  502    0  0.52214716529E+02 -0.41580301919E+02  0.19578991540E+03  0.20689722449E+03  0.41800000000E+01 0. -1.
         -5    1    3    3    0  502 -0.55037862095E+02 -0.37220894579E+02  0.50144929616E+03  0.50584921694E+03  0.41800000000E+01 0. -1.
        -11    1    1    2    0    0  0.39770987478E+02  0.54572237618E+02  0.24264406673E+03  0.25186505054E+03  0.00000000000E+00 0.  1.
         11    1    1    2    0    0 -0.36947841911E+02  0.24228958880E+02  0.65221912039E+02  0.78778698138E+02  0.00000000000E+00 0. -1.
</event>
<event>
 7    1  0.2334784E-009  0.1038719E+03  0.7561462E-02  0.1272358E+00
          2   -1    0    0  501    0  0.00000000000E+00  0.00000000000E+00  0.10295377461E+04  0.10295377461E+04  0.00000000000E+00 0. -1.
         -2   -1    0    0    0  501 -0.00000000000E+00 -0.00000000000E+00 -0.20453170876E+02  0.20453170876E+02  0.00000000000E+00 0.  1.
         25    2    1    2    0    0 -0.88062391998E+01  0.43495963000E+02  0.85618463094E+03  0.86641194239E+03  0.12509229798E+03 0.  0.
          5    1    3    3  502    0 -0.53409314397E+02  0.75730820125E+01  0.18429473390E+03  0.19207271482E+03  0.41800000000E+01 0.  1.
         -5    1    3    3    0  502  0.44603075197E+02  0.35922880988E+02  0.67188989703E+03  0.67433922756E+03  0.41800000000E+01 0.  1.
        -11    1    1    2    0    0 -0.38499065508E+02 -0.20517293653E+02  0.99433504221E+02  0.10858249926E+03  0.00000000000E+00 0. -1.
         11    1    1    2    0    0  0.47305304708E+02 -0.22978669347E+02  0.53466440066E+02  0.74996475329E+02  0.00000000000E+00 0.  1.
</event>
<event>
 7    1  0.2334784E-009  0.1018531E+03  0.7561462E-02  0.1276447E+00
          3   -1    0    0  501    0  0.00000000000E+00  0.00000000000E+00  0.93010198530E+02  0.93010198530E+02  0.00000000000E+00 0. -1.
         -3   -1    0    0    0  501 -0.00000000000E+00 -0.00000000000E+00 -0.17911220874E+03  0.17911220874E+03  0.00000000000E+00 0.  1.
         25    2    1    2    0    0 -0.56555641955E+02  0.25774881599E+02 -0.17535648980E+02  0.14077503630E+03  0.12508887522E+03 0.  0.
          5    1    3    3  502    0 -0.12347463967E+02  0.43069643980E+02 -0.61320358825E+02  0.76059929697E+02  0.41800000000E+01 0.  1.
         -5    1    3    3    0  502 -0.44208177988E+02 -0.17294762381E+02  0.43784709846E+02  0.64715106606E+02  0.41800000000E+01 0.  1.
        -11    1    1    2    0    0  0.32227682164E+02 -0.60561812848E+02 -0.33798536448E+02  0.76476779085E+02  0.00000000000E+00 0. -1.
         11    1    1    2    0    0  0.24327959790E+02  0.34786931250E+02 -0.34767824777E+02  0.54870591878E+02  0.00000000000E+00 0.  1.
</event>
<event>
 7    1  0.2334784E-009  0.2950413E+03  0.7561462E-02  0.1087746E+00
         -2   -1    0    0    0  501 -0.00000000000E+00  0.00000000000E+00  0.13794533028E+03  0.13794533028E+03  0.00000000000E+00 0.  1.
          2   -1    0    0  501    0  0.00000000000E+00 -0.00000000000E+00 -0.10262422072E+04  0.10262422072E+04  0.00000000000E+00 0. -1.
         25    2    1    2    0    0  0.24554818981E+03  0.16066960291E+03 -0.77447293469E+03  0.83759436932E+03  0.12508943255E+03 0.  0.
          5    1    3    3  502    0  0.11823847919E+03  0.10003258733E+03 -0.55879043076E+03  0.57987160165E+03  0.41800000000E+01 0. -1.
         -5    1    3    3    0  502  0.12730971062E+03  0.60637015583E+02 -0.21568250393E+03  0.25772276768E+03  0.41800000000E+01 0. -1.
        -11    1    1    2    0    0 -0.69808461491E+02 -0.35506900645E+02  0.81572782627E+01  0.78743269413E+02  0.00000000000E+00 0.  1.
         11    1    1    2    0    0 -0.17573972832E+03 -0.12516270226E+03 -0.12198122047E+03  0.24784989872E+03  0.00000000000E+00 0. -1.
</event>
<event>
 7    1  0.2334784E-009  0.1609577E+03  0.7561462E-02  0.1187620E+00
          1   -1    0    0  501    0  0.00000000000E+00  0.00000000000E+00  0.31022587256E+03  0.31022587256E+03  0.00000000000E+00 0. -1.
         -1   -1    0    0    0  501 -0.00000000000E+00 -0.00000000000E+00 -0.96859707532E+02  0.96859707532E+02  0.00000000000E+00 0.  1.
         25    2    1    2    0    0  0.26974738869E+02 -0.11829917057E+03  0.43820682292E+02  0.17969284227E+03  0.12508770952E+03 0.  0.
          5    1    3    3  502    0  0.54994588873E+02 -0.12906110143E+03  0.21351578507E+02  0.14196666866E+03  0.41800000000E+01 0. -1.
         -5    1    3    3    0  502 -0.28019850005E+02  0.10761930857E+02  0.22469103785E+02  0.37726173606E+02  0.41800000000E+01 0. -1.
        -11    1    1    2    0    0  0.30489011078E+02  0.17297352075E+02  0.45218899998E+02  0.57214745498E+02  0.00000000000E+00 0.  1.
         11    1    1    2    0    0 -0.57463749947E+02  0.10100181849E+03  0.12432658274E+03  0.17017799233E+03  0.00000000000E+00 0. -1.
</event>
<event>
 7    1  0.2334784E-009  0.1286781E+03  0.7561462E-02  0.1229430E+00
          2   -1    0    0  501    0  0.00000000000E+00  0.00000000000E+00  0.27155094641E+03  0.27155094641E+03  0.00000000000E+00 0. -1.
         -2   -1    0    0    0  501 -0.00000000000E+00 -0.00000000000E+00 -0.62183172260E+02  0.62183172260E+02  0.00000000000E+00 0.  1.
         25    2    1    2    0    0 -0.10518460732E+02 -0.71251783621E+02  0.10166354308E+03  0.17654833625E+03  0.12508550817E+03 0.  0.
          5    1    3    3  502    0  0.53639636257E+02 -0.54509184419E+02  0.66218109977E+02  0.10124609747E+03  0.41800000000E+01 0.  1.
         -5    1    3    3    0  502 -0.64158096989E+02 -0.16742599202E+02  0.35445433106E+02  0.75302238781E+02  0.41800000000E+01 0.  1.
        -11    1    1    2    0    0 -0.30041250277E+02  0.67148041793E+02  0.65302612759E+02  0.98365479046E+02  0.00000000000E+00 0.  1.
         11    1    1    2    0    0  0.40559711009E+02  0.41037418282E+01  0.42401618312E+02  0.58820303379E+02  0.00000000000E+00 0. -1.
</event>
<event>
 7    1  0.2334784E-009  0.5315075E+03  0.7561462E-02  0.1005867E+00
         -1   -1    0    0    0  501 -0.00000000000E+00  0.00000000000E+00  0.22221289374E+03  0.22221289374E+03  0.00000000000E+00 0.  1.
          1   -1    0    0  501    0  0.00000000000E+00 -0.00000000000E+00 -0.13656917140E+04  0.13656917140E+04  0.00000000000E+00 0. -1.
         25    2    1    2    0    0  0.17091602570E+02 -0.53019239380E+03 -0.72002821129E+03  0.90304205876E+03  0.12509291552E+03 0.  0.
          5    1    3    3  502    0  0.26684314675E+02 -0.20703748406E+03 -0.19066921285E+03  0.28275217698E+03  0.41800000000E+01 0.  1.
         -5    1    3    3    0  502 -0.95927121049E+01 -0.32315490974E+03 -0.52935899844E+03  0.62028988178E+03  0.41800000000E+01 0.  1.
        -11    1    1    2    0    0  0.41580640623E+01  0.34251487830E+02 -0.61508013862E+02  0.70524390707E+02  0.00000000000E+00 0. -1.
         11    1    1    2    0    0 -0.21249666632E+02  0.49594090597E+03 -0.36194259509E+03  0.61433815825E+03  0.00000000000E+00 0.  1.
</event>
<event>
 7    1  0.2334784E-009  0.1755455E+03  0.7561462E-02  0.1172185E+00
         -1   -1    0    0    0  501 -0.00000000000E+00  0.00000000000E+00  0.29789374324E+03  0.29789374324E+03  0.00000000000E+00 0.  1.
          1   -1    0    0  501    0  0.00000000000E+00 -0.00000000000E+00 -0.16447770997E+03  0.16447770997E+03  0.00000000000E+00 0. -1.
         25    2    1    2    0    0 -0.10825441632E+03  0.11085403392E+03 -0.49404634761E+02  0.20517366932E+03  0.12509109145E+03 0.  0.
          5    1    3    3  502    0  0.26274261758E+02  0.18572553625E+02 -0.23211606264E+02  0.39893954986E+02  0.41800000000E+01 0. -1.
         -5    1    3    3    0  502 -0.13452867808E+03  0.92281480294E+02 -0.26193028497E+02  0.16527971434E+03  0.41800000000E+01 0. -1.
        -11    1    1    2    0    0  0.79555790927E+02 -0.73184069709E+02  0.17973960691E+03  0.20974116959E+03  0.00000000000E+00 0.  1.
         11    1    1    2    0    0  0.28698625391E+02 -0.37669964209E+02  0.30810611269E+01  0.47456614297E+02  0.00000000000E+00 0. -1.
</event>
<event>
 7    1  0.2334784E-009  0.1579195E+03  0.7561462E-02  0.1191066E+00
         -2   -1    0    0    0  501 -0.00000000000E+00  0.00000000000E+00  0.34362606633E+02  0.34362606633E+02  0.00000000000E+00 0.  1.
          2   -1    0    0  501    0  0.00000000000E+00 -0.00000000000E+00 -0.10188978913E+04  0.10188978913E+04  0.00000000000E+00 0. -1.
         25    2    1    2    0    0 -0.32672043981E+02  0.13141821208E+03 -0.71723489224E+03  0.74054812820E+03  0.12508969026E+03 0.  0.
          5    1    3    3  502    0 -0.17155623391E+02 -0.19656617421E+02 -0.19106705196E+03  0.19288542913E+03  0.41800000000E+01 0. -1.
         -5    1    3    3    0  502 -0.15516420590E+02  0.15107482951E+03 -0.52616784027E+03  0.54766269907E+03  0.41800000000E+01 0. -1.
        -11    1    1    2    0    0  0.25750050947E+02 -0.54685157193E+02 -0.20471210150E+03  0.21344923528E+03  0.00000000000E+00 0. -1.
         11    1    1    2    0    0  0.69219930339E+01 -0.76733054891E+02 -0.62588290932E+02  0.99263134457E+02  0.00000000000E+00 0.  1.
</event>
<event>
 7    1  0.2334784E-009  0.8256752E+02  0.7561462E-02  0.1321919E+00
          2   -1    0    0  501    0  0.00000000000E+00  0.00000000000E+00  0.50526579771E+02  0.50526579771E+02  0.00000000000E+00 0. -1.
         -2   -1    0    0    0  501 -0.00000000000E+00 -0.00000000000E+00 -0.34446324523E+03  0.34446324523E+03  0.00000000000E+00 0.  1.
         25    2    1    2    0    0 -0.10197211855E+02 -0.65523574217E+02 -0.20942685324E+03  0.25279435766E+03  0.12509219999E+03 0.  0.
          5    1    3    3  502    0 -0.94681718169E+01 -0.20617566037E+02  0.12562904058E+02  0.26268408121E+02  0.41800000000E+01 0.  1.
         -5    1    3    3    0  502 -0.72904003852E+00 -0.44906008180E+02 -0.22198975730E+03  0.22652594954E+03  0.41800000000E+01 0.  1.
        -11    1    1    2    0    0 -0.27089110401E+02  0.49392710554E+02 -0.98359650361E+01  0.57185714706E+02  0.00000000000E+00 0. -1.
         11    1    1    2    0    0  0.37286322257E+02  0.16130863663E+02 -0.74673847180E+02  0.85009752633E+02  0.00000000000E+00 0.  1.
</event>
<event>
 7    1  0.2334784E-009  0.1266380E+03  0.7561462E-02  0.1232531E+00
         -1   -1    0    0    0  501 -0.00000000000E+00  0.00000000000E+00  0.70947219840E+02  0.70947219840E+02  0.00000000000E+00 0.  1.
          1   -1    0    0  501    0  0.00000000000E+00 -0.00000000000E+00 -0.29559207298E+03  0.29559207298E+03  0.00000000000E+00 0. -1.
         25    2    1    2    0    0 -0.70901587458E+00 -0.94686318244E+02 -0.12709267340E+03  0.20191059894E+03  0.12509732518E+03 0.  0.
          5    1    3    3  502    0 -0.57052505292E+02 -0.55120416140E+02 -0.10022021419E+03  0.12788593499E+03  0.41800000000E+01 0.  1.
         -5    1    3    3    0  502  0.56343489418E+02 -0.39565902104E+02 -0.26872459210E+02  0.74024663951E+02  0.41800000000E+01 0.  1.
        -11    1    1    2    0    0 -0.20010971508E+02  0.24249238329E+02  0.11231859999E+02  0.33385913485E+02  0.00000000000E+00 0.  1.
         11    1    1    2    0    0  0.20719987382E+02  0.70437079915E+02 -0.10878403974E+03  0.13124278040E+03  0.00000000000E+00 0. -1.
</event>
<event>
 7    1  0.2334784E-009  0.1091909E+03  0.7561462E-02  0.1262076E+00
          1   -1    0    0  501    0  0.00000000000E+00  0.00000000000E+00  0.57082940839E+02  0.57082940839E+02  0.00000000000E+00 0. -1.
         -1   -1    0    0    0  501 -0.00000000000E+00 -0.00000000000E+00 -0.30446230645E+03  0.30446230645E+03  0.00000000000E+00 0.  1.
         25    2    1    2    0    0 -0.12642356073E+02  0.63656217408E+02 -0.84392732639E+02  0.16425870279E+03  0.12508734923E+03 0.  0.
          5    1    3    3  502    0  0.43861052229E+02  0.50497794050E+02 -0.82192475553E+02  0.10605137691E+03  0.41800000000E+01 0.  1.
         -5    1    3    3    0  502 -0.56503408303E+02  0.13158423358E+02 -0.22002570857E+01  0.58207325882E+02  0.41800000000E+01 0.  1.
        -11    1    1    2    0    0 -0.21457311342E+02 -0.53463186075E+02 -0.42324318874E+02  0.71484798688E+02  0.00000000000E+00 0. -1.
         11    1    1    2    0    0  0.34099667415E+02 -0.10193031333E+02 -0.12066231410E+03  0.12580174581E+03  0.00000000000E+00 0.  1.
</event>
<event>
 7    1  0.2334784E-009  0.1034484E+03  0.7561462E-02  0.1273207E+00
          3   -1    0    0  501    0  0.00000000000E+00  0.00000000000E+00  0.42291250270E+02  0.42291250270E+02  0.00000000000E+00 0.  1.
         -3   -1    0    0    0  501 -0.00000000000E+00 -0.00000000000E+00 -0.28748875527E+03  0.28748875527E+03  0.00000000000E+00 0. -1.
         25    2    1    2    0    0  0.29805604715E+02 -0.34529653193E+01 -0.13880840558E+03  0.18924932533E+03  0.12508891492E+03 0.  0.
          5    1    3    3  502    0  0.32284156534E+02  0.51400215919E+02 -0.31214209317E+02  0.68381636592E+02  0.41800000000E+01 0.  1.
         -5    1    3    3    0  502 -0.24785518191E+01 -0.54853181239E+02 -0.10759419626E+03  0.12086768873E+03  0.41800000000E+01 0.  1.
        -11    1    1    2    0    0 -0.94007974541E+01 -0.41005673547E+02 -0.58659059499E+02  0.72185355281E+02  0.00000000000E+00 0. -1.
         11    1    1    2    0    0 -0.20404807261E+02  0.44458638866E+02 -0.47730039927E+02  0.68345324936E+02  0.00000000000E+00 0.  1.
</event>
<event>
 7    1  0.2334784E-009  0.8746238E+02  0.7561462E-02  0.1309116E+00
          1   -1    0    0  501    0  0.00000000000E+00  0.00000000000E+00  0.10377532375E+03  0.10377532375E+03  0.00000000000E+00 0. -1.
         -1   -1    0    0    0  501 -0.00000000000E+00 -0.00000000000E+00 -0.12149226613E+03  0.12149226613E+03  0.00000000000E+00 0.  1.
         25    2    1    2    0    0 -0.33390420117E+02 -0.29171242395E+00  0.23618304264E+02  0.13160548916E+03  0.12508866947E+03 0.  0.
          5    1    3    3  502    0 -0.74307084644E+02  0.16707509776E+02 -0.84611067536E+01  0.76744683456E+02  0.41800000000E+01 0. -1.
         -5    1    3    3    0  502  0.40916664527E+02 -0.16999222200E+02  0.32079411018E+02  0.54860805706E+02  0.41800000000E+01 0. -1.
        -11    1    1    2    0    0  0.35156356062E+02  0.15794056504E+02 -0.58760430554E+02  0.70272397080E+02  0.00000000000E+00 0.  1.
         11    1    1    2    0    0 -0.17659359443E+01 -0.15502344080E+02  0.17425183915E+02  0.23389703637E+02  0.00000000000E+00 0. -1.
</event>
<event>
 7    1  0.2334784E-009  0.1226869E+03  0.7561462E-02  0.1238729E+00
         -1   -1    0    0    0  501 -0.00000000000E+00  0.00000000000E+00  0.87282581307E+02  0.87282581307E+02  0.00000000000E+00 0.  1.
          1   -1    0    0  501    0  0.00000000000E+00 -0.00000000000E+00 -0.22424065289E+03  0.22424065289E+03  0.00000000000E+00 0. -1.
         25    2    1    2    0    0  0.61319515970E+02 -0.43196125448E+01 -0.50456351353E+01  0.13947093458E+03  0.12509173061E+03 0.  0.
          5    1    3    3  502    0 -0.37541481354E+02  0.23493242464E+00  0.10495288925E+02  0.39205120905E+02  0.41800000000E+01 0. -1.
         -5    1    3    3    0  502  0.98860997324E+02 -0.45545449694E+01 -0.15540924060E+02  0.10026581368E+03  0.41800000000E+01 0. -1.
        -11    1    1    2    0    0 -0.67696774083E+02  0.35693414822E+02 -0.10666543901E+03  0.13127981171E+03  0.00000000000E+00 0.  1.
         11    1    1    2    0    0  0.63772581134E+01 -0.31373802278E+02 -0.25246997436E+02  0.40772487905E+02  0.00000000000E+00 0. -1.
</event>
<event>
 7    1  0.2334784E-009  0.1086381E+03  0.7561462E-02  0.1263113E+00
          2   -1    0    0  501    0  0.00000000000E+00  0.00000000000E+00  0.73639935840E+03  0.73639935840E+03  0.00000000000E+00 0. -1.
         -2   -1    0    0    0  501 -0.00000000000E+00 -0.00000000000E+00 -0.16152227608E+02  0.16152227608E+02  0.00000000000E+00 0.  1.
         25    2    1    2    0    0 -0.62969473413E+01  0.13435402086E+02  0.41006280112E+03  0.42897532641E+03  0.12509263860E+03 0.  0.
          5    1    3    3  502    0 -0.89759051701E+01  0.69032193689E+02  0.21036997626E+03  0.22162808926E+03  0.41800000000E+01 0.  1.
         -5    1    3    3    0  502  0.26789578288E+01 -0.55596791603E+02  0.19969282486E+03  0.20734723714E+03  0.41800000000E+01 0.  1.
        -11    1    1    2    0    0 -0.21422392904E+02  0.31992535760E+02  0.11543688259E+03  0.12168859899E+03  0.00000000000E+00 0.  1.
         11    1    1    2    0    0  0.27719340246E+02 -0.45427937846E+02  0.19474744709E+03  0.20188766061E+03  0.00000000000E+00 0. -1.
</event>
<event>
 7    1  0.2334784E-009  0.1632481E+03  0.7561462E-02  0.1185078E+00
          1   -1    0    0  501    0  0.00000000000E+00  0.00000000000E+00  0.72473797912E+03  0.72473797912E+03  0.00000000000E+00 0. -1.
         -1   -1    0    0    0  501 -0.00000000000E+00 -0.00000000000E+00 -0.40464018646E+02  0.40464018646E+02  0.00000000000E+00 0.  1.
         25    2    1    2    0    0  0.78304676339E+02 -0.10757167609E+03  0.38665532817E+03  0.42761636255E+03  0.12510045120E+03 0.  0.
          5    1    3    3  502    0 -0.11894623605E+02 -0.80797299951E+02  0.12354195120E+03  0.14815455395E+03  0.41800000000E+01 0. -1.
         -5    1    3    3    0  502  0.90199299944E+02 -0.26774376140E+02  0.26311337697E+03  0.27946180860E+03  0.41800000000E+01 0. -1.
        -11    1    1    2    0    0 -0.18956363637E+01  0.61054930700E+02  0.17819420268E+03  0.18837322493E+03  0.00000000000E+00 0. -1.
         11    1    1    2    0    0 -0.76409039975E+02  0.46516745392E+02  0.11942442962E+03  0.14921241028E+03  0.00000000000E+00 0.  1.
</event>
<event>
 7    1  0.2334784E-009  0.1202061E+03  0.7561462E-02  0.1242757E+00
         -2   -1    0    0    0  501 -0.00000000000E+00  0.00000000000E+00  0.91881905138E+02  0.91881905138E+02  0.00000000000E+00 0.  1.
          2   -1    0    0  501    0  0.00000000000E+00 -0.00000000000E+00 -0.22091332549E+03  0.22091332549E+03  0.00000000000E+00 0. -1.
         25    2    1    2    0    0 -0.76131825257E+02 -0.45298228696E+02 -0.36807917160E+02  0.15763118464E+03  0.12507910802E+03 0.  0.
          5    1    3    3  502    0  0.10871614598E+02 -0.42015275474E+02 -0.53360469147E+02  0.68907818458E+02  0.41800000000E+01 0. -1.
         -5    1    3    3    0  502 -0.87003439855E+02 -0.32829532223E+01  0.16552551987E+02  0.88723366177E+02  0.41800000000E+01 0. -1.
        -11    1    1    2    0    0  0.50968666561E+02 -0.71565800382E+01 -0.69512924076E+01  0.51935942035E+02  0.00000000000E+00 0.  1.
         11    1    1    2    0    0  0.25163158696E+02  0.52454808734E+02 -0.85272210789E+02  0.10322810396E+03  0.00000000000E+00 0. -1.
</event>
<event>
 7    1  0.2334784E-009  0.1014202E+03  0.7561462E-02  0.1277338E+00
          1   -1    0    0  501    0  0.00000000000E+00  0.00000000000E+00  0.19954254619E+04  0.19954254619E+04  0.00000000000E+00 0. -1.
         -1   -1    0    0    0  501 -0.00000000000E+00 -0.00000000000E+00 -0.10384301949E+02  0.10384301949E+02  0.00000000000E+00 0.  1.
         25    2    1    2    0    0  0.63579297198E+02  0.37152227091E+02  0.15109603970E+04  0.15179167672E+04  0.12508947127E+03 0.  0.
          5    1    3    3  502    0  0.41607978554E+02 -0.21043854899E+02  0.11920754459E+04  0.11929943037E+04  0.41800000000E+01 0.  1.
         -5    1    3    3    0  502  0.21971318645E+02  0.58196081990E+02  0.31888495117E+03  0.32492246350E+03  0.41800000000E+01 0.  1.
        -11    1    1    2    0    0  0.10937777838E+02 -0.84713279826E+01  0.10194201376E+02  0.17184880667E+02  0.00000000000E+00 0.  1.
         11    1    1    2    0    0 -0.74517075036E+02 -0.28680899109E+02  0.46388656150E+03  0.47070811591E+03  0.00000000000E+00 0. -1.
</event>
<event>
 7    1  0.2334784E-009  0.1800599E+03  0.7561462E-02  0.1167745E+00
          2   -1    0    0  501    0  0.00000000000E+00  0.00000000000E+00  0.62015874675E+03  0.62015874675E+03  0.00000000000E+00 0. -1.
         -2   -1    0    0    0  501 -0.00000000000E+00 -0.00000000000E+00 -0.59911619862E+02  0.59911619862E+02  0.00000000000E+00 0.  1.
         25    2    1    2    0    0 -0.14215090939E+03 -0.31647776187E+02  0.41019061634E+03  0.45289312650E+03  0.12508948603E+03 0.  0.
          5    1    3    3  502    0  0.22235141098E+02 -0.51365364411E+01  0.76522155101E+02  0.79961854203E+02  0.41800000000E+01 0.  1.
         -5    1    3    3    0  502 -0.16438605049E+03 -0.26511239746E+02  0.33366846124E+03  0.37293127230E+03  0.41800000000E+01 0.  1.
        -11    1    1    2    0    0  0.15332538213E+03  0.20705482703E+02  0.13938085143E+03  0.20824123406E+03  0.00000000000E+00 0.  1.
         11    1    1    2    0    0 -0.11174472739E+02  0.10942293484E+02  0.10675659117E+02  0.18936006054E+02  0.00000000000E+00 0. -1.
</event>
<event>
 7    1  0.2334784E-009  0.8531735E+02  0.7561462E-02  0.1314605E+00
          2   -1    0    0  501    0  0.00000000000E+00  0.00000000000E+00  0.80253119596E+02  0.80253119596E+02  0.00000000000E+00 0. -1.
         -2   -1    0    0    0  501 -0.00000000000E+00 -0.00000000000E+00 -0.21207867686E+03  0.21207867686E+03  0.00000000000E+00 0.  1.
         25    2    1    2    0    0 -0.27273148585E+02 -0.56124352243E+02 -0.31112392653E+02  0.14321092867E+03  0.12509045353E+03 0.  0.
          5    1    3    3  502    0  0.38928216007E+01  0.60010261590E+00 -0.68238247900E+02  0.68479522922E+02  0.41800000000E+01 0.  1.
         -5    1    3    3    0  502 -0.31165970186E+02 -0.56724454859E+02  0.37125855247E+02  0.74731405744E+02  0.41800000000E+01 0.  1.
        -11    1    1    2    0    0 -0.24026748064E+02  0.39268756208E+02 -0.16147805256E+02  0.48785975969E+02  0.00000000000E+00 0. -1.
         11    1    1    2    0    0  0.51299896649E+02  0.16855596035E+02 -0.84565359355E+02  0.10033489182E+03  0.00000000000E+00 0.  1.
</event>
<event>
 7    1  0.2334784E-009  0.7693680E+02  0.7561462E-02  0.1337976E+00
         -2   -1    0    0    0  501 -0.00000000000E+00  0.00000000000E+00  0.17728237125E+03  0.17728237125E+03  0.00000000000E+00 0.  1.
          2   -1    0    0  501    0  0.00000000000E+00 -0.00000000000E+00 -0.81647254483E+02  0.81647254483E+02  0.00000000000E+00 0. -1.
         25    2    1    2    0    0 -0.46175451269E+02 -0.78891502265E+01  0.48652046357E+02  0.14215405265E+03  0.12508533919E+03 0.  0.
          5    1    3    3  502    0 -0.70204377836E+02 -0.22147464854E+02 -0.12505338650E+02  0.74786501199E+02  0.41800000000E+01 0. -1.
         -5    1    3    3    0  502  0.24028926567E+02  0.14258314628E+02  0.61157385007E+02  0.67367551454E+02  0.41800000000E+01 0. -1.
        -11    1    1    2    0    0  0.18722047163E+02  0.14464121318E+02  0.74006638878E+02  0.77696257655E+02  0.00000000000E+00 0.  1.
         11    1    1    2    0    0  0.27453404106E+02 -0.65749710915E+01 -0.27023568464E+02  0.39079315429E+02  0.00000000000E+00 0. -1.
</event>
<event>
 7    1  0.2334784E-009  0.1871478E+03  0.7561462E-02  0.1161059E+00
         -2   -1    0    0    0  501 -0.00000000000E+00  0.00000000000E+00  0.21785484242E+02  0.21785484242E+02  0.00000000000E+00 0. -1.
          2   -1    0    0  501    0  0.00000000000E+00 -0.00000000000E+00 -0.24776256251E+04  0.24776256251E+04  0.00000000000E+00 0.  1.
         25    2    1    2    0    0  0.15146641749E+03 -0.36479458199E+02 -0.19864927466E+04  0.19965150362E+04  0.12508409568E+03 0.  0.
          5    1    3    3  502    0  0.15564404148E+03  0.54848136008E+01 -0.14479990561E+04  0.14563563746E+04  0.41800000000E+01 0.  1.
         -5    1    3    3    0  502 -0.41776239870E+01 -0.41964271800E+02 -0.53849369050E+03  0.54015866166E+03  0.41800000000E+01 0.  1.
        -11    1    1    2    0    0 -0.35978007731E+02  0.48080116179E+02 -0.21661861794E+03  0.22478821199E+03  0.00000000000E+00 0.  1.
         11    1    1    2    0    0 -0.11548840976E+03 -0.11600657980E+02 -0.25272877634E+03  0.27810786117E+03  0.00000000000E+00 0. -1.
</event>
<event>
 7    1  0.2334784E-009  0.1187859E+03  0.7561462E-02  0.1245114E+00
          1   -1    0    0  501    0  0.00000000000E+00  0.00000000000E+00  0.11540705472E+03  0.11540705472E+03  0.00000000000E+00 0. -1.
         -1   -1    0    0    0  501 -0.00000000000E+00 -0.00000000000E+00 -0.15653656824E+03  0.15653656824E+03  0.00000000000E+00 0.  1.
         25    2    1    2    0    0 -0.66105930371E+01  0.77439906144E+02 -0.92722696387E+01  0.14756230690E+03  0.12509204782E+03 0.  0.
          5    1    3    3  502    0 -0.59382466002E+02  0.44375624589E+02 -0.32386504447E+02  0.81005131915E+02  0.41800000000E+01 0. -1.
         -5    1    3    3    0  502  0.52771872965E+02  0.33064281555E+02  0.23114234808E+02  0.66557174984E+02  0.41800000000E+01 0. -1.
        -11    1    1    2    0    0 -0.28648322725E+02 -0.42620906501E+02 -0.49938687155E+02  0.71631979875E+02  0.00000000000E+00 0.  1.
         11    1    1    2    0    0  0.35258915762E+02 -0.34818999643E+02  0.18081443276E+02  0.52749336184E+02  0.00000000000E+00 0. -1.
</event>
<event>
 7    1  0.2334784E-009  0.6366298E+02  0.7561462E-02  0.1383073E+00
          2   -1    0    0  501    0  0.00000000000E+00  0.00000000000E+00  0.10763518772E+03  0.10763518772E+03  0.00000000000E+00 0. -1.
         -2   -1    0    0    0  501 -0.00000000000E+00 -0.00000000000E+00 -0.11987841941E+03  0.11987841941E+03  0.00000000000E+00 0.  1.
         25    2    1    2    0    0 -0.93614933379E+01  0.29280074062E+01 -0.40659324245E+02  0.13189925281E+03  0.12509205194E+03 0.  0.
          5    1    3    3  502    0 -0.53549914600E+01  0.26155935521E+02  0.39714226386E+02  0.48036455676E+02  0.41800000000E+01 0. -1.
         -5    1    3    3    0  502 -0.40065018778E+01 -0.23227928114E+02 -0.80373550631E+02  0.83862797132E+02  0.41800000000E+01 0. -1.
        -11    1    1    2    0    0 -0.21106113797E+02  0.26585656001E+02  0.39191875486E+02  0.51848512502E+02  0.00000000000E+00 0. -1.
         11    1    1    2    0    0  0.30467607134E+02 -0.29513663407E+02 -0.10775782940E+02  0.43765841820E+02  0.00000000000E+00 0.  1.
</event>
<event>
 7    1  0.2334784E-009  0.1021501E+03  0.7561462E-02  0.1275839E+00
         -1   -1    0    0    0  501 -0.00000000000E+00  0.00000000000E+00  0.59765283757E+02  0.59765283757E+02  0.00000000000E+00 0.  1.
          1   -1    0    0  501    0  0.00000000000E+00 -0.00000000000E+00 -0.20647032767E+03  0.20647032767E+03  0.00000000000E+00 0. -1.
         25    2    1    2    0    0  0.24222446559E+01 -0.79418053374E+01 -0.12222407353E+03  0.17508587346E+03  0.12508956548E+03 0.  0.
          5    1    3    3  502    0  0.49044625925E+02 -0.37681775116E+02 -0.94670189625E+02  0.11316010212E+03  0.41800000000E+01 0. -1.
         -5    1    3    3    0  502 -0.46622381269E+02  0.29739969778E+02 -0.27553883903E+02  0.61925771338E+02  0.41800000000E+01 0. -1.
        -11    1    1    2    0    0 -0.44427658764E+02  0.56326890527E+01 -0.59370293310E+01  0.45175129955E+02  0.00000000000E+00 0.  1.
         11    1    1    2    0    0  0.42005414108E+02  0.23091162847E+01 -0.18543941057E+02  0.45974608017E+02  0.00000000000E+00 0. -1.
</event>
<event>
 7    1  0.2334784E-009  0.1650230E+03  0.7561462E-02  0.1183140E+00
          1   -1    0    0  501    0  0.00000000000E+00  0.00000000000E+00  0.63559827850E+03  0.63559827850E+03  0.00000000000E+00 0. -1.
         -1   -1    0    0    0  501 -0.00000000000E+00 -0.00000000000E+00 -0.52264568249E+02  0.52264568249E+02  0.00000000000E+00 0.  1.
         25    2    1    2    0    0 -0.97666454316E+02  0.93000866719E+02  0.20208885187E+03  0.27326887430E+03  0.12509227036E+03 0.  0.
          5    1    3    3  502    0 -0.11129844815E+02  0.79827929930E+02  0.42529495371E+02  0.91228297249E+02  0.41800000000E+01 0.  1.
         -5    1    3    3    0  502 -0.86536609501E+02  0.13172936789E+02  0.15955935650E+03  0.18204057705E+03  0.41800000000E+01 0.  1.
        -11    1    1    2    0    0 -0.15779009210E+02 -0.13017858399E+01  0.54772483558E+02  0.57014881681E+02  0.00000000000E+00 0. -1.
         11    1    1    2    0    0  0.11344546353E+03 -0.91699080879E+02  0.32647237482E+03  0.35757909076E+03  0.00000000000E+00 0.  1.
</event>
<event>
 7    1  0.2334784E-009  0.1523760E+03  0.7561462E-02  0.1197583E+00
          2   -1    0    0  501    0  0.00000000000E+00  0.00000000000E+00  0.20255575330E+03  0.20255575330E+03  0.00000000000E+00 0. -1.
         -2   -1    0    0    0  501 -0.00000000000E+00 -0.00000000000E+00 -0.16500155764E+03  0.16500155764E+03  0.00000000000E+00 0.  1.
         25    2    1    2    0    0 -0.59494728207E+02  0.11781207849E+03  0.84749615507E+02  0.20061916429E+03  0.12508494406E+03 0.  0.
          5    1    3    3  502    0  0.14033447568E+02  0.35574067713E+02 -0.24254698597E+02  0.45477629097E+02  0.41800000000E+01 0. -1.
         -5    1    3    3    0  502 -0.73528175775E+02  0.82238010773E+02  0.10900431410E+03  0.15514153519E+03  0.41800000000E+01 0. -1.
        -11    1    1    2    0    0 -0.19691568959E+02 -0.41404415364E+02 -0.31869751389E+02  0.55836946131E+02  0.00000000000E+00 0. -1.
         11    1    1    2    0    0  0.79186297165E+02 -0.76407663121E+02 -0.15325668454E+02  0.11110120052E+03  0.00000000000E+00 0.  1.
</event>
<event>
 7    1  0.2334784E-009  0.1557030E+03  0.7561462E-02  0.1193635E+00
         -2   -1    0    0    0  501 -0.00000000000E+00  0.00000000000E+00  0.10642963857E+03  0.10642963857E+03  0.00000000000E+00 0.  1.
          2   -1    0    0  501    0  0.00000000000E+00 -0.00000000000E+00 -0.28588715771E+03  0.28588715771E+03  0.00000000000E+00 0. -1.
         25    2    1    2    0    0  0.72044190374E+02 -0.85334849307E+02 -0.18246148983E+03  0.24781472936E+03  0.12509013928E+03 0.  0.
          5    1    3    3  502    0  0.10606982172E+03 -0.79217538546E+02 -0.13713577770E+03  0.19065654832E+03  0.41800000000E+01 0. -1.
         -5    1    3    3    0  502 -0.34025631346E+02 -0.61173107614E+01 -0.45325712133E+02  0.57158181040E+02  0.41800000000E+01 0. -1.
        -11    1    1    2    0    0 -0.80993543151E+01  0.79509257277E+02 -0.32630118520E+01  0.79987303863E+02  0.00000000000E+00 0.  1.
         11    1    1    2    0    0 -0.63944836059E+02  0.58255920308E+01  0.62669825503E+01  0.64514763050E+02  0.00000000000E+00 0. -1.
</event>
<event>
 7    1  0.2334784E-009  0.9317410E+02  0.7561462E-02  0.1295342E+00
         -1   -1    0    0    0  501 -0.00000000000E+00  0.00000000000E+00  0.76261689834E+02  0.76261689834E+02  0.00000000000E+00 0.  1.
          1   -1    0    0  501    0  0.00000000000E+00 -0.00000000000E+00 -0.17736245549E+03  0.17736245549E+03  0.00000000000E+00 0. -1.
         25    2    1    2    0    0 -0.23114163623E+02 -0.21066998856E+02 -0.80271326326E+02  0.15188173992E+03  0.12508594682E+03 0.  0.
          5    1    3    3  502    0 -0.44960081987E+02 -0.58308611157E+02 -0.79580680237E+02  0.10849820355E+03  0.41800000000E+01 0. -1.
         -5    1    3    3    0  502  0.21845918364E+02  0.37241612301E+02 -0.69064608882E+00  0.43383536370E+02  0.41800000000E+01 0. -1.
        -11    1    1    2    0    0 -0.14226547133E+02 -0.12555582476E+02 -0.42863954559E+02  0.46875962871E+02  0.00000000000E+00 0.  1.
         11    1    1    2    0    0  0.37340710756E+02  0.33622581333E+02  0.22034515225E+02  0.54866442535E+02  0.00000000000E+00 0. -1.
</event>
<event>
 7    1  0.2477675E-009  0.2356303E+03  0.7561462E-02  0.1122739E+00
         -2   -1    0    0    0  501 -0.00000000000E+00  0.00000000000E+00  0.42512082416E+02  0.42512082416E+02  0.00000000000E+00 0.  1.
          2   -1    0    0  501    0  0.00000000000E+00 -0.00000000000E+00 -0.15910642089E+04  0.15910642089E+04  0.00000000000E+00 0. -1.
         25    2    1    2    0    0 -0.19763040115E+03 -0.10617787430E+03 -0.56608057938E+03  0.62163152015E+03  0.12508800117E+03 0.  0.
          5    1    3    3  502    0 -0.11908808406E+03 -0.98916902196E+02 -0.23632885141E+03  0.28255145321E+03  0.41800000000E+01 0. -1.
         -5    1    3    3    0  502 -0.78542317099E+02 -0.72609721003E+01 -0.32975172798E+03  0.33908006694E+03  0.41800000000E+01 0. -1.
        -11    1    1    2    0    0  0.76022909016E+02  0.84639031657E-01 -0.41799010815E+03  0.42484729064E+03  0.00000000000E+00 0.  1.
         11    1    1    2    0    0  0.12160749214E+03  0.10609323526E+03 -0.56448143894E+03  0.58709748051E+03  0.00000000000E+00 0. -1.
</event>
<event>
 7    1  0.2334784E-009  0.1155115E+03  0.7561462E-02  0.1250691E+00
          2   -1    0    0  501    0  0.00000000000E+00  0.00000000000E+00  0.89129436039E+03  0.89129436039E+03  0.00000000000E+00 0. -1.
         -2   -1    0    0    0  501 -0.00000000000E+00 -0.00000000000E+00 -0.26733379345E+02  0.26733379345E+02  0.00000000000E+00 0.  1.
         25    2    1    2    0    0 -0.35191292409E+02  0.64228978597E+02  0.68263659963E+03  0.69785729026E+03  0.12509309198E+03 0.  0.
          5    1    3    3  502    0  0.91167449786E+01  0.65766252782E+02  0.15935248967E+03  0.17268179814E+03  0.41800000000E+01 0.  1.
         -5    1    3    3    0  502 -0.44308037387E+02 -0.15372741843E+01  0.52328410996E+03  0.52517549213E+03  0.41800000000E+01 0.  1.
        -11    1    1    2    0    0  0.66660936645E+02 -0.28909566466E+02  0.81654749588E+02  0.10930206603E+03  0.00000000000E+00 0.  1.
         11    1    1    2    0    0 -0.31469644237E+02 -0.35319412132E+02  0.10026963183E+03  0.11086838345E+03  0.00000000000E+00 0. -1.
</event>
<event>
 7    1  0.2334784E-009  0.8920040E+02  0.7561462E-02  0.1304800E+00
          2   -1    0    0  501    0  0.00000000000E+00  0.00000000000E+00  0.36599172057E+02  0.36599172057E+02  0.00000000000E+00 0. -1.
         -2   -1    0    0    0  501 -0.00000000000E+00 -0.00000000000E+00 -0.37483176733E+03  0.37483176733E+03  0.00000000000E+00 0.  1.
         25    2    1    2    0    0  0.40230633015E+02  0.40353336109E+01 -0.22348469229E+03  0.25925859284E+03  0.12503928392E+03 0.  0.
          5    1    3    3  502    0 -0.19715957959E+02 -0.30460854967E+01  0.65416660673E+01  0.21407088312E+02  0.41800000000E+01 0. -1.
         -5    1    3    3    0  502  0.59946590973E+02  0.70814191076E+01 -0.23002635836E+03  0.23785150453E+03  0.41800000000E+01 0. -1.
        -11    1    1    2    0    0 -0.67419757254E+02  0.77745097978E+01 -0.94210595935E+02  0.11610987493E+03  0.00000000000E+00 0.  1.
         11    1    1    2    0    0  0.27189124239E+02 -0.11809843409E+02 -0.20537307047E+02  0.36062471615E+02  0.00000000000E+00 0. -1.
</event>
<event>
 7    1  0.2334784E-009  0.1183332E+03  0.7561462E-02  0.1245872E+00
          1   -1    0    0  501    0  0.00000000000E+00  0.00000000000E+00  0.12591316001E+03  0.12591316001E+03  0.00000000000E+00 0. -1.
         -1   -1    0    0    0  501 -0.00000000000E+00 -0.00000000000E+00 -0.11967512183E+03  0.11967512183E+03  0.00000000000E+00 0.  1.
         25    2    1    2    0    0 -0.19277182219E+02 -0.53155336024E+02 -0.85613726167E+01  0.13754132620E+03  0.12508884767E+03 0.  0.
          5    1    3    3  502    0  0.49035234399E+02 -0.15216642075E+02  0.18513304856E+02  0.54737695104E+02  0.41800000000E+01 0.  1.
         -5    1    3    3    0  502 -0.68312416618E+02 -0.37938693949E+02 -0.27074677473E+02  0.82803631098E+02  0.41800000000E+01 0.  1.
        -11    1    1    2    0    0  0.21248440793E+02 -0.22658547332E+02  0.66893929437E+01  0.31775052813E+02  0.00000000000E+00 0.  1.
         11    1    1    2    0    0 -0.19712585736E+01  0.75813883356E+02  0.81100178513E+01  0.76271902818E+02  0.00000000000E+00 0. -1.
</event>
<event>
 7    1  0.2334784E-009  0.1405772E+03  0.7561462E-02  0.1212554E+00
         -2   -1    0    0    0  501 -0.00000000000E+00  0.00000000000E+00  0.22319849867E+02  0.22319849867E+02  0.00000000000E+00 0. -1.
          2   -1    0    0  501    0  0.00000000000E+00 -0.00000000000E+00 -0.91299644196E+03  0.91299644196E+03  0.00000000000E+00 0.  1.
         25    2    1    2    0    0  0.91727786816E+02 -0.63085645319E+01 -0.51037006441E+03  0.53345975733E+03  0.12509166710E+03 0.  0.
          5    1    3    3  502    0  0.12241320715E+03 -0.80540311016E+01 -0.43417362436E+03  0.45119183192E+03  0.41800000000E+01 0. -1.
         -5    1    3    3    0  502 -0.30685420329E+02  0.17454665697E+01 -0.76196440053E+02  0.82267925409E+02  0.41800000000E+01 0. -1.
        -11    1    1    2    0    0 -0.42561443973E+02 -0.41042803404E+02 -0.13833689011E+03  0.15044295726E+03  0.00000000000E+00 0. -1.
         11    1    1    2    0    0 -0.49166342844E+02  0.47351367936E+02 -0.24196963757E+03  0.25141357724E+03  0.00000000000E+00 0.  1.
</event>
<event>
 7    1  0.2334784E-009  0.9998533E+02  0.7561462E-02  0.1280327E+00
         -1   -1    0    0    0  501 -0.00000000000E+00  0.00000000000E+00  0.30395827158E+02  0.30395827158E+02  0.00000000000E+00 0.  1.
          1   -1    0    0  501    0  0.00000000000E+00 -0.00000000000E+00 -0.39897701926E+03  0.39897701926E+03  0.00000000000E+00 0. -1.
         25    2    1    2    0    0  0.70994096617E+01  0.17565246562E+01 -0.23367147802E+03  0.26515073889E+03  0.12509623376E+03 0.  0.
          5    1    3    3  502    0  0.59737451327E+02 -0.12359020427E+02 -0.17300977924E+03  0.18349704246E+03  0.41800000000E+01 0. -1.
         -5    1    3    3    0  502 -0.52638041665E+02  0.14115545084E+02 -0.60661698771E+02  0.81653696433E+02  0.41800000000E+01 0. -1.
        -11    1    1    2    0    0  0.19200368436E+02  0.34436686524E+02 -0.99943593670E+02  0.10743957112E+03  0.00000000000E+00 0. -1.
         11    1    1    2    0    0 -0.26299778098E+02 -0.36193211181E+02 -0.34966120412E+02  0.56782536402E+02  0.00000000000E+00 0.  1.
</event>
<event>
 7    1  0.2334784E-009  0.1526000E+03  0.7561462E-02  0.1197314E+00
         -2   -1    0    0    0  501 -0.00000000000E+00  0.00000000000E+00  0.43879865947E+03  0.43879865947E+03  0.00000000000E+00 0.  1.
          2   -1    0    0  501    0  0.00000000000E+00 -0.00000000000E+00 -0.69316866717E+02  0.69316866717E+02  0.00000000000E+00 0. -1.
         25    2    1    2    0    0  0.12903470098E+03 -0.41769441299E+02  0.20762172064E+03  0.27775757486E+03  0.12509137151E+03 0.  0.
          5    1    3    3  502    0  0.92583488282E+01  0.15314048374E+02  0.11361937295E+03  0.11509592265E+03  0.41800000000E+01 0.  1.
         -5    1    3    3    0  502  0.11977635215E+03 -0.57083489673E+02  0.94002347692E+02  0.16266165221E+03  0.41800000000E+01 0.  1.
        -11    1    1    2    0    0 -0.60881647499E+02 -0.17934400787E+02  0.10708942937E+03  0.12448439105E+03  0.00000000000E+00 0.  1.
         11    1    1    2    0    0 -0.68153053481E+02  0.59703842085E+02  0.54770642743E+02  0.10587356027E+03  0.00000000000E+00 0. -1.
</event>
<event>
 7    1  0.2334784E-009  0.1121623E+03  0.7561462E-02  0.1256617E+00
          1   -1    0    0  501    0  0.00000000000E+00  0.00000000000E+00  0.75338285278E+02  0.75338285278E+02  0.00000000000E+00 0. -1.
         -1   -1    0    0    0  501 -0.00000000000E+00 -0.00000000000E+00 -0.18472097747E+03  0.18472097747E+03  0.00000000000E+00 0.  1.
         25    2    1    2    0    0 -0.41160675659E+02 -0.13560125187E+02 -0.46442842257E+02  0.14029570242E+03  0.12509143977E+03 0.  0.
          5    1    3    3  502    0 -0.28590812367E+02 -0.65214890246E+02 -0.27953000019E+01  0.71384189872E+02  0.41800000000E+01 0. -1.
         -5    1    3    3    0  502 -0.12569863292E+02  0.51654765059E+02 -0.43647542255E+02  0.68911512546E+02  0.41800000000E+01 0. -1.
        -11    1    1    2    0    0  0.62632826918E+02 -0.14545675447E+02 -0.52137389887E+02  0.82781369319E+02  0.00000000000E+00 0.  1.
         11    1    1    2    0    0 -0.21472151259E+02  0.28105800634E+02 -0.10802460049E+02  0.36982191013E+02  0.00000000000E+00 0. -1.
</event>
<event>
 7    1  0.2334784E-009  0.4295430E+03  0.7561462E-02  0.1034004E+00
          2   -1    0    0  501    0  0.00000000000E+00  0.00000000000E+00  0.19283169613E+04  0.19283169613E+04  0.00000000000E+00 0. -1.
         -2   -1    0    0    0  501 -0.00000000000E+00 -0.00000000000E+00 -0.12752868922E+03  0.12752868922E+03  0.00000000000E+00 0.  1.
         25    2    1    2    0    0 -0.42049903927E+03  0.13514034344E+02  0.41270811379E+03  0.60247518661E+03  0.12508513957E+03 0.  0.
          5    1    3    3  502    0 -0.28302808834E+03  0.46739036171E+02  0.21117415150E+03  0.35623227108E+03  0.41800000000E+01 0.  1.
         -5    1    3    3    0  502 -0.13747095093E+03 -0.33225001827E+02  0.20153396228E+03  0.24624291553E+03  0.41800000000E+01 0.  1.
        -11    1    1    2    0    0  0.11932706464E+03  0.37842938886E+02  0.39778351333E+03  0.41701649830E+03  0.00000000000E+00 0. -1.
         11    1    1    2    0    0  0.30117197463E+03 -0.51356973229E+02  0.99029664500E+03  0.10363539656E+04  0.00000000000E+00 0.  1.
</event>
<event>
 7    1  0.2334784E-009  0.8999782E+02  0.7561462E-02  0.1302857E+00
          2   -1    0    0  501    0  0.00000000000E+00  0.00000000000E+00  0.55637909450E+02  0.55637909450E+02  0.00000000000E+00 0. -1.
         -2   -1    0    0    0  501 -0.00000000000E+00 -0.00000000000E+00 -0.33027925457E+03  0.33027925457E+03  0.00000000000E+00 0.  1.
         25    2    1    2    0    0 -0.23739799803E+02  0.73631738253E+02 -0.18573734517E+03  0.23691598203E+03  0.12508241355E+03 0.  0.
          5    1    3    3  502    0 -0.35712253400E+02  0.78354869119E+02 -0.19967410837E+03  0.21749039636E+03  0.41800000000E+01 0.  1.
         -5    1    3    3    0  502  0.11972453597E+02 -0.47231308664E+01  0.13936763197E+02  0.19425585673E+02  0.41800000000E+01 0.  1.
        -11    1    1    2    0    0 -0.68355985696E+00 -0.31841021580E+02 -0.95017007083E+02  0.10021252189E+03  0.00000000000E+00 0.  1.
         11    1    1    2    0    0  0.24423359660E+02 -0.41790716673E+02  0.61130071332E+01  0.48788660090E+02  0.00000000000E+00 0. -1.
</event>
<event>
 7    1  0.2334784E-009  0.1707224E+03  0.7561462E-02  0.1177097E+00
          2   -1    0    0  501    0  0.00000000000E+00  0.00000000000E+00  0.13791989785E+04  0.13791989785E+04  0.00000000000E+00 0. -1.
         -2   -1    0    0    0  501 -0.00000000000E+00 -0.00000000000E+00 -0.21937634906E+02  0.21937634906E+02  0.00000000000E+00 0.  1.
         25    2    1    2    0    0  0.84981102616E+02 -0.10507708750E+03  0.78830078403E+03  0.80952369036E+03  0.12508995575E+03 0.  0.
          5    1    3    3  502    0  0.17198117278E+01 -0.97371859219E+02  0.35116468087E+03  0.36444250878E+03  0.41800000000E+01 0.  1.
         -5    1    3    3    0  502  0.83261290888E+02 -0.77052282792E+01  0.43713610316E+03  0.44508118157E+03  0.41800000000E+01 0.  1.
        -11    1    1    2    0    0 -0.14805111956E+02  0.86356765711E+02  0.26557486039E+03  0.27965458836E+03  0.00000000000E+00 0.  1.
         11    1    1    2    0    0 -0.70175990660E+02  0.18720321787E+02  0.30338569917E+03  0.31195833467E+03  0.00000000000E+00 0. -1.
</event>
<event>
 7    1  0.2334784E-009  0.1255473E+03  0.7561462E-02  0.1234216E+00
          2   -1    0    0  501    0  0.00000000000E+00  0.00000000000E+00  0.14493556626E+04  0.14493556626E+04  0.00000000000E+00 0. -1.
         -2   -1    0    0    0  501 -0.00000000000E+00 -0.00000000000E+00 -0.17729739290E+02  0.17729739290E+02  0.00000000000E+00 0.  1.
         25    2    1    2    0    0  0.82272868543E+02 -0.48666838936E+02  0.11196655041E+04  0.11306797337E+04  0.12509409645E+03 0.  0.
          5    1    3    3  502    0  0.13079860363E+02 -0.55667084483E+02  0.19139958764E+03  0.19980285682E+03  0.41800000000E+01 0. -1.
         -5    1    3    3    0  502  0.69193008180E+02  0.70002455468E+01  0.92826591645E+03  0.93087687685E+03  0.41800000000E+01 0. -1.
        -11    1    1    2    0    0 -0.23783218589E+01  0.43991837103E+02  0.84832814814E+02  0.95590504841E+02  0.00000000000E+00 0.  1.
         11    1    1    2    0    0 -0.79894546684E+02  0.46750018331E+01  0.22712760444E+03  0.24081516342E+03  0.00000000000E+00 0. -1.
</event>
<event>
 7    1  0.2334784E-009  0.1098530E+03  0.7561462E-02  0.1260842E+00
         -2   -1    0    0    0  501 -0.00000000000E+00  0.00000000000E+00  0.55380979771E+03  0.55380979771E+03  0.00000000000E+00 0. -1.
          2   -1    0    0  501    0  0.00000000000E+00 -0.00000000000E+00 -0.34690204077E+02  0.34690204077E+02  0.00000000000E+00 0.  1.
         25    2    1    2    0    0 -0.84586887585E+02 -0.59725541178E+01  0.34787713749E+03  0.37927237277E+03  0.12505365650E+03 0.  0.
          5    1    3    3  502    0  0.29031079161E+01 -0.38050577884E+02  0.32211360900E+02  0.50113059015E+02  0.41800000000E+01 0. -1.
         -5    1    3    3    0  502 -0.87489995501E+02  0.32078023766E+02  0.31566577659E+03  0.32915931376E+03  0.41800000000E+01 0. -1.
        -11    1    1    2    0    0  0.28856578730E+02 -0.91845451618E+01  0.19398317876E+01  0.30345031771E+02  0.00000000000E+00 0.  1.
         11    1    1    2    0    0  0.55730308855E+02  0.15157099280E+02  0.16930262436E+03  0.17888259725E+03  0.00000000000E+00 0. -1.
</event>
<event>
 7    1  0.2334784E-009  0.1741798E+03  0.7561462E-02  0.1173558E+00
          2   -1    0    0  501    0  0.00000000000E+00  0.00000000000E+00  0.11663124290E+03  0.11663124290E+03  0.00000000000E+00 0. -1.
         -2   -1    0    0    0  501 -0.00000000000E+00 -0.00000000000E+00 -0.29584480153E+03  0.29584480153E+03  0.00000000000E+00 0.  1.
         25    2    1    2    0    0 -0.84701202705E+02  0.12508448682E+03 -0.95207474826E+02  0.21801806320E+03  0.12508792922E+03 0.  0.
          5    1    3    3  502    0  0.19253162498E+02  0.36028622849E+02 -0.66401142482E+02  0.78072594765E+02  0.41800000000E+01 0. -1.
         -5    1    3    3    0  502 -0.10395436520E+03  0.89055863973E+02 -0.28806332344E+02  0.13994546844E+03  0.41800000000E+01 0. -1.
        -11    1    1    2    0    0  0.76597313163E+02 -0.42956274822E+02 -0.20127720628E+02  0.90097253388E+02  0.00000000000E+00 0.  1.
         11    1    1    2    0    0  0.81038895421E+01 -0.82128211999E+02 -0.63878363185E+02  0.10436072784E+03  0.00000000000E+00 0. -1.
</event>
<event>
 7    1  0.2334784E-009  0.1880135E+03  0.7561462E-02  0.1160265E+00
         -1   -1    0    0    0  501 -0.00000000000E+00  0.00000000000E+00  0.80169374475E+03  0.80169374475E+03  0.00000000000E+00 0.  1.
          1   -1    0    0  501    0  0.00000000000E+00 -0.00000000000E+00 -0.51708634269E+02  0.51708634269E+02  0.00000000000E+00 0. -1.
         25    2    1    2    0    0  0.14042545783E+03  0.86438901099E+02  0.49291926023E+03  0.53460997563E+03  0.12508971222E+03 0.  0.
          5    1    3    3  502    0  0.16116458272E+03  0.61720487129E+02  0.38586170672E+03  0.42271760120E+03  0.41800000000E+01 0. -1.
         -5    1    3    3    0  502 -0.20739124889E+02  0.24718413970E+02  0.10705755352E+03  0.11189237443E+03  0.41800000000E+01 0. -1.
        -11    1    1    2    0    0 -0.45985995689E+02 -0.54180033116E+02  0.44186742272E+02  0.83681873668E+02  0.00000000000E+00 0. -1.
         11    1    1    2    0    0 -0.94439462145E+02 -0.32258867983E+02  0.21287910798E+03  0.23511052972E+03  0.00000000000E+00 0.  1.
</event>
<event>
 7    1  0.2334784E-009  0.1142829E+03  0.7561462E-02  0.1252838E+00
         -2   -1    0    0    0  501 -0.00000000000E+00  0.00000000000E+00  0.46586423013E+02  0.46586423013E+02  0.00000000000E+00 0. -1.
          2   -1    0    0  501    0  0.00000000000E+00 -0.00000000000E+00 -0.34781257307E+03  0.34781257307E+03  0.00000000000E+00 0.  1.
         25    2    1    2    0    0  0.43478279033E+01  0.63935636933E+02 -0.18599980258E+03  0.23312927687E+03  0.12508662557E+03 0.  0.
          5    1    3    3  502    0  0.54438934436E+02  0.69440664838E+02 -0.13483106662E+03  0.16119085719E+03  0.41800000000E+01 0. -1.
         -5    1    3    3    0  502 -0.50091106533E+02 -0.55050279048E+01 -0.51168735958E+02  0.71938419676E+02  0.41800000000E+01 0. -1.
        -11    1    1    2    0    0 -0.28157482167E+02 -0.86274953739E+01 -0.92221558988E+02  0.96809572980E+02  0.00000000000E+00 0.  1.
         11    1    1    2    0    0  0.23809654264E+02 -0.55308141559E+02 -0.23004788483E+02  0.64460146230E+02  0.00000000000E+00 0. -1.
</event>
<event>
 7    1  0.2334784E-009  0.1909411E+03  0.7561462E-02  0.1157615E+00
          3   -1    0    0  501    0  0.00000000000E+00  0.00000000000E+00  0.22675572811E+03  0.22675572811E+03  0.00000000000E+00 0. -1.
         -3   -1    0    0    0  501 -0.00000000000E+00 -0.00000000000E+00 -0.18839538668E+03  0.18839538668E+03  0.00000000000E+00 0.  1.
         25    2    1    2    0    0  0.46932350716E+02  0.16630087857E+03 -0.73930862176E+01  0.21344923631E+03  0.12508913222E+03 0.  0.
          5    1    3    3  502    0  0.72148603564E+02  0.72861820825E+02  0.33992019721E+02  0.10810733432E+03  0.41800000000E+01 0. -1.
         -5    1    3    3    0  502 -0.25216252848E+02  0.93439057746E+02 -0.41385105939E+02  0.10534190198E+03  0.41800000000E+01 0. -1.
        -11    1    1    2    0    0  0.60650053333E+01 -0.85749061225E+02 -0.15666205357E+02  0.87379149578E+02  0.00000000000E+00 0.  1.
         11    1    1    2    0    0 -0.52997356049E+02 -0.80551817345E+02  0.61419632998E+02  0.11432272890E+03  0.00000000000E+00 0. -1.
</event>
<event>
 7    1  0.2334784E-009  0.1301014E+03  0.7561462E-02  0.1227305E+00
          2   -1    0    0  501    0  0.00000000000E+00  0.00000000000E+00  0.27803023050E+03  0.27803023050E+03  0.00000000000E+00 0. -1.
         -2   -1    0    0    0  501 -0.00000000000E+00 -0.00000000000E+00 -0.10404712853E+03  0.10404712853E+03  0.00000000000E+00 0.  1.
         25    2    1    2    0    0 -0.42827381146E+02 -0.95592436014E+02  0.18174614567E+03  0.24423437361E+03  0.12508664752E+03 0.  0.
          5    1    3    3  502    0 -0.72399840691E+02 -0.51340720128E+02  0.16647877826E+03  0.18870681622E+03  0.41800000000E+01 0. -1.
         -5    1    3    3    0  502  0.29572459546E+02 -0.44251715887E+02  0.15267367413E+02  0.55527557395E+02  0.41800000000E+01 0. -1.
        -11    1    1    2    0    0  0.41304390420E+02  0.26987583328E+02 -0.38567195617E+02  0.62624363467E+02  0.00000000000E+00 0.  1.
         11    1    1    2    0    0  0.15229907251E+01  0.68604852687E+02  0.30804151912E+02  0.75218621949E+02  0.00000000000E+00 0. -1.
</event>
<event>
 7    1  0.2334784E-009  0.1037117E+03  0.7561462E-02  0.1272679E+00
          1   -1    0    0  501    0  0.00000000000E+00  0.00000000000E+00  0.24968709307E+03  0.24968709307E+03  0.00000000000E+00 0.  1.
         -1   -1    0    0    0  501 -0.00000000000E+00 -0.00000000000E+00 -0.50297368916E+02  0.50297368916E+02  0.00000000000E+00 0. -1.
         25    2    1    2    0    0 -0.36067984158E+01  0.20819180402E+02  0.11139007011E+03  0.16882615735E+03  0.12509227162E+03 0.  0.
          5    1    3    3  502    0  0.39715183698E+02  0.54141892402E+02  0.83785412570E+02  0.10745281796E+03  0.41800000000E+01 0. -1.
         -5    1    3    3    0  502 -0.43321982114E+02 -0.33322712000E+02  0.27604657543E+02  0.61373339386E+02  0.41800000000E+01 0. -1.
        -11    1    1    2    0    0 -0.39459663327E+02 -0.13113960389E+02  0.74592912098E+02  0.85399903526E+02  0.00000000000E+00 0.  1.
         11    1    1    2    0    0  0.43066461742E+02 -0.77052200131E+01  0.13406741942E+02  0.45758401108E+02  0.00000000000E+00 0. -1.
</event>
<event>
 7    1  0.2334784E-009  0.1416946E+03  0.7561462E-02  0.1211067E+00
         -2   -1    0    0    0  501 -0.00000000000E+00  0.00000000000E+00  0.24944032404E+03  0.24944032404E+03  0.00000000000E+00 0.  1.
          2   -1    0    0  501    0  0.00000000000E+00 -0.00000000000E+00 -0.12190686099E+03  0.12190686099E+03  0.00000000000E+00 0. -1.
         25    2    1    2    0    0 -0.76057411577E+02 -0.70047161390E+02  0.16249876101E+03  0.22967250314E+03  0.12510905920E+03 0.  0.
          5    1    3    3  502    0 -0.10749205642E+03 -0.32032954483E+02  0.12134713393E+03  0.16529746423E+03  0.41800000000E+01 0. -1.
         -5    1    3    3    0  502  0.31434644848E+02 -0.38014206907E+02  0.41151627083E+02  0.64375038913E+02  0.41800000000E+01 0. -1.
        -11    1    1    2    0    0  0.44337125987E+02 -0.44912287925E+00 -0.45646425709E+02  0.63636299642E+02  0.00000000000E+00 0. -1.
         11    1    1    2    0    0  0.31720285590E+02  0.70496284269E+02  0.10681127751E+02  0.78038382247E+02  0.00000000000E+00 0.  1.
</event>
<event>
 7    1  0.2334784E-009  0.9245306E+02  0.7561462E-02  0.1297018E+00
          1   -1    0    0  501    0  0.00000000000E+00  0.00000000000E+00  0.30210383574E+03  0.30210383574E+03  0.00000000000E+00 0. -1.
         -1   -1    0    0    0  501 -0.00000000000E+00 -0.00000000000E+00 -0.39675178542E+02  0.39675178542E+02  0.00000000000E+00 0.  1.
         25    2    1    2    0    0 -0.92566375525E+01 -0.15430106972E+02  0.13768661626E+03  0.18689392966E+03  0.12509181870E+03 0.  0.
          5    1    3    3  502    0  0.44466880404E+02 -0.10673333127E+02  0.83141272236E+01  0.46667125521E+02  0.41800000000E+01 0.  1.
         -5    1    3    3    0  502 -0.53723517956E+02 -0.47567738451E+01  0.12937248904E+03  0.14022680414E+03  0.41800000000E+01 0.  1.
        -11    1    1    2    0    0  0.20874307349E+02  0.46904677425E+02  0.10247972609E+03  0.11462059035E+03  0.00000000000E+00 0. -1.
         11    1    1    2    0    0 -0.11617669796E+02 -0.31474570453E+02  0.22262314837E+02  0.40264494267E+02  0.00000000000E+00 0.  1.
</event>
<event>
 6    1  0.2334784E-009  0.9337656E+02  0.7561462E-02  0.1294875E+00
          1   -1    0    0  501    0  0.00000000000E+00  0.00000000000E+00  0.69030389712E+02  0.69030389712E+02  0.00000000000E+00 0. -1.
         -1   -1    0    0    0  501 -0.00000000000E+00 -0.00000000000E+00 -0.16790162275E+03  0.16790162275E+03  0.00000000000E+00 0.  1.
          5    1    1    2  502    0  0.28910683113E+02  0.40742392639E+02  0.12323552956E+02  0.51624727733E+02  0.41800000000E+01 0.  1.
         -5    1    1    2    0  502 -0.18301524484E+02 -0.48788654739E+02 -0.67974525950E+02  0.85751310239E+02  0.41800000000E+01 0.  1.
        -11    1    1    2    0    0 -0.11395042690E+02  0.45488814660E+02 -0.40575858677E+02  0.62011930824E+02  0.00000000000E+00 0.  1.
         11    1    1    2    0    0  0.78588406044E+00 -0.37442552560E+02 -0.26444013632E+01  0.37544043663E+02  0.00000000000E+00 0. -1.
</event>
<event>
 7    1  0.2334784E-009  0.1536162E+03  0.7561462E-02  0.1196099E+00
          2   -1    0    0  501    0  0.00000000000E+00  0.00000000000E+00  0.82852413823E+03  0.82852413823E+03  0.00000000000E+00 0.  1.
         -2   -1    0    0    0  501 -0.00000000000E+00 -0.00000000000E+00 -0.68793739057E+02  0.68793739057E+02  0.00000000000E+00 0. -1.
         25    2    1    2    0    0 -0.14077106532E+03  0.17448456205E+02  0.69190548697E+03  0.71728769384E+03  0.12508993318E+03 0.  0.
          5    1    3    3  502    0  0.43861280921E+01 -0.15338946934E+02  0.99274420051E+01  0.19249621229E+02  0.41800000000E+01 0.  1.
         -5    1    3    3    0  502 -0.14515719341E+03  0.32787403139E+02  0.68197804496E+03  0.69803807261E+03  0.41800000000E+01 0.  1.
        -11    1    1    2    0    0  0.89568261578E+02 -0.99715039770E+01  0.86597733924E+02  0.12498428659E+03  0.00000000000E+00 0.  1.
         11    1    1    2    0    0  0.51202803738E+02 -0.74769522277E+01 -0.18772821721E+02  0.55045896856E+02  0.00000000000E+00 0. -1.
</event>
<event>
 7    1  0.2334784E-009  0.1342425E+03  0.7561462E-02  0.1221293E+00
          2   -1    0    0  501    0  0.00000000000E+00  0.00000000000E+00  0.14566390701E+03  0.14566390701E+03  0.00000000000E+00 0. -1.
         -2   -1    0    0    0  501 -0.00000000000E+00 -0.00000000000E+00 -0.18213923793E+03  0.18213923793E+03  0.00000000000E+00 0.  1.
         25    2    1    2    0    0 -0.74615070368E+02  0.92951162105E+02  0.37447849807E+01  0.17282807307E+03  0.12509273426E+03 0.  0.
          5    1    3    3  502    0 -0.52892466480E+02  0.88945724039E+01 -0.47637589466E+02  0.71857767559E+02  0.41800000000E+01 0.  1.
         -5    1    3    3    0  502 -0.21722603888E+02  0.84056589701E+02  0.51382374446E+02  0.10097030551E+03  0.41800000000E+01 0.  1.
        -11    1    1    2    0    0  0.40788455852E+02 -0.83045267028E+02  0.10601516220E+02  0.93126831003E+02  0.00000000000E+00 0.  1.
         11    1    1    2    0    0  0.33826614516E+02 -0.99058950768E+01 -0.50821632116E+02  0.61848240863E+02  0.00000000000E+00 0. -1.
</event>
<event>
 7    1  0.2334784E-009  0.1192353E+03  0.7561462E-02  0.1244364E+00
         -2   -1    0    0    0  501 -0.00000000000E+00  0.00000000000E+00  0.16437344333E+03  0.16437344333E+03  0.00000000000E+00 0.  1.
          2   -1    0    0  501    0  0.00000000000E+00 -0.00000000000E+00 -0.11642411228E+03  0.11642411228E+03  0.00000000000E+00 0. -1.
         25    2    1    2    0    0  0.69938835131E+02  0.24604157205E+02 -0.17244902596E+02  0.14640376812E+03  0.12505947162E+03 0.  0.
          5    1    3    3  502    0  0.87331155049E+02 -0.44996914106E+01  0.25969717221E+02  0.91317448922E+02  0.41800000000E+01 0.  1.
         -5    1    3    3    0  502 -0.17392319919E+02  0.29103848615E+02 -0.43214619817E+02  0.55086319194E+02  0.41800000000E+01 0.  1.
        -11    1    1    2    0    0 -0.62261828964E+01  0.31353201559E+02  0.11224791960E+02  0.33878969228E+02  0.00000000000E+00 0. -1.
         11    1    1    2    0    0 -0.63712652234E+02 -0.55957358763E+02  0.53969441685E+02  0.10051481826E+03  0.00000000000E+00 0.  1.
</event>
<event>
 7    1  0.2334784E-009  0.5780608E+02  0.7561462E-02  0.1407276E+00
         -2   -1    0    0    0  501 -0.00000000000E+00  0.00000000000E+00  0.10974663443E+03  0.10974663443E+03  0.00000000000E+00 0. -1.
          2   -1    0    0  501    0  0.00000000000E+00 -0.00000000000E+00 -0.12763026603E+03  0.12763026603E+03  0.00000000000E+00 0.  1.
         25    2    1    2    0    0 -0.37782751192E+02  0.15359149580E+02 -0.54620105529E+02  0.14245942859E+03  0.12509153889E+03 0.  0.
          5    1    3    3  502    0 -0.79719837738E+00  0.31655223126E+02 -0.85599650049E+02  0.91364441469E+02  0.41800000000E+01 0.  1.
         -5    1    3    3    0  502 -0.36985552815E+02 -0.16296073546E+02  0.30979544520E+02  0.51094987119E+02  0.41800000000E+01 0.  1.
        -11    1    1    2    0    0  0.18927407217E+02 -0.33393473173E+00 -0.23417304285E+02  0.30111931130E+02  0.00000000000E+00 0.  1.
         11    1    1    2    0    0  0.18855343976E+02 -0.15025214849E+02  0.60153778209E+02  0.64805540739E+02  0.00000000000E+00 0. -1.
</event>
<event>
 7    1  0.2334784E-009  0.1206456E+03  0.7561462E-02  0.1242036E+00
          1   -1    0    0  501    0  0.00000000000E+00  0.00000000000E+00  0.52764678210E+03  0.52764678210E+03  0.00000000000E+00 0. -1.
         -1   -1    0    0    0  501 -0.00000000000E+00 -0.00000000000E+00 -0.55872916475E+02  0.55872916475E+02  0.00000000000E+00 0.  1.
         25    2    1    2    0    0  0.61496659312E+02 -0.67509828476E+02  0.42465584508E+03  0.45201672767E+03  0.12508844584E+03 0.  0.
          5    1    3    3  502    0  0.78494154286E+02 -0.63485525201E+02  0.42191892505E+03  0.43384881685E+03  0.41800000000E+01 0. -1.
         -5    1    3    3    0  502 -0.16997494974E+02 -0.40243032757E+01  0.27369200328E+01  0.18167910819E+02  0.41800000000E+01 0. -1.
        -11    1    1    2    0    0  0.19304127839E+02  0.23047083516E+02  0.66583635693E+01  0.30792064166E+02  0.00000000000E+00 0.  1.
         11    1    1    2    0    0 -0.80800787150E+02  0.44462744960E+02  0.40459656971E+02  0.10071090674E+03  0.00000000000E+00 0. -1.
</event>
<event>
 7    1  0.2334784E-009  0.8941665E+02  0.7561462E-02  0.1304271E+00
         -1   -1    0    0    0  501 -0.00000000000E+00  0.00000000000E+00  0.12478282829E+03  0.12478282829E+03  0.00000000000E+00 0.  1.
          1   -1    0    0  501    0  0.00000000000E+00 -0.00000000000E+00 -0.10515939698E+03  0.10515939698E+03  0.00000000000E+00 0. -1.
         25    2    1    2    0    0  0.35013932023E+02  0.97265065873E+01  0.19389668786E+02  0.13169680551E+03  0.12509000344E+03 0.  0.
          5    1    3    3  502    0  0.16885409776E+02 -0.40138397238E+02 -0.34682185856E+02  0.55825929565E+02  0.41800000000E+01 0. -1.
         -5    1    3    3    0  502  0.18128522247E+02  0.49864903825E+02  0.54071854642E+02  0.75870875945E+02  0.41800000000E+01 0. -1.
        -11    1    1    2    0    0  0.11969682823E+02 -0.28776391965E+02  0.26713286215E+02  0.41048187559E+02  0.00000000000E+00 0.  1.
         11    1    1    2    0    0 -0.46983614846E+02  0.19049885378E+02 -0.26479523693E+02  0.57197232205E+02  0.00000000000E+00 0. -1.
</event>
<event>
 7    1  0.2334784E-009  0.1433318E+03  0.7561462E-02  0.1208915E+00
          2   -1    0    0  501    0  0.00000000000E+00  0.00000000000E+00  0.53083325999E+02  0.53083325999E+02  0.00000000000E+00 0. -1.
         -2   -1    0    0    0  501 -0.00000000000E+00 -0.00000000000E+00 -0.44638024869E+03  0.44638024869E+03  0.00000000000E+00 0.  1.
         25    2    1    2    0    0 -0.20672553833E+02  0.93853072140E+02 -0.13035249033E+03  0.20463270323E+03  0.12508804044E+03 0.  0.
          5    1    3    3  502    0 -0.33213800205E+02  0.12050978478E+03 -0.88231331729E+02  0.15306209540E+03  0.41800000000E+01 0.  1.
         -5    1    3    3    0  502  0.12541246372E+02 -0.26656712635E+02 -0.42121158605E+02  0.51570607824E+02  0.41800000000E+01 0.  1.
        -11    1    1    2    0    0  0.55477304725E+02 -0.71391360807E+02 -0.19989712971E+03  0.21939307237E+03  0.00000000000E+00 0.  1.
         11    1    1    2    0    0 -0.34804750892E+02 -0.22461711333E+02 -0.63047302650E+02  0.75437799093E+02  0.00000000000E+00 0. -1.
</event>
<event>
 7    1  0.2334784E-009  0.1293681E+03  0.7561462E-02  0.1228396E+00
          1   -1    0    0  501    0  0.00000000000E+00  0.00000000000E+00  0.19305236599E+03  0.19305236599E+03  0.00000000000E+00 0. -1.
         -1   -1    0    0    0  501 -0.00000000000E+00 -0.00000000000E+00 -0.22133696866E+03  0.22133696866E+03  0.00000000000E+00 0.  1.
         25    2    1    2    0    0  0.37497553861E+02 -0.10618400813E+03  0.11925059613E+03  0.20627503486E+03  0.12509026822E+03 0.  0.
          5    1    3    3  502    0 -0.17799599739E+00 -0.63836055754E+02 -0.10308029681E+02  0.64798160257E+02  0.41800000000E+01 0.  1.
         -5    1    3    3    0  502  0.37675549859E+02 -0.42347952372E+02  0.12955862581E+03  0.14147687461E+03  0.41800000000E+01 0.  1.
        -11    1    1    2    0    0  0.20740015073E+02  0.60358624609E+02 -0.10441801806E+03  0.12237824270E+03  0.00000000000E+00 0.  1.
         11    1    1    2    0    0 -0.58237568934E+02  0.45825383518E+02 -0.43117180733E+02  0.85736057084E+02  0.00000000000E+00 0. -1.
</event>
<event>
 7    1  0.2334784E-009  0.1180553E+03  0.7561462E-02  0.1246340E+00
          2   -1    0    0  501    0  0.00000000000E+00  0.00000000000E+00  0.70115063396E+02  0.70115063396E+02  0.00000000000E+00 0. -1.
         -2   -1    0    0    0  501 -0.00000000000E+00 -0.00000000000E+00 -0.20576231535E+03  0.20576231535E+03  0.00000000000E+00 0.  1.
         25    2    1    2    0    0 -0.46020999402E+00 -0.61601643127E+02 -0.60829299996E+02  0.15213716614E+03  0.12510211570E+03 0.  0.
          5    1    3    3  502    0  0.57192439927E+02 -0.44840602426E+01 -0.32566210136E+02  0.66099261900E+02  0.41800000000E+01 0.  1.
         -5    1    3    3    0  502 -0.57652649921E+02 -0.57117582884E+02 -0.28263089860E+02  0.86037904239E+02  0.41800000000E+01 0.  1.
        -11    1    1    2    0    0  0.33952018835E+02  0.52670357982E+02 -0.57254672139E+02  0.84882293057E+02  0.00000000000E+00 0.  1.
         11    1    1    2    0    0 -0.33491808841E+02  0.89312851446E+01 -0.17563279822E+02  0.38857919551E+02  0.00000000000E+00 0. -1.
</event>
<event>
 7    1  0.2334784E-009  0.1060416E+03  0.7561462E-02  0.1268081E+00
          1   -1    0    0  501    0  0.00000000000E+00  0.00000000000E+00  0.65227298350E+02  0.65227298350E+02  0.00000000000E+00 0. -1.
         -1   -1    0    0    0  501 -0.00000000000E+00 -0.00000000000E+00 -0.23028114369E+03  0.23028114369E+03  0.00000000000E+00 0.  1.
         25    2    1    2    0    0 -0.33771704650E+02 -0.23006978695E+02 -0.13067247132E+03  0.18545399265E+03  0.12509212416E+03 0.  0.
          5    1    3    3  502    0  0.86765296220E+01  0.47187822637E+02 -0.61189037534E+02  0.77868758086E+02  0.41800000000E+01 0.  1.
         -5    1    3    3    0  502 -0.42448234272E+02 -0.70194801332E+02 -0.69483433781E+02  0.10758523457E+03  0.41800000000E+01 0.  1.
        -11    1    1    2    0    0  0.23940654745E+01  0.43978728156E+02 -0.52216850388E+02  0.68311489108E+02  0.00000000000E+00 0.  1.
         11    1    1    2    0    0  0.31377639176E+02 -0.20971749462E+02  0.17835476363E+02  0.41742960279E+02  0.00000000000E+00 0. -1.
</event>
<event>
 6    1  0.2334784E-009  0.1457246E+03  0.7561462E-02  0.1205827E+00
         -2   -1    0    0    0  501 -0.00000000000E+00  0.00000000000E+00  0.18551520460E+02  0.18551520460E+02  0.00000000000E+00 0.  1.
          2   -1    0    0  501    0  0.00000000000E+00 -0.00000000000E+00 -0.11843029352E+04  0.11843029352E+04  0.00000000000E+00 0. -1.
          5    1    1    2  502    0  0.48706734441E+02  0.22919671405E+02 -0.21647724485E+03  0.22310877898E+03  0.41800000000E+01 0.  1.
         -5    1    1    2    0  502  0.85396863102E+01 -0.10644586799E+03 -0.41277141701E+03  0.42638171180E+03  0.41800000000E+01 0.  1.
        -11    1    1    2    0    0 -0.67738726328E+02  0.26716128490E+02 -0.22314356086E+03  0.23472395557E+03  0.00000000000E+00 0.  1.
         11    1    1    2    0    0  0.10492305577E+02  0.56810068100E+02 -0.31335919200E+03  0.31864000929E+03  0.00000000000E+00 0. -1.
</event>
<event>
 7    1  0.2334784E-009  0.8239247E+02  0.7561462E-02  0.1322396E+00
          1   -1    0    0  501    0  0.00000000000E+00  0.00000000000E+00  0.67136060155E+03  0.67136060155E+03  0.00000000000E+00 0. -1.
         -1   -1    0    0    0  501 -0.00000000000E+00 -0.00000000000E+00 -0.19786133488E+02  0.19786133488E+02  0.00000000000E+00 0.  1.
         25    2    1    2    0    0  0.26780861779E+02  0.14226350041E+02  0.46931466773E+03  0.48664519800E+03  0.12509071828E+03 0.  0.
          5    1    3    3  502    0  0.43044485523E+02  0.36025175502E+02  0.88793307344E+02  0.10513022797E+03  0.41800000000E+01 0.  1.
         -5    1    3    3    0  502 -0.16263623743E+02 -0.21798825461E+02  0.38052136039E+03  0.38151497003E+03  0.41800000000E+01 0.  1.
        -11    1    1    2    0    0 -0.38386662484E+02  0.21096407524E+02  0.47093439562E+02  0.64314744164E+02  0.00000000000E+00 0.  1.
         11    1    1    2    0    0  0.11605800705E+02 -0.35322757564E+02  0.13516636077E+03  0.14018679288E+03  0.00000000000E+00 0. -1.
</event>
<event>
 7    1  0.2334784E-009  0.9001665E+02  0.7561462E-02  0.1302811E+00
          4   -1    0    0  501    0  0.00000000000E+00  0.00000000000E+00  0.20632361574E+03  0.20632361574E+03  0.00000000000E+00 0. -1.
         -4   -1    0    0    0  501 -0.00000000000E+00 -0.00000000000E+00 -0.65887878692E+02  0.65887878692E+02  0.00000000000E+00 0.  1.
         25    2    1    2    0    0  0.75596969758E+01 -0.89159680368E+01  0.12912790893E+03  0.18016233427E+03  0.12509119202E+03 0.  0.
          5    1    3    3  502    0  0.89150162155E+01 -0.61784325149E+02  0.10421663720E+03  0.12155393954E+03  0.41800000000E+01 0.  1.
         -5    1    3    3    0  502 -0.13553192396E+01  0.52868357112E+02  0.24911271734E+02  0.58608394735E+02  0.41800000000E+01 0.  1.
        -11    1    1    2    0    0 -0.14064733563E+02 -0.25646180769E+02  0.37960182532E+02  0.47922007222E+02  0.00000000000E+00 0. -1.
         11    1    1    2    0    0  0.65050365870E+01  0.34562148806E+02 -0.26652354411E+02  0.44127152942E+02  0.00000000000E+00 0.  1.
</event>
<event>
 7    1  0.2334784E-009  0.2036180E+03  0.7561462E-02  0.1146722E+00
          2   -1    0    0  501    0  0.00000000000E+00  0.00000000000E+00  0.56113935477E+03  0.56113935477E+03  0.00000000000E+00 0.  1.
         -2   -1    0    0    0  501 -0.00000000000E+00 -0.00000000000E+00 -0.79272621880E+02  0.79272621880E+02  0.00000000000E+00 0. -1.
         25    2    1    2    0    0  0.15207716981E+03  0.97868771724E+02  0.25177719647E+03  0.33428181870E+03  0.12508723196E+03 0.  0.
          5    1    3    3  502    0  0.11273672123E+03  0.11080026776E+02  0.18804083087E+03  0.21956584839E+03  0.41800000000E+01 0.  1.
         -5    1    3    3    0  502  0.39340448578E+02  0.86788744948E+02  0.63736365597E+02  0.11471597031E+03  0.41800000000E+01 0.  1.
        -11    1    1    2    0    0  0.77073309505E+01 -0.18596744620E+02  0.89748076586E+01  0.22040622345E+02  0.00000000000E+00 0.  1.
         11    1    1    2    0    0 -0.15978450076E+03 -0.79272027104E+02  0.22111472876E+03  0.28408953560E+03  0.00000000000E+00 0. -1.
</event>
<event>
 7    1  0.2334784E-009  0.1211108E+03  0.7561462E-02  0.1241276E+00
          2   -1    0    0  501    0  0.00000000000E+00  0.00000000000E+00  0.30313926903E+03  0.30313926903E+03  0.00000000000E+00 0. -1.
         -2   -1    0    0    0  501 -0.00000000000E+00 -0.00000000000E+00 -0.56911578442E+02  0.56911578442E+02  0.00000000000E+00 0.  1.
         25    2    1    2    0    0 -0.25995655292E+02  0.62142154045E+02  0.94743352211E+02  0.17076803723E+03  0.12509195956E+03 0.  0.
          5    1    3    3  502    0 -0.59389034608E+01  0.92982704028E+02  0.33302265255E+02  0.99033161586E+02  0.41800000000E+01 0.  1.
         -5    1    3    3    0  502 -0.20056751831E+02 -0.30840549983E+02  0.61441086956E+02  0.71734875644E+02  0.41800000000E+01 0.  1.
        -11    1    1    2    0    0 -0.27080959997E+02  0.37286854337E+01  0.24545227142E+02  0.36738939354E+02  0.00000000000E+00 0. -1.
         11    1    1    2    0    0  0.53076615289E+02 -0.65870839479E+02  0.12693911123E+03  0.15254387089E+03  0.00000000000E+00 0.  1.
</event>
<event>
 7    1  0.2334784E-009  0.2137995E+03  0.7561462E-02  0.1138592E+00
         -1   -1    0    0    0  501 -0.00000000000E+00  0.00000000000E+00  0.48696020591E+02  0.48696020591E+02  0.00000000000E+00 0. -1.
          1   -1    0    0  501    0  0.00000000000E+00 -0.00000000000E+00 -0.11222358506E+04  0.11222358506E+04  0.00000000000E+00 0.  1.
         25    2    1    2    0    0 -0.19248612008E+02  0.20282356997E+03 -0.47372583507E+03  0.53062713074E+03  0.12506428533E+03 0.  0.
          5    1    3    3  502    0 -0.19906682879E+02  0.52310369032E+02 -0.33501410624E+02  0.65364115885E+02  0.41800000000E+01 0.  1.
         -5    1    3    3    0  502  0.65807087148E+00  0.15051320094E+03 -0.44022442444E+03  0.46526301485E+03  0.41800000000E+01 0.  1.
        -11    1    1    2    0    0 -0.33515331530E+02 -0.97496465975E+02 -0.33415431306E+03  0.34969693059E+03  0.00000000000E+00 0. -1.
         11    1    1    2    0    0  0.52763943538E+02 -0.10532710400E+03 -0.26565968184E+03  0.29060780982E+03  0.00000000000E+00 0.  1.
</event>
<event>
 7    1  0.2334784E-009  0.8939062E+02  0.7561462E-02  0.1304334E+00
         -2   -1    0    0    0  501 -0.00000000000E+00  0.00000000000E+00  0.39290903029E+02  0.39290903029E+02  0.00000000000E+00 0.  1.
          2   -1    0    0  501    0  0.00000000000E+00 -0.00000000000E+00 -0.51474007421E+03  0.51474007421E+03  0.00000000000E+00 0. -1.
         25    2    1    2    0    0  0.45253410325E+01 -0.70991227464E+02 -0.14576345717E+03  0.20482910540E+03  0.12509094245E+03 0.  0.
          5    1    3    3  502    0  0.13146518461E+02 -0.53033376215E+02 -0.16679216399E+03  0.17556328861E+03  0.41800000000E+01 0. -1.
         -5    1    3    3    0  502 -0.86211774283E+01 -0.17957851248E+02  0.21028706817E+02  0.29265816785E+02  0.41800000000E+01 0. -1.
        -11    1    1    2    0    0 -0.39314595802E+02  0.47461717902E+02 -0.11526693704E+03  0.13070852644E+03  0.00000000000E+00 0. -1.
         11    1    1    2    0    0  0.34789254770E+02  0.23529509561E+02 -0.21441877697E+03  0.21849334540E+03  0.00000000000E+00 0.  1.
</event>
<event>
 7    1  0.2334784E-009  0.3135512E+03  0.7561462E-02  0.1078656E+00
          2   -1    0    0  501    0  0.00000000000E+00  0.00000000000E+00  0.10221920507E+04  0.10221920507E+04  0.00000000000E+00 0.  1.
         -2   -1    0    0    0  501 -0.00000000000E+00 -0.00000000000E+00 -0.10531566992E+03  0.10531566992E+03  0.00000000000E+00 0. -1.
         25    2    1    2    0    0 -0.23853152121E+03 -0.19668220495E+03  0.43847944522E+03  0.55090186618E+03  0.12508983143E+03 0.  0.
          5    1    3    3  502    0 -0.23054236823E+03 -0.19963578411E+03  0.35990029357E+03  0.47175197250E+03  0.41800000000E+01 0. -1.
         -5    1    3    3    0  502 -0.79891529773E+01  0.29535791621E+01  0.78579151651E+02  0.79149893679E+02  0.41800000000E+01 0. -1.
        -11    1    1    2    0    0  0.57121078354E+02  0.23335398280E+02  0.47079931718E+02  0.77613648128E+02  0.00000000000E+00 0. -1.
         11    1    1    2    0    0  0.18141044285E+03  0.17334680667E+03  0.43131700388E+03  0.49899220635E+03  0.00000000000E+00 0.  1.
</event>
<event>
 7    1  0.2334784E-009  0.9279537E+02  0.7561462E-02  0.1296220E+00
         -2   -1    0    0    0  501 -0.00000000000E+00  0.00000000000E+00  0.50435945354E+03  0.50435945354E+03  0.00000000000E+00 0.  1.
          2   -1    0    0  501    0  0.00000000000E+00 -0.00000000000E+00 -0.26215259438E+02  0.26215259438E+02  0.00000000000E+00 0. -1.
         25    2    1    2    0    0 -0.12378277868E+02 -0.30036237304E+02  0.25993163314E+03  0.29028959303E+03  0.12509275198E+03 0.  0.
          5    1    3    3  502    0 -0.61319544403E+02 -0.37186688512E+01  0.74427720816E+02  0.96596444291E+02  0.41800000000E+01 0. -1.
         -5    1    3    3    0  502  0.48941266535E+02 -0.26317568453E+02  0.18550391233E+03  0.19369314874E+03  0.41800000000E+01 0. -1.
        -11    1    1    2    0    0 -0.16200399659E+02 -0.10046949002E+02  0.27378187722E+01  0.19258499032E+02  0.00000000000E+00 0. -1.
         11    1    1    2    0    0  0.28578677527E+02  0.40083186306E+02  0.21547474218E+03  0.22102662091E+03  0.00000000000E+00 0.  1.
</event>
<event>
 7    1  0.2334784E-009  0.1204907E+03  0.7561462E-02  0.1242290E+00
         -1   -1    0    0    0  501 -0.00000000000E+00  0.00000000000E+00  0.86121251916E+03  0.86121251916E+03  0.00000000000E+00 0.  1.
          1   -1    0    0  501    0  0.00000000000E+00 -0.00000000000E+00 -0.20235453321E+02  0.20235453321E+02  0.00000000000E+00 0. -1.
         25    2    1    2    0    0 -0.22814243989E+02  0.70733176817E+02  0.51688360792E+03  0.53697167580E+03  0.12508494891E+03 0.  0.
          5    1    3    3  502    0 -0.16621968220E+02  0.10080086602E+03  0.46843233163E+03  0.47946160027E+03  0.41800000000E+01 0.  1.
         -5    1    3    3    0  502 -0.61922757686E+01 -0.30067689204E+02  0.48451276288E+02  0.57510075528E+02  0.41800000000E+01 0.  1.
        -11    1    1    2    0    0  0.47613384245E+02 -0.67701677358E+02  0.17851142961E+03  0.19676605901E+03  0.00000000000E+00 0. -1.
         11    1    1    2    0    0 -0.24799140257E+02 -0.30314994588E+01  0.14558202831E+03  0.14771023767E+03  0.00000000000E+00 0.  1.
</event>
<event>
 7    1  0.2334784E-009  0.1773649E+03  0.7561462E-02  0.1170378E+00
         -2   -1    0    0    0  501 -0.00000000000E+00  0.00000000000E+00  0.39550268887E+02  0.39550268887E+02  0.00000000000E+00 0.  1.
          2   -1    0    0  501    0  0.00000000000E+00 -0.00000000000E+00 -0.11624209703E+04  0.11624209703E+04  0.00000000000E+00 0. -1.
         25    2    1    2    0    0  0.29982917564E+02 -0.17403428032E+03 -0.72790536625E+03  0.75939456832E+03  0.12508789753E+03 0.  0.
          5    1    3    3  502    0  0.17495264222E+02 -0.14595589232E+03 -0.70666600578E+03  0.72180573765E+03  0.41800000000E+01 0.  1.
         -5    1    3    3    0  502  0.12487653342E+02 -0.28078387994E+02 -0.21239360470E+02  0.37588830675E+02  0.41800000000E+01 0.  1.
        -11    1    1    2    0    0 -0.55885029591E+01  0.44041153340E+02 -0.21326181246E+03  0.21783354931E+03  0.00000000000E+00 0. -1.
         11    1    1    2    0    0 -0.24394414605E+02  0.12999312698E+03 -0.18170352273E+03  0.22474312158E+03  0.00000000000E+00 0.  1.
</event>
<event>
 7    1  0.2334784E-009  0.1103122E+03  0.7561462E-02  0.1259993E+00
          1   -1    0    0  501    0  0.00000000000E+00  0.00000000000E+00  0.94278427892E+03  0.94278427892E+03  0.00000000000E+00 0. -1.
         -1   -1    0    0    0  501 -0.00000000000E+00 -0.00000000000E+00 -0.15355617809E+02  0.15355617809E+02  0.00000000000E+00 0.  1.
         25    2    1    2    0    0 -0.30497645814E+02  0.21661064927E+02  0.66432258975E+03  0.67703121380E+03  0.12508978004E+03 0.  0.
          5    1    3    3  502    0  0.39557683920E+02 -0.21603711712E+02  0.30711048970E+03  0.31042850385E+03  0.41800000000E+01 0. -1.
         -5    1    3    3    0  502 -0.70055329734E+02  0.43264776639E+02  0.35721210005E+03  0.36660270995E+03  0.41800000000E+01 0. -1.
        -11    1    1    2    0    0 -0.56019357806E+00 -0.50517004499E+02  0.18997985460E+03  0.19658236623E+03  0.00000000000E+00 0. -1.
         11    1    1    2    0    0  0.31057839392E+02  0.28855939572E+02  0.73126216758E+02  0.84526316693E+02  0.00000000000E+00 0.  1.
</event>
<event>
 7    1  0.2334784E-009  0.1118334E+03  0.7561462E-02  0.1257212E+00
         -1   -1    0    0    0  501 -0.00000000000E+00  0.00000000000E+00  0.63565368022E+02  0.63565368022E+02  0.00000000000E+00 0.  1.
          1   -1    0    0  501    0  0.00000000000E+00 -0.00000000000E+00 -0.26056915776E+03  0.26056915776E+03  0.00000000000E+00 0. -1.
         25    2    1    2    0    0 -0.51911961549E+02  0.26765003957E+02 -0.14066783168E+03  0.19709607755E+03  0.12509279647E+03 0.  0.
          5    1    3    3  502    0  0.18256319174E+02 -0.33349723117E+02 -0.15056561059E+02  0.41105591502E+02  0.41800000000E+01 0.  1.
         -5    1    3    3    0  502 -0.70168280724E+02  0.60114727074E+02 -0.12561127062E+03  0.15599048605E+03  0.41800000000E+01 0.  1.
        -11    1    1    2    0    0  0.48335792248E+02 -0.49925703084E+02 -0.71036962210E+02  0.99373913280E+02  0.00000000000E+00 0. -1.
         11    1    1    2    0    0  0.35761693010E+01  0.23160699127E+02  0.14701004152E+02  0.27664534950E+02  0.00000000000E+00 0.  1.
</event>
<event>
 7    1  0.2334784E-009  0.9678966E+02  0.7561462E-02  0.1287195E+00
          2   -1    0    0  501    0  0.00000000000E+00  0.00000000000E+00  0.48025950510E+03  0.48025950510E+03  0.00000000000E+00 0. -1.
         -2   -1    0    0    0  501 -0.00000000000E+00 -0.00000000000E+00 -0.31804976351E+02  0.31804976351E+02  0.00000000000E+00 0.  1.
         25    2    1    2    0    0 -0.35649785648E+02 -0.44205011579E+02  0.20529628653E+03  0.24702435782E+03  0.12509787299E+03 0.  0.
          5    1    3    3  502    0 -0.45160552329E+02 -0.56599922161E+02  0.21585195845E+03  0.22771158741E+03  0.41800000000E+01 0. -1.
         -5    1    3    3    0  502  0.95107666813E+01  0.12394910582E+02 -0.10555671917E+02  0.19312770408E+02  0.41800000000E+01 0. -1.
        -11    1    1    2    0    0  0.14956690992E+02  0.70129480991E+02  0.17863916236E+03  0.19249362857E+03  0.00000000000E+00 0. -1.
         11    1    1    2    0    0  0.20693094656E+02 -0.25924469412E+02  0.64519079855E+02  0.72546495064E+02  0.00000000000E+00 0.  1.
</event>
<event>
 7    1  0.2334784E-009  0.1543935E+03  0.7561462E-02  0.1195176E+00
         -1   -1    0    0    0  501 -0.00000000000E+00  0.00000000000E+00  0.31392422806E+02  0.31392422806E+02  0.00000000000E+00 0.  1.
          1   -1    0    0  501    0  0.00000000000E+00 -0.00000000000E+00 -0.82928818121E+03  0.82928818121E+03  0.00000000000E+00 0. -1.
         25    2    1    2    0    0  0.11354941829E+03 -0.32106627544E+02 -0.33276418952E+03  0.37457698827E+03  0.12510638829E+03 0.  0.
          5    1    3    3  502    0  0.88990944153E+02 -0.76155043763E+02 -0.19146129913E+03  0.22448581313E+03  0.41800000000E+01 0.  1.
         -5    1    3    3    0  502  0.24558474136E+02  0.44048416219E+02 -0.14130289039E+03  0.15009117514E+03  0.41800000000E+01 0.  1.
        -11    1    1    2    0    0 -0.27612745167E+02 -0.25447365562E+02 -0.11118700328E+03  0.11735664365E+03  0.00000000000E+00 0. -1.
         11    1    1    2    0    0 -0.85936673122E+02  0.57553993106E+02 -0.35394456560E+03  0.36874697210E+03  0.00000000000E+00 0.  1.
</event>
<event>
 7    1  0.2334784E-009  0.1444376E+03  0.7561462E-02  0.1207480E+00
         -1   -1    0    0    0  501 -0.00000000000E+00  0.00000000000E+00  0.30393560621E+02  0.30393560621E+02  0.00000000000E+00 0.  1.
          1   -1    0    0  501    0  0.00000000000E+00 -0.00000000000E+00 -0.80746473387E+03  0.80746473387E+03  0.00000000000E+00 0. -1.
         25    2    1    2    0    0 -0.64177919255E+02 -0.92821323219E+02 -0.45102469592E+03  0.48146180940E+03  0.12509034421E+03 0.  0.
          5    1    3    3  502    0 -0.85784636018E+02 -0.45484766586E+02 -0.17166718816E+03  0.19726875997E+03  0.41800000000E+01 0.  1.
         -5    1    3    3    0  502  0.21606716763E+02 -0.47336556634E+02 -0.27935750776E+03  0.28419304943E+03  0.41800000000E+01 0.  1.
        -11    1    1    2    0    0  0.59122852208E+01  0.79496387032E+02 -0.22837755652E+03  0.24189034497E+03  0.00000000000E+00 0. -1.
         11    1    1    2    0    0  0.58265634034E+02  0.13324936187E+02 -0.97668920806E+02  0.11450614012E+03  0.00000000000E+00 0.  1.
</event>
<event>
 7    1  0.2334784E-009  0.1182871E+03  0.7561462E-02  0.1245950E+00
          2   -1    0    0  501    0  0.00000000000E+00  0.00000000000E+00  0.44718658440E+03  0.44718658440E+03  0.00000000000E+00 0. -1.
         -2   -1    0    0    0  501 -0.00000000000E+00 -0.00000000000E+00 -0.37805938056E+02  0.37805938056E+02  0.00000000000E+00 0.  1.
         25    2    1    2    0    0 -0.27407799054E+02 -0.63667016852E+02  0.25489279993E+03  0.29227128419E+03  0.12508991816E+03 0.  0.
          5    1    3    3  502    0 -0.35670585700E+02  0.30555268108E+02  0.10312260203E+03  0.11339205679E+03  0.41800000000E+01 0. -1.
         -5    1    3    3    0  502  0.82627866458E+01 -0.94222284960E+02  0.15177019790E+03  0.17887922741E+03  0.41800000000E+01 0. -1.
        -11    1    1    2    0    0  0.48082073228E+02  0.52709644959E+02  0.53817153439E+02  0.89367099325E+02  0.00000000000E+00 0.  1.
         11    1    1    2    0    0 -0.20674274173E+02  0.10957371893E+02  0.10067069297E+03  0.10335413894E+03  0.00000000000E+00 0. -1.
</event>
<event>
 7    1  0.2334784E-009  0.1401885E+03  0.7561462E-02  0.1213076E+00
          1   -1    0    0  501    0  0.00000000000E+00  0.00000000000E+00  0.11112223085E+04  0.11112223085E+04  0.00000000000E+00 0. -1.
         -1   -1    0    0    0  501 -0.00000000000E+00 -0.00000000000E+00 -0.19375973554E+02  0.19375973554E+02  0.00000000000E+00 0.  1.
         25    2    1    2    0    0 -0.94026176139E+01 -0.95338748434E+02  0.69539423126E+03  0.71301947073E+03  0.12508294290E+03 0.  0.
          5    1    3    3  502    0  0.45269689510E+02 -0.82081209056E+02  0.32215847205E+03  0.33554466645E+03  0.41800000000E+01 0. -1.
         -5    1    3    3    0  502 -0.54672307124E+02 -0.13257539378E+02  0.37323575921E+03  0.37747480428E+03  0.41800000000E+01 0. -1.
        -11    1    1    2    0    0 -0.39384861975E+02  0.36468447192E+02  0.18946786534E+03  0.19692431793E+03  0.00000000000E+00 0. -1.
         11    1    1    2    0    0  0.48787479589E+02  0.58870301242E+02  0.20698423838E+03  0.22065449343E+03  0.00000000000E+00 0.  1.
</event>
<event>
 7    1  0.2334784E-009  0.9868453E+02  0.7561462E-02  0.1283087E+00
          2   -1    0    0  501    0  0.00000000000E+00  0.00000000000E+00  0.11244680222E+04  0.11244680222E+04  0.00000000000E+00 0. -1.
         -2   -1    0    0    0  501 -0.00000000000E+00 -0.00000000000E+00 -0.13414938804E+02  0.13414938804E+02  0.00000000000E+00 0.  1.
         25    2    1    2    0    0 -0.51001771024E+02  0.46598829836E+01  0.73292012558E+03  0.74528103587E+03  0.12509603023E+03 0.  0.
          5    1    3    3  502    0  0.51076420556E+01 -0.30695492097E+02  0.49365820998E+02  0.58504341081E+02  0.41800000000E+01 0. -1.
         -5    1    3    3    0  502 -0.56109413079E+02  0.35355375081E+02  0.68355430459E+03  0.68677669479E+03  0.41800000000E+01 0. -1.
        -11    1    1    2    0    0  0.39129672007E+02  0.38418174937E+02  0.27154363084E+03  0.27702532528E+03  0.00000000000E+00 0. -1.
         11    1    1    2    0    0  0.11872099017E+02 -0.43078057921E+02  0.10658932693E+03  0.11557659981E+03  0.00000000000E+00 0.  1.
</event>
<event>
 7    1  0.2334784E-009  0.1129146E+03  0.7561462E-02  0.1255266E+00
          1   -1    0    0  501    0  0.00000000000E+00  0.00000000000E+00  0.36578495493E+02  0.36578495493E+02  0.00000000000E+00 0. -1.
         -1   -1    0    0    0  501 -0.00000000000E+00 -0.00000000000E+00 -0.60801000237E+03  0.60801000237E+03  0.00000000000E+00 0.  1.
         25    2    1    2    0    0 -0.10309390047E+02  0.45824271853E+02 -0.13470375136E+03  0.18973333386E+03  0.12508992738E+03 0.  0.
          5    1    3    3  502    0  0.39988858167E+02 -0.20020872163E+02 -0.22633013321E+02  0.50295822805E+02  0.41800000000E+01 0.  1.
         -5    1    3    3    0  502 -0.50298248214E+02  0.65845144016E+02 -0.11207073804E+03  0.13943751105E+03  0.41800000000E+01 0.  1.
        -11    1    1    2    0    0  0.53924717850E+01  0.25698555458E+02 -0.22832310319E+02  0.34796679426E+02  0.00000000000E+00 0. -1.
         11    1    1    2    0    0  0.49169182623E+01 -0.71522827312E+02 -0.41389544520E+03  0.42005848458E+03  0.00000000000E+00 0.  1.
</event>
<event>
 7    1  0.2334784E-009  0.1424298E+03  0.7561462E-02  0.1210096E+00
          2   -1    0    0  501    0  0.00000000000E+00  0.00000000000E+00  0.12262511495E+04  0.12262511495E+04  0.00000000000E+00 0.  1.
         -2   -1    0    0    0  501 -0.00000000000E+00 -0.00000000000E+00 -0.19777258720E+02  0.19777258720E+02  0.00000000000E+00 0. -1.
         25    2    1    2    0    0 -0.94589688585E+02 -0.37053685740E+02  0.84158126773E+03  0.85687052081E+03  0.12509146427E+03 0.  0.
          5    1    3    3  502    0 -0.11865039092E+03 -0.45802263787E+02  0.56891183862E+03  0.58296990930E+03  0.41800000000E+01 0. -1.
         -5    1    3    3    0  502  0.24060702332E+02  0.87485780468E+01  0.27266942911E+03  0.27390061151E+03  0.41800000000E+01 0. -1.
        -11    1    1    2    0    0  0.11020048282E+03  0.28332025591E+02  0.33980623449E+03  0.35835056451E+03  0.00000000000E+00 0. -1.
         11    1    1    2    0    0 -0.15610794233E+02  0.87216601488E+01  0.25086388514E+02  0.30807322848E+02  0.00000000000E+00 0.  1.
</event>
<event>
 7    1  0.2334784E-009  0.1168230E+03  0.7561462E-02  0.1248432E+00
          1   -1    0    0  501    0  0.00000000000E+00  0.00000000000E+00  0.33311330073E+03  0.33311330073E+03  0.00000000000E+00 0. -1.
         -1   -1    0    0    0  501 -0.00000000000E+00 -0.00000000000E+00 -0.46965539445E+02  0.46965539445E+02  0.00000000000E+00 0.  1.
         25    2    1    2    0    0 -0.55535509773E+02 -0.25300270961E+02  0.17215583214E+03  0.22138037493E+03  0.12508934131E+03 0.  0.
          5    1    3    3  502    0 -0.81020721291E+02 -0.55009747872E+02  0.13796283729E+03  0.16923843096E+03  0.41800000000E+01 0.  1.
         -5    1    3    3    0  502  0.25485211519E+02  0.29709476911E+02  0.34192994842E+02  0.52141943968E+02  0.41800000000E+01 0.  1.
        -11    1    1    2    0    0 -0.22204397755E+00  0.38874207834E+02  0.10348645860E+02  0.40228693856E+02  0.00000000000E+00 0.  1.
         11    1    1    2    0    0  0.55757553750E+02 -0.13573936873E+02  0.10364328329E+03  0.11846977139E+03  0.00000000000E+00 0. -1.
</event>
<event>
 7    1  0.2334784E-009  0.1134241E+03  0.7561462E-02  0.1254357E+00
          1   -1    0    0  501    0  0.00000000000E+00  0.00000000000E+00  0.53264008554E+03  0.53264008554E+03  0.00000000000E+00 0. -1.
         -1   -1    0    0    0  501 -0.00000000000E+00 -0.00000000000E+00 -0.42272996684E+02  0.42272996684E+02  0.00000000000E+00 0.  1.
         25    2    1    2    0    0  0.95041369139E+02 -0.10550434635E+02  0.35193918789E+03  0.38555626563E+03  0.12509303929E+03 0.  0.
          5    1    3    3  502    0  0.84370815553E+02 -0.42422948474E+02  0.33422087229E+03  0.34733154902E+03  0.41800000000E+01 0. -1.
         -5    1    3    3    0  502  0.10670553585E+02  0.31872513839E+02  0.17718315604E+02  0.38224716613E+02  0.41800000000E+01 0. -1.
        -11    1    1    2    0    0 -0.29874993110E+02 -0.75536523263E+01  0.11295766827E+03  0.11708547176E+03  0.00000000000E+00 0. -1.
         11    1    1    2    0    0 -0.65166376029E+02  0.18104086961E+02  0.25470232695E+02  0.72271344826E+02  0.00000000000E+00 0.  1.
</event>
<event>
 7    1  0.2334784E-009  0.7406686E+02  0.7561462E-02  0.1346785E+00
         -2   -1    0    0    0  501 -0.00000000000E+00  0.00000000000E+00  0.23782155810E+03  0.23782155810E+03  0.00000000000E+00 0.  1.
          2   -1    0    0  501    0  0.00000000000E+00 -0.00000000000E+00 -0.63017540734E+02  0.63017540734E+02  0.00000000000E+00 0. -1.
         25    2    1    2    0    0 -0.77290696620E+01 -0.17022490408E+02  0.33989411899E+02  0.13096704867E+03  0.12509030346E+03 0.  0.
          5    1    3    3  502    0 -0.14656901259E+02 -0.32390498858E+02  0.76818872557E+02  0.84750107680E+02  0.41800000000E+01 0. -1.
         -5    1    3    3    0  502  0.69278315974E+01  0.15368008450E+02 -0.42829460658E+02  0.46216940992E+02  0.41800000000E+01 0. -1.
        -11    1    1    2    0    0  0.31158027551E+02 -0.29482256795E+02  0.60982362561E+02  0.74557861357E+02  0.00000000000E+00 0. -1.
         11    1    1    2    0    0 -0.23428957889E+02  0.46504747203E+02  0.79832242905E+02  0.95314188805E+02  0.00000000000E+00 0.  1.
</event>
<event>
 7    1  0.2334784E-009  0.8482465E+02  0.7561462E-02  0.1315892E+00
         -1   -1    0    0    0  501 -0.00000000000E+00  0.00000000000E+00  0.10577030630E+02  0.10577030630E+02  0.00000000000E+00 0.  1.
          1   -1    0    0  501    0  0.00000000000E+00 -0.00000000000E+00 -0.16608326635E+04  0.16608326635E+04  0.00000000000E+00 0. -1.
         25    2    1    2    0    0 -0.51869998214E+01  0.25486691611E+02 -0.13280025408E+04  0.13341343691E+04  0.12508912832E+03 0.  0.
          5    1    3    3  502    0 -0.17192606757E+02  0.50376540672E+02 -0.24408815640E+03  0.24985972478E+03  0.41800000000E+01 0. -1.
         -5    1    3    3    0  502  0.12005606935E+02 -0.24889849061E+02 -0.10839143844E+04  0.10842746443E+04  0.41800000000E+01 0. -1.
        -11    1    1    2    0    0 -0.24505788694E+02 -0.46067219181E+02 -0.26097286174E+03  0.26613822899E+03  0.00000000000E+00 0. -1.
         11    1    1    2    0    0  0.29692788515E+02  0.20580527570E+02 -0.61280230349E+02  0.71137096065E+02  0.00000000000E+00 0.  1.
</event>
<event>
 7    1  0.2334784E-009  0.1015313E+03  0.7561462E-02  0.1277108E+00
          1   -1    0    0  501    0  0.00000000000E+00  0.00000000000E+00  0.30636452429E+02  0.30636452429E+02  0.00000000000E+00 0. -1.
         -1   -1    0    0    0  501 -0.00000000000E+00 -0.00000000000E+00 -0.68222600469E+03  0.68222600469E+03  0.00000000000E+00 0.  1.
         25    2    1    2    0    0  0.28683674458E+02  0.24999865362E+02 -0.57022362065E+03  0.58502083344E+03  0.12508657629E+03 0.  0.
          5    1    3    3  502    0  0.77702654622E+02  0.61386946329E+01 -0.34104190983E+03  0.34986060477E+03  0.41800000000E+01 0. -1.
         -5    1    3    3    0  502 -0.49018980164E+02  0.18861170729E+02 -0.22918171082E+03  0.23516022867E+03  0.41800000000E+01 0. -1.
        -11    1    1    2    0    0  0.24991407658E+01 -0.38325264882E+02  0.13646182063E+01  0.38430896629E+02  0.00000000000E+00 0. -1.
         11    1    1    2    0    0 -0.31182815224E+02  0.13325399520E+02 -0.82730549826E+02  0.89410727053E+02  0.00000000000E+00 0.  1.
</event>
<event>
 7    1  0.2334784E-009  0.1397733E+03  0.7561462E-02  0.1213634E+00
         -1   -1    0    0    0  501 -0.00000000000E+00  0.00000000000E+00  0.58922587745E+02  0.58922587745E+02  0.00000000000E+00 0.  1.
          1   -1    0    0  501    0  0.00000000000E+00 -0.00000000000E+00 -0.37261043889E+03  0.37261043889E+03  0.00000000000E+00 0. -1.
         25    2    1    2    0    0 -0.22186824097E+02  0.92202213444E+02 -0.12101231000E+03  0.19820559110E+03  0.12509186162E+03 0.  0.
          5    1    3    3  502    0 -0.70880960010E+02  0.30596452259E+02 -0.48706033649E+02  0.91378353545E+02  0.41800000000E+01 0. -1.
         -5    1    3    3    0  502  0.48694135913E+02  0.61605761185E+02 -0.72306276353E+02  0.10682723755E+03  0.41800000000E+01 0. -1.
        -11    1    1    2    0    0  0.44563734640E+02 -0.90831523635E+02 -0.18258404808E+03  0.20874201001E+03  0.00000000000E+00 0. -1.
         11    1    1    2    0    0 -0.22376910543E+02 -0.13706898088E+01 -0.10091493067E+02  0.24585425526E+02  0.00000000000E+00 0.  1.
</event>
<event>
 7    1  0.2886501E-009  0.2238802E+03  0.7561462E-02  0.1131023E+00
          1   -1    0    0  501    0  0.00000000000E+00  0.00000000000E+00  0.93008982509E+03  0.93008982509E+03  0.00000000000E+00 0. -1.
         -1   -1    0    0    0  501 -0.00000000000E+00 -0.00000000000E+00 -0.60172896871E+02  0.60172896871E+02  0.00000000000E+00 0.  1.
         25    2    1    2    0    0  0.20521642138E+03  0.26426646954E+02  0.37729128194E+03  0.44811602912E+03  0.12508843610E+03 0.  0.
          5    1    3    3  502    0  0.17833091733E+00 -0.21162463683E+02  0.86279930040E+02  0.88935821797E+02  0.41800000000E+01 0. -1.
         -5    1    3    3    0  502  0.20503809047E+03  0.47589110637E+02  0.29101135190E+03  0.35918020732E+03  0.41800000000E+01 0. -1.
        -11    1    1    2    0    0 -0.84003397839E+02  0.19152665419E+02  0.28225697973E+03  0.29511421187E+03  0.00000000000E+00 0. -1.
         11    1    1    2    0    0 -0.12121302354E+03 -0.45579312374E+02  0.21036866655E+03  0.24703248098E+03  0.00000000000E+00 0.  1.
</event>
<event>
 7    1  0.2334784E-009  0.1042447E+03  0.7561462E-02  0.1271615E+00
         -2   -1    0    0    0  501 -0.00000000000E+00  0.00000000000E+00  0.16209986297E+02  0.16209986297E+02  0.00000000000E+00 0.  1.
          2   -1    0    0  501    0  0.00000000000E+00 -0.00000000000E+00 -0.10517550373E+04  0.10517550373E+04  0.00000000000E+00 0. -1.
         25    2    1    2    0    0  0.37134488022E+02  0.59778253836E+02 -0.65912017320E+03  0.67456663954E+03  0.12509331971E+03 0.  0.
          5    1    3    3  502    0  0.66183149310E+02  0.45146847548E+02 -0.61154475375E+03  0.61678432643E+03  0.41800000000E+01 0.  1.
         -5    1    3    3    0  502 -0.29048661288E+02  0.14631406288E+02 -0.47575419449E+02  0.57782313110E+02  0.41800000000E+01 0.  1.
        -11    1    1    2    0    0 -0.23818278097E+02  0.89661290839E+01 -0.27308316868E+02  0.37328889783E+02  0.00000000000E+00 0.  1.
         11    1    1    2    0    0 -0.13316209925E+02 -0.68744382920E+02 -0.34911656094E+03  0.35606949427E+03  0.00000000000E+00 0. -1.
</event>
<event>
 7    1  0.2334784E-009  0.1025982E+03  0.7561462E-02  0.1274925E+00
         -2   -1    0    0    0  501 -0.00000000000E+00  0.00000000000E+00  0.79424007366E+02  0.79424007366E+02  0.00000000000E+00 0.  1.
          2   -1    0    0  501    0  0.00000000000E+00 -0.00000000000E+00 -0.19068788016E+03  0.19068788016E+03  0.00000000000E+00 0. -1.
         25    2    1    2    0    0  0.53241137609E-01  0.45248736604E+02 -0.88578704481E+02  0.15981629818E+03  0.12509041241E+03 0.  0.
          5    1    3    3  502    0  0.34165827879E+02 -0.77885425645E+01 -0.89926188820E+02  0.96603090145E+02  0.41800000000E+01 0. -1.
         -5    1    3    3    0  502 -0.34112586742E+02  0.53037279168E+02  0.13474843388E+01  0.63213208033E+02  0.41800000000E+01 0. -1.
        -11    1    1    2    0    0 -0.36764719431E+02 -0.57289217237E+02 -0.64113914880E+01  0.68372545274E+02  0.00000000000E+00 0.  1.
         11    1    1    2    0    0  0.36711478294E+02  0.12040480633E+02 -0.16273776829E+02  0.41923044077E+02  0.00000000000E+00 0. -1.
</event>
<event>
 7    1  0.2334784E-009  0.1441333E+03  0.7561462E-02  0.1207873E+00
         -1   -1    0    0    0  501 -0.00000000000E+00  0.00000000000E+00  0.42895522228E+02  0.42895522228E+02  0.00000000000E+00 0.  1.
          1   -1    0    0  501    0  0.00000000000E+00 -0.00000000000E+00 -0.59874557656E+03  0.59874557656E+03  0.00000000000E+00 0. -1.
         25    2    1    2    0    0  0.11739450273E+03  0.21627523408E+01 -0.29745295997E+03  0.34338353651E+03  0.12509133855E+03 0.  0.
          5    1    3    3  502    0  0.10933020847E+03  0.28852085337E+02 -0.12485666402E+03  0.16849984054E+03  0.41800000000E+01 0.  1.
         -5    1    3    3    0  502  0.80642942559E+01 -0.26689332996E+02 -0.17259629595E+03  0.17488369596E+03  0.41800000000E+01 0.  1.
        -11    1    1    2    0    0 -0.96783243775E+02 -0.39293557656E+02 -0.15989337979E+03  0.19098919564E+03  0.00000000000E+00 0.  1.
         11    1    1    2    0    0 -0.20611258954E+02  0.37130805315E+02 -0.98503714573E+02  0.10726836665E+03  0.00000000000E+00 0. -1.
</event>
<event>
 7    1  0.2334784E-009  0.4025577E+03  0.7561462E-02  0.1042898E+00
          1   -1    0    0  501    0  0.00000000000E+00  0.00000000000E+00  0.54039491759E+03  0.54039491759E+03  0.00000000000E+00 0. -1.
         -1   -1    0    0    0  501 -0.00000000000E+00 -0.00000000000E+00 -0.30991799058E+03  0.30991799058E+03  0.00000000000E+00 0.  1.
         25    2    1    2    0    0  0.34561763319E+03  0.18959332661E+03  0.12628281513E+03  0.43242321383E+03  0.12508120801E+03 0.  0.
          5    1    3    3  502    0  0.25958728339E+03  0.19217565593E+03  0.12468413247E+03  0.34623784559E+03  0.41800000000E+01 0.  1.
         -5    1    3    3    0  502  0.86030349805E+02 -0.25823293282E+01  0.15986826522E+01  0.86185368239E+02  0.41800000000E+01 0.  1.
        -11    1    1    2    0    0 -0.51357549750E+02 -0.13856929500E+02  0.45829297333E+02  0.70213509423E+02  0.00000000000E+00 0.  1.
         11    1    1    2    0    0 -0.29426008344E+03 -0.17573639711E+03  0.58364814548E+02  0.34767618491E+03  0.00000000000E+00 0. -1.
</event>
<event>
 7    1  0.2334784E-009  0.1285223E+03  0.7561462E-02  0.1229665E+00
          2   -1    0    0  501    0  0.00000000000E+00  0.00000000000E+00  0.25833027080E+03  0.25833027080E+03  0.00000000000E+00 0. -1.
         -2   -1    0    0    0  501 -0.00000000000E+00 -0.00000000000E+00 -0.78463216079E+02  0.78463216079E+02  0.00000000000E+00 0.  1.
         25    2    1    2    0    0  0.75182683608E+02  0.50581988088E+02  0.79982315101E+02  0.17394133591E+03  0.12508974449E+03 0.  0.
          5    1    3    3  502    0  0.18287269864E+02  0.70209511435E+02 -0.13387032286E+01  0.72684690695E+02  0.41800000000E+01 0. -1.
         -5    1    3    3    0  502  0.56895413743E+02 -0.19627523348E+02  0.81321018330E+02  0.10125664521E+03  0.41800000000E+01 0. -1.
        -11    1    1    2    0    0  0.15051532364E+02  0.74120975120E+01  0.75185820492E+00  0.16794436781E+02  0.00000000000E+00 0.  1.
         11    1    1    2    0    0 -0.90234215971E+02 -0.57994085600E+02  0.99132881414E+02  0.14605771419E+03  0.00000000000E+00 0. -1.
</event>
<event>
 7    1  0.3038413E-009  0.1294350E+03  0.7561462E-02  0.1228297E+00
          2   -1    0    0  501    0  0.00000000000E+00  0.00000000000E+00  0.70498418643E+03  0.70498418643E+03  0.00000000000E+00 0. -1.
         -2   -1    0    0    0  501 -0.00000000000E+00 -0.00000000000E+00 -0.32384207753E+02  0.32384207753E+02  0.00000000000E+00 0.  1.
         25    2    1    2    0    0  0.71653567834E+02  0.18207060791E+02  0.18243361413E+03  0.23322808632E+03  0.12509031073E+03 0.  0.
          5    1    3    3  502    0  0.47582775931E+02 -0.50001207893E+02  0.63046125328E+02  0.93576320054E+02  0.41800000000E+01 0.  1.
         -5    1    3    3    0  502  0.24070791903E+02  0.68208268684E+02  0.11938748880E+03  0.13965176627E+03  0.41800000000E+01 0.  1.
        -11    1    1    2    0    0 -0.91145044622E+01 -0.47387788309E+02  0.17701919649E+03  0.18347880695E+03  0.00000000000E+00 0.  1.
         11    1    1    2    0    0 -0.62539063371E+02  0.29180727518E+02  0.31314716806E+03  0.32066150092E+03  0.00000000000E+00 0. -1.
</event>
<event>
 7    1  0.2334784E-009  0.8380805E+02  0.7561462E-02  0.1318579E+00
         -2   -1    0    0    0  501 -0.00000000000E+00  0.00000000000E+00  0.14466373755E+02  0.14466373755E+02  0.00000000000E+00 0.  1.
          2   -1    0    0  501    0  0.00000000000E+00 -0.00000000000E+00 -0.10275811072E+04  0.10275811072E+04  0.00000000000E+00 0. -1.
         25    2    1    2    0    0 -0.37521521538E+02 -0.28020999593E+02 -0.69063808753E+03  0.70344614637E+03  0.12514979787E+03 0.  0.
          5    1    3    3  502    0  0.79219567471E+01  0.58901752662E+01 -0.56979828009E+03  0.56989911735E+03  0.41800000000E+01 0. -1.
         -5    1    3    3    0  502 -0.45443478285E+02 -0.33911174859E+02 -0.12083980743E+03  0.13354702902E+03  0.41800000000E+01 0. -1.
        -11    1    1    2    0    0 -0.23442060385E+02 -0.12764250803E+02 -0.53296696937E+02  0.59606997894E+02  0.00000000000E+00 0. -1.
         11    1    1    2    0    0  0.60963581922E+02  0.40785250395E+02 -0.26917994895E+03  0.27899433665E+03  0.00000000000E+00 0.  1.
</event>
<event>
 7    1  0.2334784E-009  0.1464560E+03  0.7561462E-02  0.1204897E+00
         -2   -1    0    0    0  501 -0.00000000000E+00  0.00000000000E+00  0.26925074345E+02  0.26925074345E+02  0.00000000000E+00 0.  1.
          2   -1    0    0  501    0  0.00000000000E+00 -0.00000000000E+00 -0.92132058807E+03  0.92132058807E+03  0.00000000000E+00 0. -1.
         25    2    1    2    0    0  0.22840112193E+02 -0.10902520667E+03 -0.39143313582E+03  0.42576457405E+03  0.12508959303E+03 0.  0.
          5    1    3    3  502    0  0.93443104462E+01  0.19970384087E+02 -0.14997870927E+03  0.15164833667E+03  0.41800000000E+01 0. -1.
         -5    1    3    3    0  502  0.13495801747E+02 -0.12899559075E+03 -0.24145442655E+03  0.27411623738E+03  0.41800000000E+01 0. -1.
        -11    1    1    2    0    0  0.32870785215E+02  0.34437733857E+02 -0.14526095008E+03  0.15286330381E+03  0.00000000000E+00 0.  1.
         11    1    1    2    0    0 -0.55710897408E+02  0.74587472809E+02 -0.35770142783E+03  0.36961778456E+03  0.00000000000E+00 0. -1.
</event>
<event>
 7    1  0.2334784E-009  0.1226362E+03  0.7561462E-02  0.1238810E+00
          3   -1    0    0  501    0  0.00000000000E+00  0.00000000000E+00  0.26826632104E+03  0.26826632104E+03  0.00000000000E+00 0. -1.
         -3   -1    0    0    0  501 -0.00000000000E+00 -0.00000000000E+00 -0.75028790375E+02  0.75028790375E+02  0.00000000000E+00 0.  1.
         25    2    1    2    0    0 -0.25207506622E+02 -0.84236437810E+02  0.13601831099E+03  0.20464590127E+03  0.12509103938E+03 0.  0.
          5    1    3    3  502    0  0.24120593295E+02  0.12785021690E+02 -0.32875483595E+01  0.27812590220E+02  0.41800000000E+01 0. -1.
         -5    1    3    3    0  502 -0.49328099917E+02 -0.97021459500E+02  0.13930585935E+03  0.17683331105E+03  0.41800000000E+01 0. -1.
        -11    1    1    2    0    0  0.27131482213E+02  0.28017181312E+01 -0.13810380724E+02  0.30572758582E+02  0.00000000000E+00 0.  1.
         11    1    1    2    0    0 -0.19239755907E+01  0.81434719679E+02  0.71029600395E+02  0.10807645157E+03  0.00000000000E+00 0. -1.
</event>
<event>
 7    1  0.2334784E-009  0.4432350E+02  0.7561462E-02  0.1478610E+00
         -3   -1    0    0    0  501 -0.00000000000E+00  0.00000000000E+00  0.71907208150E+02  0.71907208150E+02  0.00000000000E+00 0.  1.
          3   -1    0    0  501    0  0.00000000000E+00 -0.00000000000E+00 -0.16357318426E+03  0.16357318426E+03  0.00000000000E+00 0. -1.
         25    2    1    2    0    0 -0.81296424863E+01 -0.15990055437E+01 -0.48636172066E+02  0.13446899674E+03  0.12509111057E+03 0.  0.
          5    1    3    3  502    0  0.96439620902E+01  0.16878396332E+02 -0.86386122351E+02  0.88644914137E+02  0.41800000000E+01 0. -1.
         -5    1    3    3    0  502 -0.17773604576E+02 -0.18477401875E+02  0.37749950285E+02  0.45824082601E+02  0.41800000000E+01 0. -1.
        -11    1    1    2    0    0 -0.16108579831E+02 -0.62957174197E+01 -0.65059915394E+02  0.67319499352E+02  0.00000000000E+00 0. -1.
         11    1    1    2    0    0  0.24238222318E+02  0.78947229634E+01  0.22030111348E+02  0.33691896322E+02  0.00000000000E+00 0.  1.
</event>
<event>
 7    1  0.2334784E-009  0.2508248E+03  0.7561462E-02  0.1112785E+00
          1   -1    0    0  501    0  0.00000000000E+00  0.00000000000E+00  0.38346469244E+03  0.38346469244E+03  0.00000000000E+00 0. -1.
         -1   -1    0    0    0  501 -0.00000000000E+00 -0.00000000000E+00 -0.21323290041E+03  0.21323290041E+03  0.00000000000E+00 0.  1.
         25    2    1    2    0    0 -0.22245670366E+03  0.69378250737E+02 -0.40647895709E+02  0.26758180851E+03  0.12508975234E+03 0.  0.
          5    1    3    3  502    0 -0.20050590864E+03  0.24515747304E+02 -0.64483722721E+02  0.21208315388E+03  0.41800000000E+01 0. -1.
         -5    1    3    3    0  502 -0.21950795028E+02  0.44862503432E+02  0.23835827012E+02  0.55498654632E+02  0.41800000000E+01 0. -1.
        -11    1    1    2    0    0  0.55902653848E+02 -0.60973734133E+02  0.46224052853E+02  0.94760572094E+02  0.00000000000E+00 0.  1.
         11    1    1    2    0    0  0.16655404982E+03 -0.84045166042E+01  0.16465563488E+03  0.23435521225E+03  0.00000000000E+00 0. -1.
</event>
<event>
 7    1  0.2334784E-009  0.1037689E+03  0.7561462E-02  0.1272564E+00
         -2   -1    0    0    0  501 -0.00000000000E+00  0.00000000000E+00  0.21833316520E+03  0.21833316520E+03  0.00000000000E+00 0.  1.
          2   -1    0    0  501    0  0.00000000000E+00 -0.00000000000E+00 -0.77382433567E+02  0.77382433567E+02  0.00000000000E+00 0. -1.
         25    2    1    2    0    0  0.53081923186E+02  0.37561050163E+01  0.13381667259E+03  0.19075278056E+03  0.12509165653E+03 0.  0.
          5    1    3    3  502    0  0.73127859757E+02 -0.29877340473E+02  0.39234972897E+02  0.88301726169E+02  0.41800000000E+01 0.  1.
         -5    1    3    3    0  502 -0.20045936570E+02  0.33633445489E+02  0.94581699691E+02  0.10245105439E+03  0.41800000000E+01 0.  1.
        -11    1    1    2    0    0 -0.68403909109E+02 -0.15025687000E+02 -0.19068941844E+02  0.72584368801E+02  0.00000000000E+00 0. -1.
         11    1    1    2    0    0  0.15321985922E+02  0.11269581984E+02  0.26203000892E+02  0.32378449414E+02  0.00000000000E+00 0.  1.
</event>
<event>
 7    1  0.2334784E-009  0.1422963E+03  0.7561462E-02  0.1210272E+00
         -3   -1    0    0    0  501 -0.00000000000E+00  0.00000000000E+00  0.84657663365E+02  0.84657663365E+02  0.00000000000E+00 0.  1.
          3   -1    0    0  501    0  0.00000000000E+00 -0.00000000000E+00 -0.31591059603E+03  0.31591059603E+03  0.00000000000E+00 0. -1.
         25    2    1    2    0    0  0.10912884425E+03 -0.12810740997E+02 -0.18709993541E+03  0.25045817765E+03  0.12509873377E+03 0.  0.
          5    1    3    3  502    0  0.55284362055E+02 -0.68947055164E+02 -0.10445130691E+03  0.13688537182E+03  0.41800000000E+01 0.  1.
         -5    1    3    3    0  502  0.53844482195E+02  0.56136314167E+02 -0.82648628500E+02  0.11357280583E+03  0.41800000000E+01 0.  1.
        -11    1    1    2    0    0 -0.67217638629E+02  0.29113620350E+02 -0.67351215236E+02  0.99508793715E+02  0.00000000000E+00 0. -1.
         11    1    1    2    0    0 -0.41911205620E+02 -0.16302879353E+02  0.23198217988E+02  0.50601288023E+02  0.00000000000E+00 0.  1.
</event>
<event>
 7    1  0.2334784E-009  0.7450896E+02  0.7561462E-02  0.1345398E+00
          1   -1    0    0  501    0  0.00000000000E+00  0.00000000000E+00  0.84545796407E+02  0.84545796407E+02  0.00000000000E+00 0. -1.
         -1   -1    0    0    0  501 -0.00000000000E+00 -0.00000000000E+00 -0.15465546644E+03  0.15465546644E+03  0.00000000000E+00 0.  1.
         25    2    1    2    0    0 -0.15072391613E+02 -0.36252683617E+02 -0.46352747617E+02  0.13906419096E+03  0.12509531541E+03 0.  0.
          5    1    3    3  502    0  0.36378323251E+02 -0.17828072118E+02 -0.68707195147E+02  0.79870981107E+02  0.41800000000E+01 0.  1.
         -5    1    3    3    0  502 -0.51450714864E+02 -0.18424611499E+02  0.22354447530E+02  0.59193209858E+02  0.41800000000E+01 0.  1.
        -11    1    1    2    0    0  0.15338477024E+02 -0.17853918334E+01  0.30317403656E+02  0.34023542818E+02  0.00000000000E+00 0. -1.
         11    1    1    2    0    0 -0.26608541032E+00  0.38038075450E+02 -0.54074326076E+02  0.66113529069E+02  0.00000000000E+00 0.  1.
</event>
<event>
 6    1  0.2334784E-009  0.1467505E+03  0.7561462E-02  0.1204524E+00
         -2   -1    0    0    0  501 -0.00000000000E+00  0.00000000000E+00  0.17834320460E+03  0.17834320460E+03  0.00000000000E+00 0.  1.
          2   -1    0    0  501    0  0.00000000000E+00 -0.00000000000E+00 -0.16837319495E+03  0.16837319495E+03  0.00000000000E+00 0. -1.
          5    1    1    2  502    0  0.41490916387E+02 -0.55304398452E+02  0.76304860138E+02  0.10305327123E+03  0.41800000000E+01 0. -1.
         -5    1    1    2    0  502  0.19139860887E+02 -0.62388511907E+02 -0.48988321463E+02  0.81706723913E+02  0.41800000000E+01 0. -1.
        -11    1    1    2    0    0 -0.83093953941E+02  0.10138471080E+03 -0.39776771367E+01  0.13114605095E+03  0.00000000000E+00 0.  1.
         11    1    1    2    0    0  0.22463176667E+02  0.16308199562E+02 -0.13368851892E+02  0.30810353452E+02  0.00000000000E+00 0. -1.
</event>
<event>
 7    1  0.2334784E-009  0.8720894E+02  0.7561462E-02  0.1309755E+00
          1   -1    0    0  501    0  0.00000000000E+00  0.00000000000E+00  0.16031274182E+03  0.16031274182E+03  0.00000000000E+00 0. -1.
         -1   -1    0    0    0  501 -0.00000000000E+00 -0.00000000000E+00 -0.10049969879E+03  0.10049969879E+03  0.00000000000E+00 0.  1.
         25    2    1    2    0    0 -0.49125606464E+02 -0.29252089326E+02  0.13061335555E+02  0.13815675395E+03  0.12509068804E+03 0.  0.
          5    1    3    3  502    0  0.25111632055E+02 -0.34240036573E+02  0.40418912525E+02  0.58771890038E+02  0.41800000000E+01 0.  1.
         -5    1    3    3    0  502 -0.74237238519E+02  0.49879472462E+01 -0.27357576971E+02  0.79384863912E+02  0.41800000000E+01 0.  1.
        -11    1    1    2    0    0  0.12630809387E+02  0.62748962919E+01 -0.30824725000E+02  0.33898013814E+02  0.00000000000E+00 0.  1.
         11    1    1    2    0    0  0.36494797077E+02  0.22977193034E+02  0.77576432470E+02  0.88757672841E+02  0.00000000000E+00 0. -1.
</event>
<event>
 7    1  0.2334784E-009  0.1129825E+03  0.7561462E-02  0.1255144E+00
         -2   -1    0    0    0  501 -0.00000000000E+00  0.00000000000E+00  0.13477116824E+03  0.13477116824E+03  0.00000000000E+00 0.  1.
          2   -1    0    0  501    0  0.00000000000E+00 -0.00000000000E+00 -0.17755843619E+03  0.17755843619E+03  0.00000000000E+00 0. -1.
         25    2    1    2    0    0 -0.40284270277E+02  0.17069621227E+02  0.78979376635E+02  0.15426968541E+03  0.12508876649E+03 0.  0.
          5    1    3    3  502    0 -0.61796348973E+02  0.55696051064E+02  0.30964287015E+02  0.88865619454E+02  0.41800000000E+01 0.  1.
         -5    1    3    3    0  502  0.21512078696E+02 -0.38626429837E+02  0.48015089620E+02  0.65404065952E+02  0.41800000000E+01 0.  1.
        -11    1    1    2    0    0  0.46257606522E+02  0.27150370969E+02 -0.83678210333E+02  0.99392915691E+02  0.00000000000E+00 0.  1.
         11    1    1    2    0    0 -0.59733362450E+01 -0.44219992196E+02 -0.38088434255E+02  0.58667003329E+02  0.00000000000E+00 0. -1.
</event>
<event>
 7    1  0.2334784E-009  0.9574185E+02  0.7561462E-02  0.1289514E+00
          1   -1    0    0  501    0  0.00000000000E+00  0.00000000000E+00  0.55663216020E+03  0.55663216020E+03  0.00000000000E+00 0. -1.
         -1   -1    0    0    0  501 -0.00000000000E+00 -0.00000000000E+00 -0.22552419862E+02  0.22552419862E+02  0.00000000000E+00 0.  1.
         25    2    1    2    0    0 -0.60173783640E+02 -0.31887750754E+02  0.33320901720E+03  0.36237047852E+03  0.12508557740E+03 0.  0.
          5    1    3    3  502    0 -0.48896775919E+02  0.26952395849E+02  0.57730253881E+02  0.80421271753E+02  0.41800000000E+01 0.  1.
         -5    1    3    3    0  502 -0.11277007721E+02 -0.58840146602E+02  0.27547876332E+03  0.28194920677E+03  0.41800000000E+01 0.  1.
        -11    1    1    2    0    0  0.48546356737E+02  0.84527323167E+01  0.87087353106E+02  0.10006200331E+03  0.00000000000E+00 0.  1.
         11    1    1    2    0    0  0.11627426904E+02  0.23435018437E+02  0.11378337003E+03  0.11675209823E+03  0.00000000000E+00 0. -1.
</event>
<event>
 6    1  0.2334784E-009  0.9766510E+02  0.7561462E-02  0.1285284E+00
          2   -1    0    0  501    0  0.00000000000E+00  0.00000000000E+00  0.22500795799E+03  0.22500795799E+03  0.00000000000E+00 0.  1.
         -2   -1    0    0    0  501 -0.00000000000E+00 -0.00000000000E+00 -0.64166318855E+02  0.64166318855E+02  0.00000000000E+00 0. -1.
          5    1    1    2  502    0 -0.30715503037E+02  0.85997930422E+02  0.53439468955E+02  0.10588831572E+03  0.41800000000E+01 0.  1.
         -5    1    1    2    0  502  0.31626236786E+02 -0.31128516073E+02  0.16717255062E+02  0.47604016458E+02  0.41800000000E+01 0.  1.
        -11    1    1    2    0    0 -0.11734779564E+02 -0.26619696108E+02  0.99906058571E+02  0.10405543624E+03  0.00000000000E+00 0.  1.
         11    1    1    2    0    0  0.10824045814E+02 -0.28249718241E+02 -0.92211434554E+01  0.31626508424E+02  0.00000000000E+00 0. -1.
</event>
<event>
 7    1  0.2334784E-009  0.1188342E+03  0.7561462E-02  0.1245033E+00
          2   -1    0    0  501    0  0.00000000000E+00  0.00000000000E+00  0.94818507631E+02  0.94818507631E+02  0.00000000000E+00 0. -1.
         -2   -1    0    0    0  501 -0.00000000000E+00 -0.00000000000E+00 -0.20414354456E+03  0.20414354456E+03  0.00000000000E+00 0.  1.
         25    2    1    2    0    0 -0.22934225140E+02  0.69165760131E+02 -0.86827670724E+01  0.14502696102E+03  0.12509015917E+03 0.  0.
          5    1    3    3  502    0 -0.97217510462E+01  0.94877201553E+02  0.26716361446E+02  0.99133406009E+02  0.41800000000E+01 0.  1.
         -5    1    3    3    0  502 -0.13212474093E+02 -0.25711441422E+02 -0.35399128518E+02  0.45893555011E+02  0.41800000000E+01 0.  1.
        -11    1    1    2    0    0  0.12252010974E+02 -0.89335000168E+02 -0.93789616652E+02  0.13010513525E+03  0.00000000000E+00 0. -1.
         11    1    1    2    0    0  0.10682214166E+02  0.20169240037E+02 -0.68526532078E+01  0.23829955920E+02  0.00000000000E+00 0.  1.
</event>
<event>
 7    1  0.2334784E-009  0.9645236E+02  0.7561462E-02  0.1287938E+00
          2   -1    0    0  501    0  0.00000000000E+00  0.00000000000E+00  0.23661308100E+02  0.23661308100E+02  0.00000000000E+00 0. -1.
         -2   -1    0    0    0  501 -0.00000000000E+00 -0.00000000000E+00 -0.87636622071E+03  0.87636622071E+03  0.00000000000E+00 0.  1.
         25    2    1    2    0    0 -0.10290750081E+02  0.38571215336E+02 -0.72870635402E+03  0.74044134693E+03  0.12508716825E+03 0.  0.
          5    1    3    3  502    0 -0.59198792152E+02  0.17126441957E+02 -0.20774054660E+03  0.21672890695E+03  0.41800000000E+01 0.  1.
         -5    1    3    3    0  502  0.48908042071E+02  0.21444773379E+02 -0.52096580743E+03  0.52371243998E+03  0.41800000000E+01 0.  1.
        -11    1    1    2    0    0  0.30626898524E+01 -0.57358753153E+02 -0.12685578220E+03  0.13925442941E+03  0.00000000000E+00 0.  1.
         11    1    1    2    0    0  0.72280602289E+01  0.18787537817E+02  0.28572236091E+01  0.20331752474E+02  0.00000000000E+00 0. -1.
</event>
<event>
 7    1  0.2334784E-009  0.9485426E+02  0.7561462E-02  0.1291505E+00
          2   -1    0    0  501    0  0.00000000000E+00  0.00000000000E+00  0.39902592372E+03  0.39902592372E+03  0.00000000000E+00 0.  1.
         -2   -1    0    0    0  501 -0.00000000000E+00 -0.00000000000E+00 -0.35097682032E+02  0.35097682032E+02  0.00000000000E+00 0. -1.
         25    2    1    2    0    0 -0.45363482889E+01  0.14579902451E+02  0.29118593918E+03  0.31728481473E+03  0.12508897022E+03 0.  0.
          5    1    3    3  502    0  0.23243889766E+02 -0.35184595349E+02  0.35470658512E+02  0.55261869101E+02  0.41800000000E+01 0. -1.
         -5    1    3    3    0  502 -0.27780238055E+02  0.49764497800E+02  0.25571528067E+03  0.26202294563E+03  0.41800000000E+01 0. -1.
        -11    1    1    2    0    0 -0.31199264311E+02  0.22670596951E+02  0.21735980615E+02  0.44269661315E+02  0.00000000000E+00 0.  1.
         11    1    1    2    0    0  0.35735612600E+02 -0.37250499403E+02  0.51006321890E+02  0.72569129707E+02  0.00000000000E+00 0. -1.
</event>
<event>
 7    1  0.2334784E-009  0.1671722E+03  0.7561462E-02  0.1180829E+00
         -2   -1    0    0    0  501 -0.00000000000E+00  0.00000000000E+00  0.93723322164E+02  0.93723322164E+02  0.00000000000E+00 0.  1.
          2   -1    0    0  501    0  0.00000000000E+00 -0.00000000000E+00 -0.40211657200E+03  0.40211657200E+03  0.00000000000E+00 0. -1.
         25    2    1    2    0    0 -0.76820082342E+02  0.12690167606E+03 -0.13506399854E+03  0.23642211325E+03  0.12509105280E+03 0.  0.
          5    1    3    3  502    0 -0.35851046480E+02  0.11560057855E+03 -0.14853100364E+03  0.19164478270E+03  0.41800000000E+01 0. -1.
         -5    1    3    3    0  502 -0.40969035863E+02  0.11301097513E+02  0.13467005093E+02  0.44777330545E+02  0.41800000000E+01 0. -1.
        -11    1    1    2    0    0  0.20967904323E+02 -0.11029016170E+03 -0.16640998171E+03  0.20073827436E+03  0.00000000000E+00 0. -1.
         11    1    1    2    0    0  0.55852178019E+02 -0.16611514365E+02 -0.69192695842E+01  0.58679506564E+02  0.00000000000E+00 0.  1.
</event>
<event>
 7    1  0.2726875E-009  0.9133087E+02  0.7561462E-02  0.1299660E+00
         -1   -1    0    0    0  501 -0.00000000000E+00  0.00000000000E+00  0.37271418351E+02  0.37271418351E+02  0.00000000000E+00 0.  1.
          1   -1    0    0  501    0  0.00000000000E+00 -0.00000000000E+00 -0.39411803499E+03  0.39411803499E+03  0.00000000000E+00 0. -1.
         25    2    1    2    0    0  0.28469866761E+02 -0.14560153144E+02 -0.12169218506E+03  0.17742860811E+03  0.12509752874E+03 0.  0.
          5    1    3    3  502    0 -0.28560076219E+02 -0.49354566609E+02 -0.80821197244E+02  0.99000452134E+02  0.41800000000E+01 0. -1.
         -5    1    3    3    0  502  0.57029942980E+02  0.34794413465E+02 -0.40870987818E+02  0.78428155976E+02  0.41800000000E+01 0. -1.
        -11    1    1    2    0    0  0.14102252063E+02  0.45279028611E+01 -0.38637858177E-01  0.14811377737E+02  0.00000000000E+00 0.  1.
         11    1    1    2    0    0 -0.42572118824E+02  0.10032250283E+02 -0.23511579372E+03  0.23914946749E+03  0.00000000000E+00 0. -1.
</event>
<event>
 6    1  0.2334784E-009  0.1168422E+03  0.7561462E-02  0.1248399E+00
         -1   -1    0    0    0  501 -0.00000000000E+00  0.00000000000E+00  0.32049670193E+03  0.32049670193E+03  0.00000000000E+00 0.  1.
          1   -1    0    0  501    0  0.00000000000E+00 -0.00000000000E+00 -0.43990020333E+02  0.43990020333E+02  0.00000000000E+00 0. -1.
          5    1    1    2  502    0  0.14277734591E+01  0.43032089943E+02  0.29720334091E+02  0.52483997183E+02  0.41800000000E+01 0. -1.
         -5    1    1    2    0  502 -0.16221870935E+02 -0.86511708027E+02  0.10511515294E+03  0.13716447244E+03  0.41800000000E+01 0. -1.
        -11    1    1    2    0    0 -0.17897593409E+02  0.62139335648E+02  0.94061503142E+02  0.11414546534E+03  0.00000000000E+00 0. -1.
         11    1    1    2    0    0  0.32691690884E+02 -0.18659717564E+02  0.47609691425E+02  0.60692787298E+02  0.00000000000E+00 0.  1.
</event>
<event>
 7    1  0.2334784E-009  0.1091971E+03  0.7561462E-02  0.1262064E+00
         -1   -1    0    0    0  501 -0.00000000000E+00  0.00000000000E+00  0.35269236387E+03  0.35269236387E+03  0.00000000000E+00 0.  1.
          1   -1    0    0  501    0  0.00000000000E+00 -0.00000000000E+00 -0.36703444049E+02  0.36703444049E+02  0.00000000000E+00 0. -1.
         25    2    1    2    0    0 -0.17892886418E+02  0.17608268409E+02  0.13862337743E+03  0.18840018478E+03  0.12509189564E+03 0.  0.
          5    1    3    3  502    0  0.12710049289E+02  0.65500068244E+02  0.97102333851E+02  0.11789037252E+03  0.41800000000E+01 0.  1.
         -5    1    3    3    0  502 -0.30602935707E+02 -0.47891799835E+02  0.41521043577E+02  0.70509812261E+02  0.41800000000E+01 0.  1.
        -11    1    1    2    0    0 -0.12769022212E+02  0.32998302979E+02  0.65765171969E+02  0.74679272705E+02  0.00000000000E+00 0.  1.
         11    1    1    2    0    0  0.30661908630E+02 -0.50606571388E+02  0.11160037043E+03  0.12631635044E+03  0.00000000000E+00 0. -1.
</event>
<event>
 7    1  0.2334784E-009  0.1150136E+03  0.7561462E-02  0.1251557E+00
         -1   -1    0    0    0  501 -0.00000000000E+00  0.00000000000E+00  0.42574264883E+03  0.42574264883E+03  0.00000000000E+00 0.  1.
          1   -1    0    0  501    0  0.00000000000E+00 -0.00000000000E+00 -0.46493415395E+02  0.46493415395E+02  0.00000000000E+00 0. -1.
         25    2    1    2    0    0  0.46781569146E+02 -0.72450923128E+02  0.16685382962E+03  0.22566777895E+03  0.12509234399E+03 0.  0.
          5    1    3    3  502    0  0.62147817726E+01 -0.82533283139E+02  0.39965010663E+02  0.92005656432E+02  0.41800000000E+01 0. -1.
         -5    1    3    3    0  502  0.40566787374E+02  0.10082360010E+02  0.12688881896E+03  0.13366212252E+03  0.41800000000E+01 0. -1.
        -11    1    1    2    0    0  0.14141546866E+02  0.21453486390E+02  0.12841655725E+03  0.13096200824E+03  0.00000000000E+00 0.  1.
         11    1    1    2    0    0 -0.60923116012E+02  0.50997436739E+02  0.83978846566E+02  0.11560627703E+03  0.00000000000E+00 0. -1.
</event>
<event>
 7    1  0.2334784E-009  0.1412576E+03  0.7561462E-02  0.1211647E+00
          1   -1    0    0  501    0  0.00000000000E+00  0.00000000000E+00  0.12512856607E+03  0.12512856607E+03  0.00000000000E+00 0.  1.
         -1   -1    0    0    0  501 -0.00000000000E+00 -0.00000000000E+00 -0.16305430616E+03  0.16305430616E+03  0.00000000000E+00 0. -1.
         25    2    1    2    0    0  0.31891390081E+02  0.88872145956E+02 -0.30151170913E+02  0.15958864185E+03  0.12507646626E+03 0.  0.
          5    1    3    3  502    0 -0.46834371871E+02  0.38290419800E+02 -0.25566553755E+02  0.65808325521E+02  0.41800000000E+01 0.  1.
         -5    1    3    3    0  502  0.78725761952E+02  0.50581726156E+02 -0.45846171582E+01  0.93780316326E+02  0.41800000000E+01 0.  1.
        -11    1    1    2    0    0  0.30210517173E+02 -0.26397300592E+02 -0.53286285007E+01  0.40470817981E+02  0.00000000000E+00 0. -1.
         11    1    1    2    0    0 -0.62101907254E+02 -0.62474845364E+02 -0.24459406781E+01  0.88123412403E+02  0.00000000000E+00 0.  1.
</event>
<event>
 7    1  0.2334784E-009  0.6416470E+02  0.7561462E-02  0.1381141E+00
         -1   -1    0    0    0  501 -0.00000000000E+00  0.00000000000E+00  0.97603357597E+02  0.97603357597E+02  0.00000000000E+00 0.  1.
          1   -1    0    0  501    0  0.00000000000E+00 -0.00000000000E+00 -0.16140817954E+03  0.16140817954E+03  0.00000000000E+00 0. -1.
         25    2    1    2    0    0 -0.50378992232E+01 -0.28497513055E+02 -0.98494803365E+02  0.16183185921E+03  0.12510330006E+03 0.  0.
          5    1    3    3  502    0  0.19203777693E+02 -0.26508589534E+02 -0.12282200418E+03  0.12717785777E+03  0.41800000000E+01 0. -1.
         -5    1    3    3    0  502 -0.24241676916E+02 -0.19889235216E+01  0.24327200812E+02  0.34654001440E+02  0.41800000000E+01 0. -1.
        -11    1    1    2    0    0 -0.18495040598E+02  0.40286849804E+02  0.49926871863E+02  0.66766678275E+02  0.00000000000E+00 0.  1.
         11    1    1    2    0    0  0.23532939821E+02 -0.11789336748E+02 -0.15236890443E+02  0.30412999654E+02  0.00000000000E+00 0. -1.
</event>
<event>
 7    1  0.2334784E-009  0.1039839E+03  0.7561462E-02  0.1272135E+00
          3   -1    0    0  501    0  0.00000000000E+00  0.00000000000E+00  0.22318931109E+03  0.22318931109E+03  0.00000000000E+00 0. -1.
         -3   -1    0    0    0  501 -0.00000000000E+00 -0.00000000000E+00 -0.53505010756E+02  0.53505010756E+02  0.00000000000E+00 0.  1.
         25    2    1    2    0    0 -0.99638006135E+01 -0.31444137176E+02  0.11785380662E+03  0.17501627153E+03  0.12511260719E+03 0.  0.
          5    1    3    3  502    0  0.51413627140E+02 -0.33434466161E+02  0.86000222860E+02  0.10571062064E+03  0.41800000000E+01 0. -1.
         -5    1    3    3    0  502 -0.61377427753E+02  0.19903289850E+01  0.31853583761E+02  0.69305650892E+02  0.41800000000E+01 0. -1.
        -11    1    1    2    0    0 -0.16733371871E+02  0.49806593505E+02  0.19894432615E+02  0.56182656931E+02  0.00000000000E+00 0.  1.
         11    1    1    2    0    0  0.26697172484E+02 -0.18362456329E+02  0.31936061099E+02  0.45495393389E+02  0.00000000000E+00 0. -1.
</event>
<event>
 7    1  0.2365014E-009  0.8000162E+02  0.7561462E-02  0.1329047E+00
         -1   -1    0    0    0  501 -0.00000000000E+00  0.00000000000E+00  0.73367232261E+02  0.73367232261E+02  0.00000000000E+00 0.  1.
          1   -1    0    0  501    0  0.00000000000E+00 -0.00000000000E+00 -0.21716183071E+03  0.21716183071E+03  0.00000000000E+00 0. -1.
         25    2    1    2    0    0  0.56665127844E+02  0.21435589997E+02 -0.10649314811E+03  0.17509602349E+03  0.12508959036E+03 0.  0.
          5    1    3    3  502    0  0.64700713124E+01  0.25738631630E+02 -0.11983745061E+03  0.12281215718E+03  0.41800000000E+01 0.  1.
         -5    1    3    3    0  502  0.50195056532E+02 -0.43030416336E+01  0.13344302506E+02  0.52283866316E+02  0.41800000000E+01 0.  1.
        -11    1    1    2    0    0 -0.42366390230E+02 -0.40596108068E+02  0.12677130950E+02  0.60030531070E+02  0.00000000000E+00 0.  1.
         11    1    1    2    0    0 -0.14298737614E+02  0.19160518071E+02 -0.49978581297E+02  0.55402508414E+02  0.00000000000E+00 0. -1.
</event>
<event>
 7    1  0.2334784E-009  0.1077171E+03  0.7561462E-02  0.1264857E+00
         -2   -1    0    0    0  501 -0.00000000000E+00  0.00000000000E+00  0.15767224998E+03  0.15767224998E+03  0.00000000000E+00 0.  1.
          2   -1    0    0  501    0  0.00000000000E+00 -0.00000000000E+00 -0.18676107976E+03  0.18676107976E+03  0.00000000000E+00 0. -1.
         25    2    1    2    0    0  0.63399149931E+02 -0.86409378349E+02 -0.93428553217E+02  0.18937422135E+03  0.12509064024E+03 0.  0.
          5    1    3    3  502    0  0.12283612192E+02 -0.19335132018E+02 -0.10188970701E+03  0.10451659798E+03  0.41800000000E+01 0. -1.
         -5    1    3    3    0  502  0.51115537739E+02 -0.67074246331E+02  0.84611537960E+01  0.84857623363E+02  0.41800000000E+01 0. -1.
        -11    1    1    2    0    0 -0.37262825211E+02  0.41677998668E+02  0.82932137462E+02  0.10001656433E+03  0.00000000000E+00 0.  1.
         11    1    1    2    0    0 -0.26136324720E+02  0.44731379682E+02 -0.18592414022E+02  0.55042544066E+02  0.00000000000E+00 0. -1.
</event>
<event>
 7    1  0.2334784E-009  0.1144903E+03  0.7561462E-02  0.1252474E+00
          1   -1    0    0  501    0  0.00000000000E+00  0.00000000000E+00  0.91513174511E+03  0.91513174511E+03  0.00000000000E+00 0. -1.
         -1   -1    0    0    0  501 -0.00000000000E+00 -0.00000000000E+00 -0.20197752908E+02  0.20197752908E+02  0.00000000000E+00 0.  1.
         25    2    1    2    0    0  0.32752236651E+02  0.59610517487E+02  0.64977123062E+03  0.66518905107E+03  0.12509076198E+03 0.  0.
          5    1    3    3  502    0 -0.13952737592E+02 -0.23086797160E+02  0.42430198928E+02  0.50452683482E+02  0.41800000000E+01 0.  1.
         -5    1    3    3    0  502  0.46704974243E+02  0.82697314647E+02  0.60734103169E+03  0.61473636759E+03  0.41800000000E+01 0.  1.
        -11    1    1    2    0    0  0.22763426442E+02 -0.43025757833E+02  0.15919319650E+03  0.16646880558E+03  0.00000000000E+00 0.  1.
         11    1    1    2    0    0 -0.55515663093E+02 -0.16584759654E+02  0.85969565086E+02  0.10367164136E+03  0.00000000000E+00 0. -1.
</event>
<event>
 7    1  0.2334784E-009  0.1296201E+03  0.7561462E-02  0.1228021E+00
          2   -1    0    0  501    0  0.00000000000E+00  0.00000000000E+00  0.70823620705E+03  0.70823620705E+03  0.00000000000E+00 0.  1.
         -2   -1    0    0    0  501 -0.00000000000E+00 -0.00000000000E+00 -0.30347342889E+02  0.30347342889E+02  0.00000000000E+00 0. -1.
         25    2    1    2    0    0  0.52967367268E+01  0.92513455979E+02  0.45869427816E+03  0.48439067281E+03  0.12508832132E+03 0.  0.
          5    1    3    3  502    0 -0.47644807831E+02  0.31415240154E+02  0.30857142759E+03  0.31383234912E+03  0.41800000000E+01 0.  1.
         -5    1    3    3    0  502  0.52941544558E+02  0.61098215825E+02  0.15012285056E+03  0.17055832369E+03  0.41800000000E+01 0.  1.
        -11    1    1    2    0    0 -0.41364087839E+02 -0.41539271272E+02  0.63391254183E+02  0.86342051907E+02  0.00000000000E+00 0.  1.
         11    1    1    2    0    0  0.36067351112E+02 -0.50974184707E+02  0.15580333182E+03  0.16785082523E+03  0.00000000000E+00 0. -1.
</event>
<event>
 7    1  0.2334784E-009  0.1696844E+03  0.7561462E-02  0.1178177E+00
         -1   -1    0    0    0  501 -0.00000000000E+00  0.00000000000E+00  0.54856826856E+02  0.54856826856E+02  0.00000000000E+00 0.  1.
          1   -1    0    0  501    0  0.00000000000E+00 -0.00000000000E+00 -0.75160059442E+03  0.75160059442E+03  0.00000000000E+00 0. -1.
         25    2    1    2    0    0  0.41471317943E+02  0.16094698849E+03 -0.44657527169E+03  0.49264476283E+03  0.12508231584E+03 0.  0.
          5    1    3    3  502    0 -0.10448890409E+02  0.37905949045E+02 -0.17487668979E+02  0.43235763554E+02  0.41800000000E+01 0.  1.
         -5    1    3    3    0  502  0.51920208352E+02  0.12304103945E+03 -0.42908760271E+03  0.44940899927E+03  0.41800000000E+01 0.  1.
        -11    1    1    2    0    0 -0.34073842769E+02 -0.12918100790E+03 -0.11986516447E+03  0.17948932341E+03  0.00000000000E+00 0.  1.
         11    1    1    2    0    0 -0.73974751738E+01 -0.31765980590E+02 -0.13030333141E+03  0.13432333505E+03  0.00000000000E+00 0. -1.
</event>
<event>
 7    1  0.2334784E-009  0.1019047E+03  0.7561462E-02  0.1276341E+00
          2   -1    0    0  501    0  0.00000000000E+00  0.00000000000E+00  0.61564512475E+03  0.61564512475E+03  0.00000000000E+00 0. -1.
         -2   -1    0    0    0  501 -0.00000000000E+00 -0.00000000000E+00 -0.30930253598E+02  0.30930253598E+02  0.00000000000E+00 0.  1.
         25    2    1    2    0    0  0.73381388024E+02 -0.35688407129E+02  0.38134789877E+03  0.40955152515E+03  0.12509093228E+03 0.  0.
          5    1    3    3  502    0  0.19010042120E+02 -0.31605024662E+01  0.32211030305E+03  0.32271332512E+03  0.41800000000E+01 0.  1.
         -5    1    3    3    0  502  0.54371345904E+02 -0.32527904663E+02  0.59237595721E+02  0.86838200027E+02  0.41800000000E+01 0.  1.
        -11    1    1    2    0    0 -0.82873849197E+02 -0.81360968108E+00  0.12393874225E+03  0.14909577014E+03  0.00000000000E+00 0.  1.
         11    1    1    2    0    0  0.94924611721E+01  0.36502016811E+02  0.79428230127E+02  0.87928083064E+02  0.00000000000E+00 0. -1.
</event>
<event>
 7    1  0.2334784E-009  0.1033159E+03  0.7561462E-02  0.1273474E+00
         -1   -1    0    0    0  501 -0.00000000000E+00  0.00000000000E+00  0.65049726174E+03  0.65049726174E+03  0.00000000000E+00 0.  1.
          1   -1    0    0  501    0  0.00000000000E+00 -0.00000000000E+00 -0.20958443331E+02  0.20958443331E+02  0.00000000000E+00 0. -1.
         25    2    1    2    0    0 -0.13099307302E+02 -0.26959747397E+02  0.45297824750E+03  0.47088914126E+03  0.12509544682E+03 0.  0.
          5    1    3    3  502    0  0.42229504200E+02  0.16437929403E+02  0.28693673255E+03  0.29052314440E+03  0.41800000000E+01 0.  1.
         -5    1    3    3    0  502 -0.55328811502E+02 -0.43397676800E+02  0.16604151495E+03  0.18036599685E+03  0.41800000000E+01 0.  1.
        -11    1    1    2    0    0  0.19683733345E+02  0.56804762450E+02  0.14328121196E+03  0.15538254759E+03  0.00000000000E+00 0.  1.
         11    1    1    2    0    0 -0.65844260423E+01 -0.29845015053E+02  0.33279358942E+02  0.45184016216E+02  0.00000000000E+00 0. -1.
</event>
<event>
 7    1  0.2334784E-009  0.1067351E+03  0.7561462E-02  0.1266738E+00
          1   -1    0    0  501    0  0.00000000000E+00  0.00000000000E+00  0.64649303575E+03  0.64649303575E+03  0.00000000000E+00 0. -1.
         -1   -1    0    0    0  501 -0.00000000000E+00 -0.00000000000E+00 -0.39047221918E+02  0.39047221918E+02  0.00000000000E+00 0.  1.
         25    2    1    2    0    0  0.47713416908E+02 -0.44314383855E+02  0.52936793807E+03  0.54783164471E+03  0.12509501314E+03 0.  0.
          5    1    3    3  502    0 -0.14242117186E+02 -0.51539121813E+02  0.40601063190E+03  0.40953781827E+03  0.41800000000E+01 0.  1.
         -5    1    3    3    0  502  0.61955534094E+02  0.72247379580E+01  0.12335730618E+03  0.13829382644E+03  0.41800000000E+01 0.  1.
        -11    1    1    2    0    0  0.14870237877E+02  0.29457644598E+02 -0.42079557276E+01  0.33265352713E+02  0.00000000000E+00 0.  1.
         11    1    1    2    0    0 -0.62583654785E+02  0.14856739258E+02  0.82285831480E+02  0.10444326024E+03  0.00000000000E+00 0. -1.
</event>
<event>
 7    1  0.2334784E-009  0.9932758E+02  0.7561462E-02  0.1281716E+00
          2   -1    0    0  501    0  0.00000000000E+00  0.00000000000E+00  0.53822231108E+02  0.53822231108E+02  0.00000000000E+00 0. -1.
         -2   -1    0    0    0  501 -0.00000000000E+00 -0.00000000000E+00 -0.27198773116E+03  0.27198773116E+03  0.00000000000E+00 0.  1.
         25    2    1    2    0    0 -0.33007833661E+02  0.38661018790E+02 -0.12650912642E+03  0.18502847150E+03  0.12508710861E+03 0.  0.
          5    1    3    3  502    0  0.68050837360E+01  0.67711776462E+02 -0.25930269131E+02  0.72945493991E+02  0.41800000000E+01 0. -1.
         -5    1    3    3    0  502 -0.39812917397E+02 -0.29050757672E+02 -0.10057885729E+03  0.11208297751E+03  0.41800000000E+01 0. -1.
        -11    1    1    2    0    0 -0.15257824762E+02  0.48695298460E+01  0.10893164028E+02  0.19369423325E+02  0.00000000000E+00 0. -1.
         11    1    1    2    0    0  0.48265658423E+02 -0.43530548636E+02 -0.10254953766E+03  0.12141206745E+03  0.00000000000E+00 0.  1.
</event>
<event>
 7    1  0.2334784E-009  0.7635656E+02  0.7561462E-02  0.1339721E+00
         -3   -1    0    0    0  501 -0.00000000000E+00  0.00000000000E+00  0.35017751603E+02  0.35017751603E+02  0.00000000000E+00 0.  1.
          3   -1    0    0  501    0  0.00000000000E+00 -0.00000000000E+00 -0.34159644386E+03  0.34159644386E+03  0.00000000000E+00 0. -1.
         25    2    1    2    0    0  0.47500744792E-01 -0.73512417343E+00 -0.20547355766E+03  0.24053235087E+03  0.12504353742E+03 0.  0.
          5    1    3    3  502    0  0.39133254424E+02  0.25285958409E+02 -0.18191361720E+03  0.18783191373E+03  0.41800000000E+01 0.  1.
         -5    1    3    3    0  502 -0.39085753679E+02 -0.26021082583E+02 -0.23559940465E+02  0.52700437134E+02  0.41800000000E+01 0.  1.
        -11    1    1    2    0    0 -0.23799519833E+02 -0.16917678487E+02  0.15552660644E+01  0.29241132710E+02  0.00000000000E+00 0.  1.
         11    1    1    2    0    0  0.23752019088E+02  0.17652802661E+02 -0.10266040066E+03  0.10684071188E+03  0.00000000000E+00 0. -1.
</event>
<event>
 7    1  0.2671313E-009  0.1007422E+03  0.7561462E-02  0.1278743E+00
         -2   -1    0    0    0  501 -0.00000000000E+00  0.00000000000E+00  0.12208854056E+02  0.12208854056E+02  0.00000000000E+00 0.  1.
          2   -1    0    0  501    0  0.00000000000E+00 -0.00000000000E+00 -0.11078136223E+04  0.11078136223E+04  0.00000000000E+00 0. -1.
         25    2    1    2    0    0  0.27604001391E+02  0.41868765872E+01 -0.77748989699E+03  0.78798294454E+03  0.12508824941E+03 0.  0.
          5    1    3    3  502    0 -0.39086340689E+02  0.40343066820E+01 -0.53492076053E+03  0.53637832740E+03  0.41800000000E+01 0.  1.
         -5    1    3    3    0  502  0.66690342079E+02  0.15256990524E+00 -0.24256913646E+03  0.25160461714E+03  0.41800000000E+01 0.  1.
        -11    1    1    2    0    0  0.29864182516E+02 -0.19508785690E+02 -0.11854336839E+03  0.12379415296E+03  0.00000000000E+00 0.  1.
         11    1    1    2    0    0 -0.57468183906E+02  0.15321909103E+02 -0.19957150282E+03  0.20824537882E+03  0.00000000000E+00 0. -1.
</event>
<event>
 7    1  0.2334784E-009  0.9176300E+02  0.7561462E-02  0.1298638E+00
          1   -1    0    0  501    0  0.00000000000E+00  0.00000000000E+00  0.17751010438E+03  0.17751010438E+03  0.00000000000E+00 0. -1.
         -1   -1    0    0    0  501 -0.00000000000E+00 -0.00000000000E+00 -0.72800339300E+02  0.72800339300E+02  0.00000000000E+00 0.  1.
         25    2    1    2    0    0  0.15905518820E+02  0.29387854063E+02  0.54864354066E+02  0.14062012868E+03  0.12508913521E+03 0.  0.
          5    1    3    3  502    0  0.11594127365E+02  0.75165840090E+02  0.55830856715E+02  0.94439844702E+02  0.41800000000E+01 0.  1.
         -5    1    3    3    0  502  0.43113914550E+01 -0.45777986027E+02 -0.96650264829E+00  0.46180283979E+02  0.41800000000E+01 0.  1.
        -11    1    1    2    0    0  0.69277644471E+01 -0.36593117631E+02 -0.15315835622E+02  0.40269405248E+02  0.00000000000E+00 0.  1.
         11    1    1    2    0    0 -0.22833283267E+02  0.72052635685E+01  0.65161246639E+02  0.69420909756E+02  0.00000000000E+00 0. -1.
</event>
<event>
 7    1  0.2334784E-009  0.1065278E+03  0.7561462E-02  0.1267138E+00
         -4   -1    0    0    0  501 -0.00000000000E+00  0.00000000000E+00  0.32893259596E+03  0.32893259596E+03  0.00000000000E+00 0.  1.
          4   -1    0    0  501    0  0.00000000000E+00 -0.00000000000E+00 -0.38079841619E+02  0.38079841619E+02  0.00000000000E+00 0. -1.
         25    2    1    2    0    0 -0.10814695854E+02  0.26037771194E+02  0.16531019794E+03  0.20921315448E+03  0.12509100403E+03 0.  0.
          5    1    3    3  502    0  0.37866480183E+02 -0.33210789105E+02  0.53789914364E+02  0.73808225299E+02  0.41800000000E+01 0.  1.
         -5    1    3    3    0  502 -0.48681176037E+02  0.59248560299E+02  0.11152028358E+03  0.13540492918E+03  0.41800000000E+01 0.  1.
        -11    1    1    2    0    0 -0.30267752461E+02 -0.32182071420E+02  0.99248289766E+02  0.10863722006E+03  0.00000000000E+00 0.  1.
         11    1    1    2    0    0  0.41082448315E+02  0.61443002268E+01  0.26294266639E+02  0.49162063046E+02  0.00000000000E+00 0. -1.
</event>
<event>
 7    1  0.2334784E-009  0.1435236E+03  0.7561462E-02  0.1208665E+00
         -2   -1    0    0    0  501 -0.00000000000E+00  0.00000000000E+00  0.13740893961E+03  0.13740893961E+03  0.00000000000E+00 0. -1.
          2   -1    0    0  501    0  0.00000000000E+00 -0.00000000000E+00 -0.31685088500E+03  0.31685088500E+03  0.00000000000E+00 0.  1.
         25    2    1    2    0    0  0.40943492560E+02  0.10562034717E+03 -0.24321666075E+03  0.29603263405E+03  0.12509575946E+03 0.  0.
          5    1    3    3  502    0  0.65701851488E+02  0.54518879998E+02 -0.60691283651E+02  0.10483294271E+03  0.41800000000E+01 0. -1.
         -5    1    3    3    0  502 -0.24758358927E+02  0.51101467177E+02 -0.18252537710E+03  0.19119969134E+03  0.41800000000E+01 0. -1.
        -11    1    1    2    0    0 -0.65427636603E+02 -0.45432336654E+02  0.38965244565E+02  0.88674478455E+02  0.00000000000E+00 0. -1.
         11    1    1    2    0    0  0.24484144042E+02 -0.60188010521E+02  0.24809470792E+02  0.69552712103E+02  0.00000000000E+00 0.  1.
</event>
<event>
 7    1  0.2334784E-009  0.1552518E+03  0.7561462E-02  0.1194164E+00
          1   -1    0    0  501    0  0.00000000000E+00  0.00000000000E+00  0.50745926161E+02  0.50745926161E+02  0.00000000000E+00 0. -1.
         -1   -1    0    0    0  501 -0.00000000000E+00 -0.00000000000E+00 -0.59121490715E+03  0.59121490715E+03  0.00000000000E+00 0.  1.
         25    2    1    2    0    0  0.70097971377E+02 -0.95490340989E+02 -0.16735850747E+03  0.24018520619E+03  0.12509169611E+03 0.  0.
          5    1    3    3  502    0  0.10471353841E+03 -0.53475316257E+02 -0.11226111189E+03  0.16261784717E+03  0.41800000000E+01 0. -1.
         -5    1    3    3    0  502 -0.34615567038E+02 -0.42015024733E+02 -0.55097395584E+02  0.77567359016E+02  0.41800000000E+01 0. -1.
        -11    1    1    2    0    0  0.23457400632E+01  0.55413164657E+02 -0.81068814861E+02  0.98225628309E+02  0.00000000000E+00 0. -1.
         11    1    1    2    0    0 -0.72443711440E+02  0.40077176332E+02 -0.29204165866E+03  0.30354999882E+03  0.00000000000E+00 0.  1.
</event>
<event>
 7    1  0.2334784E-009  0.1287594E+03  0.7561462E-02  0.1229308E+00
         -1   -1    0    0    0  501 -0.00000000000E+00  0.00000000000E+00  0.19307442107E+02  0.19307442107E+02  0.00000000000E+00 0.  1.
          1   -1    0    0  501    0  0.00000000000E+00 -0.00000000000E+00 -0.11766822065E+04  0.11766822065E+04  0.00000000000E+00 0. -1.
         25    2    1    2    0    0 -0.17816326913E+01 -0.66161031608E+02 -0.91321566831E+03  0.92411648254E+03  0.12509180682E+03 0.  0.
          5    1    3    3  502    0  0.61301524949E+02 -0.38486740423E+02 -0.47222606165E+03  0.47775938699E+03  0.41800000000E+01 0.  1.
         -5    1    3    3    0  502 -0.63083157640E+02 -0.27674291185E+02 -0.44098960665E+03  0.44635709555E+03  0.41800000000E+01 0.  1.
        -11    1    1    2    0    0  0.34418226008E+02 -0.76860150150E+01 -0.46499288768E+02  0.58359857473E+02  0.00000000000E+00 0.  1.
         11    1    1    2    0    0 -0.32636593316E+02  0.73847046623E+02 -0.19765980728E+03  0.21351330856E+03  0.00000000000E+00 0. -1.
</event>
<event>
 7    1  0.2334784E-009  0.9901681E+02  0.7561462E-02  0.1282377E+00
          1   -1    0    0  501    0  0.00000000000E+00  0.00000000000E+00  0.12084642956E+03  0.12084642956E+03  0.00000000000E+00 0. -1.
         -1   -1    0    0    0  501 -0.00000000000E+00 -0.00000000000E+00 -0.12791199105E+03  0.12791199105E+03  0.00000000000E+00 0.  1.
         25    2    1    2    0    0 -0.48793123970E+02  0.23658184405E+02  0.21125478845E+02  0.13796839414E+03  0.12509401779E+03 0.  0.
          5    1    3    3  502    0  0.39174168710E+01  0.67377475633E+02  0.76972849403E+01  0.68057262456E+02  0.41800000000E+01 0. -1.
         -5    1    3    3    0  502 -0.52710540841E+02 -0.43719291228E+02  0.13428193904E+02  0.69911131680E+02  0.41800000000E+01 0. -1.
        -11    1    1    2    0    0  0.80234169024E+01 -0.19177729387E+02 -0.56997101045E+02  0.60669844658E+02  0.00000000000E+00 0.  1.
         11    1    1    2    0    0  0.40769707068E+02 -0.44804550175E+01  0.28806060710E+02  0.50120181815E+02  0.00000000000E+00 0. -1.
</event>
<event>
 7    1  0.2334784E-009  0.1117823E+03  0.7561462E-02  0.1257304E+00
         -1   -1    0    0    0  501 -0.00000000000E+00  0.00000000000E+00  0.39847458531E+02  0.39847458531E+02  0.00000000000E+00 0.  1.
          1   -1    0    0  501    0  0.00000000000E+00 -0.00000000000E+00 -0.40947285691E+03  0.40947285691E+03  0.00000000000E+00 0. -1.
         25    2    1    2    0    0 -0.48668675529E+02  0.32237763936E+02 -0.14195492126E+03  0.19799666203E+03  0.12507423838E+03 0.  0.
          5    1    3    3  502    0 -0.69613756454E+02 -0.27043090662E+02 -0.71498649306E+02  0.10347431127E+03  0.41800000000E+01 0. -1.
         -5    1    3    3    0  502  0.20945080925E+02  0.59280854598E+02 -0.70456271949E+02  0.94522350763E+02  0.41800000000E+01 0. -1.
        -11    1    1    2    0    0  0.43026192668E+02  0.91464704739E+01 -0.41324238558E+02  0.60353988021E+02  0.00000000000E+00 0.  1.
         11    1    1    2    0    0  0.56424828612E+01 -0.41384234410E+02 -0.18634623857E+03  0.19096966539E+03  0.00000000000E+00 0. -1.
</event>
<event>
 7    1  0.2334784E-009  0.1107968E+03  0.7561462E-02  0.1259101E+00
         -2   -1    0    0    0  501 -0.00000000000E+00  0.00000000000E+00  0.19194098580E+02  0.19194098580E+02  0.00000000000E+00 0.  1.
          2   -1    0    0  501    0  0.00000000000E+00 -0.00000000000E+00 -0.76789678953E+03  0.76789678953E+03  0.00000000000E+00 0. -1.
         25    2    1    2    0    0 -0.88206300766E+01  0.56000683885E+02 -0.39345373659E+03  0.41673429182E+03  0.12509095501E+03 0.  0.
          5    1    3    3  502    0 -0.57859547593E+02  0.52751353301E+02 -0.16065649582E+03  0.17876916561E+03  0.41800000000E+01 0.  1.
         -5    1    3    3    0  502  0.49038917516E+02  0.32493305844E+01 -0.23279724077E+03  0.23796512621E+03  0.41800000000E+01 0.  1.
        -11    1    1    2    0    0  0.39606910939E+02 -0.14477273371E+02 -0.81431533002E+02  0.91702744809E+02  0.00000000000E+00 0.  1.
         11    1    1    2    0    0 -0.30786280863E+02 -0.41523410514E+02 -0.27381742135E+03  0.27865385148E+03  0.00000000000E+00 0. -1.
</event>
<event>
 7    1  0.2334784E-009  0.1463523E+03  0.7561462E-02  0.1205028E+00
          2   -1    0    0  501    0  0.00000000000E+00  0.00000000000E+00  0.12738500363E+03  0.12738500363E+03  0.00000000000E+00 0. -1.
         -2   -1    0    0    0  501 -0.00000000000E+00 -0.00000000000E+00 -0.27234940814E+03  0.27234940814E+03  0.00000000000E+00 0.  1.
         25    2    1    2    0    0  0.12390857705E+03 -0.27740961136E+02 -0.16404969291E+03  0.24224546273E+03  0.12509063145E+03 0.  0.
          5    1    3    3  502    0  0.28179870613E+02 -0.46762420938E+02 -0.12604232778E+03  0.13742259607E+03  0.41800000000E+01 0. -1.
         -5    1    3    3    0  502  0.95728706440E+02  0.19021459802E+02 -0.38007365138E+02  0.10482286666E+03  0.41800000000E+01 0. -1.
        -11    1    1    2    0    0 -0.11245439916E+03  0.24351606535E+01  0.43409638018E+02  0.12056665613E+03  0.00000000000E+00 0. -1.
         11    1    1    2    0    0 -0.11454177895E+02  0.25305800482E+02 -0.24324349618E+02  0.36922292909E+02  0.00000000000E+00 0.  1.
</event>
<event>
 7    1  0.2334784E-009  0.1568564E+03  0.7561462E-02  0.1192292E+00
         -2   -1    0    0    0  501 -0.00000000000E+00  0.00000000000E+00  0.22207426435E+02  0.22207426435E+02  0.00000000000E+00 0.  1.
          2   -1    0    0  501    0  0.00000000000E+00 -0.00000000000E+00 -0.13062885651E+04  0.13062885651E+04  0.00000000000E+00 0. -1.
         25    2    1    2    0    0  0.82127802240E+02 -0.10191552276E+03 -0.71757219667E+03  0.74006023145E+03  0.12509012373E+03 0.  0.
          5    1    3    3  502    0  0.97108723424E+02 -0.62994183680E+02 -0.65220021205E+03  0.66240543502E+03  0.41800000000E+01 0.  1.
         -5    1    3    3    0  502 -0.14980921184E+02 -0.38921339079E+02 -0.65371984618E+02  0.77654796427E+02  0.41800000000E+01 0.  1.
        -11    1    1    2    0    0 -0.42728458312E+02  0.10796354829E+03 -0.36504012244E+03  0.38306153539E+03  0.00000000000E+00 0.  1.
         11    1    1    2    0    0 -0.39399343928E+02 -0.60480255310E+01 -0.20146881953E+03  0.20537422467E+03  0.00000000000E+00 0. -1.
</event>
<event>
 7    1  0.2334784E-009  0.1159106E+03  0.7561462E-02  0.1250000E+00
          1   -1    0    0  501    0  0.00000000000E+00  0.00000000000E+00  0.12816190769E+03  0.12816190769E+03  0.00000000000E+00 0. -1.
         -1   -1    0    0    0  501 -0.00000000000E+00 -0.00000000000E+00 -0.12845224342E+03  0.12845224342E+03  0.00000000000E+00 0.  1.
         25    2    1    2    0    0  0.60448829652E+02 -0.22403631182E+02  0.23920600484E+02  0.14274029088E+03  0.12508641739E+03 0.  0.
          5    1    3    3  502    0 -0.17745893330E+02  0.27491635384E+02 -0.21499148624E+02  0.39375024288E+02  0.41800000000E+01 0.  1.
         -5    1    3    3    0  502  0.78194722982E+02 -0.49895266566E+02  0.45419749108E+02  0.10336526659E+03  0.41800000000E+01 0.  1.
        -11    1    1    2    0    0 -0.80244732441E+02  0.28678405136E+02 -0.46451399783E+01  0.85341931845E+02  0.00000000000E+00 0. -1.
         11    1    1    2    0    0  0.19795902788E+02 -0.62747739543E+01 -0.19565796229E+02  0.28531928387E+02  0.00000000000E+00 0.  1.
</event>
<event>
 7    1  0.2334784E-009  0.1516768E+03  0.7561462E-02  0.1198428E+00
         -1   -1    0    0    0  501 -0.00000000000E+00  0.00000000000E+00  0.15631917759E+03  0.15631917759E+03  0.00000000000E+00 0.  1.
          1   -1    0    0  501    0  0.00000000000E+00 -0.00000000000E+00 -0.19220041054E+03  0.19220041054E+03  0.00000000000E+00 0. -1.
         25    2    1    2    0    0 -0.76098971746E+02  0.10975354695E+03 -0.19137560027E+02  0.18398502955E+03  0.12508936936E+03 0.  0.
          5    1    3    3  502    0 -0.27796618696E+02  0.10696219843E+02 -0.59399786867E+02  0.66579788298E+02  0.41800000000E+01 0. -1.
         -5    1    3    3    0  502 -0.48302353049E+02  0.99057327106E+02  0.40262226840E+02  0.11740524125E+03  0.41800000000E+01 0. -1.
        -11    1    1    2    0    0  0.11238507055E+00 -0.82145847646E+02 -0.15972908472E+02  0.83684447306E+02  0.00000000000E+00 0.  1.
         11    1    1    2    0    0  0.75986586675E+02 -0.27607699303E+02 -0.77076444881E+00  0.80850111275E+02  0.00000000000E+00 0. -1.
</event>
<event>
 7    1  0.2334784E-009  0.1235167E+03  0.7561462E-02  0.1237406E+00
         -2   -1    0    0    0  501 -0.00000000000E+00  0.00000000000E+00  0.90998652032E+02  0.90998652032E+02  0.00000000000E+00 0.  1.
          2   -1    0    0  501    0  0.00000000000E+00 -0.00000000000E+00 -0.19982580811E+03  0.19982580811E+03  0.00000000000E+00 0. -1.
         25    2    1    2    0    0 -0.40705499027E+02  0.60258393849E+02 -0.10299858460E+03  0.17760905495E+03  0.12509299058E+03 0.  0.
          5    1    3    3  502    0 -0.72270504397E+02  0.80698069301E+01 -0.21922981142E+02  0.76067319473E+02  0.41800000000E+01 0. -1.
         -5    1    3    3    0  502  0.31565005369E+02  0.52188586919E+02 -0.81075603455E+02  0.10154173548E+03  0.41800000000E+01 0. -1.
        -11    1    1    2    0    0 -0.76533151834E+01  0.18847729266E+02 -0.15125789828E+01  0.20398480997E+02  0.00000000000E+00 0.  1.
         11    1    1    2    0    0  0.48358814211E+02 -0.79106123115E+02 -0.43159925031E+01  0.92816924197E+02  0.00000000000E+00 0. -1.
</event>
<event>
 7    1  0.2334784E-009  0.1237645E+03  0.7561462E-02  0.1237013E+00
         -2   -1    0    0    0  501 -0.00000000000E+00  0.00000000000E+00  0.38806467428E+03  0.38806467428E+03  0.00000000000E+00 0. -1.
          2   -1    0    0  501    0  0.00000000000E+00 -0.00000000000E+00 -0.54520371210E+02  0.54520371210E+02  0.00000000000E+00 0.  1.
         25    2    1    2    0    0  0.92248890510E+02 -0.10617945537E+02  0.14283297851E+03  0.21135567796E+03  0.12508942516E+03 0.  0.
          5    1    3    3  502    0  0.13995472108E+02  0.32976957477E+02 -0.69976479664E+01  0.36739521513E+02  0.41800000000E+01 0. -1.
         -5    1    3    3    0  502  0.78253418402E+02 -0.43594903014E+02  0.14983062648E+03  0.17461615644E+03  0.41800000000E+01 0. -1.
        -11    1    1    2    0    0 -0.76523437600E+01 -0.27830401720E+02  0.15162637378E+02  0.32603607120E+02  0.00000000000E+00 0.  1.
         11    1    1    2    0    0 -0.84596546750E+02  0.38448347258E+02  0.17554868718E+03  0.19862576041E+03  0.00000000000E+00 0. -1.
</event>
<event>
 7    1  0.2334784E-009  0.1550581E+03  0.7561462E-02  0.1194392E+00
          3   -1    0    0  501    0  0.00000000000E+00  0.00000000000E+00  0.21025911125E+03  0.21025911125E+03  0.00000000000E+00 0. -1.
         -3   -1    0    0    0  501 -0.00000000000E+00 -0.00000000000E+00 -0.11809619725E+03  0.11809619725E+03  0.00000000000E+00 0.  1.
         25    2    1    2    0    0 -0.10973115656E+03  0.32893227842E+02  0.28515649464E+02  0.17200278327E+03  0.12509565952E+03 0.  0.
          5    1    3    3  502    0 -0.36466131422E+02 -0.46518182533E+02  0.23545110187E+02  0.63761780565E+02  0.41800000000E+01 0. -1.
         -5    1    3    3    0  502 -0.73265025137E+02  0.79411410375E+02  0.49705392774E+01  0.10824100271E+03  0.41800000000E+01 0. -1.
        -11    1    1    2    0    0  0.39213495452E+02 -0.56143811822E+02  0.33110729406E+02  0.76066722246E+02  0.00000000000E+00 0. -1.
         11    1    1    2    0    0  0.70517661107E+02  0.23250583981E+02  0.30536535122E+02  0.80285802983E+02  0.00000000000E+00 0.  1.
</event>
<event>
 7    1  0.2334784E-009  0.1302443E+03  0.7561462E-02  0.1227094E+00
          1   -1    0    0  501    0  0.00000000000E+00  0.00000000000E+00  0.39489900451E+03  0.39489900451E+03  0.00000000000E+00 0. -1.
         -1   -1    0    0    0  501 -0.00000000000E+00 -0.00000000000E+00 -0.55980754768E+02  0.55980754768E+02  0.00000000000E+00 0.  1.
         25    2    1    2    0    0 -0.97411036314E+02  0.30387370008E+02  0.19622498680E+03  0.25409436379E+03  0.12508955996E+03 0.  0.
          5    1    3    3  502    0 -0.97466278463E+02  0.57560488843E+02  0.90884106035E+02  0.14522492363E+03  0.41800000000E+01 0. -1.
         -5    1    3    3    0  502  0.55242149553E-01 -0.27173118835E+02  0.10534088077E+03  0.10886944016E+03  0.41800000000E+01 0. -1.
        -11    1    1    2    0    0  0.57331977209E+01  0.15987915598E+02  0.67142070178E+02  0.69257061655E+02  0.00000000000E+00 0. -1.
         11    1    1    2    0    0  0.91677838593E+02 -0.46375285606E+02  0.75551192765E+02  0.12752833384E+03  0.00000000000E+00 0.  1.
</event>
<event>
 7    1  0.2334784E-009  0.9952741E+02  0.7561462E-02  0.1281293E+00
          1   -1    0    0  501    0  0.00000000000E+00  0.00000000000E+00  0.13338721364E+03  0.13338721364E+03  0.00000000000E+00 0. -1.
         -1   -1    0    0    0  501 -0.00000000000E+00 -0.00000000000E+00 -0.15515499524E+03  0.15515499524E+03  0.00000000000E+00 0.  1.
         25    2    1    2    0    0 -0.30496738783E+02  0.12188703615E+02  0.77045694323E+02  0.15053829447E+03  0.12508846277E+03 0.  0.
          5    1    3    3  502    0 -0.24875418359E+02 -0.45996829353E+02  0.75470141231E+02  0.91911421306E+02  0.41800000000E+01 0.  1.
         -5    1    3    3    0  502 -0.56213204234E+01  0.58185532968E+02  0.15755530921E+01  0.58626873169E+02  0.41800000000E+01 0.  1.
        -11    1    1    2    0    0  0.58679997088E+02 -0.11511880488E+02 -0.90752895099E+02  0.10868281106E+03  0.00000000000E+00 0.  1.
         11    1    1    2    0    0 -0.28183258306E+02 -0.67682312715E+00 -0.80605808324E+01  0.29321103349E+02  0.00000000000E+00 0. -1.
</event>
<event>
 7    1  0.2334784E-009  0.9587906E+02  0.7561462E-02  0.1289208E+00
          1   -1    0    0  501    0  0.00000000000E+00  0.00000000000E+00  0.31991416828E+03  0.31991416828E+03  0.00000000000E+00 0. -1.
         -1   -1    0    0    0  501 -0.00000000000E+00 -0.00000000000E+00 -0.50815767414E+02  0.50815767414E+02  0.00000000000E+00 0.  1.
         25    2    1    2    0    0  0.11769706960E+02 -0.64530431080E+02  0.12145794503E+03  0.18628581917E+03  0.12509065303E+03 0.  0.
          5    1    3    3  502    0  0.29015354222E+02  0.22660691880E+01  0.11287493631E+03  0.11664154276E+03  0.41800000000E+01 0.  1.
         -5    1    3    3    0  502 -0.17245647263E+02 -0.66796500268E+02  0.85830087158E+01  0.69644276407E+02  0.41800000000E+01 0.  1.
        -11    1    1    2    0    0 -0.13283407005E+02  0.78285412640E+02  0.70853626288E+02  0.10642035093E+03  0.00000000000E+00 0.  1.
         11    1    1    2    0    0  0.15137000455E+01 -0.13754981559E+02  0.76786829549E+02  0.78023765595E+02  0.00000000000E+00 0. -1.
</event>
<event>
 7    1  0.2334784E-009  0.1298679E+03  0.7561462E-02  0.1227652E+00
         -2   -1    0    0    0  501 -0.00000000000E+00  0.00000000000E+00  0.84912043032E+02  0.84912043032E+02  0.00000000000E+00 0.  1.
          2   -1    0    0  501    0  0.00000000000E+00 -0.00000000000E+00 -0.26597291227E+03  0.26597291227E+03  0.00000000000E+00 0. -1.
         25    2    1    2    0    0  0.75561718985E+02 -0.64750344884E+02 -0.59788705161E+02  0.17065786687E+03  0.12508891926E+03 0.  0.
          5    1    3    3  502    0  0.74193118230E+02  0.13528140206E+02 -0.63970630551E+01  0.75802534165E+02  0.41800000000E+01 0.  1.
         -5    1    3    3    0  502  0.13686007546E+01 -0.78278485090E+02 -0.53391642106E+02  0.94855332706E+02  0.41800000000E+01 0.  1.
        -11    1    1    2    0    0 -0.66428960360E+02  0.35834524677E+02 -0.25342624924E+02  0.79618895818E+02  0.00000000000E+00 0.  1.
         11    1    1    2    0    0 -0.91327586247E+01  0.28915820207E+02 -0.95929539151E+02  0.10060819261E+03  0.00000000000E+00 0. -1.
</event>
<event>
 7    1  0.2334784E-009  0.1252656E+03  0.7561462E-02  0.1234655E+00
          1   -1    0    0  501    0  0.00000000000E+00  0.00000000000E+00  0.50039637006E+03  0.50039637006E+03  0.00000000000E+00 0. -1.
         -1   -1    0    0    0  501 -0.00000000000E+00 -0.00000000000E+00 -0.37534992299E+02  0.37534992299E+02  0.00000000000E+00 0.  1.
         25    2    1    2    0    0 -0.73196691906E+02  0.61471542646E+02  0.23494271798E+03  0.28281083938E+03  0.12508950347E+03 0.  0.
          5    1    3    3  502    0 -0.66074101587E+02 -0.75800089908E+01  0.18652773368E+03  0.19807400453E+03  0.41800000000E+01 0. -1.
         -5    1    3    3    0  502 -0.71225903186E+01  0.69051551637E+02  0.48414984296E+02  0.84736834851E+02  0.41800000000E+01 0. -1.
        -11    1    1    2    0    0  0.13298693336E+02  0.13122160035E+02  0.44203101731E+02  0.47989170977E+02  0.00000000000E+00 0. -1.
         11    1    1    2    0    0  0.59897998570E+02 -0.74593702680E+02  0.18371555805E+03  0.20713135200E+03  0.00000000000E+00 0.  1.
</event>
<event>
 7    1  0.2334784E-009  0.1013148E+03  0.7561462E-02  0.1277555E+00
         -3   -1    0    0    0  501 -0.00000000000E+00  0.00000000000E+00  0.41520147373E+03  0.41520147373E+03  0.00000000000E+00 0.  1.
          3   -1    0    0  501    0  0.00000000000E+00 -0.00000000000E+00 -0.31387259158E+02  0.31387259158E+02  0.00000000000E+00 0. -1.
         25    2    1    2    0    0 -0.37164120229E+02 -0.10416674082E+02  0.25997286710E+03  0.29107288782E+03  0.12509138844E+03 0.  0.
          5    1    3    3  502    0 -0.18161401212E+02 -0.58491575733E+02  0.65363703396E+02  0.89671550937E+02  0.41800000000E+01 0.  1.
         -5    1    3    3    0  502 -0.19002719017E+02  0.48074901651E+02  0.19460916370E+03  0.20140133688E+03  0.41800000000E+01 0.  1.
        -11    1    1    2    0    0 -0.12558031029E+02 -0.25240439848E+02  0.63986990362E+02  0.69922234537E+02  0.00000000000E+00 0. -1.
         11    1    1    2    0    0  0.49722151258E+02  0.35657113929E+02  0.59854357105E+02  0.85593610532E+02  0.00000000000E+00 0.  1.
</event>
<event>
 7    1  0.2334784E-009  0.1146158E+03  0.7561462E-02  0.1252253E+00
         -2   -1    0    0    0  501 -0.00000000000E+00  0.00000000000E+00  0.41223012173E+02  0.41223012173E+02  0.00000000000E+00 0.  1.
          2   -1    0    0  501    0  0.00000000000E+00 -0.00000000000E+00 -0.35460010599E+03  0.35460010599E+03  0.00000000000E+00 0. -1.
         25    2    1    2    0    0 -0.44534445237E+02 -0.23433631682E+02 -0.15124331022E+03  0.20261298499E+03  0.12508009792E+03 0.  0.
          5    1    3    3  502    0 -0.83504931345E+02  0.61486488539E+01 -0.11113584319E+03  0.13921037132E+03  0.41800000000E+01 0. -1.
         -5    1    3    3    0  502  0.38970486107E+02 -0.29582280536E+02 -0.40107467034E+02  0.63402613677E+02  0.41800000000E+01 0. -1.
        -11    1    1    2    0    0  0.89190398416E+01  0.50674015978E+02 -0.47134672412E+02  0.69778811328E+02  0.00000000000E+00 0.  1.
         11    1    1    2    0    0  0.35615405396E+02 -0.27240384296E+02 -0.11499911119E+03  0.12343132184E+03  0.00000000000E+00 0. -1.
</event>
<event>
 7    1  0.2334784E-009  0.1040909E+03  0.7561462E-02  0.1271921E+00
          1   -1    0    0  501    0  0.00000000000E+00  0.00000000000E+00  0.47380952664E+02  0.47380952664E+02  0.00000000000E+00 0. -1.
         -1   -1    0    0    0  501 -0.00000000000E+00 -0.00000000000E+00 -0.28634102467E+03  0.28634102467E+03  0.00000000000E+00 0.  1.
         25    2    1    2    0    0 -0.18584742281E+02 -0.55102847429E+02 -0.11154752957E+03  0.17739938499E+03  0.12508386787E+03 0.  0.
          5    1    3    3  502    0 -0.58318124406E+02 -0.59018541265E+02 -0.10916981302E+03  0.13718495661E+03  0.41800000000E+01 0.  1.
         -5    1    3    3    0  502  0.39733382125E+02  0.39156938357E+01 -0.23777165527E+01  0.40214428373E+02  0.41800000000E+01 0.  1.
        -11    1    1    2    0    0 -0.13958264742E+02  0.50134574635E+02 -0.49857745829E+02  0.72070129371E+02  0.00000000000E+00 0. -1.
         11    1    1    2    0    0  0.32543007023E+02  0.49682727947E+01 -0.77554796611E+02  0.84252462979E+02  0.00000000000E+00 0.  1.
</event>
<event>
 7    1  0.2334784E-009  0.1274599E+03  0.7561462E-02  0.1231274E+00
         -2   -1    0    0    0  501 -0.00000000000E+00  0.00000000000E+00  0.67308333365E+02  0.67308333365E+02  0.00000000000E+00 0. -1.
          2   -1    0    0  501    0  0.00000000000E+00 -0.00000000000E+00 -0.33849266695E+03  0.33849266695E+03  0.00000000000E+00 0.  1.
         25    2    1    2    0    0  0.92416956331E+02 -0.12259241732E+02 -0.81932749762E+02  0.17621158120E+03  0.12508542297E+03 0.  0.
          5    1    3    3  502    0 -0.21739533571E+02  0.20073139671E+02 -0.40787836350E+02  0.50563408214E+02  0.41800000000E+01 0.  1.
         -5    1    3    3    0  502  0.11415648990E+03 -0.32332381403E+02 -0.41144913412E+02  0.12564817298E+03  0.41800000000E+01 0.  1.
        -11    1    1    2    0    0 -0.13748194073E+02 -0.17457912614E+02 -0.11586412065E+03  0.11797578568E+03  0.00000000000E+00 0.  1.
         11    1    1    2    0    0 -0.78668762258E+02  0.29717154346E+02 -0.73387463166E+02  0.11161363343E+03  0.00000000000E+00 0. -1.
</event>
<event>
 7    1  0.2334784E-009  0.1251741E+03  0.7561462E-02  0.1234797E+00
         -1   -1    0    0    0  501 -0.00000000000E+00  0.00000000000E+00  0.32987817343E+02  0.32987817343E+02  0.00000000000E+00 0.  1.
          1   -1    0    0  501    0  0.00000000000E+00 -0.00000000000E+00 -0.50836982669E+03  0.50836982669E+03  0.00000000000E+00 0. -1.
         25    2    1    2    0    0  0.46046464204E+02  0.55188647309E+02 -0.28073345448E+03  0.31563453723E+03  0.12509126657E+03 0.  0.
          5    1    3    3  502    0 -0.26293740031E+02 -0.20040094508E+02 -0.33541998393E+02  0.47281118947E+02  0.41800000000E+01 0.  1.
         -5    1    3    3    0  502  0.72340204235E+02  0.75228741817E+02 -0.24719145609E+03  0.26835341829E+03  0.41800000000E+01 0.  1.
        -11    1    1    2    0    0 -0.71155186392E+02 -0.30681762782E+02 -0.15099465013E+03  0.16971686859E+03  0.00000000000E+00 0. -1.
         11    1    1    2    0    0  0.25108722188E+02 -0.24506884527E+02 -0.43653904741E+02  0.56006238209E+02  0.00000000000E+00 0.  1.
</event>
<event>
 7    1  0.2334784E-009  0.2027038E+03  0.7561462E-02  0.1147478E+00
          3   -1    0    0  501    0  0.00000000000E+00  0.00000000000E+00  0.22782293720E+03  0.22782293720E+03  0.00000000000E+00 0. -1.
         -3   -1    0    0    0  501 -0.00000000000E+00 -0.00000000000E+00 -0.21318757185E+03  0.21318757185E+03  0.00000000000E+00 0.  1.
         25    2    1    2    0    0  0.16832712849E+03 -0.90252363645E+02  0.29364082689E+01  0.22833087969E+03  0.12508739665E+03 0.  0.
          5    1    3    3  502    0  0.54920102196E+02 -0.78212114199E+02 -0.43547991613E+02  0.10510591042E+03  0.41800000000E+01 0.  1.
         -5    1    3    3    0  502  0.11340702629E+03 -0.12040249446E+02  0.46484399882E+02  0.12322496927E+03  0.41800000000E+01 0.  1.
        -11    1    1    2    0    0 -0.48050528079E+02  0.48596693509E+02 -0.35392794141E+02  0.76961949987E+02  0.00000000000E+00 0.  1.
         11    1    1    2    0    0 -0.12027660041E+03  0.41655670136E+02  0.47091751218E+02  0.13571767937E+03  0.00000000000E+00 0. -1.
</event>
<event>
 7    1  0.2334784E-009  0.4420686E+02  0.7561462E-02  0.1479355E+00
          2   -1    0    0  501    0  0.00000000000E+00  0.00000000000E+00  0.15352466637E+03  0.15352466637E+03  0.00000000000E+00 0. -1.
         -2   -1    0    0    0  501 -0.00000000000E+00 -0.00000000000E+00 -0.80140260331E+02  0.80140260331E+02  0.00000000000E+00 0.  1.
         25    2    1    2    0    0  0.13844748593E+02  0.17009286011E+02  0.47264827674E+02  0.13550721715E+03  0.12508896470E+03 0.  0.
          5    1    3    3  502    0  0.28053376834E+01 -0.66346701070E+01 -0.41791162996E+02  0.42612937841E+02  0.41800000000E+01 0. -1.
         -5    1    3    3    0  502  0.11039410910E+02  0.23643956118E+02  0.89055990670E+02  0.92894279309E+02  0.41800000000E+01 0. -1.
        -11    1    1    2    0    0  0.11371100915E+02  0.11104082860E+02 -0.27981056392E+02  0.32179840103E+02  0.00000000000E+00 0.  1.
         11    1    1    2    0    0 -0.25215849509E+02 -0.28113368872E+02  0.54100634756E+02  0.65977869447E+02  0.00000000000E+00 0. -1.
</event>
<event>
 7    1  0.2334784E-009  0.1457363E+03  0.7561462E-02  0.1205812E+00
         -4   -1    0    0    0  501 -0.00000000000E+00  0.00000000000E+00  0.66049508254E+03  0.66049508254E+03  0.00000000000E+00 0.  1.
          4   -1    0    0  501    0  0.00000000000E+00 -0.00000000000E+00 -0.48430878276E+02  0.48430878276E+02  0.00000000000E+00 0. -1.
         25    2    1    2    0    0  0.78869159737E+02 -0.94439853565E+02  0.46234185062E+03  0.49451694926E+03  0.12509115067E+03 0.  0.
          5    1    3    3  502    0  0.89845002399E+02 -0.76245072731E+02  0.20675089275E+03  0.23801016706E+03  0.41800000000E+01 0.  1.
         -5    1    3    3    0  502 -0.10975842661E+02 -0.18194780834E+02  0.25559095787E+03  0.25650678220E+03  0.41800000000E+01 0.  1.
        -11    1    1    2    0    0 -0.32596279373E+02  0.10011352130E+03  0.89057520890E+02  0.13790024149E+03  0.00000000000E+00 0.  1.
         11    1    1    2    0    0 -0.46272880364E+02 -0.56736677383E+01  0.60664832756E+02  0.76508770060E+02  0.00000000000E+00 0. -1.
</event>
<event>
 7    1  0.2334784E-009  0.6384698E+02  0.7561462E-02  0.1382362E+00
         -1   -1    0    0    0  501 -0.00000000000E+00  0.00000000000E+00  0.30168643199E+02  0.30168643199E+02  0.00000000000E+00 0.  1.
          1   -1    0    0  501    0  0.00000000000E+00 -0.00000000000E+00 -0.41431420342E+03  0.41431420342E+03  0.00000000000E+00 0. -1.
         25    2    1    2    0    0 -0.17290961860E+01  0.12040101393E+02 -0.18296422162E+03  0.22197050209E+03  0.12508814328E+03 0.  0.
          5    1    3    3  502    0 -0.48079511454E+01  0.41396446248E+02 -0.57622911402E+01  0.42278346175E+02  0.41800000000E+01 0. -1.
         -5    1    3    3    0  502  0.30788549594E+01 -0.29356344855E+02 -0.17720193048E+03  0.17969215592E+03  0.41800000000E+01 0. -1.
        -11    1    1    2    0    0 -0.91339838268E+01 -0.31997656575E+02 -0.19651920449E+03  0.19931652571E+03  0.00000000000E+00 0. -1.
         11    1    1    2    0    0  0.10863080013E+02  0.19957555182E+02 -0.46621341061E+01  0.23195818818E+02  0.00000000000E+00 0.  1.
</event>
<event>
 7    1  0.2334784E-009  0.9073893E+02  0.7561462E-02  0.1301072E+00
         -1   -1    0    0    0  501 -0.00000000000E+00  0.00000000000E+00  0.61231913144E+02  0.61231913144E+02  0.00000000000E+00 0.  1.
          1   -1    0    0  501    0  0.00000000000E+00 -0.00000000000E+00 -0.42288299502E+03  0.42288299502E+03  0.00000000000E+00 0. -1.
         25    2    1    2    0    0  0.49640257869E+02  0.25031268682E+02 -0.35106434907E+03  0.37680857552E+03  0.12509118986E+03 0.  0.
          5    1    3    3  502    0  0.32507559499E+02 -0.26656058863E+02 -0.29690039456E+03  0.29989098617E+03  0.41800000000E+01 0. -1.
         -5    1    3    3    0  502  0.17132698371E+02  0.51687327545E+02 -0.54163954514E+02  0.76917589346E+02  0.41800000000E+01 0. -1.
        -11    1    1    2    0    0 -0.46870217717E+02 -0.44692552785E+02 -0.36748817011E+02  0.74462857419E+02  0.00000000000E+00 0.  1.
         11    1    1    2    0    0 -0.27700401518E+01  0.19661284103E+02  0.26162084206E+02  0.32843475227E+02  0.00000000000E+00 0. -1.
</event>
<event>
 7    1  0.2334784E-009  0.1164210E+03  0.7561462E-02  0.1249121E+00
         -3   -1    0    0    0  501 -0.00000000000E+00  0.00000000000E+00  0.21118233307E+02  0.21118233307E+02  0.00000000000E+00 0.  1.
          3   -1    0    0  501    0  0.00000000000E+00 -0.00000000000E+00 -0.68432124620E+03  0.68432124620E+03  0.00000000000E+00 0. -1.
         25    2    1    2    0    0 -0.11243510721E+02  0.51637497906E+02 -0.38096214294E+03  0.40443964760E+03  0.12508567652E+03 0.  0.
          5    1    3    3  502    0  0.41596147283E+02 -0.20180388403E+02 -0.13815898770E+03  0.14574932530E+03  0.41800000000E+01 0.  1.
         -5    1    3    3    0  502 -0.52839658004E+02  0.71817886309E+02 -0.24280315524E+03  0.25869032229E+03  0.41800000000E+01 0.  1.
        -11    1    1    2    0    0  0.29367585748E+02 -0.67158496141E+02 -0.25219722653E+03  0.26263312770E+03  0.00000000000E+00 0. -1.
         11    1    1    2    0    0 -0.18124075027E+02  0.15520998235E+02 -0.30043643421E+02  0.38366704209E+02  0.00000000000E+00 0.  1.
</event>
<event>
 7    1  0.2334784E-009  0.1693510E+03  0.7561462E-02  0.1178526E+00
         -1   -1    0    0    0  501 -0.00000000000E+00  0.00000000000E+00  0.85048252076E+02  0.85048252076E+02  0.00000000000E+00 0.  1.
          1   -1    0    0  501    0  0.00000000000E+00 -0.00000000000E+00 -0.44160479417E+03  0.44160479417E+03  0.00000000000E+00 0. -1.
         25    2    1    2    0    0  0.15385557585E+03 -0.95529461851E+01 -0.12726857638E+03  0.23581918940E+03  0.12510236830E+03 0.  0.
          5    1    3    3  502    0  0.48033056622E+02 -0.49899259479E+02 -0.57035117817E+01  0.69621211363E+02  0.41800000000E+01 0. -1.
         -5    1    3    3    0  502  0.10582251922E+03  0.40346313294E+02 -0.12156506460E+03  0.16619797803E+03  0.41800000000E+01 0. -1.
        -11    1    1    2    0    0 -0.83387286546E+02  0.17070077056E+02 -0.19360497219E+03  0.21148927241E+03  0.00000000000E+00 0. -1.
         11    1    1    2    0    0 -0.70468289299E+02 -0.75171308704E+01 -0.35682993524E+02  0.79344584441E+02  0.00000000000E+00 0.  1.
</event>
<event>
 7    1  0.2334784E-009  0.9782784E+02  0.7561462E-02  0.1284931E+00
         -2   -1    0    0    0  501 -0.00000000000E+00  0.00000000000E+00  0.39234673290E+02  0.39234673290E+02  0.00000000000E+00 0.  1.
          2   -1    0    0  501    0  0.00000000000E+00 -0.00000000000E+00 -0.50492964544E+03  0.50492964544E+03  0.00000000000E+00 0. -1.
         25    2    1    2    0    0  0.42964787559E+01 -0.78723813074E+02 -0.33123400051E+03  0.36273825308E+03  0.12508868327E+03 0.  0.
          5    1    3    3  502    0  0.20054230354E+02 -0.48569118811E+02 -0.32327831202E+03  0.32754766200E+03  0.41800000000E+01 0.  1.
         -5    1    3    3    0  502 -0.15757751598E+02 -0.30154694263E+02 -0.79556884868E+01  0.35190591084E+02  0.41800000000E+01 0.  1.
        -11    1    1    2    0    0  0.32382779049E+02  0.58278671151E+02 -0.39251825499E+02  0.77367652769E+02  0.00000000000E+00 0. -1.
         11    1    1    2    0    0 -0.36679257805E+02  0.20445141924E+02 -0.95209146142E+02  0.10405841288E+03  0.00000000000E+00 0.  1.
</event>
<event>
 7    1  0.2334784E-009  0.1678462E+03  0.7561462E-02  0.1180113E+00
          1   -1    0    0  501    0  0.00000000000E+00  0.00000000000E+00  0.13440064321E+03  0.13440064321E+03  0.00000000000E+00 0. -1.
         -1   -1    0    0    0  501 -0.00000000000E+00 -0.00000000000E+00 -0.33154700932E+03  0.33154700932E+03  0.00000000000E+00 0.  1.
         25    2    1    2    0    0  0.95979113655E+02  0.12417714107E+03 -0.34815931952E+01  0.20073002590E+03  0.12509384151E+03 0.  0.
          5    1    3    3  502    0  0.28447193102E+02  0.40884556133E+02 -0.61091182628E+02  0.78932849438E+02  0.41800000000E+01 0. -1.
         -5    1    3    3    0  502  0.67531920553E+02  0.83292584938E+02  0.57609589433E+02  0.12179717646E+03  0.41800000000E+01 0. -1.
        -11    1    1    2    0    0 -0.41496930204E+02  0.13911161279E+01 -0.66422523659E+02  0.78331871353E+02  0.00000000000E+00 0.  1.
         11    1    1    2    0    0 -0.54482183451E+02 -0.12556825720E+03 -0.12724224926E+03  0.18688575528E+03  0.00000000000E+00 0. -1.
</event>
<event>
 7    1  0.2334784E-009  0.1686186E+03  0.7561462E-02  0.1179296E+00
          2   -1    0    0  501    0  0.00000000000E+00  0.00000000000E+00  0.51202844772E+03  0.51202844772E+03  0.00000000000E+00 0. -1.
         -2   -1    0    0    0  501 -0.00000000000E+00 -0.00000000000E+00 -0.74511919406E+02  0.74511919406E+02  0.00000000000E+00 0.  1.
         25    2    1    2    0    0 -0.39034055125E+02 -0.13724946692E+03  0.34450458159E+03  0.39330879491E+03  0.12508927927E+03 0.  0.
          5    1    3    3  502    0 -0.73685015312E+02 -0.45045045796E+02  0.11808423140E+03  0.14635537481E+03  0.41800000000E+01 0.  1.
         -5    1    3    3    0  502  0.34650960186E+02 -0.92204421125E+02  0.22642035019E+03  0.24695342010E+03  0.41800000000E+01 0.  1.
        -11    1    1    2    0    0  0.41760092167E+02  0.51107852853E+02  0.83632661146E+02  0.10653797413E+03  0.00000000000E+00 0. -1.
         11    1    1    2    0    0 -0.27260370422E+01  0.86141614068E+02  0.93792855846E+01  0.86693598092E+02  0.00000000000E+00 0.  1.
</event>
<event>
 7    1  0.2334784E-009  0.1217209E+03  0.7561462E-02  0.1240285E+00
          2   -1    0    0  501    0  0.00000000000E+00  0.00000000000E+00  0.47849543759E+03  0.47849543759E+03  0.00000000000E+00 0. -1.
         -2   -1    0    0    0  501 -0.00000000000E+00 -0.00000000000E+00 -0.49283790339E+02  0.49283790339E+02  0.00000000000E+00 0.  1.
         25    2    1    2    0    0 -0.20645091421E+02 -0.10415787905E+03  0.25899852116E+03  0.30659848904E+03  0.12508923195E+03 0.  0.
          5    1    3    3  502    0 -0.41387847517E+02 -0.29842361192E+02  0.19232045416E+02  0.54688796060E+02  0.41800000000E+01 0.  1.
         -5    1    3    3    0  502  0.20742756096E+02 -0.74315517854E+02  0.23976647575E+03  0.25190969298E+03  0.41800000000E+01 0.  1.
        -11    1    1    2    0    0 -0.13825290446E+02  0.23552915649E+02  0.11356926303E+03  0.11680691759E+03  0.00000000000E+00 0. -1.
         11    1    1    2    0    0  0.34470381866E+02  0.80604963397E+02  0.56643863052E+02  0.10437382129E+03  0.00000000000E+00 0.  1.
</event>
<event>
 7    1  0.2334784E-009  0.2199169E+03  0.7561462E-02  0.1133945E+00
          2   -1    0    0  501    0  0.00000000000E+00  0.00000000000E+00  0.58223822506E+03  0.58223822506E+03  0.00000000000E+00 0.  1.
         -2   -1    0    0    0  501 -0.00000000000E+00 -0.00000000000E+00 -0.12120948457E+03  0.12120948457E+03  0.00000000000E+00 0. -1.
         25    2    1    2    0    0  0.13460506229E+03 -0.15498428990E+03  0.40630721322E+03  0.47209259053E+03  0.12508880687E+03 0.  0.
          5    1    3    3  502    0  0.63896971191E+02 -0.12337269497E+03  0.15088248024E+03  0.20515028646E+03  0.41800000000E+01 0. -1.
         -5    1    3    3    0  502  0.70708091098E+02 -0.31611594933E+02  0.25542473299E+03  0.26694230407E+03  0.41800000000E+01 0. -1.
        -11    1    1    2    0    0 -0.72255189666E+02  0.20616469047E+02  0.58244734174E+01  0.75364286769E+02  0.00000000000E+00 0. -1.
         11    1    1    2    0    0 -0.62349872623E+02  0.13436782085E+03  0.48897053853E+02  0.15599083233E+03  0.00000000000E+00 0.  1.
</event>
<event>
 7    1  0.2334784E-009  0.1491501E+03  0.7561462E-02  0.1201521E+00
         -2   -1    0    0    0  501 -0.00000000000E+00  0.00000000000E+00  0.12074427088E+02  0.12074427088E+02  0.00000000000E+00 0. -1.
          2   -1    0    0  501    0  0.00000000000E+00 -0.00000000000E+00 -0.23407007062E+04  0.23407007062E+04  0.00000000000E+00 0.  1.
         25    2    1    2    0    0 -0.79549521053E+02  0.81861479150E+02 -0.16323127450E+04  0.16410732129E+04  0.12508782773E+03 0.  0.
          5    1    3    3  502    0 -0.27378868520E+02  0.93641108794E+02 -0.13615314297E+04  0.13650287785E+04  0.41800000000E+01 0. -1.
         -5    1    3    3    0  502 -0.52170652533E+02 -0.11779629644E+02 -0.27078131526E+03  0.27604443439E+03  0.41800000000E+01 0. -1.
        -11    1    1    2    0    0  0.36132029298E+02  0.16321641176E+02 -0.17194949175E+03  0.17646117767E+03  0.00000000000E+00 0.  1.
         11    1    1    2    0    0  0.43417491755E+02 -0.98183120325E+02 -0.52436404240E+03  0.53524074272E+03  0.00000000000E+00 0. -1.
</event>
<event>
 7    1  0.2334784E-009  0.2410102E+03  0.7561462E-02  0.1119122E+00
          2   -1    0    0  501    0  0.00000000000E+00  0.00000000000E+00  0.14521324301E+03  0.14521324301E+03  0.00000000000E+00 0. -1.
         -2   -1    0    0    0  501 -0.00000000000E+00 -0.00000000000E+00 -0.45464914546E+03  0.45464914546E+03  0.00000000000E+00 0.  1.
         25    2    1    2    0    0 -0.17378233068E+03 -0.15378954123E+03 -0.17323502714E+03  0.31545148815E+03  0.12509094810E+03 0.  0.
          5    1    3    3  502    0 -0.15437662163E+03 -0.11783202124E+03 -0.18940655573E+03  0.27130949539E+03  0.41800000000E+01 0.  1.
         -5    1    3    3    0  502 -0.19405709049E+02 -0.35957519988E+02  0.16171528587E+02  0.44141992753E+02  0.41800000000E+01 0.  1.
        -11    1    1    2    0    0  0.18329746758E+03  0.14461204462E+03 -0.13777909176E+03  0.27109718404E+03  0.00000000000E+00 0.  1.
         11    1    1    2    0    0 -0.95151368937E+01  0.91774966063E+01  0.15782164619E+01  0.13313716283E+02  0.00000000000E+00 0. -1.
</event>
<event>
 7    1  0.2334784E-009  0.1787432E+03  0.7561462E-02  0.1169025E+00
         -2   -1    0    0    0  501 -0.00000000000E+00  0.00000000000E+00  0.10159151520E+03  0.10159151520E+03  0.00000000000E+00 0.  1.
          2   -1    0    0  501    0  0.00000000000E+00 -0.00000000000E+00 -0.34685226095E+03  0.34685226095E+03  0.00000000000E+00 0. -1.
         25    2    1    2    0    0  0.14896489839E+03 -0.15097118687E+02 -0.10804396757E+03  0.22302324881E+03  0.12508959443E+03 0.  0.
          5    1    3    3  502    0 -0.20406786334E+02  0.85805143253E+01 -0.22177472782E+02  0.31612890623E+02  0.41800000000E+01 0. -1.
         -5    1    3    3    0  502  0.16937168473E+03 -0.23677633012E+02 -0.85866494791E+02  0.19141035818E+03  0.41800000000E+01 0. -1.
        -11    1    1    2    0    0 -0.43966405046E+02 -0.26062264814E+02 -0.89286552470E+02  0.10288039110E+03  0.00000000000E+00 0. -1.
         11    1    1    2    0    0 -0.10499849334E+03  0.41159383501E+02 -0.47930225705E+02  0.12254013625E+03  0.00000000000E+00 0.  1.
</event>
<event>
 7    1  0.2334784E-009  0.8524630E+02  0.7561462E-02  0.1314790E+00
          1   -1    0    0  501    0  0.00000000000E+00  0.00000000000E+00  0.84983171117E+02  0.84983171117E+02  0.00000000000E+00 0. -1.
         -1   -1    0    0    0  501 -0.00000000000E+00 -0.00000000000E+00 -0.19138369063E+03  0.19138369063E+03  0.00000000000E+00 0.  1.
         25    2    1    2    0    0 -0.13614281332E+01  0.10113133789E+02 -0.12657822719E+03  0.17825050842E+03  0.12508823763E+03 0.  0.
          5    1    3    3  502    0 -0.32116202778E+02  0.58442584037E+02 -0.55460855418E+02  0.86835275053E+02  0.41800000000E+01 0. -1.
         -5    1    3    3    0  502  0.30754774645E+02 -0.48329450247E+02 -0.71117371772E+02  0.91415233372E+02  0.41800000000E+01 0. -1.
        -11    1    1    2    0    0  0.23182083217E+02 -0.68666422470E+01  0.53180873947E+02  0.58418876331E+02  0.00000000000E+00 0. -1.
         11    1    1    2    0    0 -0.21820655084E+02 -0.32464915425E+01 -0.33003166271E+02  0.39697476992E+02  0.00000000000E+00 0.  1.
</event>
<event>
 7    1  0.2334784E-009  0.9939253E+02  0.7561462E-02  0.1281579E+00
          1   -1    0    0  501    0  0.00000000000E+00  0.00000000000E+00  0.50911791441E+02  0.50911791441E+02  0.00000000000E+00 0. -1.
         -1   -1    0    0    0  501 -0.00000000000E+00 -0.00000000000E+00 -0.24372639639E+03  0.24372639639E+03  0.00000000000E+00 0.  1.
         25    2    1    2    0    0 -0.95287949537E+01 -0.16733849376E+02 -0.11464213712E+03  0.17076470919E+03  0.12508775581E+03 0.  0.
          5    1    3    3  502    0  0.50694497863E+02  0.75506179156E+01 -0.84810238488E+02  0.99182623967E+02  0.41800000000E+01 0. -1.
         -5    1    3    3    0  502 -0.60223292817E+02 -0.24284467292E+02 -0.29831898634E+02  0.71582085227E+02  0.41800000000E+01 0. -1.
        -11    1    1    2    0    0 -0.11897874396E+02 -0.29240997996E+02 -0.63753085382E+02  0.71141066022E+02  0.00000000000E+00 0.  1.
         11    1    1    2    0    0  0.21426669350E+02  0.45974847372E+02 -0.14419382446E+02  0.52732412617E+02  0.00000000000E+00 0. -1.
</event>
<event>
 7    1  0.2334784E-009  0.7261013E+02  0.7561462E-02  0.1351436E+00
          3   -1    0    0  501    0  0.00000000000E+00  0.00000000000E+00  0.34515025689E+03  0.34515025689E+03  0.00000000000E+00 0. -1.
         -3   -1    0    0    0  501 -0.00000000000E+00 -0.00000000000E+00 -0.54288523413E+02  0.54288523413E+02  0.00000000000E+00 0.  1.
         25    2    1    2    0    0 -0.61699509034E+01 -0.28277777142E+02  0.27721215807E+03  0.30550252546E+03  0.12509001361E+03 0.  0.
          5    1    3    3  502    0 -0.21093167318E+02  0.79759889375E+01  0.26237564745E+03  0.26337613954E+03  0.41800000000E+01 0. -1.
         -5    1    3    3    0  502  0.14923216415E+02 -0.36253766079E+02  0.14836510626E+02  0.42126385919E+02  0.41800000000E+01 0. -1.
        -11    1    1    2    0    0  0.23003563788E+02  0.50199257226E+02 -0.11686164142E+02  0.56441968475E+02  0.00000000000E+00 0. -1.
         11    1    1    2    0    0 -0.16833612884E+02 -0.21921480084E+02  0.25335739550E+02  0.37494286370E+02  0.00000000000E+00 0.  1.
</event>
<event>
 7    1  0.2334784E-009  0.1446089E+03  0.7561462E-02  0.1207259E+00
          1   -1    0    0  501    0  0.00000000000E+00  0.00000000000E+00  0.69730914411E+02  0.69730914411E+02  0.00000000000E+00 0. -1.
         -1   -1    0    0    0  501 -0.00000000000E+00 -0.00000000000E+00 -0.37348757421E+03  0.37348757421E+03  0.00000000000E+00 0.  1.
         25    2    1    2    0    0 -0.87222496330E+01  0.11775246451E+03 -0.14582167076E+03  0.22550368853E+03  0.12508490453E+03 0.  0.
          5    1    3    3  502    0 -0.53664820711E+02  0.16564046365E+02 -0.25145026974E+02  0.61676781656E+02  0.41800000000E+01 0. -1.
         -5    1    3    3    0  502  0.44942571078E+02  0.10118841814E+03 -0.12067664379E+03  0.16382690688E+03  0.41800000000E+01 0. -1.
        -11    1    1    2    0    0  0.18704713221E+02 -0.46007599934E+02 -0.13156716887E+03  0.14062889274E+03  0.00000000000E+00 0.  1.
         11    1    1    2    0    0 -0.99824635880E+01 -0.71744864572E+02 -0.26367820169E+02  0.77085907351E+02  0.00000000000E+00 0. -1.
</event>
<event>
 7    1  0.2334784E-009  0.1178110E+03  0.7561462E-02  0.1246752E+00
          2   -1    0    0  501    0  0.00000000000E+00  0.00000000000E+00  0.86723049281E+02  0.86723049281E+02  0.00000000000E+00 0. -1.
         -2   -1    0    0    0  501 -0.00000000000E+00 -0.00000000000E+00 -0.24331640285E+03  0.24331640285E+03  0.00000000000E+00 0.  1.
         25    2    1    2    0    0  0.77787583502E+02 -0.10676832794E+02 -0.14983675981E+03  0.21038652117E+03  0.12508609352E+03 0.  0.
          5    1    3    3  502    0 -0.39509058586E+01 -0.33252487500E+02  0.46913137225E+01  0.34070785234E+02  0.41800000000E+01 0.  1.
         -5    1    3    3    0  502  0.81738489361E+02  0.22575654706E+02 -0.15452807353E+03  0.17631573593E+03  0.41800000000E+01 0.  1.
        -11    1    1    2    0    0  0.33596413156E+01  0.32715297208E+02 -0.12934834138E+02  0.35339606611E+02  0.00000000000E+00 0.  1.
         11    1    1    2    0    0 -0.81147224818E+02 -0.22038464415E+02  0.61782403787E+01  0.84313324353E+02  0.00000000000E+00 0. -1.
</event>
<event>
 7    1  0.2894351E-009  0.1473321E+03  0.7561462E-02  0.1203790E+00
         -4   -1    0    0    0  501 -0.00000000000E+00  0.00000000000E+00  0.35780272811E+02  0.35780272811E+02  0.00000000000E+00 0.  1.
          4   -1    0    0  501    0  0.00000000000E+00 -0.00000000000E+00 -0.73060689162E+03  0.73060689162E+03  0.00000000000E+00 0. -1.
         25    2    1    2    0    0 -0.49568838518E+01  0.11825528082E+03 -0.33473207069E+03  0.37643107405E+03  0.12508362091E+03 0.  0.
          5    1    3    3  502    0 -0.56075342726E+02  0.70519728364E+02 -0.25397810964E+03  0.26951777071E+03  0.41800000000E+01 0.  1.
         -5    1    3    3    0  502  0.51118458874E+02  0.47735552458E+02 -0.80753961054E+02  0.10691330334E+03  0.41800000000E+01 0.  1.
        -11    1    1    2    0    0 -0.27721383848E+02 -0.76590697718E+02 -0.29503299021E+03  0.30607037656E+03  0.00000000000E+00 0. -1.
         11    1    1    2    0    0  0.32678267700E+02 -0.41664583104E+02 -0.65061557908E+02  0.83885713817E+02  0.00000000000E+00 0.  1.
</event>
<event>
 7    1  0.2334784E-009  0.7259081E+02  0.7561462E-02  0.1351498E+00
          1   -1    0    0  501    0  0.00000000000E+00  0.00000000000E+00  0.67676770490E+02  0.67676770490E+02  0.00000000000E+00 0. -1.
         -1   -1    0    0    0  501 -0.00000000000E+00 -0.00000000000E+00 -0.19155854860E+03  0.19155854860E+03  0.00000000000E+00 0.  1.
         25    2    1    2    0    0  0.22890848407E+02 -0.38178793350E+01 -0.49123258867E+02  0.13638606222E+03  0.12509794667E+03 0.  0.
          5    1    3    3  502    0 -0.23283367577E+02 -0.22589096661E+02 -0.73717159290E+02  0.80647842299E+02  0.41800000000E+01 0.  1.
         -5    1    3    3    0  502  0.46174215984E+02  0.18771217326E+02  0.24593900423E+02  0.55738219918E+02  0.41800000000E+01 0.  1.
        -11    1    1    2    0    0  0.16069862300E+02  0.14934890324E+02 -0.79114610440E+02  0.82100018322E+02  0.00000000000E+00 0.  1.
         11    1    1    2    0    0 -0.38960710707E+02 -0.11117010989E+02  0.43560911947E+01  0.40749238553E+02  0.00000000000E+00 0. -1.
</event>
<event>
 7    1  0.2334784E-009  0.1074780E+03  0.7561462E-02  0.1265313E+00
         -1   -1    0    0    0  501 -0.00000000000E+00  0.00000000000E+00  0.34212277692E+02  0.34212277692E+02  0.00000000000E+00 0.  1.
          1   -1    0    0  501    0  0.00000000000E+00 -0.00000000000E+00 -0.45161484735E+03  0.45161484735E+03  0.00000000000E+00 0. -1.
         25    2    1    2    0    0  0.29077923508E+02  0.50734646868E+02 -0.24408753603E+03  0.28043745350E+03  0.12508760951E+03 0.  0.
          5    1    3    3  502    0  0.52420095808E+02 -0.37463256554E+01 -0.19895680867E+03  0.20582318994E+03  0.41800000000E+01 0. -1.
         -5    1    3    3    0  502 -0.23342172300E+02  0.54480972523E+02 -0.45130727358E+02  0.74614263561E+02  0.41800000000E+01 0. -1.
        -11    1    1    2    0    0  0.13494579360E+02 -0.58070838373E+02 -0.13527008734E+03  0.14782531065E+03  0.00000000000E+00 0. -1.
         11    1    1    2    0    0 -0.42572502868E+02  0.73361915047E+01 -0.38044946294E+02  0.57564360891E+02  0.00000000000E+00 0.  1.
</event>
<event>
 6    1  0.2334784E-009  0.9369812E+02  0.7561462E-02  0.1294135E+00
         -2   -1    0    0    0  501 -0.00000000000E+00  0.00000000000E+00  0.14792464514E+03  0.14792464514E+03  0.00000000000E+00 0.  1.
          2   -1    0    0  501    0  0.00000000000E+00 -0.00000000000E+00 -0.11746048873E+03  0.11746048873E+03  0.00000000000E+00 0. -1.
          5    1    1    2  502    0 -0.71473769876E+02 -0.21526725347E+02  0.12491619328E+02  0.75798500235E+02  0.41800000000E+01 0.  1.
         -5    1    1    2    0  502  0.28046519505E+02  0.11337647468E+02 -0.56032119895E+02  0.63813951189E+02  0.41800000000E+01 0.  1.
        -11    1    1    2    0    0  0.26260313003E+02  0.39908901712E+02  0.41645315356E+01  0.47954851661E+02  0.00000000000E+00 0. -1.
         11    1    1    2    0    0  0.17166937368E+02 -0.29719823834E+02  0.69840125434E+02  0.77817830784E+02  0.00000000000E+00 0.  1.
</event>
<event>
 7    1  0.2334784E-009  0.9962121E+02  0.7561462E-02  0.1281094E+00
          1   -1    0    0  501    0  0.00000000000E+00  0.00000000000E+00  0.65976111514E+03  0.65976111514E+03  0.00000000000E+00 0. -1.
         -1   -1    0    0    0  501 -0.00000000000E+00 -0.00000000000E+00 -0.22594457258E+02  0.22594457258E+02  0.00000000000E+00 0.  1.
         25    2    1    2    0    0 -0.48782385276E+02 -0.19071402428E+02  0.41205404178E+03  0.43379700541E+03  0.12509144274E+03 0.  0.
          5    1    3    3  502    0  0.18962270675E+02 -0.17264030012E+02  0.31080702834E+03  0.31189116003E+03  0.41800000000E+01 0. -1.
         -5    1    3    3    0  502 -0.67744655952E+02 -0.18073724155E+01  0.10124701344E+03  0.12190584537E+03  0.41800000000E+01 0. -1.
        -11    1    1    2    0    0  0.25410249393E+02  0.56093264682E+02  0.12911663983E+03  0.14304978783E+03  0.00000000000E+00 0. -1.
         11    1    1    2    0    0  0.23372135884E+02 -0.37021862254E+02  0.95995976267E+02  0.10550877916E+03  0.00000000000E+00 0.  1.
</event>
<event>
 7    1  0.2334784E-009  0.1190510E+03  0.7561462E-02  0.1244671E+00
          1   -1    0    0  501    0  0.00000000000E+00  0.00000000000E+00  0.91385005084E+03  0.91385005084E+03  0.00000000000E+00 0. -1.
         -1   -1    0    0    0  501 -0.00000000000E+00 -0.00000000000E+00 -0.15992291405E+02  0.15992291405E+02  0.00000000000E+00 0.  1.
         25    2    1    2    0    0 -0.34041249884E+02  0.14553960414E+02  0.53778866890E+03  0.55338457899E+03  0.12508883009E+03 0.  0.
          5    1    3    3  502    0 -0.66033060106E+02 -0.31407619550E+02  0.33865881876E+03  0.34648819824E+03  0.41800000000E+01 0. -1.
         -5    1    3    3    0  502  0.31991810222E+02  0.45961579964E+02  0.19912985014E+03  0.20689638075E+03  0.41800000000E+01 0. -1.
        -11    1    1    2    0    0  0.48456588616E+02  0.33255290895E+02  0.22156452297E+03  0.22922651066E+03  0.00000000000E+00 0. -1.
         11    1    1    2    0    0 -0.14415338732E+02 -0.47809251310E+02  0.13850456757E+03  0.14723125259E+03  0.00000000000E+00 0.  1.
</event>
<event>
 7    1  0.2334784E-009  0.1609207E+03  0.7561462E-02  0.1187661E+00
          2   -1    0    0  501    0  0.00000000000E+00  0.00000000000E+00  0.19201856965E+03  0.19201856965E+03  0.00000000000E+00 0. -1.
         -2   -1    0    0    0  501 -0.00000000000E+00 -0.00000000000E+00 -0.15829782207E+03  0.15829782207E+03  0.00000000000E+00 0.  1.
         25    2    1    2    0    0  0.57727905324E+02  0.12262901137E+03  0.31520384679E+02  0.18714629276E+03  0.12513918156E+03 0.  0.
          5    1    3    3  502    0 -0.11248563522E+02 -0.54877646757E+01 -0.27162374648E+02  0.30197892956E+02  0.41800000000E+01 0.  1.
         -5    1    3    3    0  502  0.68976468845E+02  0.12811677605E+03  0.58682759327E+02  0.15694839980E+03  0.41800000000E+01 0.  1.
        -11    1    1    2    0    0 -0.36520768939E+02 -0.13409053490E+03  0.12841561345E+00  0.13897501432E+03  0.00000000000E+00 0.  1.
         11    1    1    2    0    0 -0.21207136385E+02  0.11461523531E+02  0.20719472863E+01  0.24195084643E+02  0.00000000000E+00 0. -1.
</event>
<event>
 7    1  0.2334784E-009  0.1238504E+03  0.7561462E-02  0.1236877E+00
          1   -1    0    0  501    0  0.00000000000E+00  0.00000000000E+00  0.11093052215E+03  0.11093052215E+03  0.00000000000E+00 0. -1.
         -1   -1    0    0    0  501 -0.00000000000E+00 -0.00000000000E+00 -0.15564192806E+03  0.15564192806E+03  0.00000000000E+00 0.  1.
         25    2    1    2    0    0 -0.33450283253E+02 -0.52674604136E+02 -0.57623821945E+02  0.15120217810E+03  0.12509219974E+03 0.  0.
          5    1    3    3  502    0 -0.71168555858E+02  0.56991997007E+00 -0.45855207063E+02  0.84767096012E+02  0.41800000000E+01 0.  1.
         -5    1    3    3    0  502  0.37718272604E+02 -0.53244524106E+02 -0.11768614883E+02  0.66435082086E+02  0.41800000000E+01 0.  1.
        -11    1    1    2    0    0 -0.32138310912E+02  0.16815719081E+02 -0.91941198288E+01  0.37418862569E+02  0.00000000000E+00 0. -1.
         11    1    1    2    0    0  0.65588594166E+02  0.35858885054E+02  0.22106535869E+02  0.77951409545E+02  0.00000000000E+00 0.  1.
</event>
<event>
 7    1  0.2334784E-009  0.1149903E+03  0.7561462E-02  0.1251598E+00
          2   -1    0    0  501    0  0.00000000000E+00  0.00000000000E+00  0.57103990855E+02  0.57103990855E+02  0.00000000000E+00 0. -1.
         -2   -1    0    0    0  501 -0.00000000000E+00 -0.00000000000E+00 -0.26531997408E+03  0.26531997408E+03  0.00000000000E+00 0.  1.
         25    2    1    2    0    0 -0.44978564878E+02 -0.34344711586E+02 -0.12545005567E+03  0.18597480927E+03  0.12508510185E+03 0.  0.
          5    1    3    3  502    0 -0.48706946622E+02 -0.70503297519E+02 -0.43422537714E+02  0.96156491158E+02  0.41800000000E+01 0. -1.
         -5    1    3    3    0  502  0.37283817435E+01  0.36158585933E+02 -0.82027517955E+02  0.89818318115E+02  0.41800000000E+01 0. -1.
        -11    1    1    2    0    0  0.23638911909E+02  0.65612760298E+02 -0.61755774226E+02  0.93153680122E+02  0.00000000000E+00 0.  1.
         11    1    1    2    0    0  0.21339652969E+02 -0.31268048712E+02 -0.21010153328E+02  0.43295475537E+02  0.00000000000E+00 0. -1.
</event>
<event>
 7    1  0.2480658E-009  0.1664203E+03  0.7561462E-02  0.1181633E+00
         -2   -1    0    0    0  501 -0.00000000000E+00  0.00000000000E+00  0.36785892043E+02  0.36785892043E+02  0.00000000000E+00 0.  1.
          2   -1    0    0  501    0  0.00000000000E+00 -0.00000000000E+00 -0.97786459249E+03  0.97786459249E+03  0.00000000000E+00 0. -1.
         25    2    1    2    0    0 -0.83134768383E+02 -0.13037031583E+03 -0.47776333855E+03  0.51750643126E+03  0.12508912733E+03 0.  0.
          5    1    3    3  502    0 -0.66960758150E+02 -0.26828018316E+02 -0.87923856279E+02  0.11380493224E+03  0.41800000000E+01 0. -1.
         -5    1    3    3    0  502 -0.16174010233E+02 -0.10354229751E+03 -0.38983948227E+03  0.40370149903E+03  0.41800000000E+01 0. -1.
        -11    1    1    2    0    0  0.41972628884E+02  0.49036851521E+02 -0.78252327144E+02  0.10143836102E+03  0.00000000000E+00 0.  1.
         11    1    1    2    0    0  0.41162139499E+02  0.81333464308E+02 -0.38506303476E+03  0.39570569226E+03  0.00000000000E+00 0. -1.
</event>
<event>
 7    1  0.2334784E-009  0.1612966E+03  0.7561462E-02  0.1187241E+00
          3   -1    0    0  501    0  0.00000000000E+00  0.00000000000E+00  0.60657218481E+03  0.60657218481E+03  0.00000000000E+00 0. -1.
         -3   -1    0    0    0  501 -0.00000000000E+00 -0.00000000000E+00 -0.70996413731E+02  0.70996413731E+02  0.00000000000E+00 0.  1.
         25    2    1    2    0    0 -0.60153439919E+02 -0.13897803378E+03  0.13060569357E+03  0.23588250554E+03  0.12509747806E+03 0.  0.
          5    1    3    3  502    0 -0.58773693498E+02 -0.73055421487E+02  0.50345848142E+01  0.93990750078E+02  0.41800000000E+01 0. -1.
         -5    1    3    3    0  502 -0.13797464211E+01 -0.65922612295E+02  0.12557110876E+03  0.14189175546E+03  0.41800000000E+01 0. -1.
        -11    1    1    2    0    0  0.19480511598E+02  0.11241275434E+03  0.19281060656E+03  0.22403581783E+03  0.00000000000E+00 0.  1.
         11    1    1    2    0    0  0.40672928321E+02  0.26565279441E+02  0.21215947095E+03  0.21765027517E+03  0.00000000000E+00 0. -1.
</event>
<event>
 7    1  0.2334784E-009  0.1269492E+03  0.7561462E-02  0.1232054E+00
          2   -1    0    0  501    0  0.00000000000E+00  0.00000000000E+00  0.51409323151E+03  0.51409323151E+03  0.00000000000E+00 0. -1.
         -2   -1    0    0    0  501 -0.00000000000E+00 -0.00000000000E+00 -0.59274409445E+02  0.59274409445E+02  0.00000000000E+00 0.  1.
         25    2    1    2    0    0  0.32221977747E+02  0.65430974240E+02  0.53528771214E+02  0.15437890147E+03  0.12509215656E+03 0.  0.
          5    1    3    3  502    0  0.46012327597E+02 -0.21716034692E+02 -0.84819635478E-01  0.51050955407E+02  0.41800000000E+01 0.  1.
         -5    1    3    3    0  502 -0.13790349849E+02  0.87147008932E+02  0.53613590850E+02  0.10332794607E+03  0.41800000000E+01 0.  1.
        -11    1    1    2    0    0 -0.40899925534E+01  0.22152284525E+02  0.37479015413E+02  0.43727889785E+02  0.00000000000E+00 0.  1.
         11    1    1    2    0    0 -0.28131985194E+02 -0.87583258766E+02  0.36381103544E+03  0.37526084970E+03  0.00000000000E+00 0. -1.
</event>
<event>
 7    1  0.2334784E-009  0.1631222E+03  0.7561462E-02  0.1185216E+00
         -1   -1    0    0    0  501 -0.00000000000E+00  0.00000000000E+00  0.62710836029E+02  0.62710836029E+02  0.00000000000E+00 0.  1.
          1   -1    0    0  501    0  0.00000000000E+00 -0.00000000000E+00 -0.54119835585E+03  0.54119835585E+03  0.00000000000E+00 0. -1.
         25    2    1    2    0    0 -0.13969653828E+03  0.46064079777E+02 -0.23028303431E+03  0.30052685198E+03  0.12509632535E+03 0.  0.
          5    1    3    3  502    0 -0.54520842085E+02  0.51308558974E+02 -0.26450910457E+02  0.79512348158E+02  0.41800000000E+01 0.  1.
         -5    1    3    3    0  502 -0.85175696197E+02 -0.52444791966E+01 -0.20383212385E+03  0.22101450382E+03  0.41800000000E+01 0.  1.
        -11    1    1    2    0    0 -0.58979612837E+01 -0.16139465854E+02 -0.66208279746E+02  0.68401788078E+02  0.00000000000E+00 0. -1.
         11    1    1    2    0    0  0.14559449957E+03 -0.29924613923E+02 -0.18199620577E+03  0.23498055183E+03  0.00000000000E+00 0.  1.
</event>
<event>
 7    1  0.2334784E-009  0.1026884E+03  0.7561462E-02  0.1274742E+00
          2   -1    0    0  501    0  0.00000000000E+00  0.00000000000E+00  0.17028349615E+03  0.17028349615E+03  0.00000000000E+00 0. -1.
         -2   -1    0    0    0  501 -0.00000000000E+00 -0.00000000000E+00 -0.11042196933E+03  0.11042196933E+03  0.00000000000E+00 0.  1.
         25    2    1    2    0    0  0.34234384480E+02 -0.39342098220E+02  0.10067927395E+03  0.16883063886E+03  0.12509066568E+03 0.  0.
          5    1    3    3  502    0 -0.27031289841E+01  0.34172982866E+02 -0.49385388428E+01  0.34884971409E+02  0.41800000000E+01 0.  1.
         -5    1    3    3    0  502  0.36937513464E+02 -0.73515081086E+02  0.10561781280E+03  0.13394566745E+03  0.41800000000E+01 0.  1.
        -11    1    1    2    0    0  0.50089624728E+01  0.48013585764E+02 -0.51196120014E+02  0.70366446744E+02  0.00000000000E+00 0.  1.
         11    1    1    2    0    0 -0.39243346953E+02 -0.86714875439E+01  0.10378372887E+02  0.41508379877E+02  0.00000000000E+00 0. -1.
</event>
<event>
 7    1  0.2334784E-009  0.1089786E+03  0.7561462E-02  0.1262473E+00
         -1   -1    0    0    0  501 -0.00000000000E+00  0.00000000000E+00  0.59547911913E+03  0.59547911913E+03  0.00000000000E+00 0.  1.
          1   -1    0    0  501    0  0.00000000000E+00 -0.00000000000E+00 -0.24490659147E+02  0.24490659147E+02  0.00000000000E+00 0. -1.
         25    2    1    2    0    0 -0.13907863650E+01  0.54582827582E+02  0.29680023032E+03  0.32668533629E+03  0.12510680587E+03 0.  0.
          5    1    3    3  502    0  0.11993146619E+02 -0.31565491143E+02  0.16590868716E+03  0.16936168596E+03  0.41800000000E+01 0. -1.
         -5    1    3    3    0  502 -0.13383932984E+02  0.86148318725E+02  0.13089154317E+03  0.15732365033E+03  0.41800000000E+01 0. -1.
        -11    1    1    2    0    0 -0.33001704404E+02 -0.10458411503E+01  0.15172477649E+03  0.15527592885E+03  0.00000000000E+00 0.  1.
         11    1    1    2    0    0  0.34392490770E+02 -0.53536986432E+02  0.12246345317E+03  0.13800851315E+03  0.00000000000E+00 0. -1.
</event>
<event>
 7    1  0.2334784E-009  0.1006252E+03  0.7561462E-02  0.1278987E+00
         -2   -1    0    0    0  501 -0.00000000000E+00  0.00000000000E+00  0.11468585301E+03  0.11468585301E+03  0.00000000000E+00 0. -1.
          2   -1    0    0  501    0  0.00000000000E+00 -0.00000000000E+00 -0.11963254131E+03  0.11963254131E+03  0.00000000000E+00 0.  1.
         25    2    1    2    0    0 -0.28171308687E+02 -0.35873502126E+02 -0.69250389021E+01  0.13332562259E+03  0.12508890713E+03 0.  0.
          5    1    3    3  502    0  0.26119323638E+02 -0.56455213355E+02  0.24722370577E+02  0.67067713463E+02  0.41800000000E+01 0.  1.
         -5    1    3    3    0  502 -0.54290632325E+02  0.20581711229E+02 -0.31647409479E+02  0.66257909129E+02  0.41800000000E+01 0.  1.
        -11    1    1    2    0    0  0.17636496817E+02 -0.18353258736E+02  0.29759226998E+02  0.39159924894E+02  0.00000000000E+00 0.  1.
         11    1    1    2    0    0  0.10534811871E+02  0.54226760862E+02 -0.27780876396E+02  0.61832846837E+02  0.00000000000E+00 0. -1.
</event>
<event>
 7    1  0.2334784E-009  0.1294145E+03  0.7561462E-02  0.1228327E+00
          2   -1    0    0  501    0  0.00000000000E+00  0.00000000000E+00  0.65601270884E+03  0.65601270884E+03  0.00000000000E+00 0. -1.
         -2   -1    0    0    0  501 -0.00000000000E+00 -0.00000000000E+00 -0.29999898431E+02  0.29999898431E+02  0.00000000000E+00 0.  1.
         25    2    1    2    0    0 -0.85532727997E+02  0.41898079927E+02  0.29854615605E+03  0.33741469480E+03  0.12509025668E+03 0.  0.
          5    1    3    3  502    0  0.93738002076E+00 -0.30314885280E+02  0.13726865266E+03  0.14064148163E+03  0.41800000000E+01 0.  1.
         -5    1    3    3    0  502 -0.86470108018E+02  0.72212965207E+02  0.16127750339E+03  0.19677321317E+03  0.41800000000E+01 0.  1.
        -11    1    1    2    0    0 -0.10345538192E+02  0.10906785600E+01  0.10984129362E+02  0.15128477717E+02  0.00000000000E+00 0.  1.
         11    1    1    2    0    0  0.95878266189E+02 -0.42988758487E+02  0.31648252500E+03  0.33346943475E+03  0.00000000000E+00 0. -1.
</event>
<event>
 7    1  0.2334784E-009  0.1072443E+03  0.7561462E-02  0.1265760E+00
         -1   -1    0    0    0  501 -0.00000000000E+00  0.00000000000E+00  0.45967494630E+02  0.45967494630E+02  0.00000000000E+00 0.  1.
          1   -1    0    0  501    0  0.00000000000E+00 -0.00000000000E+00 -0.28705832757E+03  0.28705832757E+03  0.00000000000E+00 0. -1.
         25    2    1    2    0    0  0.55058612484E+01 -0.22344441360E+02 -0.88571630047E+02  0.15499300415E+03  0.12509320173E+03 0.  0.
          5    1    3    3  502    0  0.64017701788E+02 -0.15502383812E+02 -0.60775059260E+02  0.89719954715E+02  0.41800000000E+01 0.  1.
         -5    1    3    3    0  502 -0.58511840540E+02 -0.68420575482E+01 -0.27796570787E+02  0.65273049434E+02  0.41800000000E+01 0.  1.
        -11    1    1    2    0    0 -0.42610490247E+02 -0.56028468251E+01 -0.93673843137E+02  0.10306228534E+03  0.00000000000E+00 0. -1.
         11    1    1    2    0    0  0.37104628999E+02  0.27947288185E+02 -0.58845359757E+02  0.74970532711E+02  0.00000000000E+00 0.  1.
</event>
<event>
 7    1  0.2334784E-009  0.1257243E+03  0.7561462E-02  0.1233942E+00
         -1   -1    0    0    0  501 -0.00000000000E+00  0.00000000000E+00  0.46111411254E+02  0.46111411254E+02  0.00000000000E+00 0.  1.
          1   -1    0    0  501    0  0.00000000000E+00 -0.00000000000E+00 -0.84346646616E+03  0.84346646616E+03  0.00000000000E+00 0. -1.
         25    2    1    2    0    0 -0.10534071602E+03  0.49520614339E+02 -0.15504957154E+03  0.23072987175E+03  0.12508775475E+03 0.  0.
          5    1    3    3  502    0 -0.21090799319E+02  0.20213190218E+02  0.19007398821E+02  0.35101972660E+02  0.41800000000E+01 0. -1.
         -5    1    3    3    0  502 -0.84249916697E+02  0.29307424121E+02 -0.17405697036E+03  0.19562789909E+03  0.41800000000E+01 0. -1.
        -11    1    1    2    0    0 -0.85122731482E+01 -0.72846350794E+01 -0.10095988301E+02  0.15081567630E+02  0.00000000000E+00 0. -1.
         11    1    1    2    0    0  0.11385298916E+03 -0.42235979260E+02 -0.63220949507E+03  0.64376643804E+03  0.00000000000E+00 0.  1.
</event>
<event>
 7    1  0.3328037E-009  0.1156616E+03  0.7561462E-02  0.1250431E+00
          1   -1    0    0  501    0  0.00000000000E+00  0.00000000000E+00  0.55977157610E+03  0.55977157610E+03  0.00000000000E+00 0. -1.
         -1   -1    0    0    0  501 -0.00000000000E+00 -0.00000000000E+00 -0.32687718039E+02  0.32687718039E+02  0.00000000000E+00 0.  1.
         25    2    1    2    0    0  0.71362281313E+02  0.23498773192E+02  0.35031396024E+03  0.37948879109E+03  0.12508838589E+03 0.  0.
          5    1    3    3  502    0  0.31683347421E+02  0.70445088469E+02  0.13562554610E+03  0.15613489728E+03  0.41800000000E+01 0.  1.
         -5    1    3    3    0  502  0.39678933892E+02 -0.46946315276E+02  0.21468841414E+03  0.22335389381E+03  0.41800000000E+01 0.  1.
        -11    1    1    2    0    0 -0.90195044972E+01  0.16133754621E+02 -0.28965664412E+01  0.18709345170E+02  0.00000000000E+00 0.  1.
         11    1    1    2    0    0 -0.62342776816E+02 -0.39632527813E+02  0.17966646426E+03  0.19426115788E+03  0.00000000000E+00 0. -1.
</event>
<event>
 7    1  0.2949055E-009  0.8795787E+02  0.7561462E-02  0.1307874E+00
         -3   -1    0    0    0  501 -0.00000000000E+00  0.00000000000E+00  0.93074963674E+02  0.93074963674E+02  0.00000000000E+00 0.  1.
          3   -1    0    0  501    0  0.00000000000E+00 -0.00000000000E+00 -0.18678088369E+03  0.18678088369E+03  0.00000000000E+00 0. -1.
         25    2    1    2    0    0  0.40739230400E+02 -0.62151411018E+02 -0.45437415741E+02  0.15242880375E+03  0.12508996234E+03 0.  0.
          5    1    3    3  502    0  0.49702404886E+00 -0.89767672282E+01  0.41564238596E+02  0.42730407356E+02  0.41800000000E+01 0.  1.
         -5    1    3    3    0  502  0.40242206351E+02 -0.53174643790E+02 -0.87001654337E+02  0.10969839639E+03  0.41800000000E+01 0.  1.
        -11    1    1    2    0    0 -0.19900591673E+02  0.73018991173E+02 -0.22050101370E+01  0.75714388927E+02  0.00000000000E+00 0.  1.
         11    1    1    2    0    0 -0.20838638727E+02 -0.10867580155E+02 -0.46063494143E+02  0.51712654690E+02  0.00000000000E+00 0. -1.
</event>
<event>
 7    1  0.2712780E-009  0.1689693E+03  0.7561462E-02  0.1178927E+00
          1   -1    0    0  501    0  0.00000000000E+00  0.00000000000E+00  0.10423838200E+04  0.10423838200E+04  0.00000000000E+00 0. -1.
         -1   -1    0    0    0  501 -0.00000000000E+00 -0.00000000000E+00 -0.41164147730E+02  0.41164147730E+02  0.00000000000E+00 0.  1.
         25    2    1    2    0    0  0.11413337414E+03 -0.86941499327E+02  0.78781965936E+03  0.81048894461E+03  0.12508901739E+03 0.  0.
          5    1    3    3  502    0  0.78855111680E+02  0.16762285480E+02  0.33646804713E+03  0.34601636087E+03  0.41800000000E+01 0. -1.
         -5    1    3    3    0  502  0.35278262458E+02 -0.10370378481E+03  0.45135161223E+03  0.46447258374E+03  0.41800000000E+01 0. -1.
        -11    1    1    2    0    0 -0.47962044703E+02  0.58289776706E+02  0.40364172722E+02  0.85599779440E+02  0.00000000000E+00 0.  1.
         11    1    1    2    0    0 -0.66171329434E+02  0.28651722621E+02  0.17303584014E+03  0.18745924363E+03  0.00000000000E+00 0. -1.
</event>
<event>
 7    1  0.2334784E-009  0.1808590E+03  0.7561462E-02  0.1166974E+00
         -1   -1    0    0    0  501 -0.00000000000E+00  0.00000000000E+00  0.21979432880E+02  0.21979432880E+02  0.00000000000E+00 0.  1.
          1   -1    0    0  501    0  0.00000000000E+00 -0.00000000000E+00 -0.15683322791E+04  0.15683322791E+04  0.00000000000E+00 0. -1.
         25    2    1    2    0    0  0.11848939714E+03 -0.87064779662E+02 -0.94506066488E+03  0.96457608148E+03  0.12508934234E+03 0.  0.
          5    1    3    3  502    0 -0.27209451988E+01 -0.65973544342E+02 -0.24510095312E+03  0.25387371214E+03  0.41800000000E+01 0. -1.
         -5    1    3    3    0  502  0.12121034234E+03 -0.21091235320E+02 -0.69995971176E+03  0.71070236934E+03  0.41800000000E+01 0. -1.
        -11    1    1    2    0    0  0.14761477821E+02  0.14649211670E+02 -0.55626561252E+02  0.59386993077E+02  0.00000000000E+00 0.  1.
         11    1    1    2    0    0 -0.13325087496E+03  0.72415567992E+02 -0.54566562012E+03  0.56634863745E+03  0.00000000000E+00 0. -1.
</event>
<event>
 7    1  0.2334784E-009  0.1924438E+03  0.7561462E-02  0.1156275E+00
         -1   -1    0    0    0  501 -0.00000000000E+00  0.00000000000E+00  0.51445881084E+02  0.51445881084E+02  0.00000000000E+00 0.  1.
          1   -1    0    0  501    0  0.00000000000E+00 -0.00000000000E+00 -0.77339468651E+03  0.77339468651E+03  0.00000000000E+00 0. -1.
         25    2    1    2    0    0  0.27214959024E+02  0.16099014763E+03 -0.32888640801E+03  0.38789748548E+03  0.12505881912E+03 0.  0.
          5    1    3    3  502    0 -0.49923039771E+02  0.72946034943E+02 -0.14545527215E+03  0.17025904531E+03  0.41800000000E+01 0.  1.
         -5    1    3    3    0  502  0.77137998795E+02  0.88044112691E+02 -0.18343113586E+03  0.21763844018E+03  0.41800000000E+01 0.  1.
        -11    1    1    2    0    0 -0.51297136370E+02 -0.82351998860E+02 -0.13611308549E+03  0.16715268457E+03  0.00000000000E+00 0.  1.
         11    1    1    2    0    0  0.24082177347E+02 -0.78638148774E+02 -0.25694931192E+03  0.26979039754E+03  0.00000000000E+00 0. -1.
</event>
<event>
 7    1  0.2334784E-009  0.1504027E+03  0.7561462E-02  0.1199979E+00
          2   -1    0    0  501    0  0.00000000000E+00  0.00000000000E+00  0.69762864978E+03  0.69762864978E+03  0.00000000000E+00 0.  1.
         -2   -1    0    0    0  501 -0.00000000000E+00 -0.00000000000E+00 -0.47918383379E+02  0.47918383379E+02  0.00000000000E+00 0. -1.
         25    2    1    2    0    0  0.12351847403E+03 -0.82521171925E+01  0.28076257236E+03  0.33136167729E+03  0.12509207919E+03 0.  0.
          5    1    3    3  502    0  0.10019669529E+03  0.44328038566E+02  0.13070868183E+03  0.17060651997E+03  0.41800000000E+01 0. -1.
         -5    1    3    3    0  502  0.23321778738E+02 -0.52580155759E+02  0.15005389053E+03  0.16075515733E+03  0.41800000000E+01 0. -1.
        -11    1    1    2    0    0 -0.55599989431E+02 -0.21140878684E+02  0.28816300266E+02  0.66095950990E+02  0.00000000000E+00 0. -1.
         11    1    1    2    0    0 -0.67918484596E+02  0.29392995876E+02  0.34013139377E+03  0.34808940487E+03  0.00000000000E+00 0.  1.
</event>
<event>
 7    1  0.2632120E-009  0.1047823E+03  0.7561462E-02  0.1270549E+00
         -3   -1    0    0    0  501 -0.00000000000E+00  0.00000000000E+00  0.17394853727E+03  0.17394853727E+03  0.00000000000E+00 0.  1.
          3   -1    0    0  501    0  0.00000000000E+00 -0.00000000000E+00 -0.15316237838E+03  0.15316237838E+03  0.00000000000E+00 0. -1.
         25    2    1    2    0    0 -0.86392523120E+02 -0.33832183464E+02  0.90043239129E+02  0.17989833170E+03  0.12508932867E+03 0.  0.
          5    1    3    3  502    0 -0.86407418910E+02 -0.38192180944E+02  0.50585149333E+01  0.94699238124E+02  0.41800000000E+01 0.  1.
         -5    1    3    3    0  502  0.14895790161E-01  0.43599974803E+01  0.84984724196E+02  0.85199093578E+02  0.41800000000E+01 0.  1.
        -11    1    1    2    0    0  0.82265803395E+02  0.78351753388E+01 -0.11105543629E+02  0.83380965934E+02  0.00000000000E+00 0.  1.
         11    1    1    2    0    0  0.41267197249E+01  0.25997008125E+02 -0.58151536619E+02  0.63831618014E+02  0.00000000000E+00 0. -1.
</event>
<event>
 7    1  0.2334784E-009  0.1052260E+03  0.7561462E-02  0.1269675E+00
         -1   -1    0    0    0  501 -0.00000000000E+00  0.00000000000E+00  0.79164576612E+02  0.79164576612E+02  0.00000000000E+00 0.  1.
          1   -1    0    0  501    0  0.00000000000E+00 -0.00000000000E+00 -0.14258437118E+03  0.14258437118E+03  0.00000000000E+00 0. -1.
         25    2    1    2    0    0 -0.21552377209E+02  0.15917164014E+02 -0.43365852706E+02  0.13507919483E+03  0.12509168886E+03 0.  0.
          5    1    3    3  502    0 -0.63601740198E+02 -0.23901761306E+02 -0.12119326702E+02  0.69143517624E+02  0.41800000000E+01 0.  1.
         -5    1    3    3    0  502  0.42049362989E+02  0.39818925320E+02 -0.31246526004E+02  0.65935677207E+02  0.41800000000E+01 0.  1.
        -11    1    1    2    0    0 -0.26968616057E+02  0.10654224658E+02 -0.67311398229E+01  0.29767885353E+02  0.00000000000E+00 0. -1.
         11    1    1    2    0    0  0.48520993266E+02 -0.26571388672E+02 -0.13322802044E+02  0.56901867612E+02  0.00000000000E+00 0.  1.
</event>
<event>
 7    1  0.2334784E-009  0.1577563E+03  0.7561462E-02  0.1191253E+00
         -2   -1    0    0    0  501 -0.00000000000E+00  0.00000000000E+00  0.37448542188E+02  0.37448542188E+02  0.00000000000E+00 0.  1.
          2   -1    0    0  501    0  0.00000000000E+00 -0.00000000000E+00 -0.78927690533E+03  0.78927690533E+03  0.00000000000E+00 0. -1.
         25    2    1    2    0    0 -0.27411603229E+02  0.12871019686E+03 -0.46402410293E+03  0.49828304676E+03  0.12509962361E+03 0.  0.
          5    1    3    3  502    0  0.27945901399E+02  0.17671546520E+02 -0.23877103087E+03  0.24108574106E+03  0.41800000000E+01 0.  1.
         -5    1    3    3    0  502 -0.55357504628E+02  0.11103865034E+03 -0.22525307206E+03  0.25719730570E+03  0.41800000000E+01 0.  1.
        -11    1    1    2    0    0  0.49676067515E+02 -0.32673240080E+02 -0.10021074904E+03  0.11652230054E+03  0.00000000000E+00 0.  1.
         11    1    1    2    0    0 -0.22264464286E+02 -0.96036956783E+02 -0.18759351118E+03  0.21192010021E+03  0.00000000000E+00 0. -1.
</event>
<event>
 7    1  0.2334784E-009  0.9335468E+02  0.7561462E-02  0.1294925E+00
         -1   -1    0    0    0  501 -0.00000000000E+00  0.00000000000E+00  0.39147308682E+03  0.39147308682E+03  0.00000000000E+00 0.  1.
          1   -1    0    0  501    0  0.00000000000E+00 -0.00000000000E+00 -0.35761716539E+02  0.35761716539E+02  0.00000000000E+00 0. -1.
         25    2    1    2    0    0  0.16215214487E+02  0.22074456990E+01  0.13160266377E+03  0.18230163226E+03  0.12508724162E+03 0.  0.
          5    1    3    3  502    0  0.42126416443E+02  0.46741823588E+02  0.33489052105E+02  0.71403235540E+02  0.41800000000E+01 0. -1.
         -5    1    3    3    0  502 -0.25911201956E+02 -0.44534377889E+02  0.98113611666E+02  0.11089839672E+03  0.41800000000E+01 0. -1.
        -11    1    1    2    0    0  0.51196819987E+01  0.31580917239E+02  0.18915866716E+03  0.19184516371E+03  0.00000000000E+00 0.  1.
         11    1    1    2    0    0 -0.21334896486E+02 -0.33788362938E+02  0.34950039354E+02  0.53088007393E+02  0.00000000000E+00 0. -1.
</event>
<event>
 7    1  0.2334784E-009  0.1372903E+03  0.7561462E-02  0.1217022E+00
          2   -1    0    0  501    0  0.00000000000E+00  0.00000000000E+00  0.69695429797E+03  0.69695429797E+03  0.00000000000E+00 0. -1.
         -2   -1    0    0    0  501 -0.00000000000E+00 -0.00000000000E+00 -0.39463385390E+02  0.39463385390E+02  0.00000000000E+00 0.  1.
         25    2    1    2    0    0 -0.31568756913E+02 -0.11605476270E+03  0.42951334074E+03  0.46324287745E+03  0.12508780630E+03 0.  0.
          5    1    3    3  502    0 -0.12621482686E+02  0.21058119856E+01  0.23113566386E+03  0.23152732836E+03  0.41800000000E+01 0. -1.
         -5    1    3    3    0  502 -0.18947274226E+02 -0.11816057468E+03  0.19837767687E+03  0.23171554909E+03  0.41800000000E+01 0. -1.
        -11    1    1    2    0    0  0.46282530851E+02  0.32543797390E+02  0.13991922153E+03  0.15092567695E+03  0.00000000000E+00 0. -1.
         11    1    1    2    0    0 -0.14713773939E+02  0.83510965305E+02  0.88058350322E+02  0.12224912896E+03  0.00000000000E+00 0.  1.
</event>
<event>
 7    1  0.2334784E-009  0.1541783E+03  0.7561462E-02  0.1195431E+00
         -1   -1    0    0    0  501 -0.00000000000E+00  0.00000000000E+00  0.11141269743E+03  0.11141269743E+03  0.00000000000E+00 0.  1.
          1   -1    0    0  501    0  0.00000000000E+00 -0.00000000000E+00 -0.28448007363E+03  0.28448007363E+03  0.00000000000E+00 0. -1.
         25    2    1    2    0    0  0.14130918307E+02 -0.13356214157E+03 -0.13866663586E+03  0.23003396983E+03  0.12509461563E+03 0.  0.
          5    1    3    3  502    0 -0.16888116897E+02  0.91756795074E+01  0.95759705689E+01  0.21876315940E+02  0.41800000000E+01 0. -1.
         -5    1    3    3    0  502  0.31019035204E+02 -0.14273782108E+03 -0.14824260643E+03  0.20815765389E+03  0.41800000000E+01 0. -1.
        -11    1    1    2    0    0 -0.30425556039E+02  0.10833415409E+03 -0.58983989319E+02  0.12704768553E+03  0.00000000000E+00 0. -1.
         11    1    1    2    0    0  0.16294637732E+02  0.25227987487E+02  0.24583248982E+02  0.38811115702E+02  0.00000000000E+00 0.  1.
</event>
<event>
 7    1  0.2334784E-009  0.9035721E+02  0.7561462E-02  0.1301989E+00
         -1   -1    0    0    0  501 -0.00000000000E+00  0.00000000000E+00  0.16386499312E+03  0.16386499312E+03  0.00000000000E+00 0.  1.
          1   -1    0    0  501    0  0.00000000000E+00 -0.00000000000E+00 -0.78339590586E+02  0.78339590586E+02  0.00000000000E+00 0. -1.
         25    2    1    2    0    0 -0.24575691781E+02  0.15487278376E+02  0.67757686473E+02  0.14520087608E+03  0.12509344475E+03 0.  0.
          5    1    3    3  502    0 -0.66853517050E+02 -0.84848627391E+01  0.78942556633E+01  0.67979241759E+02  0.41800000000E+01 0. -1.
         -5    1    3    3    0  502  0.42277825269E+02  0.23972141115E+02  0.59863430809E+02  0.77221634322E+02  0.41800000000E+01 0. -1.
        -11    1    1    2    0    0 -0.10799961250E+02  0.14471711826E+02 -0.27050525003E+02  0.32523845239E+02  0.00000000000E+00 0. -1.
         11    1    1    2    0    0  0.35375653031E+02 -0.29958990201E+02  0.44818241064E+02  0.64479862386E+02  0.00000000000E+00 0.  1.
</event>
<event>
 7    1  0.2334784E-009  0.1078397E+03  0.7561462E-02  0.1264624E+00
         -2   -1    0    0    0  501 -0.00000000000E+00  0.00000000000E+00  0.54057307739E+02  0.54057307739E+02  0.00000000000E+00 0. -1.
          2   -1    0    0  501    0  0.00000000000E+00 -0.00000000000E+00 -0.43911324875E+03  0.43911324875E+03  0.00000000000E+00 0.  1.
         25    2    1    2    0    0  0.55444434239E+01 -0.55602320960E+02 -0.56935133213E+02  0.14836260674E+03  0.12508994658E+03 0.  0.
          5    1    3    3  502    0 -0.20122403213E+02  0.22047573541E+02 -0.59212235283E+02  0.66442214122E+02  0.41800000000E+01 0.  1.
         -5    1    3    3    0  502  0.25666846637E+02 -0.77649894502E+02  0.22771020702E+01  0.81920392616E+02  0.41800000000E+01 0.  1.
        -11    1    1    2    0    0 -0.42830174673E+02  0.86525322103E+01 -0.17488143838E+03  0.18025761472E+03  0.00000000000E+00 0.  1.
         11    1    1    2    0    0  0.37285731249E+02  0.46949788750E+02 -0.15323936942E+03  0.16455033503E+03  0.00000000000E+00 0. -1.
</event>
<event>
 7    1  0.2537308E-009  0.1225009E+03  0.7561462E-02  0.1239027E+00
          2   -1    0    0  501    0  0.00000000000E+00  0.00000000000E+00  0.48564448302E+03  0.48564448302E+03  0.00000000000E+00 0. -1.
         -2   -1    0    0    0  501 -0.00000000000E+00 -0.00000000000E+00 -0.38006326668E+02  0.38006326668E+02  0.00000000000E+00 0.  1.
         25    2    1    2    0    0 -0.15464127131E+02  0.79665558483E+02  0.24133123019E+03  0.28368105885E+03  0.12509372507E+03 0.  0.
          5    1    3    3  502    0 -0.43180968806E+02  0.97721280950E+02  0.21854331077E+03  0.24329549091E+03  0.41800000000E+01 0. -1.
         -5    1    3    3    0  502  0.27716841675E+02 -0.18055722467E+02  0.22787919418E+02  0.40385567938E+02  0.41800000000E+01 0. -1.
        -11    1    1    2    0    0  0.40903291849E+02 -0.37475114938E+02  0.16985368737E+03  0.17868334739E+03  0.00000000000E+00 0.  1.
         11    1    1    2    0    0 -0.25439164718E+02 -0.42190443546E+02  0.36453238803E+02  0.61286403446E+02  0.00000000000E+00 0. -1.
</event>
<event>
 7    1  0.2334784E-009  0.6193183E+02  0.7561462E-02  0.1389899E+00
         -1   -1    0    0    0  501 -0.00000000000E+00  0.00000000000E+00  0.22070270818E+02  0.22070270818E+02  0.00000000000E+00 0.  1.
          1   -1    0    0  501    0  0.00000000000E+00 -0.00000000000E+00 -0.11547608845E+04  0.11547608845E+04  0.00000000000E+00 0. -1.
         25    2    1    2    0    0 -0.31957670941E+02  0.16977295477E+01 -0.10243250933E+04  0.10324306710E+04  0.12508804340E+03 0.  0.
          5    1    3    3  502    0 -0.15459367221E+01 -0.27125102518E+02 -0.48897011518E+02  0.56094128413E+02  0.41800000000E+01 0. -1.
         -5    1    3    3    0  502 -0.30411734219E+02  0.28822832066E+02 -0.97542808180E+03  0.97633654258E+03  0.41800000000E+01 0. -1.
        -11    1    1    2    0    0 -0.12305896976E+01  0.16412599866E+02  0.10596605566E+02  0.19574877647E+02  0.00000000000E+00 0.  1.
         11    1    1    2    0    0  0.33188260638E+02 -0.18110329414E+02 -0.11896212596E+03  0.12482560670E+03  0.00000000000E+00 0. -1.
</event>
<event>
 7    1  0.2334784E-009  0.8700365E+02  0.7561462E-02  0.1310274E+00
          1   -1    0    0  501    0  0.00000000000E+00  0.00000000000E+00  0.77171458688E+03  0.77171458688E+03  0.00000000000E+00 0. -1.
         -1   -1    0    0    0  501 -0.00000000000E+00 -0.00000000000E+00 -0.16981152484E+02  0.16981152484E+02  0.00000000000E+00 0.  1.
         25    2    1    2    0    0  0.10041055973E+02 -0.30465030039E+02  0.49669843642E+03  0.51321168307E+03  0.12509178242E+03 0.  0.
          5    1    3    3  502    0 -0.13069249752E+02  0.24465944220E+02  0.24484384267E+02  0.37233656664E+02  0.41800000000E+01 0.  1.
         -5    1    3    3    0  502  0.23110305725E+02 -0.54930974259E+02  0.47221405216E+03  0.47597802640E+03  0.41800000000E+01 0.  1.
        -11    1    1    2    0    0 -0.44586199088E+02  0.25363598464E+02  0.87642961750E+02  0.10155062787E+03  0.00000000000E+00 0.  1.
         11    1    1    2    0    0  0.34545143115E+02  0.51014315751E+01  0.17039203622E+03  0.17393342843E+03  0.00000000000E+00 0. -1.
</event>
<event>
 7    1  0.2334784E-009  0.1105993E+03  0.7561462E-02  0.1259464E+00
         -1   -1    0    0    0  501 -0.00000000000E+00  0.00000000000E+00  0.97386379821E+02  0.97386379821E+02  0.00000000000E+00 0.  1.
          1   -1    0    0  501    0  0.00000000000E+00 -0.00000000000E+00 -0.30941734845E+03  0.30941734845E+03  0.00000000000E+00 0. -1.
         25    2    1    2    0    0  0.51521778016E+02  0.11100306608E+02  0.32296318196E+02  0.13952705501E+03  0.12508811492E+03 0.  0.
          5    1    3    3  502    0  0.83441878738E+02  0.36031562782E+02  0.62674828034E+01  0.91200736755E+02  0.41800000000E+01 0. -1.
         -5    1    3    3    0  502 -0.31920100723E+02 -0.24931256174E+02  0.26028835392E+02  0.48326318259E+02  0.41800000000E+01 0. -1.
        -11    1    1    2    0    0 -0.33225067194E+02 -0.42019782708E+02 -0.64256815813E+02  0.83657071473E+02  0.00000000000E+00 0.  1.
         11    1    1    2    0    0 -0.18296710822E+02  0.30919476100E+02 -0.18007047102E+03  0.18361960179E+03  0.00000000000E+00 0. -1.
</event>
<event>
 7    1  0.2334784E-009  0.1068055E+03  0.7561462E-02  0.1266603E+00
         -1   -1    0    0    0  501 -0.00000000000E+00  0.00000000000E+00  0.22943958992E+02  0.22943958992E+02  0.00000000000E+00 0.  1.
          1   -1    0    0  501    0  0.00000000000E+00 -0.00000000000E+00 -0.79931904594E+03  0.79931904594E+03  0.00000000000E+00 0. -1.
         25    2    1    2    0    0  0.68240628244E+02  0.41406685468E+02 -0.47644278575E+03  0.49901531832E+03  0.12508901985E+03 0.  0.
          5    1    3    3  502    0  0.57524553122E+02  0.77048457336E+02 -0.42264573423E+03  0.43346560192E+03  0.41800000000E+01 0. -1.
         -5    1    3    3    0  502  0.10716075122E+02 -0.35641771868E+02 -0.53797051517E+02  0.65549716398E+02  0.41800000000E+01 0. -1.
        -11    1    1    2    0    0 -0.28636563552E+02 -0.15148963443E+02 -0.17451418263E+02  0.36798041590E+02  0.00000000000E+00 0.  1.
         11    1    1    2    0    0 -0.39604064692E+02 -0.26257722025E+02 -0.28248088294E+03  0.28644964502E+03  0.00000000000E+00 0. -1.
</event>
<event>
 7    1  0.2334784E-009  0.1905204E+03  0.7561462E-02  0.1157993E+00
          2   -1    0    0  501    0  0.00000000000E+00  0.00000000000E+00  0.21375586435E+04  0.21375586435E+04  0.00000000000E+00 0. -1.
         -2   -1    0    0    0  501 -0.00000000000E+00 -0.00000000000E+00 -0.20538893767E+02  0.20538893767E+02  0.00000000000E+00 0.  1.
         25    2    1    2    0    0  0.10955144597E+03 -0.13682591855E+03  0.12868503229E+04  0.13047432018E+04  0.12509283658E+03 0.  0.
          5    1    3    3  502    0  0.25276918780E+02  0.53447773302E+01  0.50139012616E+03  0.50207272409E+03  0.41800000000E+01 0. -1.
         -5    1    3    3    0  502  0.84274527186E+02 -0.14217069588E+03  0.78546019678E+03  0.80267047773E+03  0.41800000000E+01 0. -1.
        -11    1    1    2    0    0 -0.95391013258E+02  0.62870974380E+02  0.37560776038E+03  0.39259826093E+03  0.00000000000E+00 0.  1.
         11    1    1    2    0    0 -0.14160432707E+02  0.73954944172E+02  0.45456166637E+03  0.46075607447E+03  0.00000000000E+00 0. -1.
</event>
<event>
 7    1  0.2334784E-009  0.1495193E+03  0.7561462E-02  0.1201065E+00
         -2   -1    0    0    0  501 -0.00000000000E+00  0.00000000000E+00  0.16953973505E+02  0.16953973505E+02  0.00000000000E+00 0.  1.
          2   -1    0    0  501    0  0.00000000000E+00 -0.00000000000E+00 -0.15279156766E+04  0.15279156766E+04  0.00000000000E+00 0. -1.
         25    2    1    2    0    0  0.69886009551E+02 -0.69860409439E+02 -0.10484522985E+04  0.10604983729E+04  0.12506016791E+03 0.  0.
          5    1    3    3  502    0  0.57520880419E+02  0.24436926942E+02 -0.34583844930E+03  0.35146482114E+03  0.41800000000E+01 0.  1.
         -5    1    3    3    0  502  0.12365129132E+02 -0.94297336381E+02 -0.70261384918E+03  0.70903355176E+03  0.41800000000E+01 0.  1.
        -11    1    1    2    0    0 -0.38162851274E+02  0.93929002974E+02 -0.28639038201E+03  0.30380670125E+03  0.00000000000E+00 0.  1.
         11    1    1    2    0    0 -0.31723158276E+02 -0.24068593535E+02 -0.17611902261E+03  0.18056457596E+03  0.00000000000E+00 0. -1.
</event>
<event>
 7    1  0.2334784E-009  0.1468537E+03  0.7561462E-02  0.1204393E+00
         -2   -1    0    0    0  501 -0.00000000000E+00  0.00000000000E+00  0.31030926864E+02  0.31030926864E+02  0.00000000000E+00 0. -1.
          2   -1    0    0  501    0  0.00000000000E+00 -0.00000000000E+00 -0.12009061658E+04  0.12009061658E+04  0.00000000000E+00 0.  1.
         25    2    1    2    0    0  0.11026708185E+03  0.96612587812E+01 -0.98154201853E+03  0.99565184476E+03  0.12508274293E+03 0.  0.
          5    1    3    3  502    0 -0.23409503185E+02 -0.13631774110E+02 -0.98783835949E+02  0.10251609020E+03  0.41800000000E+01 0. -1.
         -5    1    3    3    0  502  0.13367658504E+03  0.23293032891E+02 -0.88275818258E+03  0.89313575457E+03  0.41800000000E+01 0. -1.
        -11    1    1    2    0    0 -0.10724332969E+03 -0.28898615720E+02 -0.18604572461E+03  0.21667781012E+03  0.00000000000E+00 0.  1.
         11    1    1    2    0    0 -0.30237521673E+01  0.19237356939E+02 -0.22874957938E+01  0.19607437777E+02  0.00000000000E+00 0. -1.
</event>
<event>
 7    1  0.2334784E-009  0.1289472E+03  0.7561462E-02  0.1229026E+00
         -1   -1    0    0    0  501 -0.00000000000E+00  0.00000000000E+00  0.23203600811E+02  0.23203600811E+02  0.00000000000E+00 0.  1.
          1   -1    0    0  501    0  0.00000000000E+00 -0.00000000000E+00 -0.11213306173E+04  0.11213306173E+04  0.00000000000E+00 0. -1.
         25    2    1    2    0    0 -0.66006811006E+02 -0.48066759427E+02 -0.88084585761E+03  0.89342396593E+03  0.12509854344E+03 0.  0.
          5    1    3    3  502    0  0.14577107226E+02 -0.63031831097E+02 -0.47112833752E+03  0.47556796213E+03  0.41800000000E+01 0. -1.
         -5    1    3    3    0  502 -0.80583918232E+02  0.14965071670E+02 -0.40971752009E+03  0.41785600380E+03  0.41800000000E+01 0. -1.
        -11    1    1    2    0    0  0.51839820688E+02 -0.86323737271E+01 -0.16331525914E+03  0.17156269628E+03  0.00000000000E+00 0. -1.
         11    1    1    2    0    0  0.14166990318E+02  0.56699133154E+02 -0.53965899727E+02  0.79547555892E+02  0.00000000000E+00 0.  1.
</event>
<event>
 7    1  0.2334784E-009  0.1682995E+03  0.7561462E-02  0.1179633E+00
          1   -1    0    0  501    0  0.00000000000E+00  0.00000000000E+00  0.57180276442E+03  0.57180276442E+03  0.00000000000E+00 0. -1.
         -1   -1    0    0    0  501 -0.00000000000E+00 -0.00000000000E+00 -0.61274705512E+02  0.61274705512E+02  0.00000000000E+00 0.  1.
         25    2    1    2    0    0  0.66745506042E+02  0.12928356879E+03  0.19383159989E+03  0.27274106811E+03  0.12509115629E+03 0.  0.
          5    1    3    3  502    0  0.84595649603E+02  0.90562179543E+02  0.19359189016E+03  0.22989829193E+03  0.41800000000E+01 0. -1.
         -5    1    3    3    0  502 -0.17850143562E+02  0.38721389242E+02  0.23970972743E+00  0.42842776179E+02  0.41800000000E+01 0. -1.
        -11    1    1    2    0    0 -0.88254624087E+02 -0.10835264516E+03  0.23642600477E+03  0.27463872654E+03  0.00000000000E+00 0.  1.
         11    1    1    2    0    0  0.21509118045E+02 -0.20930923622E+02  0.80270454252E+02  0.85697675281E+02  0.00000000000E+00 0. -1.
</event>
<event>
 7    1  0.2334784E-009  0.8929989E+02  0.7561462E-02  0.1304556E+00
         -1   -1    0    0    0  501 -0.00000000000E+00  0.00000000000E+00  0.48730337856E+02  0.48730337856E+02  0.00000000000E+00 0.  1.
          1   -1    0    0  501    0  0.00000000000E+00 -0.00000000000E+00 -0.30888249558E+03  0.30888249558E+03  0.00000000000E+00 0. -1.
         25    2    1    2    0    0 -0.26271732662E+01 -0.23525759337E+01 -0.22635420650E+03  0.25864349400E+03  0.12509114092E+03 0.  0.
          5    1    3    3  502    0  0.14160055156E+02  0.52883130688E+02 -0.54740070327E+02  0.77531157432E+02  0.41800000000E+01 0. -1.
         -5    1    3    3    0  502 -0.16787228422E+02 -0.55235706622E+02 -0.17161413617E+03  0.18111233657E+03  0.41800000000E+01 0. -1.
        -11    1    1    2    0    0  0.17868430639E+02  0.29609976584E+02  0.17617744470E+02  0.38812581040E+02  0.00000000000E+00 0.  1.
         11    1    1    2    0    0 -0.15241257372E+02 -0.27257400650E+02 -0.51415695696E+02  0.60156758394E+02  0.00000000000E+00 0. -1.
</event>
<event>
 7    1  0.2334784E-009  0.3492241E+03  0.7561462E-02  0.1062934E+00
          1   -1    0    0  501    0  0.00000000000E+00  0.00000000000E+00  0.24388479812E+03  0.24388479812E+03  0.00000000000E+00 0. -1.
         -1   -1    0    0    0  501 -0.00000000000E+00 -0.00000000000E+00 -0.55020542904E+03  0.55020542904E+03  0.00000000000E+00 0.  1.
         25    2    1    2    0    0  0.40923838655E+02  0.34226216010E+03 -0.21955555931E+03  0.42739912710E+03  0.12508886207E+03 0.  0.
          5    1    3    3  502    0  0.23076136862E-01  0.23960433425E+03 -0.87404325767E+02  0.25508278281E+03  0.41800000000E+01 0.  1.
         -5    1    3    3    0  502  0.40900762518E+02  0.10265782585E+03 -0.13215123354E+03  0.17231634429E+03  0.41800000000E+01 0.  1.
        -11    1    1    2    0    0 -0.28002988418E+02 -0.66468647170E+02 -0.50893474824E+02  0.88274538779E+02  0.00000000000E+00 0.  1.
         11    1    1    2    0    0 -0.12920850237E+02 -0.27579351293E+03 -0.35871596786E+02  0.27841656129E+03  0.00000000000E+00 0. -1.
</event>
<event>
 7    1  0.2539640E-009  0.1884536E+03  0.7561462E-02  0.1159864E+00
         -2   -1    0    0    0  501 -0.00000000000E+00  0.00000000000E+00  0.96587053939E+02  0.96587053939E+02  0.00000000000E+00 0.  1.
          2   -1    0    0  501    0  0.00000000000E+00 -0.00000000000E+00 -0.46173462773E+03  0.46173462773E+03  0.00000000000E+00 0. -1.
         25    2    1    2    0    0 -0.12023681764E+03 -0.99193991690E+02 -0.68555696247E+02  0.21130277865E+03  0.12511051304E+03 0.  0.
          5    1    3    3  502    0 -0.47237651550E+02  0.26534216903E+02 -0.15876799295E+02  0.56612768405E+02  0.41800000000E+01 0. -1.
         -5    1    3    3    0  502 -0.72999166094E+02 -0.12572820859E+03 -0.52678896953E+02  0.15469001025E+03  0.41800000000E+01 0. -1.
        -11    1    1    2    0    0  0.46593152950E+02  0.92002932187E+02 -0.14059576671E+03  0.17436350263E+03  0.00000000000E+00 0.  1.
         11    1    1    2    0    0  0.73643664695E+02  0.71910595029E+01 -0.15599611083E+03  0.17265540038E+03  0.00000000000E+00 0. -1.
</event>
<event>
 7    1  0.2334784E-009  0.1301876E+03  0.7561462E-02  0.1227178E+00
          1   -1    0    0  501    0  0.00000000000E+00  0.00000000000E+00  0.82703956848E+02  0.82703956848E+02  0.00000000000E+00 0. -1.
         -1   -1    0    0    0  501 -0.00000000000E+00 -0.00000000000E+00 -0.26973223979E+03  0.26973223979E+03  0.00000000000E+00 0.  1.
         25    2    1    2    0    0 -0.10096130352E+03 -0.15069373693E+02 -0.93425110829E+02  0.18653869692E+03  0.12509261881E+03 0.  0.
          5    1    3    3  502    0 -0.11800004255E+03  0.14814377248E+01 -0.10657696025E+03  0.15906704736E+03  0.41800000000E+01 0.  1.
         -5    1    3    3    0  502  0.17038739030E+02 -0.16550811418E+02  0.13151849417E+02  0.27471649557E+02  0.41800000000E+01 0.  1.
        -11    1    1    2    0    0  0.23143745327E+02 -0.22040639996E+02  0.77005329336E+01  0.32874320778E+02  0.00000000000E+00 0. -1.
         11    1    1    2    0    0  0.77817558197E+02  0.37110013688E+02 -0.10130370504E+03  0.13302317894E+03  0.00000000000E+00 0.  1.
</event>
<event>
 7    1  0.2334784E-009  0.1480636E+03  0.7561462E-02  0.1202873E+00
         -3   -1    0    0    0  501 -0.00000000000E+00  0.00000000000E+00  0.82433457728E+03  0.82433457728E+03  0.00000000000E+00 0.  1.
          3   -1    0    0  501    0  0.00000000000E+00 -0.00000000000E+00 -0.37559786927E+02  0.37559786927E+02  0.00000000000E+00 0. -1.
         25    2    1    2    0    0 -0.10986614139E+03  0.49379902758E+02  0.57454245278E+03  0.60021311750E+03  0.12509121695E+03 0.  0.
          5    1    3    3  502    0 -0.10470316348E+03  0.80308191847E+02  0.36186491493E+03  0.38519585561E+03  0.41800000000E+01 0.  1.
         -5    1    3    3    0  502 -0.51629779052E+01 -0.30928289089E+02  0.21267753785E+03  0.21501726189E+03  0.41800000000E+01 0.  1.
        -11    1    1    2    0    0  0.73108001277E+02 -0.59595654866E+02  0.78812555750E+02  0.12291395720E+03  0.00000000000E+00 0. -1.
         11    1    1    2    0    0  0.36758140110E+02  0.10215752108E+02  0.13341978183E+03  0.13876728951E+03  0.00000000000E+00 0.  1.
</event>
<event>
 7    1  0.2334784E-009  0.9918990E+02  0.7561462E-02  0.1282009E+00
          3   -1    0    0  501    0  0.00000000000E+00  0.00000000000E+00  0.43642933221E+02  0.43642933221E+02  0.00000000000E+00 0. -1.
         -3   -1    0    0    0  501 -0.00000000000E+00 -0.00000000000E+00 -0.31077003822E+03  0.31077003822E+03  0.00000000000E+00 0.  1.
         25    2    1    2    0    0 -0.25804926463E+02  0.30632306622E+02 -0.17297533709E+03  0.21718970789E+03  0.12508664810E+03 0.  0.
          5    1    3    3  502    0  0.20008649011E+02 -0.22480281639E+02  0.11143207233E+00  0.30384106288E+02  0.41800000000E+01 0.  1.
         -5    1    3    3    0  502 -0.45813575475E+02  0.53112588261E+02 -0.17308676916E+03  0.18680560160E+03  0.41800000000E+01 0.  1.
        -11    1    1    2    0    0 -0.56792391835E+01  0.29399496762E+02 -0.16656155653E+02  0.34263853967E+02  0.00000000000E+00 0.  1.
         11    1    1    2    0    0  0.31484165647E+02 -0.60031803383E+02 -0.77495612259E+02  0.10295940959E+03  0.00000000000E+00 0. -1.
</event>
<event>
 7    1  0.2499078E-009  0.1086665E+03  0.7561462E-02  0.1263059E+00
         -1   -1    0    0    0  501 -0.00000000000E+00  0.00000000000E+00  0.22030706367E+02  0.22030706367E+02  0.00000000000E+00 0.  1.
          1   -1    0    0  501    0  0.00000000000E+00 -0.00000000000E+00 -0.11147941108E+04  0.11147941108E+04  0.00000000000E+00 0. -1.
         25    2    1    2    0    0 -0.36989219786E+02 -0.52697496752E+02 -0.91851291392E+03  0.92922541132E+03  0.12509461804E+03 0.  0.
          5    1    3    3  502    0 -0.77658165327E+02 -0.35713849448E+02 -0.41274335547E+03  0.42152202739E+03  0.41800000000E+01 0.  1.
         -5    1    3    3    0  502  0.40668945541E+02 -0.16983647304E+02 -0.50576955844E+03  0.50770338393E+03  0.41800000000E+01 0.  1.
        -11    1    1    2    0    0 -0.18355940857E+01  0.48385176720E+02 -0.27385091662E+02  0.55627672765E+02  0.00000000000E+00 0.  1.
         11    1    1    2    0    0  0.38824813872E+02  0.43123200313E+01 -0.14686539885E+03  0.15197173308E+03  0.00000000000E+00 0. -1.
</event>
<event>
 7    1  0.2334784E-009  0.1105677E+03  0.7561462E-02  0.1259522E+00
         -1   -1    0    0    0  501 -0.00000000000E+00  0.00000000000E+00  0.19082617630E+03  0.19082617630E+03  0.00000000000E+00 0.  1.
          1   -1    0    0  501    0  0.00000000000E+00 -0.00000000000E+00 -0.86467758039E+02  0.86467758039E+02  0.00000000000E+00 0. -1.
         25    2    1    2    0    0 -0.10403186296E+02 -0.40811199471E+02  0.49479185401E+00  0.13198970720E+03  0.12508899912E+03 0.  0.
          5    1    3    3  502    0  0.44878781255E+02 -0.57268039618E+02 -0.88335871712E+01  0.73411429838E+02  0.41800000000E+01 0. -1.
         -5    1    3    3    0  502 -0.55281967551E+02  0.16456840147E+02  0.93283790252E+01  0.58578277366E+02  0.41800000000E+01 0. -1.
        -11    1    1    2    0    0  0.14063835164E+02 -0.22757604794E+02  0.66016839452E+02  0.71231475674E+02  0.00000000000E+00 0.  1.
         11    1    1    2    0    0 -0.36606488684E+01  0.63568804266E+02  0.37846786951E+02  0.74072751457E+02  0.00000000000E+00 0. -1.
</event>
<event>
 7    1  0.2334784E-009  0.6723515E+02  0.7561462E-02  0.1369756E+00
         -1   -1    0    0    0  501 -0.00000000000E+00  0.00000000000E+00  0.43332449151E+02  0.43332449151E+02  0.00000000000E+00 0.  1.
          1   -1    0    0  501    0  0.00000000000E+00 -0.00000000000E+00 -0.33572491901E+03  0.33572491901E+03  0.00000000000E+00 0. -1.
         25    2    1    2    0    0 -0.18216409349E+02  0.33208947902E+02 -0.21287741469E+03  0.24980422137E+03  0.12510269198E+03 0.  0.
          5    1    3    3  502    0 -0.59026364169E+01  0.16842954740E+02 -0.22492966099E+03  0.22567532217E+03  0.41800000000E+01 0. -1.
         -5    1    3    3    0  502 -0.12313772932E+02  0.16365993161E+02  0.12052246303E+02  0.24128899206E+02  0.41800000000E+01 0. -1.
        -11    1    1    2    0    0 -0.19892496959E+01 -0.60913881650E+02 -0.27290968913E+02  0.66777654019E+02  0.00000000000E+00 0.  1.
         11    1    1    2    0    0  0.20205659044E+02  0.27704933749E+02 -0.52224086261E+02  0.62475492773E+02  0.00000000000E+00 0. -1.
</event>
<event>
 7    1  0.2334784E-009  0.9202555E+02  0.7561462E-02  0.1298019E+00
          2   -1    0    0  501    0  0.00000000000E+00  0.00000000000E+00  0.15124361011E+04  0.15124361011E+04  0.00000000000E+00 0. -1.
         -2   -1    0    0    0  501 -0.00000000000E+00 -0.00000000000E+00 -0.90481526877E+01  0.90481526877E+01  0.00000000000E+00 0.  1.
         25    2    1    2    0    0  0.49937495189E+01 -0.29296850142E+02  0.10278255552E+04  0.10358359579E+04  0.12509003437E+03 0.  0.
          5    1    3    3  502    0 -0.20758537949E+02  0.20448696088E+02  0.64791935910E+02  0.71165535398E+02  0.41800000000E+01 0. -1.
         -5    1    3    3    0  502  0.25752287468E+02 -0.49745546230E+02  0.96303361934E+03  0.96467042251E+03  0.41800000000E+01 0. -1.
        -11    1    1    2    0    0  0.42380278980E+02 -0.67066254272E+00  0.20953315864E+03  0.21377717933E+03  0.00000000000E+00 0.  1.
         11    1    1    2    0    0 -0.47374028499E+02  0.29967512685E+02  0.26602923450E+03  0.27187111652E+03  0.00000000000E+00 0. -1.
</event>
<event>
 7    1  0.2334784E-009  0.1055342E+03  0.7561462E-02  0.1269071E+00
         -1   -1    0    0    0  501 -0.00000000000E+00  0.00000000000E+00  0.10283821290E+02  0.10283821290E+02  0.00000000000E+00 0.  1.
          1   -1    0    0  501    0  0.00000000000E+00 -0.00000000000E+00 -0.16801993967E+04  0.16801993967E+04  0.00000000000E+00 0. -1.
         25    2    1    2    0    0  0.34927488904E+02 -0.17564820980E+02 -0.13266080314E+04  0.13330657938E+04  0.12508832567E+03 0.  0.
          5    1    3    3  502    0  0.35915885129E+02 -0.69091539255E+02 -0.70076919760E+03  0.70509469740E+03  0.41800000000E+01 0. -1.
         -5    1    3    3    0  502 -0.98839622511E+00  0.51526718275E+02 -0.62583883380E+03  0.62797109640E+03  0.41800000000E+01 0. -1.
        -11    1    1    2    0    0 -0.25164243245E+02  0.45386991122E+02 -0.30335817780E+03  0.30776517370E+03  0.00000000000E+00 0. -1.
         11    1    1    2    0    0 -0.97632456585E+01 -0.27822170142E+02 -0.39949366160E+02  0.49652250441E+02  0.00000000000E+00 0.  1.
</event>
<event>
 7    1  0.2334784E-009  0.1065541E+03  0.7561462E-02  0.1267088E+00
         -2   -1    0    0    0  501 -0.00000000000E+00  0.00000000000E+00  0.56994513293E+03  0.56994513293E+03  0.00000000000E+00 0.  1.
          2   -1    0    0  501    0  0.00000000000E+00 -0.00000000000E+00 -0.23032072614E+02  0.23032072614E+02  0.00000000000E+00 0. -1.
         25    2    1    2    0    0 -0.25166923832E+02 -0.19692352417E+01  0.23871245854E+03  0.27068159891E+03  0.12509051996E+03 0.  0.
          5    1    3    3  502    0 -0.64164361523E+02 -0.37409034160E+02  0.12941071616E+03  0.14926857333E+03  0.41800000000E+01 0.  1.
         -5    1    3    3    0  502  0.38997437690E+02  0.35439798919E+02  0.10930174238E+03  0.12141302558E+03  0.41800000000E+01 0.  1.
        -11    1    1    2    0    0 -0.18224811359E+02 -0.27795533563E+02  0.60120830326E+02  0.68696795225E+02  0.00000000000E+00 0. -1.
         11    1    1    2    0    0  0.43391735191E+02  0.29764768805E+02  0.24807977146E+03  0.25359881141E+03  0.00000000000E+00 0.  1.
</event>
<event>
 7    1  0.2476449E-009  0.8691206E+02  0.7561462E-02  0.1310507E+00
          1   -1    0    0  501    0  0.00000000000E+00  0.00000000000E+00  0.34568531377E+03  0.34568531377E+03  0.00000000000E+00 0. -1.
         -1   -1    0    0    0  501 -0.00000000000E+00 -0.00000000000E+00 -0.51218975719E+02  0.51218975719E+02  0.00000000000E+00 0.  1.
         25    2    1    2    0    0 -0.58974393144E+02 -0.45752954341E+02  0.19037796121E+03  0.23971381117E+03  0.12509049234E+03 0.  0.
          5    1    3    3  502    0 -0.44623188670E+02 -0.36112144229E+02  0.99491528878E+01  0.58410392663E+02  0.41800000000E+01 0. -1.
         -5    1    3    3    0  502 -0.14351204474E+02 -0.96408101126E+01  0.18042880832E+03  0.18130341851E+03  0.41800000000E+01 0. -1.
        -11    1    1    2    0    0  0.31049811313E+02 -0.12819328010E+02 -0.10864072060E+01  0.33609615199E+02  0.00000000000E+00 0.  1.
         11    1    1    2    0    0  0.27924581831E+02  0.58572282351E+02  0.10517478404E+03  0.12358086312E+03  0.00000000000E+00 0. -1.
</event>
<event>
 7    1  0.2334784E-009  0.9412200E+02  0.7561462E-02  0.1293166E+00
          2   -1    0    0  501    0  0.00000000000E+00  0.00000000000E+00  0.14324531937E+03  0.14324531937E+03  0.00000000000E+00 0. -1.
         -2   -1    0    0    0  501 -0.00000000000E+00 -0.00000000000E+00 -0.12259299631E+03  0.12259299631E+03  0.00000000000E+00 0.  1.
         25    2    1    2    0    0 -0.40270754785E+02 -0.37847605459E+02  0.30556993129E+02  0.14012449901E+03  0.12508785098E+03 0.  0.
          5    1    3    3  502    0  0.38335584021E+01 -0.48268215815E+02 -0.35303371538E+02  0.60069270596E+02  0.41800000000E+01 0.  1.
         -5    1    3    3    0  502 -0.44104313187E+02  0.10420610357E+02  0.65860364667E+02  0.80055228411E+02  0.41800000000E+01 0.  1.
        -11    1    1    2    0    0 -0.20998061338E+02  0.22894249434E+02  0.36117785631E+02  0.47639895844E+02  0.00000000000E+00 0. -1.
         11    1    1    2    0    0  0.61268816122E+02  0.14953356025E+02 -0.46022455702E+02  0.78073920833E+02  0.00000000000E+00 0.  1.
</event>
<event>
 7    1  0.2334784E-009  0.8985055E+02  0.7561462E-02  0.1303214E+00
          1   -1    0    0  501    0  0.00000000000E+00  0.00000000000E+00  0.15924350782E+03  0.15924350782E+03  0.00000000000E+00 0. -1.
         -1   -1    0    0    0  501 -0.00000000000E+00 -0.00000000000E+00 -0.14078485735E+03  0.14078485735E+03  0.00000000000E+00 0.  1.
         25    2    1    2    0    0 -0.68843106211E+02 -0.23167139528E+02  0.84190744381E+02  0.16736741167E+03  0.12509068480E+03 0.  0.
          5    1    3    3  502    0 -0.15819160907E+02 -0.21105961018E+02  0.10639355974E+03  0.10969398068E+03  0.41800000000E+01 0.  1.
         -5    1    3    3    0  502 -0.53023945303E+02 -0.20611785093E+01 -0.22202815364E+02  0.57673430993E+02  0.41800000000E+01 0.  1.
        -11    1    1    2    0    0  0.75046132633E+02 -0.75918696264E+00 -0.75152570344E+02  0.10620926145E+03  0.00000000000E+00 0.  1.
         11    1    1    2    0    0 -0.62030264220E+01  0.23926326490E+02  0.94204764326E+01  0.26451692051E+02  0.00000000000E+00 0. -1.
</event>
<event>
 7    1  0.2334784E-009  0.9672139E+02  0.7561462E-02  0.1287345E+00
         -2   -1    0    0    0  501 -0.00000000000E+00  0.00000000000E+00  0.24011759245E+02  0.24011759245E+02  0.00000000000E+00 0.  1.
          2   -1    0    0  501    0  0.00000000000E+00 -0.00000000000E+00 -0.66910337419E+03  0.66910337419E+03  0.00000000000E+00 0. -1.
         25    2    1    2    0    0 -0.16504042952E+02 -0.24417758829E+02 -0.52680752518E+03  0.54225598361E+03  0.12508706086E+03 0.  0.
          5    1    3    3  502    0  0.35768987717E+02  0.98636473710E+01 -0.39002160952E+03  0.39180484979E+03  0.41800000000E+01 0. -1.
         -5    1    3    3    0  502 -0.52273030669E+02 -0.34281406200E+02 -0.13678591566E+03  0.15045113382E+03  0.41800000000E+01 0. -1.
        -11    1    1    2    0    0  0.42494271061E+02 -0.15994408977E+02 -0.62164484115E+02  0.76980564280E+02  0.00000000000E+00 0.  1.
         11    1    1    2    0    0 -0.25990228109E+02  0.40412167806E+02 -0.56119605652E+02  0.73878585547E+02  0.00000000000E+00 0. -1.
</event>
<event>
 7    1  0.2334784E-009  0.2301138E+03  0.7561462E-02  0.1126560E+00
         -3   -1    0    0    0  501 -0.00000000000E+00  0.00000000000E+00  0.29897845825E+03  0.29897845825E+03  0.00000000000E+00 0.  1.
          3   -1    0    0  501    0  0.00000000000E+00 -0.00000000000E+00 -0.19055607469E+03  0.19055607469E+03  0.00000000000E+00 0. -1.
         25    2    1    2    0    0  0.17853157227E+03  0.11395336969E+03  0.74404893228E+02  0.25698737140E+03  0.12509008019E+03 0.  0.
          5    1    3    3  502    0  0.35572531542E+02 -0.27229062824E+02  0.12269580793E+02  0.46635199961E+02  0.41800000000E+01 0.  1.
         -5    1    3    3    0  502  0.14295904073E+03  0.14118243252E+03  0.62135312434E+02  0.21035217144E+03  0.41800000000E+01 0.  1.
        -11    1    1    2    0    0 -0.11698347759E+03 -0.92342287144E+02  0.62188807314E+02  0.16149204246E+03  0.00000000000E+00 0.  1.
         11    1    1    2    0    0 -0.61548094680E+02 -0.21611082550E+02 -0.28171316974E+02  0.71055119082E+02  0.00000000000E+00 0. -1.
</event>
<event>
 7    1  0.2334784E-009  0.1500547E+03  0.7561462E-02  0.1200406E+00
          1   -1    0    0  501    0  0.00000000000E+00  0.00000000000E+00  0.66226642319E+03  0.66226642319E+03  0.00000000000E+00 0. -1.
         -1   -1    0    0    0  501 -0.00000000000E+00 -0.00000000000E+00 -0.37510036074E+02  0.37510036074E+02  0.00000000000E+00 0.  1.
         25    2    1    2    0    0 -0.60123965238E+01 -0.11477508140E+03  0.35109343650E+03  0.39002619538E+03  0.12507743084E+03 0.  0.
          5    1    3    3  502    0 -0.32158743398E+02  0.52743825073E+01  0.24272922017E+02  0.40849125217E+02  0.41800000000E+01 0. -1.
         -5    1    3    3    0  502  0.26146346874E+02 -0.12004946391E+03  0.32682051449E+03  0.34917707017E+03  0.41800000000E+01 0. -1.
        -11    1    1    2    0    0 -0.32209455779E+02  0.11504732804E+02  0.79297035490E+02  0.86358715576E+02  0.00000000000E+00 0. -1.
         11    1    1    2    0    0  0.38221852303E+02  0.10327034860E+03  0.19436591513E+03  0.22339154831E+03  0.00000000000E+00 0.  1.
</event>
<event>
 7    1  0.2334784E-009  0.8825272E+02  0.7561462E-02  0.1307139E+00
          1   -1    0    0  501    0  0.00000000000E+00  0.00000000000E+00  0.76652630140E+03  0.76652630140E+03  0.00000000000E+00 0. -1.
         -1   -1    0    0    0  501 -0.00000000000E+00 -0.00000000000E+00 -0.17336172932E+02  0.17336172932E+02  0.00000000000E+00 0.  1.
         25    2    1    2    0    0 -0.28709375862E+02 -0.31665864357E+02  0.44370073735E+03  0.46297370727E+03  0.12508938431E+03 0.  0.
          5    1    3    3  502    0 -0.57397477397E+02 -0.29791199667E+01  0.39618729164E+03  0.40035632632E+03  0.41800000000E+01 0.  1.
         -5    1    3    3    0  502  0.28688101535E+02 -0.28686744391E+02  0.47513445715E+02  0.62617380951E+02  0.41800000000E+01 0.  1.
        -11    1    1    2    0    0  0.56520092341E-01  0.46038433657E+02  0.26634145677E+03  0.27029116183E+03  0.00000000000E+00 0. -1.
         11    1    1    2    0    0  0.28652855770E+02 -0.14372569300E+02  0.39147934341E+02  0.50597605232E+02  0.00000000000E+00 0.  1.
</event>
<event>
 7    1  0.2334784E-009  0.1392601E+03  0.7561462E-02  0.1214328E+00
         -1   -1    0    0    0  501 -0.00000000000E+00  0.00000000000E+00  0.33361831163E+02  0.33361831163E+02  0.00000000000E+00 0.  1.
          1   -1    0    0  501    0  0.00000000000E+00 -0.00000000000E+00 -0.86799608020E+03  0.86799608020E+03  0.00000000000E+00 0. -1.
         25    2    1    2    0    0  0.10240503233E+03  0.86297696222E+02 -0.38994761033E+03  0.43086067900E+03  0.12509077857E+03 0.  0.
          5    1    3    3  502    0  0.10673921189E+03  0.74245702623E+02 -0.39545757844E+03  0.41630499932E+03  0.41800000000E+01 0. -1.
         -5    1    3    3    0  502 -0.43341795517E+01  0.12051993599E+02  0.55099681172E+01  0.14555679673E+02  0.41800000000E+01 0. -1.
        -11    1    1    2    0    0 -0.15968298013E+02 -0.62438759213E+01 -0.94090964637E+01  0.19557699870E+02  0.00000000000E+00 0.  1.
         11    1    1    2    0    0 -0.86436734321E+02 -0.80053820301E+02 -0.43527754225E+03  0.45093953250E+03  0.00000000000E+00 0. -1.
</event>
<event>
 7    1  0.2334784E-009  0.1280530E+03  0.7561462E-02  0.1230374E+00
          2   -1    0    0  501    0  0.00000000000E+00  0.00000000000E+00  0.72420465272E+03  0.72420465272E+03  0.00000000000E+00 0. -1.
         -2   -1    0    0    0  501 -0.00000000000E+00 -0.00000000000E+00 -0.22958508518E+02  0.22958508518E+02  0.00000000000E+00 0.  1.
         25    2    1    2    0    0 -0.70653036445E+02 -0.30931563910E+02  0.38461240023E+03  0.41173110388E+03  0.12508872963E+03 0.  0.
          5    1    3    3  502    0 -0.22319775514E+01 -0.68109643966E+02  0.19967889761E+03  0.21102852858E+03  0.41800000000E+01 0.  1.
         -5    1    3    3    0  502 -0.68421058893E+02  0.37178080055E+02  0.18493350263E+03  0.20070257530E+03  0.41800000000E+01 0.  1.
        -11    1    1    2    0    0  0.64744882584E+02  0.55070880456E+02  0.22608874855E+03  0.24153845225E+03  0.00000000000E+00 0.  1.
         11    1    1    2    0    0  0.59081538610E+01 -0.24139316545E+02  0.90544995415E+02  0.93893605107E+02  0.00000000000E+00 0. -1.
</event>
<event>
 7    1  0.2334784E-009  0.1520820E+03  0.7561462E-02  0.1197938E+00
         -1   -1    0    0    0  501 -0.00000000000E+00  0.00000000000E+00  0.94880457905E+02  0.94880457905E+02  0.00000000000E+00 0.  1.
          1   -1    0    0  501    0  0.00000000000E+00 -0.00000000000E+00 -0.26576503759E+03  0.26576503759E+03  0.00000000000E+00 0. -1.
         25    2    1    2    0    0 -0.37046981240E+02 -0.96451929589E+02 -0.91301557537E+02  0.18616635000E+03  0.12508589819E+03 0.  0.
          5    1    3    3  502    0 -0.41917370371E+01  0.23707213005E+02 -0.48630493268E+02  0.54424258225E+02  0.41800000000E+01 0. -1.
         -5    1    3    3    0  502 -0.32855244202E+02 -0.12015914259E+03 -0.42671064269E+02  0.13174209178E+03  0.41800000000E+01 0. -1.
        -11    1    1    2    0    0 -0.41947224895E+02  0.26839445147E+02 -0.21627127497E+02  0.54292339570E+02  0.00000000000E+00 0.  1.
         11    1    1    2    0    0  0.78994206134E+02  0.69612484442E+02 -0.57955894654E+02  0.12018680592E+03  0.00000000000E+00 0. -1.
</event>
<event>
 7    1  0.2334784E-009  0.1664275E+03  0.7561462E-02  0.1181625E+00
         -2   -1    0    0    0  501 -0.00000000000E+00  0.00000000000E+00  0.11446512434E+03  0.11446512434E+03  0.00000000000E+00 0.  1.
          2   -1    0    0  501    0  0.00000000000E+00 -0.00000000000E+00 -0.35559337030E+03  0.35559337030E+03  0.00000000000E+00 0. -1.
         25    2    1    2    0    0  0.11868108553E+03  0.61825838430E+02 -0.24558349794E+03  0.30637548674E+03  0.12508816913E+03 0.  0.
          5    1    3    3  502    0  0.11987126610E+03  0.98944813048E+00 -0.18444044831E+03  0.22001329691E+03  0.41800000000E+01 0.  1.
         -5    1    3    3    0  502 -0.11901805742E+01  0.60836390299E+02 -0.61143049626E+02  0.86362189829E+02  0.41800000000E+01 0.  1.
        -11    1    1    2    0    0 -0.50816785896E+02 -0.66727365318E+02 -0.27830045196E+02  0.88370800759E+02  0.00000000000E+00 0. -1.
         11    1    1    2    0    0 -0.67864299633E+02  0.49015268883E+01  0.32285297172E+02  0.75312207138E+02  0.00000000000E+00 0.  1.
</event>
<event>
 7    1  0.2334784E-009  0.1094933E+03  0.7561462E-02  0.1261511E+00
         -1   -1    0    0    0  501 -0.00000000000E+00  0.00000000000E+00  0.91069726957E+02  0.91069726957E+02  0.00000000000E+00 0.  1.
          1   -1    0    0  501    0  0.00000000000E+00 -0.00000000000E+00 -0.18883877607E+03  0.18883877607E+03  0.00000000000E+00 0. -1.
         25    2    1    2    0    0  0.62722496379E+02  0.10919159992E+02 -0.93686771634E+02  0.16875454162E+03  0.12509014562E+03 0.  0.
          5    1    3    3  502    0  0.81110555361E+02 -0.36293423931E+02 -0.66775262379E+02  0.11123193281E+03  0.41800000000E+01 0.  1.
         -5    1    3    3    0  502 -0.18388058982E+02  0.47212583923E+02 -0.26911509255E+02  0.57522608809E+02  0.41800000000E+01 0.  1.
        -11    1    1    2    0    0 -0.32673317021E+02  0.18153507937E+02 -0.40925879114E+02  0.55425834020E+02  0.00000000000E+00 0. -1.
         11    1    1    2    0    0 -0.30049179358E+02 -0.29072667929E+02  0.36843601634E+02  0.55728127386E+02  0.00000000000E+00 0.  1.
</event>
<event>
 7    1  0.2334784E-009  0.1185001E+03  0.7561462E-02  0.1245592E+00
          1   -1    0    0  501    0  0.00000000000E+00  0.00000000000E+00  0.36423699828E+03  0.36423699828E+03  0.00000000000E+00 0. -1.
         -1   -1    0    0    0  501 -0.00000000000E+00 -0.00000000000E+00 -0.65704073939E+02  0.65704073939E+02  0.00000000000E+00 0.  1.
         25    2    1    2    0    0  0.62972427581E+02 -0.83352952099E+02  0.19044973605E+03  0.25066367195E+03  0.12509169923E+03 0.  0.
          5    1    3    3  502    0  0.11702321444E+02 -0.24475299722E+02 -0.14688064566E+02  0.31131917132E+02  0.41800000000E+01 0. -1.
         -5    1    3    3    0  502  0.51270106138E+02 -0.58877652377E+02  0.20513780062E+03  0.21953175482E+03  0.41800000000E+01 0. -1.
        -11    1    1    2    0    0 -0.80351123375E+02  0.52578440309E+02  0.10720702003E+03  0.14392407914E+03  0.00000000000E+00 0. -1.
         11    1    1    2    0    0  0.17378695793E+02  0.30774511789E+02  0.87616825405E+00  0.35353321119E+02  0.00000000000E+00 0.  1.
</event>
<event>
 7    1  0.2334784E-009  0.1364114E+03  0.7561462E-02  0.1218241E+00
          2   -1    0    0  501    0  0.00000000000E+00  0.00000000000E+00  0.13258297318E+03  0.13258297318E+03  0.00000000000E+00 0. -1.
         -2   -1    0    0    0  501 -0.00000000000E+00 -0.00000000000E+00 -0.25796356969E+03  0.25796356969E+03  0.00000000000E+00 0.  1.
         25    2    1    2    0    0  0.54583994902E+01  0.10245196402E+03  0.48836179040E+02  0.16899412180E+03  0.12509133369E+03 0.  0.
          5    1    3    3  502    0 -0.40100643683E+02  0.10114521258E+03  0.56366989061E+02  0.12260964688E+03  0.41800000000E+01 0. -1.
         -5    1    3    3    0  502  0.45559043173E+02  0.13067514318E+01 -0.75308100214E+01  0.46384474922E+02  0.41800000000E+01 0. -1.
        -11    1    1    2    0    0 -0.32015598625E+02 -0.49892837915E+02 -0.14322223254E+03  0.15500613448E+03  0.00000000000E+00 0.  1.
         11    1    1    2    0    0  0.26557199134E+02 -0.52559126100E+02 -0.30994543014E+02  0.66546286590E+02  0.00000000000E+00 0. -1.
</event>
<event>
 7    1  0.2334784E-009  0.1072144E+03  0.7561462E-02  0.1265817E+00
          1   -1    0    0  501    0  0.00000000000E+00  0.00000000000E+00  0.45244727183E+03  0.45244727183E+03  0.00000000000E+00 0. -1.
         -1   -1    0    0    0  501 -0.00000000000E+00 -0.00000000000E+00 -0.41002349813E+02  0.41002349813E+02  0.00000000000E+00 0.  1.
         25    2    1    2    0    0  0.27747870725E+02 -0.74828053225E+02  0.19142281724E+03  0.24219814276E+03  0.12509222005E+03 0.  0.
          5    1    3    3  502    0 -0.19509714797E+02 -0.64613103836E+02  0.30621941418E+02  0.74233805338E+02  0.41800000000E+01 0.  1.
         -5    1    3    3    0  502  0.47257585523E+02 -0.10214949389E+02  0.16080087582E+03  0.16796433742E+03  0.41800000000E+01 0.  1.
        -11    1    1    2    0    0 -0.44309733446E+02  0.66038157716E+02  0.21840374584E+03  0.23243189744E+03  0.00000000000E+00 0. -1.
         11    1    1    2    0    0  0.16561862720E+02  0.87898955087E+01  0.16183589350E+01  0.18819581437E+02  0.00000000000E+00 0.  1.
</event>
<event>
 7    1  0.2334784E-009  0.1405260E+03  0.7561462E-02  0.1212623E+00
         -1   -1    0    0    0  501 -0.00000000000E+00  0.00000000000E+00  0.69969617683E+02  0.69969617683E+02  0.00000000000E+00 0.  1.
          1   -1    0    0  501    0  0.00000000000E+00 -0.00000000000E+00 -0.30814005930E+03  0.30814005930E+03  0.00000000000E+00 0. -1.
         25    2    1    2    0    0 -0.73111215247E+02  0.58689559386E+02 -0.87038721398E+02  0.17893189756E+03  0.12510463926E+03 0.  0.
          5    1    3    3  502    0  0.24375707196E+02  0.47048729297E+02 -0.52664224069E+02  0.74824801547E+02  0.41800000000E+01 0.  1.
         -5    1    3    3    0  502 -0.97486922444E+02  0.11640830089E+02 -0.34374497330E+02  0.10410709601E+03  0.41800000000E+01 0.  1.
        -11    1    1    2    0    0  0.67803588636E+02 -0.81611336640E+02 -0.12055551371E+03  0.16059691400E+03  0.00000000000E+00 0.  1.
         11    1    1    2    0    0  0.53076266110E+01  0.22921777254E+02 -0.30576206505E+02  0.38580865425E+02  0.00000000000E+00 0. -1.
</event>
<event>
 7    1  0.2334784E-009  0.1051556E+03  0.7561462E-02  0.1269813E+00
         -2   -1    0    0    0  501 -0.00000000000E+00  0.00000000000E+00  0.61872602156E+03  0.61872602156E+03  0.00000000000E+00 0. -1.
          2   -1    0    0  501    0  0.00000000000E+00 -0.00000000000E+00 -0.26692016532E+02  0.26692016532E+02  0.00000000000E+00 0.  1.
         25    2    1    2    0    0  0.23611929993E+01  0.42225488183E+02  0.52452411485E+03  0.54088987910E+03  0.12509095559E+03 0.  0.
          5    1    3    3  502    0  0.52127318159E+02  0.59385760825E+02  0.32532676424E+03  0.33481174086E+03  0.41800000000E+01 0.  1.
         -5    1    3    3    0  502 -0.49766125160E+02 -0.17160272642E+02  0.19919735062E+03  0.20607813825E+03  0.41800000000E+01 0.  1.
        -11    1    1    2    0    0  0.61510935565E+01 -0.59129500096E+02  0.42107730230E+02  0.72850495390E+02  0.00000000000E+00 0.  1.
         11    1    1    2    0    0 -0.85122865558E+01  0.16904011913E+02  0.25402159945E+02  0.31677663597E+02  0.00000000000E+00 0. -1.
</event>
<event>
 7    1  0.2334784E-009  0.1950305E+03  0.7561462E-02  0.1154001E+00
          3   -1    0    0  501    0  0.00000000000E+00  0.00000000000E+00  0.26861391522E+03  0.26861391522E+03  0.00000000000E+00 0. -1.
         -3   -1    0    0    0  501 -0.00000000000E+00 -0.00000000000E+00 -0.21911117639E+03  0.21911117639E+03  0.00000000000E+00 0.  1.
         25    2    1    2    0    0  0.18336696459E+03  0.59519896453E+01 -0.90467868409E+02  0.23977560037E+03  0.12509609680E+03 0.  0.
          5    1    3    3  502    0  0.58165994611E+02 -0.98226913012E+01 -0.96713583945E+02  0.11336118345E+03  0.41800000000E+01 0.  1.
         -5    1    3    3    0  502  0.12520096998E+03  0.15774680947E+02  0.62457155357E+01  0.12641441692E+03  0.41800000000E+01 0.  1.
        -11    1    1    2    0    0 -0.18478402339E+03  0.13391138555E+02  0.12671309682E+03  0.22445638061E+03  0.00000000000E+00 0.  1.
         11    1    1    2    0    0  0.14170587952E+01 -0.19343128200E+02  0.13257510421E+02  0.23493110624E+02  0.00000000000E+00 0. -1.
</event>
<event>
 7    1  0.2334784E-009  0.1040531E+03  0.7561462E-02  0.1271997E+00
          1   -1    0    0  501    0  0.00000000000E+00  0.00000000000E+00  0.11029506895E+04  0.11029506895E+04  0.00000000000E+00 0. -1.
         -1   -1    0    0    0  501 -0.00000000000E+00 -0.00000000000E+00 -0.28714718730E+02  0.28714718730E+02  0.00000000000E+00 0.  1.
         25    2    1    2    0    0 -0.10792751634E+02 -0.85157055494E+02  0.92313833230E+03  0.93552139290E+03  0.12509072079E+03 0.  0.
          5    1    3    3  502    0  0.35284328814E+02 -0.39224855097E+02  0.72507939514E+03  0.72700837325E+03  0.41800000000E+01 0.  1.
         -5    1    3    3    0  502 -0.46077080448E+02 -0.45932200398E+02  0.19805893716E+03  0.20851301965E+03  0.41800000000E+01 0.  1.
        -11    1    1    2    0    0 -0.87849263713E+01  0.36416981435E+02  0.13661609140E+03  0.14165919630E+03  0.00000000000E+00 0.  1.
         11    1    1    2    0    0  0.19577678005E+02  0.48740074059E+02  0.14481547032E+02  0.54484818985E+02  0.00000000000E+00 0. -1.
</event>
<event>
 7    1  0.2334784E-009  0.9394528E+02  0.7561462E-02  0.1293569E+00
         -2   -1    0    0    0  501 -0.00000000000E+00  0.00000000000E+00  0.32100021336E+03  0.32100021336E+03  0.00000000000E+00 0.  1.
          2   -1    0    0  501    0  0.00000000000E+00 -0.00000000000E+00 -0.45493245465E+02  0.45493245465E+02  0.00000000000E+00 0. -1.
         25    2    1    2    0    0 -0.17280853839E+02 -0.28187924593E+01  0.93988415478E+02  0.15744644388E+03  0.12509591099E+03 0.  0.
          5    1    3    3  502    0  0.46269079672E+02  0.14286658493E+02  0.82799161315E+01  0.49304824873E+02  0.41800000000E+01 0.  1.
         -5    1    3    3    0  502 -0.63549933511E+02 -0.17105450952E+02  0.85708499346E+02  0.10814161901E+03  0.41800000000E+01 0.  1.
        -11    1    1    2    0    0  0.78743681484E+00 -0.33470610634E+02  0.16055581581E+03  0.16400936505E+03  0.00000000000E+00 0.  1.
         11    1    1    2    0    0  0.16493417024E+02  0.36289403093E+02  0.20962736605E+02  0.45037649894E+02  0.00000000000E+00 0. -1.
</event>
<event>
 7    1  0.2334784E-009  0.7147508E+02  0.7561462E-02  0.1355148E+00
          1   -1    0    0  501    0  0.00000000000E+00  0.00000000000E+00  0.16289530745E+03  0.16289530745E+03  0.00000000000E+00 0. -1.
         -1   -1    0    0    0  501 -0.00000000000E+00 -0.00000000000E+00 -0.76963174728E+02  0.76963174728E+02  0.00000000000E+00 0.  1.
         25    2    1    2    0    0 -0.20498141222E+02 -0.39416260560E+01  0.32203483873E+02  0.13084739783E+03  0.12509303312E+03 0.  0.
          5    1    3    3  502    0 -0.40812207610E+02 -0.32359122680E+02  0.64555929126E+02  0.83052329865E+02  0.41800000000E+01 0.  1.
         -5    1    3    3    0  502  0.20314066389E+02  0.28417496624E+02 -0.32352445253E+02  0.47795067962E+02  0.41800000000E+01 0.  1.
        -11    1    1    2    0    0 -0.13870611925E+01 -0.21735371820E+02 -0.18958795079E+02  0.28875356929E+02  0.00000000000E+00 0.  1.
         11    1    1    2    0    0  0.21885202414E+02  0.25676997876E+02  0.72687443927E+02  0.80135727421E+02  0.00000000000E+00 0. -1.
</event>
<event>
 7    1  0.2334784E-009  0.1649042E+03  0.7561462E-02  0.1183269E+00
          2   -1    0    0  501    0  0.00000000000E+00  0.00000000000E+00  0.10026018737E+04  0.10026018737E+04  0.00000000000E+00 0. -1.
         -2   -1    0    0    0  501 -0.00000000000E+00 -0.00000000000E+00 -0.39807362364E+02  0.39807362364E+02  0.00000000000E+00 0.  1.
         25    2    1    2    0    0 -0.15810868233E+02 -0.14659015284E+03  0.71368026283E+03  0.73940923079E+03  0.12509131292E+03 0.  0.
          5    1    3    3  502    0  0.35463308176E+02 -0.11751490215E+03  0.34919439773E+03  0.37016428550E+03  0.41800000000E+01 0.  1.
         -5    1    3    3    0  502 -0.51274176409E+02 -0.29075250697E+02  0.36448586509E+03  0.36924494529E+03  0.41800000000E+01 0.  1.
        -11    1    1    2    0    0  0.95221633249E+01  0.39899698815E+02  0.11727139614E+02  0.42663607014E+02  0.00000000000E+00 0.  1.
         11    1    1    2    0    0  0.62887049083E+01  0.10669045403E+03  0.23738710893E+03  0.26033639830E+03  0.00000000000E+00 0. -1.
</event>
<event>
 7    1  0.2334784E-009  0.1011124E+03  0.7561462E-02  0.1277974E+00
         -1   -1    0    0    0  501 -0.00000000000E+00  0.00000000000E+00  0.47014448811E+03  0.47014448811E+03  0.00000000000E+00 0.  1.
          1   -1    0    0  501    0  0.00000000000E+00 -0.00000000000E+00 -0.34312733102E+02  0.34312733102E+02  0.00000000000E+00 0. -1.
         25    2    1    2    0    0  0.36415051166E+02 -0.50571546476E+02  0.28743992003E+03  0.31961312325E+03  0.12508918285E+03 0.  0.
          5    1    3    3  502    0 -0.30728191995E+02 -0.63761946738E+02  0.15651244127E+03  0.17182381764E+03  0.41800000000E+01 0. -1.
         -5    1    3    3    0  502  0.67143243162E+02  0.13190400262E+02  0.13092747875E+03  0.14778930562E+03  0.41800000000E+01 0. -1.
        -11    1    1    2    0    0 -0.11483006346E+02  0.22225687482E+02 -0.61472696734E+01  0.25761008195E+02  0.00000000000E+00 0. -1.
         11    1    1    2    0    0 -0.24932044820E+02  0.28345858994E+02  0.15453910465E+03  0.15908308976E+03  0.00000000000E+00 0.  1.
</event>
<event>
 7    1  0.2334784E-009  0.9463106E+02  0.7561462E-02  0.1292009E+00
         -2   -1    0    0    0  501 -0.00000000000E+00  0.00000000000E+00  0.41009524019E+02  0.41009524019E+02  0.00000000000E+00 0.  1.
          2   -1    0    0  501    0  0.00000000000E+00 -0.00000000000E+00 -0.35135236476E+03  0.35135236476E+03  0.00000000000E+00 0. -1.
         25    2    1    2    0    0  0.75502401765E+01  0.18805632916E+02 -0.25565346238E+03  0.28533772650E+03  0.12509303491E+03 0.  0.
          5    1    3    3  502    0  0.40293470657E+02  0.58576791973E+02 -0.11259265798E+03  0.13322681174E+03  0.41800000000E+01 0. -1.
         -5    1    3    3    0  502 -0.32743230480E+02 -0.39771159056E+02 -0.14306080440E+03  0.15211091477E+03  0.41800000000E+01 0. -1.
        -11    1    1    2    0    0  0.20453002641E+02  0.12801859061E+02  0.12874713647E+02  0.27349061481E+02  0.00000000000E+00 0.  1.
         11    1    1    2    0    0 -0.28003242817E+02 -0.31607491978E+02 -0.67564092005E+02  0.79675100789E+02  0.00000000000E+00 0. -1.
</event>
<event>
 7    1  0.2808697E-009  0.6571189E+02  0.7561462E-02  0.1375314E+00
          2   -1    0    0  501    0  0.00000000000E+00  0.00000000000E+00  0.59336758500E+03  0.59336758500E+03  0.00000000000E+00 0. -1.
         -2   -1    0    0    0  501 -0.00000000000E+00 -0.00000000000E+00 -0.23484290019E+02  0.23484290019E+02  0.00000000000E+00 0.  1.
         25    2    1    2    0    0  0.36178047307E+02 -0.55749237654E+01  0.39527851545E+03  0.41621160720E+03  0.12508823407E+03 0.  0.
          5    1    3    3  502    0  0.25809242270E+02 -0.28506840809E+00  0.61163273779E+01  0.26852934870E+02  0.41800000000E+01 0. -1.
         -5    1    3    3    0  502  0.10368805038E+02 -0.52898553573E+01  0.38916218808E+03  0.38935867233E+03  0.41800000000E+01 0. -1.
        -11    1    1    2    0    0 -0.28665405015E+01 -0.37972963730E+02  0.10713750932E+03  0.11370404097E+03  0.00000000000E+00 0. -1.
         11    1    1    2    0    0 -0.33311506806E+02  0.43547887495E+02  0.67467270210E+02  0.86936226859E+02  0.00000000000E+00 0.  1.
</event>
<event>
 7    1  0.2334784E-009  0.1417577E+03  0.7561462E-02  0.1210983E+00
          2   -1    0    0  501    0  0.00000000000E+00  0.00000000000E+00  0.10576482407E+04  0.10576482407E+04  0.00000000000E+00 0. -1.
         -2   -1    0    0    0  501 -0.00000000000E+00 -0.00000000000E+00 -0.24234990815E+02  0.24234990815E+02  0.00000000000E+00 0.  1.
         25    2    1    2    0    0  0.14884951356E+02 -0.10978131035E+03  0.41947785035E+03  0.45153373903E+03  0.12509017816E+03 0.  0.
          5    1    3    3  502    0 -0.34635664964E+02 -0.64710333421E+02  0.33841753890E+03  0.34631049591E+03  0.41800000000E+01 0.  1.
         -5    1    3    3    0  502  0.49520616320E+02 -0.45070976928E+02  0.81060311442E+02  0.10522324312E+03  0.41800000000E+01 0.  1.
        -11    1    1    2    0    0  0.25649758958E+01  0.12173221198E+03  0.52442296778E+03  0.53837232439E+03  0.00000000000E+00 0.  1.
         11    1    1    2    0    0 -0.17449927251E+02 -0.11950901635E+02  0.89512431786E+02  0.91977168119E+02  0.00000000000E+00 0. -1.
</event>
<event>
 7    1  0.2739924E-009  0.8880613E+02  0.7561462E-02  0.1305769E+00
         -1   -1    0    0    0  501 -0.00000000000E+00  0.00000000000E+00  0.18742378910E+03  0.18742378910E+03  0.00000000000E+00 0.  1.
          1   -1    0    0  501    0  0.00000000000E+00 -0.00000000000E+00 -0.75789544412E+02  0.75789544412E+02  0.00000000000E+00 0. -1.
         25    2    1    2    0    0  0.44724152406E+02  0.19167352485E+02  0.71262281857E+02  0.15196472139E+03  0.12508927421E+03 0.  0.
          5    1    3    3  502    0 -0.26288389602E+02 -0.26313384154E+02  0.54132872806E+02  0.65812718617E+02  0.41800000000E+01 0. -1.
         -5    1    3    3    0  502  0.71012542008E+02  0.45480736639E+02  0.17129409051E+02  0.86152002775E+02  0.41800000000E+01 0. -1.
        -11    1    1    2    0    0 -0.22646023661E+02  0.48164406265E+01 -0.27503371793E+02  0.35951021515E+02  0.00000000000E+00 0. -1.
         11    1    1    2    0    0 -0.22078128745E+02 -0.23983793112E+02  0.67875334628E+02  0.75297590610E+02  0.00000000000E+00 0.  1.
</event>
<event>
 7    1  0.2334784E-009  0.1397358E+03  0.7561462E-02  0.1213685E+00
          2   -1    0    0  501    0  0.00000000000E+00  0.00000000000E+00  0.85251242488E+03  0.85251242488E+03  0.00000000000E+00 0. -1.
         -2   -1    0    0    0  501 -0.00000000000E+00 -0.00000000000E+00 -0.30421225681E+02  0.30421225681E+02  0.00000000000E+00 0.  1.
         25    2    1    2    0    0  0.79429152368E+02 -0.76757662785E+02  0.54503891794E+03  0.57001296590E+03  0.12508649078E+03 0.  0.
          5    1    3    3  502    0  0.35413988393E+02 -0.10728272511E+03  0.36039483216E+03  0.37771105507E+03  0.41800000000E+01 0. -1.
         -5    1    3    3    0  502  0.44015163975E+02  0.30525062326E+02  0.18464408579E+03  0.19230191082E+03  0.41800000000E+01 0. -1.
        -11    1    1    2    0    0 -0.61807167611E+02  0.45289347290E+02  0.26346257539E+03  0.27437889783E+03  0.00000000000E+00 0. -1.
         11    1    1    2    0    0 -0.17621984757E+02  0.31468315495E+02  0.13589705875E+02  0.38541786837E+02  0.00000000000E+00 0.  1.
</event>
<event>
 7    1  0.2334784E-009  0.1685144E+03  0.7561462E-02  0.1179406E+00
         -2   -1    0    0    0  501 -0.00000000000E+00  0.00000000000E+00  0.50615218143E+02  0.50615218143E+02  0.00000000000E+00 0.  1.
          2   -1    0    0  501    0  0.00000000000E+00 -0.00000000000E+00 -0.89905173474E+03  0.89905173474E+03  0.00000000000E+00 0. -1.
         25    2    1    2    0    0  0.92382495371E+02  0.11244459831E+03 -0.19244913118E+03  0.27177423216E+03  0.12508497925E+03 0.  0.
          5    1    3    3  502    0  0.19895428975E+02 -0.19799897534E+02 -0.14994403223E+01  0.28418035783E+02  0.41800000000E+01 0.  1.
         -5    1    3    3    0  502  0.72487066396E+02  0.13224449584E+03 -0.19094969086E+03  0.24335619638E+03  0.41800000000E+01 0.  1.
        -11    1    1    2    0    0 -0.73751465465E+02 -0.41902960577E+02 -0.47906706929E+03  0.48651864676E+03  0.00000000000E+00 0. -1.
         11    1    1    2    0    0 -0.18631029906E+02 -0.70541637733E+02 -0.17692031613E+03  0.19137407397E+03  0.00000000000E+00 0.  1.
</event>
<event>
 7    1  0.2334784E-009  0.1288845E+03  0.7561462E-02  0.1229120E+00
         -4   -1    0    0    0  501 -0.00000000000E+00  0.00000000000E+00  0.37515232688E+03  0.37515232688E+03  0.00000000000E+00 0.  1.
          4   -1    0    0  501    0  0.00000000000E+00 -0.00000000000E+00 -0.98621280682E+02  0.98621280682E+02  0.00000000000E+00 0. -1.
         25    2    1    2    0    0  0.46571256637E+02 -0.95136250160E+02  0.11738485372E+01  0.16391600350E+03  0.12508912920E+03 0.  0.
          5    1    3    3  502    0 -0.19096152156E+02 -0.68190288830E+01  0.41704219119E+02  0.46560460419E+02  0.41800000000E+01 0. -1.
         -5    1    3    3    0  502  0.65667408793E+02 -0.88317221277E+02 -0.40530370582E+02  0.11735554308E+03  0.41800000000E+01 0. -1.
        -11    1    1    2    0    0  0.12910798675E+02  0.51673594164E+02  0.18892737423E+03  0.19629162435E+03  0.00000000000E+00 0. -1.
         11    1    1    2    0    0 -0.59482055312E+02  0.43462655996E+02  0.86429823431E+02  0.11356597972E+03  0.00000000000E+00 0.  1.
</event>
<event>
 7    1  0.2334784E-009  0.1317266E+03  0.7561462E-02  0.1224916E+00
          4   -1    0    0  501    0  0.00000000000E+00  0.00000000000E+00  0.55071053302E+03  0.55071053302E+03  0.00000000000E+00 0. -1.
         -4   -1    0    0    0  501 -0.00000000000E+00 -0.00000000000E+00 -0.35716973076E+02  0.35716973076E+02  0.00000000000E+00 0.  1.
         25    2    1    2    0    0  0.72184725826E+02  0.49816812272E+02  0.26354493447E+03  0.30462899998E+03  0.12510214112E+03 0.  0.
          5    1    3    3  502    0 -0.16513431247E+02  0.59985220361E+02  0.91083655397E+02  0.11038398776E+03  0.41800000000E+01 0.  1.
         -5    1    3    3    0  502  0.88698157073E+02 -0.10168408089E+02  0.17246127908E+03  0.19424501222E+03  0.41800000000E+01 0.  1.
        -11    1    1    2    0    0  0.53815759025E+01 -0.31583726197E+02  0.21886083749E+02  0.38800693055E+02  0.00000000000E+00 0.  1.
         11    1    1    2    0    0 -0.77566301728E+02 -0.18233086075E+02  0.22956254173E+03  0.24299781307E+03  0.00000000000E+00 0. -1.
</event>
<event>
 7    1  0.2334784E-009  0.1028171E+03  0.7561462E-02  0.1274481E+00
         -1   -1    0    0    0  501 -0.00000000000E+00  0.00000000000E+00  0.10013071127E+02  0.10013071127E+02  0.00000000000E+00 0.  1.
          1   -1    0    0  501    0  0.00000000000E+00 -0.00000000000E+00 -0.18688566200E+04  0.18688566200E+04  0.00000000000E+00 0. -1.
         25    2    1    2    0    0  0.38098081673E+00  0.25664769196E+02 -0.15694564783E+04  0.15746423525E+04  0.12508427359E+03 0.  0.
          5    1    3    3  502    0  0.50651867012E+02 -0.16012760306E+02 -0.42676226843E+03  0.43007618660E+03  0.41800000000E+01 0. -1.
         -5    1    3    3    0  502 -0.50270886196E+02  0.41677529503E+02 -0.11426942099E+04  0.11445661659E+04  0.41800000000E+01 0. -1.
        -11    1    1    2    0    0  0.41263967843E+02 -0.15188899159E+02 -0.20358398306E+03  0.20827831346E+03  0.00000000000E+00 0. -1.
         11    1    1    2    0    0 -0.41644948660E+02 -0.10475870037E+02 -0.85803087483E+02  0.95949025131E+02  0.00000000000E+00 0.  1.
</event>
<event>
 7    1  0.2334784E-009  0.1359935E+03  0.7561462E-02  0.1218824E+00
          2   -1    0    0  501    0  0.00000000000E+00  0.00000000000E+00  0.15276388997E+04  0.15276388997E+04  0.00000000000E+00 0.  1.
         -2   -1    0    0    0  501 -0.00000000000E+00 -0.00000000000E+00 -0.18796459929E+02  0.18796459929E+02  0.00000000000E+00 0. -1.
         25    2    1    2    0    0 -0.90245631950E+02  0.90824373571E+02  0.89899054514E+03  0.91663738104E+03  0.12508695832E+03 0.  0.
          5    1    3    3  502    0 -0.69308438464E+02  0.35465893457E+02  0.19293808340E+03  0.20809628941E+03  0.41800000000E+01 0. -1.
         -5    1    3    3    0  502 -0.20937193486E+02  0.55358480115E+02  0.70605246174E+03  0.70854109163E+03  0.41800000000E+01 0. -1.
        -11    1    1    2    0    0 -0.21351851835E+01 -0.15060230846E+02  0.10093209603E+02  0.18254929444E+02  0.00000000000E+00 0. -1.
         11    1    1    2    0    0  0.92380817133E+02 -0.75764142725E+02  0.59975868507E+03  0.61154304919E+03  0.00000000000E+00 0.  1.
</event>
<event>
 7    1  0.2334784E-009  0.1124171E+03  0.7561462E-02  0.1256158E+00
          1   -1    0    0  501    0  0.00000000000E+00  0.00000000000E+00  0.68767714323E+02  0.68767714323E+02  0.00000000000E+00 0. -1.
         -1   -1    0    0    0  501 -0.00000000000E+00 -0.00000000000E+00 -0.29233763125E+03  0.29233763125E+03  0.00000000000E+00 0.  1.
         25    2    1    2    0    0 -0.33361349881E+02  0.48536474011E+02 -0.37232576507E+02  0.14314548383E+03  0.12504237607E+03 0.  0.
          5    1    3    3  502    0 -0.66429305975E+02  0.52467962188E+02 -0.58887640855E+02  0.10320351929E+03  0.41800000000E+01 0.  1.
         -5    1    3    3    0  502  0.33067956094E+02 -0.39314881773E+01  0.21655064348E+02  0.39941964542E+02  0.41800000000E+01 0.  1.
        -11    1    1    2    0    0  0.39500673925E+02  0.15319824069E+02 -0.11213369587E+03  0.11987062192E+03  0.00000000000E+00 0.  1.
         11    1    1    2    0    0 -0.61393240436E+01 -0.63856298080E+02 -0.74203644557E+02  0.98089239827E+02  0.00000000000E+00 0. -1.
</event>
<event>
 7    1  0.2334784E-009  0.1137118E+03  0.7561462E-02  0.1253847E+00
          1   -1    0    0  501    0  0.00000000000E+00  0.00000000000E+00  0.29054739827E+03  0.29054739827E+03  0.00000000000E+00 0. -1.
         -1   -1    0    0    0  501 -0.00000000000E+00 -0.00000000000E+00 -0.52480963755E+02  0.52480963755E+02  0.00000000000E+00 0.  1.
         25    2    1    2    0    0  0.39949746158E+02 -0.31840445272E+02  0.88520083306E+02  0.16153173530E+03  0.12508757007E+03 0.  0.
          5    1    3    3  502    0 -0.39867297344E+02 -0.24639995582E+02  0.60252864414E+02  0.76448746555E+02  0.41800000000E+01 0. -1.
         -5    1    3    3    0  502  0.79817043502E+02 -0.72004496895E+01  0.28267218892E+02  0.85082988741E+02  0.41800000000E+01 0. -1.
        -11    1    1    2    0    0 -0.52699940447E+02 -0.12349571978E+02  0.59848705827E+02  0.80694877410E+02  0.00000000000E+00 0.  1.
         11    1    1    2    0    0  0.12750194288E+02  0.44190017249E+02  0.89697645381E+02  0.10080174932E+03  0.00000000000E+00 0. -1.
</event>
<event>
 7    1  0.2334784E-009  0.1653032E+03  0.7561462E-02  0.1182836E+00
          3   -1    0    0  501    0  0.00000000000E+00  0.00000000000E+00  0.86329070200E+02  0.86329070200E+02  0.00000000000E+00 0. -1.
         -3   -1    0    0    0  501 -0.00000000000E+00 -0.00000000000E+00 -0.44110065330E+03  0.44110065330E+03  0.00000000000E+00 0.  1.
         25    2    1    2    0    0  0.12038483888E+03 -0.70260532966E+02 -0.29587308162E+03  0.35016760710E+03  0.12508965068E+03 0.  0.
          5    1    3    3  502    0  0.76466213948E+02  0.10671944874E+02 -0.21156230134E+03  0.22524886688E+03  0.41800000000E+01 0. -1.
         -5    1    3    3    0  502  0.43918624929E+02 -0.80932477840E+02 -0.84310780278E+02  0.12491874021E+03  0.41800000000E+01 0. -1.
        -11    1    1    2    0    0  0.44085279314E+01  0.29501703006E+02 -0.31056245206E+02  0.43061304730E+02  0.00000000000E+00 0.  1.
         11    1    1    2    0    0 -0.12479336681E+03  0.40758829961E+02 -0.27842256270E+02  0.13420081167E+03  0.00000000000E+00 0. -1.
</event>
<event>
 7    1  0.2334784E-009  0.1248602E+03  0.7561462E-02  0.1235288E+00
         -2   -1    0    0    0  501 -0.00000000000E+00  0.00000000000E+00  0.17237527779E+02  0.17237527779E+02  0.00000000000E+00 0.  1.
          2   -1    0    0  501    0  0.00000000000E+00 -0.00000000000E+00 -0.13644456130E+04  0.13644456130E+04  0.00000000000E+00 0. -1.
         25    2    1    2    0    0 -0.76538400620E+02 -0.24197441740E+02 -0.10563183242E+04  0.10667229824E+04  0.12508347709E+03 0.  0.
          5    1    3    3  502    0 -0.76355458403E+02 -0.67113020634E+02 -0.62163088212E+03  0.62990216667E+03  0.41800000000E+01 0. -1.
         -5    1    3    3    0  502 -0.18294221794E+00  0.42915578894E+02 -0.43468744204E+03  0.43682081572E+03  0.41800000000E+01 0. -1.
        -11    1    1    2    0    0  0.82574392113E+01  0.34793076534E+02 -0.35502070294E+02  0.50389884622E+02  0.00000000000E+00 0.  1.
         11    1    1    2    0    0  0.68280961409E+02 -0.10595634794E+02 -0.25538769082E+03  0.26457027382E+03  0.00000000000E+00 0. -1.
</event>
<event>
 7    1  0.2334784E-009  0.2837653E+03  0.7561462E-02  0.1093650E+00
          2   -1    0    0  501    0  0.00000000000E+00  0.00000000000E+00  0.77755368231E+03  0.77755368231E+03  0.00000000000E+00 0.  1.
         -2   -1    0    0    0  501 -0.00000000000E+00 -0.00000000000E+00 -0.23977940899E+03  0.23977940899E+03  0.00000000000E+00 0. -1.
         25    2    1    2    0    0 -0.27820865586E+03 -0.53894790208E+02  0.63268769706E+03  0.70444305029E+03  0.12506632036E+03 0.  0.
          5    1    3    3  502    0 -0.22622222554E+03 -0.42858993090E+02  0.36555561042E+03  0.43204370766E+03  0.41800000000E+01 0. -1.
         -5    1    3    3    0  502 -0.51986430315E+02 -0.11035797118E+02  0.26713208663E+03  0.27239934263E+03  0.41800000000E+01 0. -1.
        -11    1    1    2    0    0  0.14237599234E+03  0.36624716543E+02 -0.96679841479E+02  0.17595250725E+03  0.00000000000E+00 0. -1.
         11    1    1    2    0    0  0.13583266351E+03  0.17270073665E+02  0.17664177446E+01  0.13693753376E+03  0.00000000000E+00 0.  1.
</event>
<event>
 7    1  0.2334784E-009  0.1987989E+03  0.7561462E-02  0.1150756E+00
          1   -1    0    0  501    0  0.00000000000E+00  0.00000000000E+00  0.13330519546E+03  0.13330519546E+03  0.00000000000E+00 0. -1.
         -1   -1    0    0    0  501 -0.00000000000E+00 -0.00000000000E+00 -0.37650175298E+03  0.37650175298E+03  0.00000000000E+00 0.  1.
         25    2    1    2    0    0 -0.62240723612E+02 -0.15880152160E+03 -0.13222848311E+02  0.21192927325E+03  0.12508933690E+03 0.  0.
          5    1    3    3  502    0  0.33971401358E+02 -0.17684459729E+02  0.92245275356E+01  0.39615155362E+02  0.41800000000E+01 0. -1.
         -5    1    3    3    0  502 -0.96212124969E+02 -0.14111706187E+03 -0.22447375846E+02  0.17231411789E+03  0.41800000000E+01 0. -1.
        -11    1    1    2    0    0 -0.18044333403E+02  0.48898991207E+02 -0.49925994797E+02  0.72175579426E+02  0.00000000000E+00 0. -1.
         11    1    1    2    0    0  0.80285057015E+02  0.10990253039E+03 -0.18004771441E+03  0.22570209576E+03  0.00000000000E+00 0.  1.
</event>
<event>
 7    1  0.2334784E-009  0.1068946E+03  0.7561462E-02  0.1266431E+00
         -2   -1    0    0    0  501 -0.00000000000E+00  0.00000000000E+00  0.17277549788E+02  0.17277549788E+02  0.00000000000E+00 0.  1.
          2   -1    0    0  501    0  0.00000000000E+00 -0.00000000000E+00 -0.10361589530E+04  0.10361589530E+04  0.00000000000E+00 0. -1.
         25    2    1    2    0    0  0.78631519954E+01  0.56634375027E+02 -0.75264966689E+03  0.76511345220E+03  0.12509113507E+03 0.  0.
          5    1    3    3  502    0  0.93183331604E+01 -0.29918120485E+02 -0.67870846310E+02  0.74872220784E+02  0.41800000000E+01 0.  1.
         -5    1    3    3    0  502 -0.14551811650E+01  0.86552495512E+02 -0.68477882058E+03  0.69024123142E+03  0.41800000000E+01 0.  1.
        -11    1    1    2    0    0  0.29296993576E+02 -0.49724290102E+02 -0.22544778099E+03  0.23271768478E+03  0.00000000000E+00 0.  1.
         11    1    1    2    0    0 -0.37160145572E+02 -0.69100849250E+01 -0.40783955302E+02  0.55605365772E+02  0.00000000000E+00 0. -1.
</event>
<event>
 7    1  0.2334784E-009  0.1220788E+03  0.7561462E-02  0.1239707E+00
          2   -1    0    0  501    0  0.00000000000E+00  0.00000000000E+00  0.44021002784E+02  0.44021002784E+02  0.00000000000E+00 0.  1.
         -2   -1    0    0    0  501 -0.00000000000E+00 -0.00000000000E+00 -0.41762555971E+03  0.41762555971E+03  0.00000000000E+00 0. -1.
         25    2    1    2    0    0  0.11332491030E+02 -0.77822568176E+02 -0.24315289569E+03  0.28452399194E+03  0.12508314770E+03 0.  0.
          5    1    3    3  502    0 -0.50677848093E+02 -0.28486619826E+02 -0.54227920444E+02  0.79610750229E+02  0.41800000000E+01 0.  1.
         -5    1    3    3    0  502  0.62010339124E+02 -0.49335948350E+02 -0.18892497524E+03  0.20491324171E+03  0.41800000000E+01 0.  1.
        -11    1    1    2    0    0  0.21152254235E+02 -0.10922298263E+01 -0.68411614603E+02  0.71615360348E+02  0.00000000000E+00 0. -1.
         11    1    1    2    0    0 -0.32484745265E+02  0.78914798002E+02 -0.62040046633E+02  0.10550721020E+03  0.00000000000E+00 0.  1.
</event>
<event>
 7    1  0.2334784E-009  0.8774793E+02  0.7561462E-02  0.1308399E+00
         -2   -1    0    0    0  501 -0.00000000000E+00  0.00000000000E+00  0.24572032921E+02  0.24572032921E+02  0.00000000000E+00 0. -1.
          2   -1    0    0  501    0  0.00000000000E+00 -0.00000000000E+00 -0.61043409964E+03  0.61043409964E+03  0.00000000000E+00 0.  1.
         25    2    1    2    0    0  0.56818698415E+02  0.18597031727E+02 -0.34250851343E+03  0.36950493852E+03  0.12509038229E+03 0.  0.
          5    1    3    3  502    0  0.66127400503E+02  0.51496999547E+01 -0.34595110254E+03  0.35227686591E+03  0.41800000000E+01 0.  1.
         -5    1    3    3    0  502 -0.93087020879E+01  0.13447331772E+02  0.34425891052E+01  0.17228072617E+02  0.41800000000E+01 0.  1.
        -11    1    1    2    0    0 -0.30247812307E+02 -0.45309906947E+02 -0.20346195107E+03  0.21062925568E+03  0.00000000000E+00 0.  1.
         11    1    1    2    0    0 -0.26570886108E+02  0.26712875220E+02 -0.39891602217E+02  0.54871938352E+02  0.00000000000E+00 0. -1.
</event>
<event>
 7    1  0.2334784E-009  0.2121757E+03  0.7561462E-02  0.1139855E+00
         -3   -1    0    0    0  501 -0.00000000000E+00  0.00000000000E+00  0.64798167184E+02  0.64798167184E+02  0.00000000000E+00 0.  1.
          3   -1    0    0  501    0  0.00000000000E+00 -0.00000000000E+00 -0.75208453028E+03  0.75208453028E+03  0.00000000000E+00 0. -1.
         25    2    1    2    0    0  0.15622986295E+03 -0.11156883600E+03 -0.34212148136E+03  0.41176237215E+03  0.12508304390E+03 0.  0.
          5    1    3    3  502    0  0.17387784154E+03 -0.10560177571E+03 -0.33381429127E+03  0.39094077846E+03  0.41800000000E+01 0. -1.
         -5    1    3    3    0  502 -0.17647978585E+02 -0.59670602906E+01 -0.83071900904E+01  0.20821593691E+02  0.41800000000E+01 0. -1.
        -11    1    1    2    0    0 -0.72871093135E+02  0.15338703731E+02 -0.71248553112E+02  0.10306225481E+03  0.00000000000E+00 0.  1.
         11    1    1    2    0    0 -0.83358769819E+02  0.96230132270E+02 -0.27391632862E+03  0.30205807049E+03  0.00000000000E+00 0. -1.
</event>
<event>
 7    1  0.2334784E-009  0.1104239E+03  0.7561462E-02  0.1259787E+00
         -2   -1    0    0    0  501 -0.00000000000E+00  0.00000000000E+00  0.31927497018E+02  0.31927497018E+02  0.00000000000E+00 0. -1.
          2   -1    0    0  501    0  0.00000000000E+00 -0.00000000000E+00 -0.67337084472E+03  0.67337084472E+03  0.00000000000E+00 0.  1.
         25    2    1    2    0    0 -0.56148740359E+02 -0.77491707905E+02 -0.26471534047E+03  0.30802531884E+03  0.12509092583E+03 0.  0.
          5    1    3    3  502    0 -0.15072083487E+02 -0.25354967914E+01 -0.20027382391E+03  0.20089966000E+03  0.41800000000E+01 0. -1.
         -5    1    3    3    0  502 -0.41076656872E+02 -0.74956211113E+02 -0.64441516559E+02  0.10712565883E+03  0.41800000000E+01 0. -1.
        -11    1    1    2    0    0  0.39544543555E+02 -0.64073981631E+00 -0.19173744649E+03  0.19577392538E+03  0.00000000000E+00 0.  1.
         11    1    1    2    0    0  0.16604196804E+02  0.78132447721E+02 -0.18499056074E+03  0.20149909752E+03  0.00000000000E+00 0. -1.
</event>
<event>
 7    1  0.2334784E-009  0.1739056E+03  0.7561462E-02  0.1173835E+00
         -1   -1    0    0    0  501 -0.00000000000E+00  0.00000000000E+00  0.39800071339E+02  0.39800071339E+02  0.00000000000E+00 0.  1.
          1   -1    0    0  501    0  0.00000000000E+00 -0.00000000000E+00 -0.88135883243E+03  0.88135883243E+03  0.00000000000E+00 0. -1.
         25    2    1    2    0    0  0.91717944260E+02 -0.12123068399E+03 -0.41881421222E+03  0.46277611596E+03  0.12508928452E+03 0.  0.
          5    1    3    3  502    0  0.16596318847E+02  0.10130409784E+02 -0.28115300931E+01  0.20085818458E+02  0.41800000000E+01 0. -1.
         -5    1    3    3    0  502  0.75121625413E+02 -0.13136109378E+03 -0.41600268213E+03  0.44269029750E+03  0.41800000000E+01 0. -1.
        -11    1    1    2    0    0 -0.75554611612E+02  0.13539532138E+03 -0.38311506456E+03  0.41330079250E+03  0.00000000000E+00 0.  1.
         11    1    1    2    0    0 -0.16163332647E+02 -0.14164637387E+02 -0.39629484311E+02  0.45081995312E+02  0.00000000000E+00 0. -1.
</event>
<event>
 7    1  0.2334784E-009  0.8492676E+02  0.7561462E-02  0.1315624E+00
          3   -1    0    0  501    0  0.00000000000E+00  0.00000000000E+00  0.13611622326E+03  0.13611622326E+03  0.00000000000E+00 0. -1.
         -3   -1    0    0    0  501 -0.00000000000E+00 -0.00000000000E+00 -0.11928973870E+03  0.11928973870E+03  0.00000000000E+00 0.  1.
         25    2    1    2    0    0  0.15896089989E+02  0.17798781703E+02  0.67573576380E+02  0.14418252751E+03  0.12511167294E+03 0.  0.
          5    1    3    3  502    0  0.55413789097E+02 -0.42004701504E+01  0.79624497171E+02  0.97189839599E+02  0.41800000000E+01 0. -1.
         -5    1    3    3    0  502 -0.39517699108E+02  0.21999251853E+02 -0.12050920791E+02  0.46992687908E+02  0.41800000000E+01 0. -1.
        -11    1    1    2    0    0  0.71553002430E+01  0.21766247443E+02  0.17644023950E+02  0.28918496339E+02  0.00000000000E+00 0. -1.
         11    1    1    2    0    0 -0.23051390232E+02 -0.39565029146E+02 -0.68391115762E+02  0.82304938115E+02  0.00000000000E+00 0.  1.
</event>
<event>
 7    1  0.2334784E-009  0.1441858E+03  0.7561462E-02  0.1207805E+00
          1   -1    0    0  501    0  0.00000000000E+00  0.00000000000E+00  0.70650183024E+02  0.70650183024E+02  0.00000000000E+00 0. -1.
         -1   -1    0    0    0  501 -0.00000000000E+00 -0.00000000000E+00 -0.37678943126E+03  0.37678943126E+03  0.00000000000E+00 0.  1.
         25    2    1    2    0    0  0.67587213381E+02 -0.97152973643E+02 -0.20416859890E+03  0.26709265241E+03  0.12508771519E+03 0.  0.
          5    1    3    3  502    0  0.85251699487E+02 -0.16034451263E+02 -0.82842511505E+02  0.12002212298E+03  0.41800000000E+01 0. -1.
         -5    1    3    3    0  502 -0.17664486105E+02 -0.81118522380E+02 -0.12132608740E+03  0.14707052943E+03  0.41800000000E+01 0. -1.
        -11    1    1    2    0    0 -0.61407295859E+02  0.86434885652E+02 -0.34127028461E+02  0.11138446711E+03  0.00000000000E+00 0. -1.
         11    1    1    2    0    0 -0.61799175226E+01  0.10718087990E+02 -0.67843620872E+02  0.68962494762E+02  0.00000000000E+00 0.  1.
</event>
<event>
 7    1  0.2334784E-009  0.1352158E+03  0.7561462E-02  0.1219915E+00
         -2   -1    0    0    0  501 -0.00000000000E+00  0.00000000000E+00  0.19369262119E+02  0.19369262119E+02  0.00000000000E+00 0.  1.
          2   -1    0    0  501    0  0.00000000000E+00 -0.00000000000E+00 -0.10419913221E+04  0.10419913221E+04  0.00000000000E+00 0. -1.
         25    2    1    2    0    0 -0.58396601249E+02  0.70173954072E+02 -0.55215438115E+03  0.57346005953E+03  0.12508969739E+03 0.  0.
          5    1    3    3  502    0 -0.27527942189E+02 -0.35254489709E+02 -0.15846555858E+03  0.16471026775E+03  0.41800000000E+01 0.  1.
         -5    1    3    3    0  502 -0.30868659061E+02  0.10542844378E+03 -0.39368882257E+03  0.40874979179E+03  0.41800000000E+01 0.  1.
        -11    1    1    2    0    0  0.36802917737E+02 -0.82764041073E+02 -0.43608272769E+03  0.44539026329E+03  0.00000000000E+00 0. -1.
         11    1    1    2    0    0  0.21593683512E+02  0.12590087001E+02 -0.34384951146E+02  0.42510261392E+02  0.00000000000E+00 0.  1.
</event>
<event>
 7    1  0.2334784E-009  0.7459501E+02  0.7561462E-02  0.1345130E+00
         -2   -1    0    0    0  501 -0.00000000000E+00  0.00000000000E+00  0.27642236417E+02  0.27642236417E+02  0.00000000000E+00 0.  1.
          2   -1    0    0  501    0  0.00000000000E+00 -0.00000000000E+00 -0.67842342770E+03  0.67842342770E+03  0.00000000000E+00 0. -1.
         25    2    1    2    0    0  0.25394710618E+02  0.49987163400E+01 -0.56409651430E+03  0.57837776632E+03  0.12508431011E+03 0.  0.
          5    1    3    3  502    0  0.19850279306E+02  0.30249369163E+02 -0.41867317095E+02  0.55492364916E+02  0.41800000000E+01 0.  1.
         -5    1    3    3    0  502  0.55444313118E+01 -0.25250652823E+02 -0.52222919721E+03  0.52288540141E+03  0.41800000000E+01 0.  1.
        -11    1    1    2    0    0  0.30213392853E+02 -0.66960400014E+01 -0.91733710192E+01  0.32277496731E+02  0.00000000000E+00 0.  1.
         11    1    1    2    0    0 -0.55608103471E+02  0.16973236614E+01 -0.77511305958E+02  0.95410401061E+02  0.00000000000E+00 0. -1.
</event>
<event>
 7    1  0.2393462E-009  0.1023099E+03  0.7561462E-02  0.1275512E+00
         -2   -1    0    0    0  501 -0.00000000000E+00  0.00000000000E+00  0.19441456000E+02  0.19441456000E+02  0.00000000000E+00 0.  1.
          2   -1    0    0  501    0  0.00000000000E+00 -0.00000000000E+00 -0.68032451879E+03  0.68032451879E+03  0.00000000000E+00 0. -1.
         25    2    1    2    0    0  0.78515139937E+01 -0.28179609123E+02 -0.45256462420E+03  0.47044405740E+03  0.12508851034E+03 0.  0.
          5    1    3    3  502    0  0.31239099989E+02  0.35878965680E+02 -0.94080455845E+02  0.10550727993E+03  0.41800000000E+01 0. -1.
         -5    1    3    3    0  502 -0.23387585995E+02 -0.64058574803E+02 -0.35848416836E+03  0.36493677746E+03  0.41800000000E+01 0. -1.
        -11    1    1    2    0    0 -0.40610571177E+01  0.58170303499E+02 -0.90282359994E+02  0.10747642030E+03  0.00000000000E+00 0.  1.
         11    1    1    2    0    0 -0.37904568759E+01 -0.29990694376E+02 -0.11803607859E+03  0.12184549709E+03  0.00000000000E+00 0. -1.
</event>
<event>
 7    1  0.2334784E-009  0.1077746E+03  0.7561462E-02  0.1264747E+00
         -3   -1    0    0    0  501 -0.00000000000E+00  0.00000000000E+00  0.15412913792E+04  0.15412913792E+04  0.00000000000E+00 0.  1.
          3   -1    0    0  501    0  0.00000000000E+00 -0.00000000000E+00 -0.98931264986E+01  0.98931264986E+01  0.00000000000E+00 0. -1.
         25    2    1    2    0    0 -0.19859911581E+02  0.19473925374E+01  0.12197378818E+04  0.12262972139E+04  0.12508456323E+03 0.  0.
          5    1    3    3  502    0 -0.71981456394E+02  0.10329008711E+02  0.77583644300E+03  0.77924814865E+03  0.41800000000E+01 0. -1.
         -5    1    3    3    0  502  0.52121544812E+02 -0.83816161731E+01  0.44390143885E+03  0.44704906525E+03  0.41800000000E+01 0. -1.
        -11    1    1    2    0    0  0.36764261093E+02 -0.36176319314E+02  0.14469124982E+03  0.15360955292E+03  0.00000000000E+00 0. -1.
         11    1    1    2    0    0 -0.16904349512E+02  0.34228926776E+02  0.16696912102E+03  0.17127773888E+03  0.00000000000E+00 0.  1.
</event>
<event>
 7    1  0.2334784E-009  0.1015113E+03  0.7561462E-02  0.1277150E+00
          3   -1    0    0  501    0  0.00000000000E+00  0.00000000000E+00  0.21680283400E+03  0.21680283400E+03  0.00000000000E+00 0. -1.
         -3   -1    0    0    0  501 -0.00000000000E+00 -0.00000000000E+00 -0.65563640195E+02  0.65563640195E+02  0.00000000000E+00 0.  1.
         25    2    1    2    0    0  0.13450545036E+02  0.44642877260E+02  0.10039843433E+03  0.16704243798E+03  0.12509766912E+03 0.  0.
          5    1    3    3  502    0 -0.42482239953E+02  0.59790182264E+02  0.41796788584E+02  0.84522485426E+02  0.41800000000E+01 0. -1.
         -5    1    3    3    0  502  0.55932784989E+02 -0.15147305004E+02  0.58601645750E+02  0.82519952558E+02  0.41800000000E+01 0. -1.
        -11    1    1    2    0    0  0.21132274926E+02 -0.15051985327E+02 -0.18862266453E+02  0.32076789140E+02  0.00000000000E+00 0.  1.
         11    1    1    2    0    0 -0.34582819961E+02 -0.29590891933E+02  0.69703025925E+02  0.83247247071E+02  0.00000000000E+00 0. -1.
</event>
<event>
 7    1  0.2334784E-009  0.9398275E+02  0.7561462E-02  0.1293484E+00
          2   -1    0    0  501    0  0.00000000000E+00  0.00000000000E+00  0.37962326333E+03  0.37962326333E+03  0.00000000000E+00 0. -1.
         -2   -1    0    0    0  501 -0.00000000000E+00 -0.00000000000E+00 -0.29397159604E+02  0.29397159604E+02  0.00000000000E+00 0.  1.
         25    2    1    2    0    0  0.20697325897E+02  0.16074077337E+02  0.19135005064E+03  0.23010585483E+03  0.12508839789E+03 0.  0.
          5    1    3    3  502    0  0.65195479024E+02  0.22853615801E+01  0.16248974476E+03  0.17514583327E+03  0.41800000000E+01 0.  1.
         -5    1    3    3    0  502 -0.44498153127E+02  0.13788715757E+02  0.28860305883E+02  0.54960021558E+02  0.41800000000E+01 0.  1.
        -11    1    1    2    0    0  0.26326398161E+02 -0.10981017782E+02  0.28928063663E+02  0.40626282859E+02  0.00000000000E+00 0.  1.
         11    1    1    2    0    0 -0.47023724057E+02 -0.50930595555E+01  0.12994798942E+03  0.13828828524E+03  0.00000000000E+00 0. -1.
</event>
<event>
 7    1  0.2334784E-009  0.1186671E+03  0.7561462E-02  0.1245312E+00
         -1   -1    0    0    0  501 -0.00000000000E+00  0.00000000000E+00  0.28076898662E+02  0.28076898662E+02  0.00000000000E+00 0.  1.
          1   -1    0    0  501    0  0.00000000000E+00 -0.00000000000E+00 -0.68575292829E+03  0.68575292829E+03  0.00000000000E+00 0. -1.
         25    2    1    2    0    0 -0.64768897519E+02 -0.51442717087E+02 -0.41958786764E+03  0.44558132683E+03  0.12508947565E+03 0.  0.
          5    1    3    3  502    0 -0.56073899080E+02  0.89915852017E+01 -0.67940756690E+02  0.88648460686E+02  0.41800000000E+01 0. -1.
         -5    1    3    3    0  502 -0.86949984388E+01 -0.60434302288E+02 -0.35164711095E+03  0.35693286614E+03  0.41800000000E+01 0. -1.
        -11    1    1    2    0    0  0.59733704884E+02 -0.73487422511E+01 -0.84722373473E+02  0.10392304883E+03  0.00000000000E+00 0. -1.
         11    1    1    2    0    0  0.50351926348E+01  0.58791459338E+02 -0.15336578851E+03  0.16432545129E+03  0.00000000000E+00 0.  1.
</event>
<event>
 7    1  0.2334784E-009  0.9912996E+02  0.7561462E-02  0.1282136E+00
         -1   -1    0    0    0  501 -0.00000000000E+00  0.00000000000E+00  0.58753449818E+02  0.58753449818E+02  0.00000000000E+00 0.  1.
          1   -1    0    0  501    0  0.00000000000E+00 -0.00000000000E+00 -0.21573384059E+03  0.21573384059E+03  0.00000000000E+00 0. -1.
         25    2    1    2    0    0 -0.14686029672E+02  0.29264837718E+02 -0.93834715144E+02  0.15976612841E+03  0.12509257302E+03 0.  0.
          5    1    3    3  502    0 -0.35467934770E+02 -0.29496352435E+02  0.85501610095E+00  0.46327234499E+02  0.41800000000E+01 0. -1.
         -5    1    3    3    0  502  0.20781905098E+02  0.58761190153E+02 -0.94689731245E+02  0.11343889391E+03  0.41800000000E+01 0. -1.
        -11    1    1    2    0    0 -0.31083239009E+02  0.60455236382E+01 -0.43215102364E+02  0.53574818485E+02  0.00000000000E+00 0.  1.
         11    1    1    2    0    0  0.45769268681E+02 -0.35310361356E+02 -0.19930573261E+02  0.61146343514E+02  0.00000000000E+00 0. -1.
</event>
<event>
 7    1  0.2334784E-009  0.8094836E+02  0.7561462E-02  0.1326381E+00
          1   -1    0    0  501    0  0.00000000000E+00  0.00000000000E+00  0.19984742458E+03  0.19984742458E+03  0.00000000000E+00 0. -1.
         -1   -1    0    0    0  501 -0.00000000000E+00 -0.00000000000E+00 -0.66702729290E+02  0.66702729290E+02  0.00000000000E+00 0.  1.
         25    2    1    2    0    0  0.31344330634E+01  0.98648282710E+00  0.31313607683E+02  0.12899496482E+03  0.12509340951E+03 0.  0.
          5    1    3    3  502    0  0.37958300100E+02 -0.10977703150E+02  0.66775416741E+02  0.77703096423E+02  0.41800000000E+01 0.  1.
         -5    1    3    3    0  502 -0.34823867036E+02  0.11964185977E+02 -0.35461809058E+02  0.51291868392E+02  0.41800000000E+01 0.  1.
        -11    1    1    2    0    0 -0.20173853118E+02  0.37740651045E+02  0.24251435092E+02  0.49188140796E+02  0.00000000000E+00 0. -1.
         11    1    1    2    0    0  0.17039420054E+02 -0.38727133872E+02  0.77579652519E+02  0.88367048263E+02  0.00000000000E+00 0.  1.
</event>
<event>
 7    1  0.2334784E-009  0.1503868E+03  0.7561462E-02  0.1199999E+00
          2   -1    0    0  501    0  0.00000000000E+00  0.00000000000E+00  0.81211585294E+02  0.81211585294E+02  0.00000000000E+00 0. -1.
         -2   -1    0    0    0  501 -0.00000000000E+00 -0.00000000000E+00 -0.29123084475E+03  0.29123084475E+03  0.00000000000E+00 0.  1.
         25    2    1    2    0    0  0.82332101149E+02  0.66438551144E+02 -0.14314967549E+03  0.21755481118E+03  0.12508241409E+03 0.  0.
          5    1    3    3  502    0  0.47283464532E+02  0.10274641647E+03 -0.98101034395E+02  0.14977929585E+03  0.41800000000E+01 0.  1.
         -5    1    3    3    0  502  0.35048636617E+02 -0.36307865326E+02 -0.45048641098E+02  0.67775515328E+02  0.41800000000E+01 0.  1.
        -11    1    1    2    0    0  0.15152310863E+02  0.51548702310E+01  0.12859987194E+01  0.16056743266E+02  0.00000000000E+00 0.  1.
         11    1    1    2    0    0 -0.97484412012E+02 -0.71593421375E+02 -0.68155582686E+02  0.13883087560E+03  0.00000000000E+00 0. -1.
</event>
<event>
 7    1  0.2334784E-009  0.1604913E+03  0.7561462E-02  0.1188143E+00
         -1   -1    0    0    0  501 -0.00000000000E+00  0.00000000000E+00  0.85288950381E+02  0.85288950381E+02  0.00000000000E+00 0.  1.
          1   -1    0    0  501    0  0.00000000000E+00 -0.00000000000E+00 -0.40166775290E+03  0.40166775290E+03  0.00000000000E+00 0. -1.
         25    2    1    2    0    0 -0.14971066636E+03 -0.14976508831E+02 -0.18829693034E+03  0.27155273761E+03  0.12509027097E+03 0.  0.
          5    1    3    3  502    0 -0.89221032342E+02 -0.12491746415E+02 -0.19056122438E+03  0.21082573130E+03  0.41800000000E+01 0. -1.
         -5    1    3    3    0  502 -0.60489634021E+02 -0.24847624161E+01  0.22642940413E+01  0.60727006313E+02  0.41800000000E+01 0. -1.
        -11    1    1    2    0    0  0.63172543937E+02 -0.32883511945E+02 -0.34035268318E+02  0.78933485637E+02  0.00000000000E+00 0. -1.
         11    1    1    2    0    0  0.86538122425E+02  0.47860020776E+02 -0.94046603859E+02  0.13647048003E+03  0.00000000000E+00 0.  1.
</event>
<event>
 7    1  0.2334784E-009  0.1283281E+03  0.7561462E-02  0.1229958E+00
          4   -1    0    0  501    0  0.00000000000E+00  0.00000000000E+00  0.20659593422E+03  0.20659593422E+03  0.00000000000E+00 0. -1.
         -4   -1    0    0    0  501 -0.00000000000E+00 -0.00000000000E+00 -0.15440805391E+03  0.15440805391E+03  0.00000000000E+00 0.  1.
         25    2    1    2    0    0  0.95619293135E+02  0.46254585204E+02 -0.67043006220E+02  0.17727274461E+03  0.12509326690E+03 0.  0.
          5    1    3    3  502    0  0.33672840009E+02  0.47765682773E+02  0.27048176853E+02  0.64532913123E+02  0.41800000000E+01 0. -1.
         -5    1    3    3    0  502  0.61946453126E+02 -0.15110975696E+01 -0.94091183072E+02  0.11273983148E+03  0.41800000000E+01 0. -1.
        -11    1    1    2    0    0 -0.11168378684E+03 -0.42207481560E+02  0.11673391034E+03  0.16697767984E+03  0.00000000000E+00 0. -1.
         11    1    1    2    0    0  0.16064493705E+02 -0.40471036437E+01  0.24969761954E+01  0.16753563681E+02  0.00000000000E+00 0.  1.
</event>
<event>
 7    1  0.2334784E-009  0.1109661E+03  0.7561462E-02  0.1258791E+00
         -1   -1    0    0    0  501 -0.00000000000E+00  0.00000000000E+00  0.12619256350E+03  0.12619256350E+03  0.00000000000E+00 0.  1.
          1   -1    0    0  501    0  0.00000000000E+00 -0.00000000000E+00 -0.17579721888E+03  0.17579721888E+03  0.00000000000E+00 0. -1.
         25    2    1    2    0    0  0.65668775850E+02  0.20565681916E+02 -0.10189224341E+03  0.17540038299E+03  0.12509168515E+03 0.  0.
          5    1    3    3  502    0 -0.25635084229E+02  0.40728446664E+02 -0.25729039946E+02  0.54730428535E+02  0.41800000000E+01 0.  1.
         -5    1    3    3    0  502  0.91303860079E+02 -0.20162764748E+02 -0.76163203462E+02  0.12066995446E+03  0.41800000000E+01 0.  1.
        -11    1    1    2    0    0 -0.36739388791E+02  0.98663760315E+01 -0.20010399608E+02  0.42983068262E+02  0.00000000000E+00 0. -1.
         11    1    1    2    0    0 -0.28929387058E+02 -0.30432057947E+02  0.72297987645E+02  0.83606331124E+02  0.00000000000E+00 0.  1.
</event>
<event>
 7    1  0.2334784E-009  0.1896125E+03  0.7561462E-02  0.1158811E+00
          2   -1    0    0  501    0  0.00000000000E+00  0.00000000000E+00  0.30402504779E+04  0.30402504779E+04  0.00000000000E+00 0. -1.
         -2   -1    0    0    0  501 -0.00000000000E+00 -0.00000000000E+00 -0.22189675252E+02  0.22189675252E+02  0.00000000000E+00 0.  1.
         25    2    1    2    0    0 -0.14879035280E+03 -0.52238845718E+02  0.25811663368E+04  0.25890026398E+04  0.12509014531E+03 0.  0.
          5    1    3    3  502    0 -0.21383704415E+02  0.35899752565E+02  0.36114179904E+03  0.36357520056E+03  0.41800000000E+01 0. -1.
         -5    1    3    3    0  502 -0.12740664838E+03 -0.88138598283E+02  0.22200245377E+04  0.22254274392E+04  0.41800000000E+01 0. -1.
        -11    1    1    2    0    0  0.92817468485E+02 -0.15795639304E+02  0.23490303535E+03  0.25306920140E+03  0.00000000000E+00 0.  1.
         11    1    1    2    0    0  0.55972884316E+02  0.68034485022E+02  0.20199143048E+03  0.22036831196E+03  0.00000000000E+00 0. -1.
</event>
<event>
 7    1  0.2334784E-009  0.1416860E+03  0.7561462E-02  0.1211078E+00
         -1   -1    0    0    0  501 -0.00000000000E+00  0.00000000000E+00  0.28691068798E+03  0.28691068798E+03  0.00000000000E+00 0.  1.
          1   -1    0    0  501    0  0.00000000000E+00 -0.00000000000E+00 -0.85369842553E+02  0.85369842553E+02  0.00000000000E+00 0. -1.
         25    2    1    2    0    0 -0.10560169840E+03  0.20933931345E+02  0.14793763918E+03  0.22163846942E+03  0.12509243724E+03 0.  0.
          5    1    3    3  502    0 -0.61380317531E+02  0.58428216772E+02  0.13896930737E+03  0.16282303487E+03  0.41800000000E+01 0. -1.
         -5    1    3    3    0  502 -0.44221380874E+02 -0.37494285427E+02  0.89683318124E+01  0.58815434552E+02  0.41800000000E+01 0. -1.
        -11    1    1    2    0    0  0.39718257479E+02  0.35786617885E+02  0.15044234190E+02  0.55538734044E+02  0.00000000000E+00 0.  1.
         11    1    1    2    0    0  0.65883440926E+02 -0.56720549230E+02  0.38558972063E+02  0.95103327070E+02  0.00000000000E+00 0. -1.
</event>
<event>
 7    1  0.2334784E-009  0.7480534E+02  0.7561462E-02  0.1344475E+00
         -2   -1    0    0    0  501 -0.00000000000E+00  0.00000000000E+00  0.12675817047E+03  0.12675817047E+03  0.00000000000E+00 0. -1.
          2   -1    0    0  501    0  0.00000000000E+00 -0.00000000000E+00 -0.10705456984E+03  0.10705456984E+03  0.00000000000E+00 0.  1.
         25    2    1    2    0    0 -0.21803436364E+02  0.10928583419E+02 -0.24959013538E+02  0.12986681784E+03  0.12509042428E+03 0.  0.
          5    1    3    3  502    0 -0.21072064487E+02  0.30225569155E+02 -0.70814324179E+02  0.79935960877E+02  0.41800000000E+01 0. -1.
         -5    1    3    3    0  502 -0.73137187679E+00 -0.19296985736E+02  0.45855310640E+02  0.49930856965E+02  0.41800000000E+01 0. -1.
        -11    1    1    2    0    0  0.22105725029E+02 -0.49492727483E+02  0.18217535236E+02  0.57184541117E+02  0.00000000000E+00 0. -1.
         11    1    1    2    0    0 -0.30228866546E+00  0.38564144064E+02  0.26445078935E+02  0.46761381349E+02  0.00000000000E+00 0.  1.
</event>
<event>
 7    1  0.2334784E-009  0.9264065E+02  0.7561462E-02  0.1296580E+00
          1   -1    0    0  501    0  0.00000000000E+00  0.00000000000E+00  0.14657691038E+03  0.14657691038E+03  0.00000000000E+00 0. -1.
         -1   -1    0    0    0  501 -0.00000000000E+00 -0.00000000000E+00 -0.91250374755E+02  0.91250374755E+02  0.00000000000E+00 0.  1.
         25    2    1    2    0    0  0.11166786128E+01  0.34030700123E+01  0.80405841080E+02  0.14874527772E+03  0.12508889042E+03 0.  0.
          5    1    3    3  502    0  0.57590855123E+01 -0.53877410411E+02  0.60561784329E+01  0.54681734754E+02  0.41800000000E+01 0.  1.
         -5    1    3    3    0  502 -0.46424068995E+01  0.57280480423E+02  0.74349662647E+02  0.94063542965E+02  0.41800000000E+01 0.  1.
        -11    1    1    2    0    0  0.32250267738E+02 -0.17957518290E+02 -0.35503585189E+02  0.51215786566E+02  0.00000000000E+00 0.  1.
         11    1    1    2    0    0 -0.33366946351E+02  0.14554448277E+02  0.10424279733E+02  0.37866220849E+02  0.00000000000E+00 0. -1.
</event>
<event>
 7    1  0.2334784E-009  0.1193405E+03  0.7561462E-02  0.1244189E+00
         -2   -1    0    0    0  501 -0.00000000000E+00  0.00000000000E+00  0.38856555106E+02  0.38856555106E+02  0.00000000000E+00 0. -1.
          2   -1    0    0  501    0  0.00000000000E+00 -0.00000000000E+00 -0.39303667616E+03  0.39303667616E+03  0.00000000000E+00 0.  1.
         25    2    1    2    0    0 -0.30767270142E+02  0.50929956083E+02 -0.21537273783E+03  0.25606785562E+03  0.12507935538E+03 0.  0.
          5    1    3    3  502    0 -0.72066684457E+02  0.53709143172E+02 -0.18088901752E+03  0.20203115633E+03  0.41800000000E+01 0.  1.
         -5    1    3    3    0  502  0.41299414315E+02 -0.27791870893E+01 -0.34483720309E+02  0.54036699288E+02  0.41800000000E+01 0.  1.
        -11    1    1    2    0    0  0.23234472305E+02  0.23056138383E+02 -0.52813007361E+02  0.62134048371E+02  0.00000000000E+00 0.  1.
         11    1    1    2    0    0  0.75327978374E+01 -0.73986094466E+02 -0.85994375860E+02  0.11369132727E+03  0.00000000000E+00 0. -1.
</event>
<event>
 7    1  0.3901644E-009  0.9470956E+02  0.7561462E-02  0.1291832E+00
          2   -1    0    0  501    0  0.00000000000E+00  0.00000000000E+00  0.63017265336E+03  0.63017265336E+03  0.00000000000E+00 0. -1.
         -2   -1    0    0    0  501 -0.00000000000E+00 -0.00000000000E+00 -0.20834812154E+02  0.20834812154E+02  0.00000000000E+00 0.  1.
         25    2    1    2    0    0  0.27981324062E+02 -0.96477190684E+01  0.41637205023E+03  0.43576247765E+03  0.12508884735E+03 0.  0.
          5    1    3    3  502    0 -0.44349994559E+02 -0.68129613146E+01  0.25357934583E+03  0.25755251016E+03  0.41800000000E+01 0.  1.
         -5    1    3    3    0  502  0.72331318621E+02 -0.28347577537E+01  0.16279270440E+03  0.17820996749E+03  0.41800000000E+01 0.  1.
        -11    1    1    2    0    0 -0.33160673975E+02 -0.21989339807E+02  0.17291266153E+03  0.17743153576E+03  0.00000000000E+00 0. -1.
         11    1    1    2    0    0  0.51793499125E+01  0.31637058876E+02  0.20053129444E+02  0.37813452108E+02  0.00000000000E+00 0.  1.
</event>
<event>
 7    1  0.2334784E-009  0.2285665E+03  0.7561462E-02  0.1127653E+00
         -2   -1    0    0    0  501 -0.00000000000E+00  0.00000000000E+00  0.11839239735E+04  0.11839239735E+04  0.00000000000E+00 0.  1.
          2   -1    0    0  501    0  0.00000000000E+00 -0.00000000000E+00 -0.48551242122E+02  0.48551242122E+02  0.00000000000E+00 0. -1.
         25    2    1    2    0    0  0.15647266655E+03  0.13472879656E+03  0.45480406739E+03  0.51490574879E+03  0.12508255843E+03 0.  0.
          5    1    3    3  502    0  0.14727223035E+03  0.51000060835E+02  0.27031860913E+03  0.31205726859E+03  0.41800000000E+01 0.  1.
         -5    1    3    3    0  502  0.92004362083E+01  0.83728735723E+02  0.18448545826E+03  0.20284848020E+03  0.41800000000E+01 0.  1.
        -11    1    1    2    0    0 -0.45253585913E+02 -0.82321089307E+02  0.19173075529E+03  0.21350721605E+03  0.00000000000E+00 0. -1.
         11    1    1    2    0    0 -0.11121908064E+03 -0.52407707251E+02  0.48883790871E+03  0.50406225079E+03  0.00000000000E+00 0.  1.
</event>
<event>
 7    1  0.2334784E-009  0.8766073E+02  0.7561462E-02  0.1308618E+00
          2   -1    0    0  501    0  0.00000000000E+00  0.00000000000E+00  0.47306582224E+03  0.47306582224E+03  0.00000000000E+00 0. -1.
         -2   -1    0    0    0  501 -0.00000000000E+00 -0.00000000000E+00 -0.29127991206E+02  0.29127991206E+02  0.00000000000E+00 0.  1.
         25    2    1    2    0    0 -0.69687659147E+01 -0.13673237394E+02  0.33856685369E+03  0.36124513350E+03  0.12504003736E+03 0.  0.
          5    1    3    3  502    0  0.89171000780E+01  0.39297195782E+02  0.27016403939E+03  0.27318467170E+03  0.41800000000E+01 0. -1.
         -5    1    3    3    0  502 -0.15885865993E+02 -0.52970433176E+02  0.68402814296E+02  0.88060461802E+02  0.41800000000E+01 0. -1.
        -11    1    1    2    0    0  0.28641820874E+02  0.37469945801E+02  0.96740456804E+02  0.10762465667E+03  0.00000000000E+00 0.  1.
         11    1    1    2    0    0 -0.21673054959E+02 -0.23796708407E+02  0.86305205412E+01  0.33324023272E+02  0.00000000000E+00 0. -1.
</event>
<event>
 7    1  0.2334784E-009  0.1055763E+03  0.7561462E-02  0.1268988E+00
          1   -1    0    0  501    0  0.00000000000E+00  0.00000000000E+00  0.66220184830E+03  0.66220184830E+03  0.00000000000E+00 0. -1.
         -1   -1    0    0    0  501 -0.00000000000E+00 -0.00000000000E+00 -0.31008482228E+02  0.31008482228E+02  0.00000000000E+00 0.  1.
         25    2    1    2    0    0  0.69754324938E+02  0.51681310127E+02  0.43387718390E+03  0.45981848017E+03  0.12508797039E+03 0.  0.
          5    1    3    3  502    0 -0.17980878119E+02  0.78762424910E+01  0.25494522680E+03  0.25573401855E+03  0.41800000000E+01 0.  1.
         -5    1    3    3    0  502  0.87735203056E+02  0.43805067636E+02  0.17893195710E+03  0.20408446162E+03  0.41800000000E+01 0.  1.
        -11    1    1    2    0    0 -0.62405648974E+02 -0.28487852992E+02  0.19748586762E+03  0.20906145197E+03  0.00000000000E+00 0. -1.
         11    1    1    2    0    0 -0.73486759638E+01 -0.23193457135E+02 -0.16968544549E+00  0.24330398383E+02  0.00000000000E+00 0.  1.
</event>
<event>
 7    1  0.2334784E-009  0.1617744E+03  0.7561462E-02  0.1186708E+00
          2   -1    0    0  501    0  0.00000000000E+00  0.00000000000E+00  0.19753697181E+03  0.19753697181E+03  0.00000000000E+00 0. -1.
         -2   -1    0    0    0  501 -0.00000000000E+00 -0.00000000000E+00 -0.15396665808E+03  0.15396665808E+03  0.00000000000E+00 0.  1.
         25    2    1    2    0    0 -0.13319806933E+03  0.96112794394E+01 -0.47559453007E+01  0.18304104274E+03  0.12508917597E+03 0.  0.
          5    1    3    3  502    0 -0.60118571509E+02 -0.50076915075E+02 -0.32157612091E+02  0.84696661559E+02  0.41800000000E+01 0.  1.
         -5    1    3    3    0  502 -0.73079497821E+02  0.59688194515E+02  0.27401666790E+02  0.98344381177E+02  0.41800000000E+01 0.  1.
        -11    1    1    2    0    0  0.33614816102E+02 -0.34426623540E+02  0.44846473828E+02  0.65775029341E+02  0.00000000000E+00 0. -1.
         11    1    1    2    0    0  0.99583253228E+02  0.24815344100E+02  0.34797852014E+01  0.10268755782E+03  0.00000000000E+00 0.  1.
</event>
<event>
 7    1  0.2334784E-009  0.1038323E+03  0.7561462E-02  0.1272437E+00
         -1   -1    0    0    0  501 -0.00000000000E+00  0.00000000000E+00  0.24264122132E+02  0.24264122132E+02  0.00000000000E+00 0. -1.
          1   -1    0    0  501    0  0.00000000000E+00 -0.00000000000E+00 -0.58082887496E+03  0.58082887496E+03  0.00000000000E+00 0.  1.
         25    2    1    2    0    0  0.51313363517E+02  0.97232830398E+00 -0.24106250740E+03  0.27639020267E+03  0.12508559053E+03 0.  0.
          5    1    3    3  502    0  0.70743969489E+02 -0.31894075010E+02 -0.82897253215E+02  0.11362820174E+03  0.41800000000E+01 0. -1.
         -5    1    3    3    0  502 -0.19430605972E+02  0.32866403314E+02 -0.15816525418E+03  0.16276200093E+03  0.41800000000E+01 0. -1.
        -11    1    1    2    0    0 -0.56981052209E+02  0.26962586501E+02 -0.23478741141E+03  0.24310275593E+03  0.00000000000E+00 0.  1.
         11    1    1    2    0    0  0.56676886913E+01 -0.27934914805E+02 -0.80714834023E+02  0.85600038502E+02  0.00000000000E+00 0. -1.
</event>
<event>
 7    1  0.2334784E-009  0.9383951E+02  0.7561462E-02  0.1293811E+00
          1   -1    0    0  501    0  0.00000000000E+00  0.00000000000E+00  0.81973322162E+02  0.81973322162E+02  0.00000000000E+00 0.  1.
         -1   -1    0    0    0  501 -0.00000000000E+00 -0.00000000000E+00 -0.15532401757E+03  0.15532401757E+03  0.00000000000E+00 0. -1.
         25    2    1    2    0    0  0.25536482226E+02  0.12390178146E+02 -0.52567943098E+02  0.13862379926E+03  0.12509013006E+03 0.  0.
          5    1    3    3  502    0  0.66049645266E+02  0.32357743683E+02 -0.64710339096E+01  0.73952186552E+02  0.41800000000E+01 0.  1.
         -5    1    3    3    0  502 -0.40513163040E+02 -0.19967565537E+02 -0.46096909189E+02  0.64671612704E+02  0.41800000000E+01 0.  1.
        -11    1    1    2    0    0 -0.45851857520E+02 -0.21540359945E+01  0.21478273435E+02  0.50678880600E+02  0.00000000000E+00 0.  1.
         11    1    1    2    0    0  0.20315375295E+02 -0.10236142152E+02 -0.42261025742E+02  0.47994659873E+02  0.00000000000E+00 0. -1.
</event>
<event>
 7    1  0.2334784E-009  0.1532609E+03  0.7561462E-02  0.1196522E+00
         -2   -1    0    0    0  501 -0.00000000000E+00  0.00000000000E+00  0.77754258706E+02  0.77754258706E+02  0.00000000000E+00 0.  1.
          2   -1    0    0  501    0  0.00000000000E+00 -0.00000000000E+00 -0.42270990762E+03  0.42270990762E+03  0.00000000000E+00 0. -1.
         25    2    1    2    0    0 -0.12683080616E+03 -0.53891956155E+02 -0.24435392871E+03  0.30716003298E+03  0.12509215426E+03 0.  0.
          5    1    3    3  502    0 -0.11686099486E+02 -0.29127098126E+02 -0.15778419584E+03  0.16092941814E+03  0.41800000000E+01 0.  1.
         -5    1    3    3    0  502 -0.11514470667E+03 -0.24764858029E+02 -0.86569732871E+02  0.14623061484E+03  0.41800000000E+01 0.  1.
        -11    1    1    2    0    0  0.13395774613E+03  0.37458582256E+02 -0.65179484052E+02  0.15361050835E+03  0.00000000000E+00 0.  1.
         11    1    1    2    0    0 -0.71269399737E+01  0.16433373899E+02 -0.35422236157E+02  0.39693624998E+02  0.00000000000E+00 0. -1.
</event>
<event>
 7    1  0.2334784E-009  0.1109877E+03  0.7561462E-02  0.1258752E+00
          1   -1    0    0  501    0  0.00000000000E+00  0.00000000000E+00  0.44438452320E+02  0.44438452320E+02  0.00000000000E+00 0. -1.
         -1   -1    0    0    0  501 -0.00000000000E+00 -0.00000000000E+00 -0.44632628646E+03  0.44632628646E+03  0.00000000000E+00 0.  1.
         25    2    1    2    0    0  0.69571607458E+02  0.19018458755E+02 -0.12133832197E+03  0.18859784489E+03  0.12507696983E+03 0.  0.
          5    1    3    3  502    0 -0.10052269448E+02  0.49613104277E+02 -0.77340961728E+02  0.92528941408E+02  0.41800000000E+01 0. -1.
         -5    1    3    3    0  502  0.79623876907E+02 -0.30594645522E+02 -0.43997360244E+02  0.96068903484E+02  0.41800000000E+01 0. -1.
        -11    1    1    2    0    0 -0.20614840533E+02  0.15572927646E+02 -0.14871413622E+02  0.29810177269E+02  0.00000000000E+00 0. -1.
         11    1    1    2    0    0 -0.48956766926E+02 -0.34591386401E+02 -0.26567809855E+03  0.27235671662E+03  0.00000000000E+00 0.  1.
</event>
<event>
 7    1  0.2334784E-009  0.1015431E+03  0.7561462E-02  0.1277084E+00
          2   -1    0    0  501    0  0.00000000000E+00  0.00000000000E+00  0.34042671982E+02  0.34042671982E+02  0.00000000000E+00 0. -1.
         -2   -1    0    0    0  501 -0.00000000000E+00 -0.00000000000E+00 -0.47755893850E+03  0.47755893850E+03  0.00000000000E+00 0.  1.
         25    2    1    2    0    0  0.49792921461E+02  0.41764467533E+02 -0.22286963269E+03  0.26370842056E+03  0.12509057568E+03 0.  0.
          5    1    3    3  502    0  0.61421541438E+02  0.53110289126E+02 -0.23112658238E+03  0.24501077128E+03  0.41800000000E+01 0.  1.
         -5    1    3    3    0  502 -0.11628619977E+02 -0.11345821593E+02  0.82569496903E+01  0.18697649274E+02  0.41800000000E+01 0.  1.
        -11    1    1    2    0    0  0.21005848280E+02  0.30314909481E+01 -0.91666170187E+02  0.94091032283E+02  0.00000000000E+00 0.  1.
         11    1    1    2    0    0 -0.70798769742E+02 -0.44795958481E+02 -0.12898046365E+03  0.15380215765E+03  0.00000000000E+00 0. -1.
</event>
<event>
 7    1  0.2334784E-009  0.1313886E+03  0.7561462E-02  0.1225410E+00
         -1   -1    0    0    0  501 -0.00000000000E+00  0.00000000000E+00  0.83424384685E+02  0.83424384685E+02  0.00000000000E+00 0. -1.
          1   -1    0    0  501    0  0.00000000000E+00 -0.00000000000E+00 -0.26381303464E+03  0.26381303464E+03  0.00000000000E+00 0.  1.
         25    2    1    2    0    0  0.50758890810E+01 -0.10026253346E+03 -0.99385310503E+02  0.18868903426E+03  0.12509105261E+03 0.  0.
          5    1    3    3  502    0 -0.53317190761E+02 -0.80103548149E+02 -0.45129570983E+02  0.10636471141E+03  0.41800000000E+01 0. -1.
         -5    1    3    3    0  502  0.58393079842E+02 -0.20158985313E+02 -0.54255739520E+02  0.82324322853E+02  0.41800000000E+01 0. -1.
        -11    1    1    2    0    0 -0.14465752234E+02  0.26535003174E+02  0.17675474970E+02  0.35011238146E+02  0.00000000000E+00 0. -1.
         11    1    1    2    0    0  0.93898631528E+01  0.73727530287E+02 -0.98678814424E+02  0.12353714692E+03  0.00000000000E+00 0.  1.
</event>
<event>
 7    1  0.2334784E-009  0.1115820E+03  0.7561462E-02  0.1257668E+00
          2   -1    0    0  501    0  0.00000000000E+00  0.00000000000E+00  0.59159762678E+03  0.59159762678E+03  0.00000000000E+00 0. -1.
         -2   -1    0    0    0  501 -0.00000000000E+00 -0.00000000000E+00 -0.24300363591E+02  0.24300363591E+02  0.00000000000E+00 0.  1.
         25    2    1    2    0    0  0.69543560586E+02  0.20251835547E+02  0.46179204607E+03  0.48388720442E+03  0.12509392123E+03 0.  0.
          5    1    3    3  502    0  0.94706091457E+02 -0.20004063412E+02  0.30710808311E+03  0.32202834258E+03  0.41800000000E+01 0.  1.
         -5    1    3    3    0  502 -0.25162530871E+02  0.40255898959E+02  0.15468396296E+03  0.16185886185E+03  0.41800000000E+01 0.  1.
        -11    1    1    2    0    0 -0.29224876811E+02  0.68800329717E+01  0.31874691445E+02  0.43788402951E+02  0.00000000000E+00 0.  1.
         11    1    1    2    0    0 -0.40318683775E+02 -0.27131868519E+02  0.73630525677E+02  0.88222382999E+02  0.00000000000E+00 0. -1.
</event>
<event>
 7    1  0.2334784E-009  0.1253908E+03  0.7561462E-02  0.1234460E+00
          1   -1    0    0  501    0  0.00000000000E+00  0.00000000000E+00  0.33863366131E+03  0.33863366131E+03  0.00000000000E+00 0. -1.
         -1   -1    0    0    0  501 -0.00000000000E+00 -0.00000000000E+00 -0.54688632895E+02  0.54688632895E+02  0.00000000000E+00 0.  1.
         25    2    1    2    0    0 -0.53740614153E+02  0.59068782677E+02  0.14013454878E+03  0.20411474979E+03  0.12509182476E+03 0.  0.
          5    1    3    3  502    0 -0.77426465420E+02  0.99777801632E+01  0.12492699485E+03  0.14737245362E+03  0.41800000000E+01 0. -1.
         -5    1    3    3    0  502  0.23685851267E+02  0.49091002514E+02  0.15207553936E+02  0.56742296171E+02  0.41800000000E+01 0. -1.
        -11    1    1    2    0    0  0.25516279619E+02 -0.79238844580E+02  0.12372036254E+03  0.14911942570E+03  0.00000000000E+00 0. -1.
         11    1    1    2    0    0  0.28224334534E+02  0.20170061903E+02  0.20090117097E+02  0.40088118713E+02  0.00000000000E+00 0.  1.
</event>
<event>
 7    1  0.2334784E-009  0.1309465E+03  0.7561462E-02  0.1226058E+00
         -2   -1    0    0    0  501 -0.00000000000E+00  0.00000000000E+00  0.51643242744E+02  0.51643242744E+02  0.00000000000E+00 0. -1.
          2   -1    0    0  501    0  0.00000000000E+00 -0.00000000000E+00 -0.53464380805E+03  0.53464380805E+03  0.00000000000E+00 0.  1.
         25    2    1    2    0    0  0.91129233399E+02  0.37098741837E+02 -0.39226386969E+03  0.42331873784E+03  0.12508779522E+03 0.  0.
          5    1    3    3  502    0  0.28609840911E+02 -0.25085437104E+02 -0.26896713889E+03  0.27167737550E+03  0.41800000000E+01 0.  1.
         -5    1    3    3    0  502  0.62519392488E+02  0.62184178940E+02 -0.12329673080E+03  0.15164136234E+03  0.41800000000E+01 0.  1.
        -11    1    1    2    0    0  0.69503599214E+01  0.20464122785E+02 -0.13132480134E+02  0.25289323021E+02  0.00000000000E+00 0.  1.
         11    1    1    2    0    0 -0.98079593320E+02 -0.57562864622E+02 -0.77604215483E+02  0.13767898994E+03  0.00000000000E+00 0. -1.
</event>
<event>
 7    1  0.2334784E-009  0.1002659E+03  0.7561462E-02  0.1279738E+00
          1   -1    0    0  501    0  0.00000000000E+00  0.00000000000E+00  0.29260863043E+03  0.29260863043E+03  0.00000000000E+00 0. -1.
         -1   -1    0    0    0  501 -0.00000000000E+00 -0.00000000000E+00 -0.62488272289E+02  0.62488272289E+02  0.00000000000E+00 0.  1.
         25    2    1    2    0    0 -0.27528638160E+01  0.62913369863E+02  0.63788345855E+02  0.15388934559E+03  0.12508919718E+03 0.  0.
          5    1    3    3  502    0  0.28486008631E+02  0.33908594346E+02 -0.28026073199E+02  0.52575456605E+02  0.41800000000E+01 0. -1.
         -5    1    3    3    0  502 -0.31238872447E+02  0.29004775517E+02  0.91814419054E+02  0.10131388898E+03  0.41800000000E+01 0. -1.
        -11    1    1    2    0    0  0.87756008183E+01 -0.87481697302E+02  0.12887058231E+03  0.15600540220E+03  0.00000000000E+00 0. -1.
         11    1    1    2    0    0 -0.60227370024E+01  0.24568327439E+02  0.37461429984E+02  0.45202154933E+02  0.00000000000E+00 0.  1.
</event>
<event>
 7    1  0.2334784E-009  0.1050457E+03  0.7561462E-02  0.1270030E+00
         -3   -1    0    0    0  501 -0.00000000000E+00  0.00000000000E+00  0.48252270211E+03  0.48252270211E+03  0.00000000000E+00 0.  1.
          3   -1    0    0  501    0  0.00000000000E+00 -0.00000000000E+00 -0.31090110472E+02  0.31090110472E+02  0.00000000000E+00 0. -1.
         25    2    1    2    0    0 -0.51677155161E+02  0.19125054111E+02  0.28797029248E+03  0.31876410006E+03  0.12508943231E+03 0.  0.
          5    1    3    3  502    0  0.32372958174E+02  0.33085006415E+02  0.14513336536E+03  0.15239354386E+03  0.41800000000E+01 0.  1.
         -5    1    3    3    0  502 -0.84050113335E+02 -0.13959952304E+02  0.14283692712E+03  0.16637055620E+03  0.41800000000E+01 0.  1.
        -11    1    1    2    0    0  0.42738970426E+02  0.13232959310E+02  0.22759859446E+02  0.50197031856E+02  0.00000000000E+00 0. -1.
         11    1    1    2    0    0  0.89381847354E+01 -0.32358013420E+02  0.14070243971E+03  0.14465168067E+03  0.00000000000E+00 0.  1.
</event>
<event>
 7    1  0.2334784E-009  0.1148877E+03  0.7561462E-02  0.1251777E+00
          1   -1    0    0  501    0  0.00000000000E+00  0.00000000000E+00  0.25766610825E+02  0.25766610825E+02  0.00000000000E+00 0. -1.
         -1   -1    0    0    0  501 -0.00000000000E+00 -0.00000000000E+00 -0.81917318616E+03  0.81917318616E+03  0.00000000000E+00 0.  1.
         25    2    1    2    0    0 -0.59359755924E+02 -0.75605381060E+02 -0.41750116725E+03  0.44631228535E+03  0.12509067565E+03 0.  0.
          5    1    3    3  502    0 -0.30627199181E+02 -0.47781241213E+02 -0.39721472590E+03  0.40127058603E+03  0.41800000000E+01 0.  1.
         -5    1    3    3    0  502 -0.28732556743E+02 -0.27824139846E+02 -0.20286441345E+02  0.45041699320E+02  0.41800000000E+01 0.  1.
        -11    1    1    2    0    0  0.22203815311E+02 -0.20123293009E+02 -0.83015983943E+02  0.88258766850E+02  0.00000000000E+00 0.  1.
         11    1    1    2    0    0  0.37155940613E+02  0.95728674069E+02 -0.29288942414E+03  0.31036874478E+03  0.00000000000E+00 0. -1.
</event>
<event>
 7    1  0.2334784E-009  0.2321507E+03  0.7561462E-02  0.1125135E+00
          3   -1    0    0  501    0  0.00000000000E+00  0.00000000000E+00  0.15259320927E+03  0.15259320927E+03  0.00000000000E+00 0. -1.
         -3   -1    0    0    0  501 -0.00000000000E+00 -0.00000000000E+00 -0.41498352758E+03  0.41498352758E+03  0.00000000000E+00 0.  1.
         25    2    1    2    0    0  0.21020236212E+03 -0.47893456430E+02 -0.55693193435E+02  0.25539561479E+03  0.12508545898E+03 0.  0.
          5    1    3    3  502    0  0.33167490786E+02 -0.61895068199E+02 -0.27524969390E+02  0.75539249747E+02  0.41800000000E+01 0.  1.
         -5    1    3    3    0  502  0.17703487134E+03  0.14001611769E+02 -0.28168224045E+02  0.17985636504E+03  0.41800000000E+01 0.  1.
        -11    1    1    2    0    0 -0.81414837241E+02  0.27454701551E+02 -0.26815050384E+02  0.90006573579E+02  0.00000000000E+00 0. -1.
         11    1    1    2    0    0 -0.12878752488E+03  0.20438754879E+02 -0.17988207449E+03  0.22217454847E+03  0.00000000000E+00 0.  1.
</event>
<event>
 7    1  0.2334784E-009  0.1166923E+03  0.7561462E-02  0.1248656E+00
         -4   -1    0    0    0  501 -0.00000000000E+00  0.00000000000E+00  0.22969153266E+02  0.22969153266E+02  0.00000000000E+00 0.  1.
          4   -1    0    0  501    0  0.00000000000E+00 -0.00000000000E+00 -0.10359479297E+04  0.10359479297E+04  0.00000000000E+00 0. -1.
         25    2    1    2    0    0  0.27627541393E+02  0.70469204958E+02 -0.82977666450E+03  0.84255950306E+03  0.12509201960E+03 0.  0.
          5    1    3    3  502    0 -0.42680656385E+02  0.37105039386E+02 -0.19694385966E+03  0.20494579438E+03  0.41800000000E+01 0. -1.
         -5    1    3    3    0  502  0.70308197778E+02  0.33364165572E+02 -0.63283280484E+03  0.63761370868E+03  0.41800000000E+01 0. -1.
        -11    1    1    2    0    0 -0.44461805047E+02 -0.26740938090E+02 -0.39498841427E+02  0.65208039014E+02  0.00000000000E+00 0.  1.
         11    1    1    2    0    0  0.16834263654E+02 -0.43728266868E+02 -0.14370327054E+03  0.15114954092E+03  0.00000000000E+00 0. -1.
</event>
<event>
 7    1  0.2334784E-009  0.9924860E+02  0.7561462E-02  0.1281884E+00
          2   -1    0    0  501    0  0.00000000000E+00  0.00000000000E+00  0.39918865755E+03  0.39918865755E+03  0.00000000000E+00 0. -1.
         -2   -1    0    0    0  501 -0.00000000000E+00 -0.00000000000E+00 -0.31442644906E+02  0.31442644906E+02  0.00000000000E+00 0.  1.
         25    2    1    2    0    0 -0.61350247211E+01 -0.24178089919E+02  0.23871095182E+03  0.27065186870E+03  0.12508915601E+03 0.  0.
          5    1    3    3  502    0 -0.24473532035E+01 -0.71015437746E+02  0.18977366742E+03  0.20268374178E+03  0.41800000000E+01 0. -1.
         -5    1    3    3    0  502 -0.36876715177E+01  0.46837347828E+02  0.48937284404E+02  0.67968126924E+02  0.41800000000E+01 0. -1.
        -11    1    1    2    0    0  0.23357106062E+01 -0.27867296010E+02  0.91554846765E+02  0.95730516018E+02  0.00000000000E+00 0. -1.
         11    1    1    2    0    0  0.37993141149E+01  0.52045385928E+02  0.37480214052E+02  0.64248917731E+02  0.00000000000E+00 0.  1.
</event>
<event>
 7    1  0.2334784E-009  0.2006304E+03  0.7561462E-02  0.1149208E+00
         -2   -1    0    0    0  501 -0.00000000000E+00  0.00000000000E+00  0.40851316652E+02  0.40851316652E+02  0.00000000000E+00 0.  1.
          2   -1    0    0  501    0  0.00000000000E+00 -0.00000000000E+00 -0.16759890326E+04  0.16759890326E+04  0.00000000000E+00 0. -1.
         25    2    1    2    0    0 -0.49383545797E+02  0.17167898196E+03 -0.13530207149E+04  0.13704835485E+04  0.12509074472E+03 0.  0.
          5    1    3    3  502    0 -0.73140015635E+02  0.53209153148E+02 -0.75136006708E+03  0.75679594256E+03  0.41800000000E+01 0. -1.
         -5    1    3    3    0  502  0.23756469839E+02  0.11846982881E+03 -0.60166064781E+03  0.61368760597E+03  0.41800000000E+01 0. -1.
        -11    1    1    2    0    0  0.16691697925E+02 -0.17633221822E+01 -0.17253637645E+01  0.16873024769E+02  0.00000000000E+00 0.  1.
         11    1    1    2    0    0  0.32691847872E+02 -0.16991565978E+03 -0.28039163729E+03  0.32948377596E+03  0.00000000000E+00 0. -1.
</event>
<event>
 7    1  0.2334784E-009  0.1017782E+03  0.7561462E-02  0.1276600E+00
         -2   -1    0    0    0  501 -0.00000000000E+00  0.00000000000E+00  0.39167794100E+02  0.39167794100E+02  0.00000000000E+00 0.  1.
          2   -1    0    0  501    0  0.00000000000E+00 -0.00000000000E+00 -0.72506779276E+03  0.72506779276E+03  0.00000000000E+00 0. -1.
         25    2    1    2    0    0 -0.26341945980E+01 -0.36853453121E+02 -0.64468563468E+03  0.65774696506E+03  0.12508551677E+03 0.  0.
          5    1    3    3  502    0 -0.81695490838E+01  0.34241043727E+02 -0.43064060127E+03  0.43209720026E+03  0.41800000000E+01 0. -1.
         -5    1    3    3    0  502  0.55353544858E+01 -0.71094496849E+02 -0.21404503341E+03  0.22564976481E+03  0.41800000000E+01 0. -1.
        -11    1    1    2    0    0  0.42518527905E+02  0.37636056506E+02 -0.14920076150E+02  0.58710362261E+02  0.00000000000E+00 0. -1.
         11    1    1    2    0    0 -0.39884333307E+02 -0.78260338492E+00 -0.26294287831E+02  0.47778259532E+02  0.00000000000E+00 0.  1.
</event>
<event>
 7    1  0.2334784E-009  0.9366608E+02  0.7561462E-02  0.1294209E+00
          2   -1    0    0  501    0  0.00000000000E+00  0.00000000000E+00  0.28060820672E+03  0.28060820672E+03  0.00000000000E+00 0. -1.
         -2   -1    0    0    0  501 -0.00000000000E+00 -0.00000000000E+00 -0.56947700818E+02  0.56947700818E+02  0.00000000000E+00 0.  1.
         25    2    1    2    0    0  0.42656309321E+01  0.45983577567E+02  0.18237350199E+03  0.22592437043E+03  0.12509613068E+03 0.  0.
          5    1    3    3  502    0  0.35536927843E+02  0.35547867743E+02  0.18579366347E+03  0.19251826388E+03  0.41800000000E+01 0.  1.
         -5    1    3    3    0  502 -0.31271296911E+02  0.10435709824E+02 -0.34201614829E+01  0.33406106546E+02  0.41800000000E+01 0.  1.
        -11    1    1    2    0    0 -0.43762800774E+02 -0.96354107617E+00  0.19188415633E+02  0.47794418476E+02  0.00000000000E+00 0. -1.
         11    1    1    2    0    0  0.39497169842E+02 -0.45020036490E+02  0.22098588274E+02  0.63837118629E+02  0.00000000000E+00 0.  1.
</event>
<event>
 7    1  0.2334784E-009  0.1763987E+03  0.7561462E-02  0.1171335E+00
         -2   -1    0    0    0  501 -0.00000000000E+00  0.00000000000E+00  0.19437047551E+03  0.19437047551E+03  0.00000000000E+00 0.  1.
          2   -1    0    0  501    0  0.00000000000E+00 -0.00000000000E+00 -0.20150332959E+03  0.20150332959E+03  0.00000000000E+00 0. -1.
         25    2    1    2    0    0 -0.14953935631E+03  0.45887146779E+02 -0.56083016313E+02  0.20799221197E+03  0.12509119151E+03 0.  0.
          5    1    3    3  502    0 -0.37537360676E+02  0.70290638253E+02  0.11435676000E+01  0.79803555180E+02  0.41800000000E+01 0.  1.
         -5    1    3    3    0  502 -0.11200199564E+03 -0.24403491474E+02 -0.57226583913E+02  0.12818865679E+03  0.41800000000E+01 0.  1.
        -11    1    1    2    0    0  0.65777703927E+02 -0.32855202491E+02 -0.22632878660E+02  0.76931254124E+02  0.00000000000E+00 0. -1.
         11    1    1    2    0    0  0.83761652385E+02 -0.13031944288E+02  0.71583040897E+02  0.11095033901E+03  0.00000000000E+00 0.  1.
</event>
<event>
 7    1  0.2334784E-009  0.1052442E+03  0.7561462E-02  0.1269639E+00
          1   -1    0    0  501    0  0.00000000000E+00  0.00000000000E+00  0.26818662365E+03  0.26818662365E+03  0.00000000000E+00 0. -1.
         -1   -1    0    0    0  501 -0.00000000000E+00 -0.00000000000E+00 -0.47728336770E+02  0.47728336770E+02  0.00000000000E+00 0.  1.
         25    2    1    2    0    0  0.23897001791E+02  0.10558174528E+01  0.10707775605E+03  0.16638832351E+03  0.12508895600E+03 0.  0.
          5    1    3    3  502    0  0.24297218124E+02  0.60434524028E+02  0.72480191659E+02  0.97537362513E+02  0.41800000000E+01 0. -1.
         -5    1    3    3    0  502 -0.40021633294E+00 -0.59378706575E+02  0.34597564395E+02  0.68850960993E+02  0.41800000000E+01 0. -1.
        -11    1    1    2    0    0 -0.48367203654E+02  0.21017814623E+02  0.10170478593E+03  0.11456438540E+03  0.00000000000E+00 0. -1.
         11    1    1    2    0    0  0.24470201864E+02 -0.22073632076E+02  0.11675744899E+02  0.34962251518E+02  0.00000000000E+00 0.  1.
</event>
<event>
 7    1  0.2334784E-009  0.5970128E+02  0.7561462E-02  0.1399090E+00
         -1   -1    0    0    0  501 -0.00000000000E+00  0.00000000000E+00  0.16057513217E+03  0.16057513217E+03  0.00000000000E+00 0.  1.
          1   -1    0    0  501    0  0.00000000000E+00 -0.00000000000E+00 -0.82587905595E+02  0.82587905595E+02  0.00000000000E+00 0. -1.
         25    2    1    2    0    0 -0.28844051728E+02 -0.22293378393E+01  0.71627743642E+02  0.14702006090E+03  0.12508962939E+03 0.  0.
          5    1    3    3  502    0  0.12974242536E+02  0.25612910664E+02 -0.24826419007E+02  0.38186066081E+02  0.41800000000E+01 0. -1.
         -5    1    3    3    0  502 -0.41818294264E+02 -0.27842248503E+02  0.96454162649E+02  0.10883399482E+03  0.41800000000E+01 0. -1.
        -11    1    1    2    0    0  0.21746874228E+01 -0.10287712639E+02 -0.39920229857E+02  0.41281848900E+02  0.00000000000E+00 0. -1.
         11    1    1    2    0    0  0.26669364305E+02  0.12517050478E+02  0.46279712795E+02  0.54861127964E+02  0.00000000000E+00 0.  1.
</event>
<event>
 7    1  0.2334784E-009  0.9517030E+02  0.7561462E-02  0.1290793E+00
          1   -1    0    0  501    0  0.00000000000E+00  0.00000000000E+00  0.77176440253E+02  0.77176440253E+02  0.00000000000E+00 0. -1.
         -1   -1    0    0    0  501 -0.00000000000E+00 -0.00000000000E+00 -0.33548332792E+03  0.33548332792E+03  0.00000000000E+00 0.  1.
         25    2    1    2    0    0 -0.56916662904E+02  0.33669295140E+02 -0.26529357261E+03  0.30066829085E+03  0.12509042132E+03 0.  0.
          5    1    3    3  502    0 -0.17579058865E+02  0.51197778343E+02 -0.31219651401E+02  0.62628865960E+02  0.41800000000E+01 0. -1.
         -5    1    3    3    0  502 -0.39337604039E+02 -0.17528483203E+02 -0.23407392121E+03  0.23803942489E+03  0.41800000000E+01 0. -1.
        -11    1    1    2    0    0  0.44634871012E+01 -0.39727431347E+02 -0.27860002052E+02  0.48727520282E+02  0.00000000000E+00 0.  1.
         11    1    1    2    0    0  0.52453175802E+02  0.60581362066E+01  0.34846686991E+02  0.63263957039E+02  0.00000000000E+00 0. -1.
</event>
<event>
 7    1  0.2334784E-009  0.6919001E+02  0.7561462E-02  0.1362869E+00
          1   -1    0    0  501    0  0.00000000000E+00  0.00000000000E+00  0.33076190206E+03  0.33076190206E+03  0.00000000000E+00 0. -1.
         -1   -1    0    0    0  501 -0.00000000000E+00 -0.00000000000E+00 -0.39620881145E+02  0.39620881145E+02  0.00000000000E+00 0.  1.
         25    2    1    2    0    0 -0.48858081992E+01  0.32966003648E+02  0.13812394354E+03  0.18930525272E+03  0.12509047289E+03 0.  0.
          5    1    3    3  502    0  0.17997716145E+02  0.33803482381E+02 -0.96462702633E+01  0.39712921543E+02  0.41800000000E+01 0.  1.
         -5    1    3    3    0  502 -0.22883524344E+02 -0.83747873230E+00  0.14777021381E+03  0.14959233117E+03  0.41800000000E+01 0.  1.
        -11    1    1    2    0    0 -0.31630003723E+02 -0.21725191962E+02  0.21208867876E+02  0.43843553436E+02  0.00000000000E+00 0.  1.
         11    1    1    2    0    0  0.36515811922E+02 -0.11240811686E+02  0.13180820950E+03  0.13723397706E+03  0.00000000000E+00 0. -1.
</event>
<event>
 7    1  0.2334784E-009  0.5857710E+02  0.7561462E-02  0.1403902E+00
         -1   -1    0    0    0  501 -0.00000000000E+00  0.00000000000E+00  0.58505240200E+02  0.58505240200E+02  0.00000000000E+00 0.  1.
          1   -1    0    0  501    0  0.00000000000E+00 -0.00000000000E+00 -0.22805665584E+03  0.22805665584E+03  0.00000000000E+00 0. -1.
         25    2    1    2    0    0  0.18375061561E+02  0.33424354346E+02 -0.10091768445E+03  0.16518627755E+03  0.12508915583E+03 0.  0.
          5    1    3    3  502    0 -0.89019443522E+01 -0.14352900511E+02  0.23408982360E+02  0.29166817129E+02  0.41800000000E+01 0. -1.
         -5    1    3    3    0  502  0.27277005914E+02  0.47777254857E+02 -0.12432666681E+03  0.13601946042E+03  0.41800000000E+01 0. -1.
        -11    1    1    2    0    0 -0.51049226267E+01 -0.30588400604E+02 -0.90486118862E+02  0.95652747965E+02  0.00000000000E+00 0. -1.
         11    1    1    2    0    0 -0.13270138935E+02 -0.28359537413E+01  0.21852387673E+02  0.25722870524E+02  0.00000000000E+00 0.  1.
</event>
<event>
 7    1  0.2334784E-009  0.1374227E+03  0.7561462E-02  0.1216840E+00
          2   -1    0    0  501    0  0.00000000000E+00  0.00000000000E+00  0.19436470829E+03  0.19436470829E+03  0.00000000000E+00 0. -1.
         -2   -1    0    0    0  501 -0.00000000000E+00 -0.00000000000E+00 -0.12967112617E+03  0.12967112617E+03  0.00000000000E+00 0.  1.
         25    2    1    2    0    0  0.10168399039E+03  0.51937507127E+02  0.48858967323E+02  0.17627318943E+03  0.12509156677E+03 0.  0.
          5    1    3    3  502    0  0.84753519823E+02 -0.13593695684E+02  0.63556163586E+02  0.10688688420E+03  0.41800000000E+01 0. -1.
         -5    1    3    3    0  502  0.16930470565E+02  0.65531202812E+02 -0.14697196263E+02  0.69386305230E+02  0.41800000000E+01 0. -1.
        -11    1    1    2    0    0 -0.49119747329E+02 -0.47522514320E+02 -0.32984786838E+02  0.75888965652E+02  0.00000000000E+00 0.  1.
         11    1    1    2    0    0 -0.52564243058E+02 -0.44149928068E+01  0.48819401637E+02  0.71873679368E+02  0.00000000000E+00 0. -1.
</event>
<event>
 7    1  0.2334784E-009  0.1084237E+03  0.7561462E-02  0.1263517E+00
          2   -1    0    0  501    0  0.00000000000E+00  0.00000000000E+00  0.73031935036E+03  0.73031935036E+03  0.00000000000E+00 0. -1.
         -2   -1    0    0    0  501 -0.00000000000E+00 -0.00000000000E+00 -0.18618560214E+02  0.18618560214E+02  0.00000000000E+00 0.  1.
         25    2    1    2    0    0 -0.60040429004E+01 -0.37561676852E+02  0.34202299767E+03  0.36616146939E+03  0.12509021797E+03 0.  0.
          5    1    3    3  502    0  0.51177377900E+02 -0.34951760279E+00  0.22367427438E+03  0.22949270052E+03  0.41800000000E+01 0. -1.
         -5    1    3    3    0  502 -0.57181420801E+02 -0.37212159250E+02  0.11834872329E+03  0.13666876887E+03  0.41800000000E+01 0. -1.
        -11    1    1    2    0    0 -0.88105139481E+01 -0.28299891329E+02  0.15231115626E+03  0.15516828712E+03  0.00000000000E+00 0. -1.
         11    1    1    2    0    0  0.14814556849E+02  0.65861568181E+02  0.21736663621E+03  0.22760815406E+03  0.00000000000E+00 0.  1.
</event>
<event>
 7    1  0.2334784E-009  0.8004495E+02  0.7561462E-02  0.1328924E+00
          1   -1    0    0  501    0  0.00000000000E+00  0.00000000000E+00  0.39785912536E+03  0.39785912536E+03  0.00000000000E+00 0. -1.
         -1   -1    0    0    0  501 -0.00000000000E+00 -0.00000000000E+00 -0.33880402684E+02  0.33880402684E+02  0.00000000000E+00 0.  1.
         25    2    1    2    0    0 -0.83370645627E+01  0.42051075097E+02  0.22089351716E+03  0.25744860919E+03  0.12509212961E+03 0.  0.
          5    1    3    3  502    0  0.21079976540E+02 -0.43501689582E+01 -0.69783051187E+01  0.23009965737E+02  0.41800000000E+01 0.  1.
         -5    1    3    3    0  502 -0.29417041103E+02  0.46401244055E+02  0.22787182228E+03  0.23443864346E+03  0.41800000000E+01 0.  1.
        -11    1    1    2    0    0 -0.15757650527E+02  0.14612916184E+02  0.35603863316E+01  0.21783416177E+02  0.00000000000E+00 0.  1.
         11    1    1    2    0    0  0.24094715089E+02 -0.56663991280E+02  0.13952481919E+03  0.15250750268E+03  0.00000000000E+00 0. -1.
</event>
<event>
 7    1  0.2334784E-009  0.1080088E+03  0.7561462E-02  0.1264302E+00
          1   -1    0    0  501    0  0.00000000000E+00  0.00000000000E+00  0.10388705160E+03  0.10388705160E+03  0.00000000000E+00 0. -1.
         -1   -1    0    0    0  501 -0.00000000000E+00 -0.00000000000E+00 -0.14402591242E+03  0.14402591242E+03  0.00000000000E+00 0.  1.
         25    2    1    2    0    0  0.24436583005E+02  0.34218105233E+01 -0.72868729120E+02  0.14685744695E+03  0.12509357564E+03 0.  0.
          5    1    3    3  502    0 -0.46833332858E+02 -0.11515813206E+02 -0.51883669279E+02  0.70960288600E+02  0.41800000000E+01 0.  1.
         -5    1    3    3    0  502  0.71269915863E+02  0.14937623729E+02 -0.20985059841E+02  0.75897158355E+02  0.41800000000E+01 0.  1.
        -11    1    1    2    0    0  0.30641099093E+02  0.18041583690E+02  0.55286853013E+01  0.35985303345E+02  0.00000000000E+00 0.  1.
         11    1    1    2    0    0 -0.55077682098E+02 -0.21463394213E+02  0.27201183007E+02  0.65070213719E+02  0.00000000000E+00 0. -1.
</event>
<event>
 7    1  0.2334784E-009  0.8444246E+02  0.7561462E-02  0.1316897E+00
         -2   -1    0    0    0  501 -0.00000000000E+00  0.00000000000E+00  0.97878495964E+02  0.97878495964E+02  0.00000000000E+00 0.  1.
          2   -1    0    0  501    0  0.00000000000E+00 -0.00000000000E+00 -0.14785351777E+03  0.14785351777E+03  0.00000000000E+00 0. -1.
         25    2    1    2    0    0  0.27242659937E+02 -0.45547786894E+02 -0.28249541305E+02  0.13879086715E+03  0.12509238510E+03 0.  0.
          5    1    3    3  502    0  0.28342029318E+02  0.61838151075E+00 -0.70474637782E+02  0.76077591918E+02  0.41800000000E+01 0.  1.
         -5    1    3    3    0  502 -0.10993693809E+01 -0.46166168404E+02  0.42225096477E+02  0.62713275235E+02  0.41800000000E+01 0.  1.
        -11    1    1    2    0    0 -0.48709634402E+02  0.62850030728E+01 -0.34950164154E+02  0.60279712355E+02  0.00000000000E+00 0. -1.
         11    1    1    2    0    0  0.21466974465E+02  0.39262783821E+02  0.13224683656E+02  0.46661434224E+02  0.00000000000E+00 0.  1.
</event>
<event>
 7    1  0.2334784E-009  0.7535819E+02  0.7561462E-02  0.1342765E+00
         -3   -1    0    0    0  501 -0.00000000000E+00  0.00000000000E+00  0.46856431704E+02  0.46856431704E+02  0.00000000000E+00 0.  1.
          3   -1    0    0  501    0  0.00000000000E+00 -0.00000000000E+00 -0.29388903788E+03  0.29388903788E+03  0.00000000000E+00 0. -1.
         25    2    1    2    0    0  0.24048316432E+02 -0.37397261116E+02 -0.13822381655E+03  0.19164860410E+03  0.12508591978E+03 0.  0.
          5    1    3    3  502    0  0.10291192288E+02 -0.41772359348E+02  0.85885633299E+01  0.44068973942E+02  0.41800000000E+01 0.  1.
         -5    1    3    3    0  502  0.13757124144E+02  0.43750982325E+01 -0.14681237988E+03  0.14757963015E+03  0.41800000000E+01 0.  1.
        -11    1    1    2    0    0  0.15390997919E+02 -0.18492391794E+02 -0.61190529947E+02  0.65750530998E+02  0.00000000000E+00 0. -1.
         11    1    1    2    0    0 -0.39439314351E+02  0.55889652910E+02 -0.47618259679E+02  0.83346334495E+02  0.00000000000E+00 0.  1.
</event>
<event>
 7    1  0.2967695E-009  0.1235637E+03  0.7561462E-02  0.1237331E+00
          3   -1    0    0  501    0  0.00000000000E+00  0.00000000000E+00  0.52266924950E+03  0.52266924950E+03  0.00000000000E+00 0. -1.
         -3   -1    0    0    0  501 -0.00000000000E+00 -0.00000000000E+00 -0.38780278714E+02  0.38780278714E+02  0.00000000000E+00 0.  1.
         25    2    1    2    0    0 -0.59626558866E+02  0.55990692856E+02  0.18272094713E+03  0.23605979195E+03  0.12508795564E+03 0.  0.
          5    1    3    3  502    0 -0.31742150636E+01  0.82971938599E+02  0.12909182533E+03  0.15354670300E+03  0.41800000000E+01 0.  1.
         -5    1    3    3    0  502 -0.56452343803E+02 -0.26981245744E+02  0.53629121808E+02  0.82513088953E+02  0.41800000000E+01 0.  1.
        -11    1    1    2    0    0  0.18747456542E+02  0.11776355892E+02  0.11191576266E+02  0.24807278452E+02  0.00000000000E+00 0.  1.
         11    1    1    2    0    0  0.40879102324E+02 -0.67767048748E+02  0.28997644739E+03  0.30058245781E+03  0.00000000000E+00 0. -1.
</event>
<event>
 7    1  0.2334784E-009  0.8687872E+02  0.7561462E-02  0.1310591E+00
         -2   -1    0    0    0  501 -0.00000000000E+00  0.00000000000E+00  0.19750209999E+02  0.19750209999E+02  0.00000000000E+00 0.  1.
          2   -1    0    0  501    0  0.00000000000E+00 -0.00000000000E+00 -0.73299404420E+03  0.73299404420E+03  0.00000000000E+00 0. -1.
         25    2    1    2    0    0 -0.33371186154E+02 -0.30720639010E+02 -0.32562276176E+03  0.35175891092E+03  0.12508698859E+03 0.  0.
          5    1    3    3  502    0 -0.29049470026E+02 -0.46087812415E+02 -0.33015548192E+03  0.33464619048E+03  0.41800000000E+01 0. -1.
         -5    1    3    3    0  502 -0.43217161282E+01  0.15367173404E+02  0.45327201665E+01  0.17112720440E+02  0.41800000000E+01 0. -1.
        -11    1    1    2    0    0  0.34501040843E+02  0.62194352786E+02 -0.26320811500E+03  0.27264807195E+03  0.00000000000E+00 0.  1.
         11    1    1    2    0    0 -0.11298546889E+01 -0.31473713776E+02 -0.12441295745E+03  0.12833727132E+03  0.00000000000E+00 0. -1.
</event>
<event>
 7    1  0.2334784E-009  0.1840678E+03  0.7561462E-02  0.1163923E+00
          2   -1    0    0  501    0  0.00000000000E+00  0.00000000000E+00  0.13953043844E+03  0.13953043844E+03  0.00000000000E+00 0. -1.
         -2   -1    0    0    0  501 -0.00000000000E+00 -0.00000000000E+00 -0.27806233756E+03  0.27806233756E+03  0.00000000000E+00 0.  1.
         25    2    1    2    0    0  0.64616915758E+02  0.14195485715E+03 -0.18982066887E+02  0.20083265745E+03  0.12508760995E+03 0.  0.
          5    1    3    3  502    0  0.74754993453E+01  0.12880038547E+03  0.19532786327E+02  0.13055429724E+03  0.41800000000E+01 0. -1.
         -5    1    3    3    0  502  0.57141416412E+02  0.13154471684E+02 -0.38514853214E+02  0.70278360204E+02  0.41800000000E+01 0. -1.
        -11    1    1    2    0    0 -0.87644646680E+02 -0.10562020915E+03 -0.98012817876E+02  0.16865267606E+03  0.00000000000E+00 0. -1.
         11    1    1    2    0    0  0.23027730923E+02 -0.36334647999E+02 -0.21537014356E+02  0.48107442501E+02  0.00000000000E+00 0.  1.
</event>
<event>
 7    1  0.2334784E-009  0.1300136E+03  0.7561462E-02  0.1227436E+00
         -1   -1    0    0    0  501 -0.00000000000E+00  0.00000000000E+00  0.98448533962E+02  0.98448533962E+02  0.00000000000E+00 0.  1.
          1   -1    0    0  501    0  0.00000000000E+00 -0.00000000000E+00 -0.34546753789E+03  0.34546753789E+03  0.00000000000E+00 0. -1.
         25    2    1    2    0    0 -0.69108842338E+01 -0.78416042511E+02  0.23969490296E+02  0.14972771491E+03  0.12508803341E+03 0.  0.
          5    1    3    3  502    0 -0.10317765045E+02 -0.11198029142E+03  0.10003542381E+02  0.11297603818E+03  0.41800000000E+01 0.  1.
         -5    1    3    3    0  502  0.34068808110E+01  0.33564248908E+02  0.13965947915E+02  0.36751676734E+02  0.41800000000E+01 0.  1.
        -11    1    1    2    0    0 -0.35161990343E+02  0.55197912079E+02 -0.13664806960E+03  0.15151194669E+03  0.00000000000E+00 0. -1.
         11    1    1    2    0    0  0.42072874577E+02  0.23218130432E+02 -0.13434042462E+03  0.14267641025E+03  0.00000000000E+00 0.  1.
</event>
<event>
 7    1  0.2944250E-009  0.8769873E+02  0.7561462E-02  0.1308522E+00
         -2   -1    0    0    0  501 -0.00000000000E+00  0.00000000000E+00  0.13182795195E+02  0.13182795195E+02  0.00000000000E+00 0. -1.
          2   -1    0    0  501    0  0.00000000000E+00 -0.00000000000E+00 -0.12743389557E+04  0.12743389557E+04  0.00000000000E+00 0.  1.
         25    2    1    2    0    0  0.50747128521E+02  0.37204642891E+02 -0.86287171258E+03  0.87415995209E+03  0.12509425631E+03 0.  0.
          5    1    3    3  502    0  0.31764435585E+02  0.91281378735E+01 -0.47190956936E+02  0.57764704497E+02  0.41800000000E+01 0. -1.
         -5    1    3    3    0  502  0.18982692936E+02  0.28076505017E+02 -0.81568075564E+03  0.81639524759E+03  0.41800000000E+01 0. -1.
        -11    1    1    2    0    0 -0.69147800900E+02 -0.31398557121E+01 -0.29624114289E+03  0.30422046578E+03  0.00000000000E+00 0.  1.
         11    1    1    2    0    0  0.18400672379E+02 -0.34064787179E+02 -0.10204330499E+03  0.10914133297E+03  0.00000000000E+00 0. -1.
</event>
<event>
 7    1  0.2334784E-009  0.1244593E+03  0.7561462E-02  0.1235917E+00
         -1   -1    0    0    0  501 -0.00000000000E+00  0.00000000000E+00  0.25970218988E+02  0.25970218988E+02  0.00000000000E+00 0.  1.
          1   -1    0    0  501    0  0.00000000000E+00 -0.00000000000E+00 -0.71313423290E+03  0.71313423290E+03  0.00000000000E+00 0. -1.
         25    2    1    2    0    0  0.63169019239E+01  0.77153154755E+02 -0.44994166934E+03  0.47337837669E+03  0.12508824554E+03 0.  0.
          5    1    3    3  502    0  0.51646471726E+01 -0.27174440958E+02 -0.20790539575E+03  0.20977904996E+03  0.41800000000E+01 0. -1.
         -5    1    3    3    0  502  0.11522547512E+01  0.10432759571E+03 -0.24203627359E+03  0.26359932673E+03  0.41800000000E+01 0. -1.
        -11    1    1    2    0    0  0.40126946950E+02 -0.28188092712E+02 -0.13100198075E+03  0.13987944596E+03  0.00000000000E+00 0. -1.
         11    1    1    2    0    0 -0.46443848874E+02 -0.48965062044E+02 -0.10622036383E+03  0.12584662924E+03  0.00000000000E+00 0.  1.
</event>
<event>
 7    1  0.2334784E-009  0.1088764E+03  0.7561462E-02  0.1262665E+00
         -1   -1    0    0    0  501 -0.00000000000E+00  0.00000000000E+00  0.78987488817E+02  0.78987488817E+02  0.00000000000E+00 0.  1.
          1   -1    0    0  501    0  0.00000000000E+00 -0.00000000000E+00 -0.18359252253E+03  0.18359252253E+03  0.00000000000E+00 0. -1.
         25    2    1    2    0    0  0.13955260086E+02 -0.54432289133E+02 -0.60052385534E+02  0.14970626666E+03  0.12509218155E+03 0.  0.
          5    1    3    3  502    0  0.21332155988E+02  0.28525700289E+02  0.13689213128E+02  0.38388063407E+02  0.41800000000E+01 0.  1.
         -5    1    3    3    0  502 -0.73768959019E+01 -0.82957989422E+02 -0.73741598663E+02  0.11131820325E+03  0.41800000000E+01 0.  1.
        -11    1    1    2    0    0  0.23393966306E+02  0.56438848293E+02 -0.44306620642E+02  0.75469847548E+02  0.00000000000E+00 0. -1.
         11    1    1    2    0    0 -0.37349226392E+02 -0.20065591596E+01 -0.24602753676E+00  0.37403897140E+02  0.00000000000E+00 0.  1.
</event>
<event>
 7    1  0.2355651E-009  0.1428986E+03  0.7561462E-02  0.1209481E+00
         -1   -1    0    0    0  501 -0.00000000000E+00  0.00000000000E+00  0.36310450532E+02  0.36310450532E+02  0.00000000000E+00 0.  1.
          1   -1    0    0  501    0  0.00000000000E+00 -0.00000000000E+00 -0.76694892550E+03  0.76694892550E+03  0.00000000000E+00 0. -1.
         25    2    1    2    0    0 -0.72595997141E+02 -0.96558186013E+02 -0.48396546434E+03  0.51426002309E+03  0.12508852297E+03 0.  0.
          5    1    3    3  502    0 -0.36430586992E+02  0.16866737386E+02 -0.23284410662E+03  0.23631657768E+03  0.41800000000E+01 0.  1.
         -5    1    3    3    0  502 -0.36165410149E+02 -0.11342492340E+03 -0.25112135773E+03  0.27794344541E+03  0.41800000000E+01 0.  1.
        -11    1    1    2    0    0  0.14810812387E+02  0.49863317094E+02 -0.30234686312E+02  0.60165162773E+02  0.00000000000E+00 0.  1.
         11    1    1    2    0    0  0.57785184755E+02  0.46694868919E+02 -0.21643832431E+03  0.22883419017E+03  0.00000000000E+00 0. -1.
</event>
<event>
 7    1  0.2334784E-009  0.2462502E+03  0.7561462E-02  0.1115698E+00
         -1   -1    0    0    0  501 -0.00000000000E+00  0.00000000000E+00  0.48015056914E+03  0.48015056914E+03  0.00000000000E+00 0.  1.
          1   -1    0    0  501    0  0.00000000000E+00 -0.00000000000E+00 -0.25120143278E+03  0.25120143278E+03  0.00000000000E+00 0. -1.
         25    2    1    2    0    0 -0.84844659871E+02  0.21099779562E+03 -0.13520139356E+03  0.29264883718E+03  0.12508092987E+03 0.  0.
          5    1    3    3  502    0  0.18299865619E+02  0.94784728065E+02 -0.86690886435E+02  0.12981452903E+03  0.41800000000E+01 0.  1.
         -5    1    3    3    0  502 -0.10314452549E+03  0.11621306756E+03 -0.48510507126E+02  0.16283430815E+03  0.41800000000E+01 0.  1.
        -11    1    1    2    0    0  0.45964307586E+01 -0.11594727173E+03  0.21649534039E+03  0.24563210175E+03  0.00000000000E+00 0.  1.
         11    1    1    2    0    0  0.80248229113E+02 -0.95050523892E+02  0.14765518953E+03  0.19307106299E+03  0.00000000000E+00 0. -1.
</event>
<event>
 7    1  0.2334784E-009  0.1011608E+03  0.7561462E-02  0.1277874E+00
         -4   -1    0    0    0  501 -0.00000000000E+00  0.00000000000E+00  0.47463282672E+02  0.47463282672E+02  0.00000000000E+00 0.  1.
          4   -1    0    0  501    0  0.00000000000E+00 -0.00000000000E+00 -0.26839973761E+03  0.26839973761E+03  0.00000000000E+00 0. -1.
         25    2    1    2    0    0 -0.10834193824E+02  0.33744608184E+01 -0.17702897179E+03  0.21705614765E+03  0.12508136408E+03 0.  0.
          5    1    3    3  502    0 -0.62314681981E+02  0.21120245174E+02 -0.12651721818E+03  0.14266486338E+03  0.41800000000E+01 0.  1.
         -5    1    3    3    0  502  0.51480488157E+02 -0.17745784355E+02 -0.50511753611E+02  0.74391284275E+02  0.41800000000E+01 0.  1.
        -11    1    1    2    0    0 -0.30708770399E+02  0.17437693424E+02 -0.38151745298E+02  0.51987088788E+02  0.00000000000E+00 0. -1.
         11    1    1    2    0    0  0.41542964223E+02 -0.20812154243E+02 -0.57557378484E+01  0.46819783840E+02  0.00000000000E+00 0.  1.
</event>
<event>
 7    1  0.2676701E-009  0.1235646E+03  0.7561462E-02  0.1237330E+00
         -1   -1    0    0    0  501 -0.00000000000E+00  0.00000000000E+00  0.49841304443E+03  0.49841304443E+03  0.00000000000E+00 0.  1.
          1   -1    0    0  501    0  0.00000000000E+00 -0.00000000000E+00 -0.36366348788E+02  0.36366348788E+02  0.00000000000E+00 0. -1.
         25    2    1    2    0    0 -0.78233715117E+02 -0.13681889257E+02  0.26617494025E+03  0.30466230181E+03  0.12514915522E+03 0.  0.
          5    1    3    3  502    0 -0.86689201462E+02 -0.53442442906E+02  0.22314378654E+03  0.24531965724E+03  0.41800000000E+01 0.  1.
         -5    1    3    3    0  502  0.84554863449E+01  0.39760553649E+02  0.43031153707E+02  0.59342644574E+02  0.41800000000E+01 0.  1.
        -11    1    1    2    0    0  0.49750695280E+02 -0.25496036027E+02  0.16100904588E+03  0.17043794292E+03  0.00000000000E+00 0. -1.
         11    1    1    2    0    0  0.28483019837E+02  0.39177925284E+02  0.34862709510E+02  0.59679148477E+02  0.00000000000E+00 0.  1.
</event>
<event>
 7    1  0.2334784E-009  0.1582960E+03  0.7561462E-02  0.1190634E+00
          2   -1    0    0  501    0  0.00000000000E+00  0.00000000000E+00  0.56272449840E+02  0.56272449840E+02  0.00000000000E+00 0. -1.
         -2   -1    0    0    0  501 -0.00000000000E+00 -0.00000000000E+00 -0.54260210809E+03  0.54260210809E+03  0.00000000000E+00 0.  1.
         25    2    1    2    0    0 -0.64472627526E+02  0.11831447356E+03 -0.29224787861E+03  0.34527035198E+03  0.12509100307E+03 0.  0.
          5    1    3    3  502    0 -0.10625531790E+02  0.99780895482E+02 -0.26213548481E+03  0.28071625144E+03  0.41800000000E+01 0.  1.
         -5    1    3    3    0  502 -0.53847095736E+02  0.18533578075E+02 -0.30112393804E+02  0.64554100537E+02  0.41800000000E+01 0.  1.
        -11    1    1    2    0    0  0.12653745065E+02 -0.10472689470E+03 -0.15414770738E+03  0.18678692520E+03  0.00000000000E+00 0.  1.
         11    1    1    2    0    0  0.51818882461E+02 -0.13587578860E+02 -0.39934072255E+02  0.66817280741E+02  0.00000000000E+00 0. -1.
</event>
<event>
 7    1  0.2334784E-009  0.1057130E+03  0.7561462E-02  0.1268721E+00
          2   -1    0    0  501    0  0.00000000000E+00  0.00000000000E+00  0.79323262185E+02  0.79323262185E+02  0.00000000000E+00 0. -1.
         -2   -1    0    0    0  501 -0.00000000000E+00 -0.00000000000E+00 -0.26960654368E+03  0.26960654368E+03  0.00000000000E+00 0.  1.
         25    2    1    2    0    0 -0.83469122854E+02  0.35517525818E+02 -0.11924174869E+03  0.19518120166E+03  0.12509403559E+03 0.  0.
          5    1    3    3  502    0 -0.34946595523E+02  0.31243392721E+02 -0.13567351227E+03  0.14360427730E+03  0.41800000000E+01 0.  1.
         -5    1    3    3    0  502 -0.48522527330E+02  0.42741330977E+01  0.16431763576E+02  0.51576924360E+02  0.41800000000E+01 0.  1.
        -11    1    1    2    0    0  0.89222040824E+02 -0.48299851666E+02 -0.86179275675E+02  0.13311767650E+03  0.00000000000E+00 0.  1.
         11    1    1    2    0    0 -0.57529179701E+01  0.12782325847E+02  0.15137742868E+02  0.20630927715E+02  0.00000000000E+00 0. -1.
</event>
<event>
 7    1  0.2334784E-009  0.1065347E+03  0.7561462E-02  0.1267125E+00
         -1   -1    0    0    0  501 -0.00000000000E+00  0.00000000000E+00  0.57585693247E+02  0.57585693247E+02  0.00000000000E+00 0.  1.
          1   -1    0    0  501    0  0.00000000000E+00 -0.00000000000E+00 -0.34207658708E+03  0.34207658708E+03  0.00000000000E+00 0. -1.
         25    2    1    2    0    0  0.79437143109E+02  0.70290383719E+01 -0.21148960964E+03  0.25833032338E+03  0.12508810458E+03 0.  0.
          5    1    3    3  502    0  0.97444725725E+02 -0.36407387530E+00 -0.21679563767E+03  0.23772553089E+03  0.41800000000E+01 0.  1.
         -5    1    3    3    0  502 -0.18007582615E+02  0.73931122472E+01  0.53060280305E+01  0.20604792496E+02  0.41800000000E+01 0.  1.
        -11    1    1    2    0    0 -0.25518777918E+02  0.22612222360E+02  0.12220729312E+02  0.36219702530E+02  0.00000000000E+00 0.  1.
         11    1    1    2    0    0 -0.53918365192E+02 -0.29641260732E+02 -0.85222013505E+02  0.10511225442E+03  0.00000000000E+00 0. -1.
</event>
<event>
 7    1  0.2334784E-009  0.9234263E+02  0.7561462E-02  0.1297276E+00
         -1   -1    0    0    0  501 -0.00000000000E+00  0.00000000000E+00  0.39196764210E+03  0.39196764210E+03  0.00000000000E+00 0.  1.
          1   -1    0    0  501    0  0.00000000000E+00 -0.00000000000E+00 -0.42863745153E+02  0.42863745153E+02  0.00000000000E+00 0. -1.
         25    2    1    2    0    0 -0.33998123344E+02 -0.63947549787E+02  0.20746017726E+03  0.25284958651E+03  0.12509207303E+03 0.  0.
          5    1    3    3  502    0 -0.21381055993E+02 -0.55430378804E+02  0.17278240062E+02  0.62013598745E+02  0.41800000000E+01 0.  1.
         -5    1    3    3    0  502 -0.12617067351E+02 -0.85171709838E+01  0.19018193720E+03  0.19083598776E+03  0.41800000000E+01 0.  1.
        -11    1    1    2    0    0  0.59003874038E+02  0.27394327428E+02  0.10910017255E+03  0.12702265143E+03  0.00000000000E+00 0. -1.
         11    1    1    2    0    0 -0.25005750694E+02  0.36553222359E+02  0.32543547139E+02  0.54959149311E+02  0.00000000000E+00 0.  1.
</event>
<event>
 7    1  0.2334784E-009  0.1443626E+03  0.7561462E-02  0.1207576E+00
          3   -1    0    0  501    0  0.00000000000E+00  0.00000000000E+00  0.39273960732E+02  0.39273960732E+02  0.00000000000E+00 0. -1.
         -3   -1    0    0    0  501 -0.00000000000E+00 -0.00000000000E+00 -0.92867464094E+03  0.92867464094E+03  0.00000000000E+00 0.  1.
         25    2    1    2    0    0  0.32285827106E+02 -0.12509351071E+03 -0.68857905236E+03  0.71167421758E+03  0.12509324343E+03 0.  0.
          5    1    3    3  502    0  0.40220258997E+02 -0.10119785173E+03 -0.25456840043E+03  0.27691373625E+03  0.41800000000E+01 0.  1.
         -5    1    3    3    0  502 -0.79344318909E+01 -0.23895658986E+02 -0.43401065193E+03  0.43476048132E+03  0.41800000000E+01 0.  1.
        -11    1    1    2    0    0 -0.60256737826E+02  0.69453907228E+02 -0.14979330929E+03  0.17576334997E+03  0.00000000000E+00 0. -1.
         11    1    1    2    0    0  0.27970910720E+02  0.55639603486E+02 -0.51028318554E+02  0.80511034132E+02  0.00000000000E+00 0.  1.
</event>
<event>
 7    1  0.2334784E-009  0.1551365E+03  0.7561462E-02  0.1194300E+00
          2   -1    0    0  501    0  0.00000000000E+00  0.00000000000E+00  0.57093962429E+02  0.57093962429E+02  0.00000000000E+00 0. -1.
         -2   -1    0    0    0  501 -0.00000000000E+00 -0.00000000000E+00 -0.75277151602E+03  0.75277151602E+03  0.00000000000E+00 0.  1.
         25    2    1    2    0    0 -0.14627029286E+03 -0.20384719630E+02 -0.54427205200E+03  0.57765943366E+03  0.12509124405E+03 0.  0.
          5    1    3    3  502    0 -0.71053924942E+02 -0.20697064340E+02 -0.45432775965E+03  0.46033489365E+03  0.41800000000E+01 0. -1.
         -5    1    3    3    0  502 -0.75216367915E+02  0.31234471008E+00 -0.89944292348E+02  0.11732454001E+03  0.41800000000E+01 0.  1.
        -11    1    1    2    0    0  0.36278247191E+01  0.17782489275E+02  0.66100927739E+01  0.19315055358E+02  0.00000000000E+00 0. -1.
         11    1    1    2    0    0  0.14264246814E+03  0.26022303548E+01 -0.15801559436E+03  0.21289098943E+03  0.00000000000E+00 0.  1.
</event>
<event>
 7    1  0.2334784E-009  0.1052714E+03  0.7561462E-02  0.1269586E+00
         -2   -1    0    0    0  501 -0.00000000000E+00  0.00000000000E+00  0.59186625340E+02  0.59186625340E+02  0.00000000000E+00 0.  1.
          2   -1    0    0  501    0  0.00000000000E+00 -0.00000000000E+00 -0.46437947258E+03  0.46437947258E+03  0.00000000000E+00 0. -1.
         25    2    1    2    0    0  0.45459478483E+02  0.57844132114E+02 -0.37384321922E+03  0.40102248748E+03  0.12509106723E+03 0.  0.
          5    1    3    3  502    0 -0.30928207895E+00  0.83968954825E+02 -0.16002706264E+03  0.18076784616E+03  0.41800000000E+01 0. -1.
         -5    1    3    3    0  502  0.45768760562E+02 -0.26124822710E+02 -0.21381615658E+03  0.22025464131E+03  0.41800000000E+01 0. -1.
        -11    1    1    2    0    0 -0.86850971694E+01 -0.96699790910E+01  0.32201951441E+02  0.34726144115E+02  0.00000000000E+00 0.  1.
         11    1    1    2    0    0 -0.36774381314E+02 -0.48174153023E+02 -0.63551579463E+02  0.87817466331E+02  0.00000000000E+00 0. -1.
</event>
<event>
 7    1  0.2334784E-009  0.1853531E+03  0.7561462E-02  0.1162721E+00
          1   -1    0    0  501    0  0.00000000000E+00  0.00000000000E+00  0.43256433076E+03  0.43256433076E+03  0.00000000000E+00 0. -1.
         -1   -1    0    0    0  501 -0.00000000000E+00 -0.00000000000E+00 -0.96260706685E+02  0.96260706685E+02  0.00000000000E+00 0.  1.
         25    2    1    2    0    0  0.11219579158E+01 -0.17159214749E+03  0.20308188093E+03  0.29382560389E+03  0.12508441656E+03 0.  0.
          5    1    3    3  502    0 -0.20934110492E+02 -0.77495714477E+02  0.17581521118E+03  0.19331912380E+03  0.41800000000E+01 0.  1.
         -5    1    3    3    0  502  0.22056068408E+02 -0.94096433017E+02  0.27266669750E+02  0.10050648009E+03  0.41800000000E+01 0.  1.
        -11    1    1    2    0    0 -0.44477474966E+02  0.67609230494E+02  0.56233258886E+02  0.98546604367E+02  0.00000000000E+00 0.  1.
         11    1    1    2    0    0  0.43355517050E+02  0.10398291700E+03  0.76988484264E+02  0.13645282920E+03  0.00000000000E+00 0. -1.
</event>
<event>
 7    1  0.2334784E-009  0.1045657E+03  0.7561462E-02  0.1270978E+00
         -2   -1    0    0    0  501 -0.00000000000E+00  0.00000000000E+00  0.39738406517E+02  0.39738406517E+02  0.00000000000E+00 0.  1.
          2   -1    0    0  501    0  0.00000000000E+00 -0.00000000000E+00 -0.40428536036E+03  0.40428536036E+03  0.00000000000E+00 0. -1.
         25    2    1    2    0    0  0.62964158304E+02 -0.69833146574E+01 -0.17844315948E+03  0.22693986679E+03  0.12508593069E+03 0.  0.
          5    1    3    3  502    0  0.52841687479E+02 -0.46740579575E+02 -0.37329896855E+02  0.79924460047E+02  0.41800000000E+01 0.  1.
         -5    1    3    3    0  502  0.10122470825E+02  0.39757264917E+02 -0.14111326263E+03  0.14701540674E+03  0.41800000000E+01 0.  1.
        -11    1    1    2    0    0 -0.27991166357E+02  0.40202556427E+02 -0.40062620170E+02  0.63283208453E+02  0.00000000000E+00 0.  1.
         11    1    1    2    0    0 -0.34972991947E+02 -0.33219241769E+02 -0.14604117419E+03  0.15380069164E+03  0.00000000000E+00 0. -1.
</event>
<event>
 7    1  0.2334784E-009  0.9204182E+02  0.7561462E-02  0.1297981E+00
          1   -1    0    0  501    0  0.00000000000E+00  0.00000000000E+00  0.84936557991E+02  0.84936557991E+02  0.00000000000E+00 0. -1.
         -1   -1    0    0    0  501 -0.00000000000E+00 -0.00000000000E+00 -0.25179844347E+03  0.25179844347E+03  0.00000000000E+00 0.  1.
         25    2    1    2    0    0  0.20252478694E+01 -0.94908630922E+00  0.22613138243E+02  0.12711931504E+03  0.12507183473E+03 0.  0.
          5    1    3    3  502    0 -0.52691129658E+02 -0.48605249959E-01  0.43440495610E+02  0.68417151109E+02  0.41800000000E+01 0. -1.
         -5    1    3    3    0  502  0.54716377527E+02 -0.90048105926E+00 -0.20827357366E+02  0.58702163936E+02  0.41800000000E+01 0. -1.
        -11    1    1    2    0    0 -0.10058317014E+02 -0.36593851430E+02 -0.14929045505E+03  0.15403869537E+03  0.00000000000E+00 0.  1.
         11    1    1    2    0    0  0.80330691442E+01  0.37542937739E+02 -0.40184568677E+02  0.55576991046E+02  0.00000000000E+00 0. -1.
</event>
<event>
 7    1  0.2334784E-009  0.1282891E+03  0.7561462E-02  0.1230017E+00
         -1   -1    0    0    0  501 -0.00000000000E+00  0.00000000000E+00  0.58187230440E+03  0.58187230440E+03  0.00000000000E+00 0.  1.
          1   -1    0    0  501    0  0.00000000000E+00 -0.00000000000E+00 -0.30206447784E+02  0.30206447784E+02  0.00000000000E+00 0. -1.
         25    2    1    2    0    0 -0.65618346100E+02  0.23919761039E+02  0.34793709309E+03  0.37627867779E+03  0.12508996882E+03 0.  0.
          5    1    3    3  502    0 -0.59463401697E+02  0.72250263521E+02  0.21041363464E+03  0.23032013973E+03  0.41800000000E+01 0.  1.
         -5    1    3    3    0  502 -0.61549444034E+01 -0.48330502482E+02  0.13752345845E+03  0.14595853807E+03  0.41800000000E+01 0.  1.
        -11    1    1    2    0    0  0.82770258792E+02 -0.38699215800E+02  0.18531628172E+03  0.20661720479E+03  0.00000000000E+00 0.  1.
         11    1    1    2    0    0 -0.17151912692E+02  0.14779454761E+02  0.18412481808E+02  0.29182869605E+02  0.00000000000E+00 0. -1.
</event>
<event>
 7    1  0.2334784E-009  0.1279630E+03  0.7561462E-02  0.1230510E+00
         -2   -1    0    0    0  501 -0.00000000000E+00  0.00000000000E+00  0.33631047049E+02  0.33631047049E+02  0.00000000000E+00 0.  1.
          2   -1    0    0  501    0  0.00000000000E+00 -0.00000000000E+00 -0.57452749693E+03  0.57452749693E+03  0.00000000000E+00 0. -1.
         25    2    1    2    0    0  0.82603006625E+02  0.23008769525E+02 -0.27001572081E+03  0.30969136903E+03  0.12509034491E+03 0.  0.
          5    1    3    3  502    0 -0.24443047612E+02 -0.31385178913E+01 -0.12519844213E+03  0.12766924133E+03  0.41800000000E+01 0. -1.
         -5    1    3    3    0  502  0.10704605424E+03  0.26147287416E+02 -0.14481727868E+03  0.18202212769E+03  0.41800000000E+01 0. -1.
        -11    1    1    2    0    0 -0.56425058929E+02 -0.55356145087E+02 -0.21289118909E+03  0.22709193835E+03  0.00000000000E+00 0. -1.
         11    1    1    2    0    0 -0.26177947696E+02  0.32347375562E+02 -0.57989539989E+02  0.71375236598E+02  0.00000000000E+00 0.  1.
</event>
<event>
 7    1  0.2334784E-009  0.1212421E+03  0.7561462E-02  0.1241062E+00
         -2   -1    0    0    0  501 -0.00000000000E+00  0.00000000000E+00  0.47074215817E+02  0.47074215817E+02  0.00000000000E+00 0.  1.
          2   -1    0    0  501    0  0.00000000000E+00 -0.00000000000E+00 -0.42005148403E+03  0.42005148403E+03  0.00000000000E+00 0. -1.
         25    2    1    2    0    0 -0.66784934185E+02  0.60175034839E+02 -0.21000626307E+03  0.26044654698E+03  0.12509400888E+03 0.  0.
          5    1    3    3  502    0 -0.39717598870E+02  0.76450902729E+02 -0.55220104046E+02  0.10241562615E+03  0.41800000000E+01 0. -1.
         -5    1    3    3    0  502 -0.27067335315E+02 -0.16275867890E+02 -0.15478615902E+03  0.15803092084E+03  0.41800000000E+01 0. -1.
        -11    1    1    2    0    0  0.62959467821E+00 -0.58182366399E+02 -0.97758687749E+02  0.11376442845E+03  0.00000000000E+00 0. -1.
         11    1    1    2    0    0  0.66155339507E+02 -0.19926684394E+01 -0.65212317396E+02  0.92914724414E+02  0.00000000000E+00 0.  1.
</event>
<event>
 7    1  0.2334784E-009  0.2039953E+03  0.7561462E-02  0.1146411E+00
          3   -1    0    0  501    0  0.00000000000E+00  0.00000000000E+00  0.15509187574E+03  0.15509187574E+03  0.00000000000E+00 0. -1.
         -3   -1    0    0    0  501 -0.00000000000E+00 -0.00000000000E+00 -0.31519218970E+03  0.31519218970E+03  0.00000000000E+00 0.  1.
         25    2    1    2    0    0  0.97461478819E+02 -0.15149995828E+03 -0.11389622258E+02  0.21960750709E+03  0.12508699558E+03 0.  0.
          5    1    3    3  502    0  0.68136040735E+02 -0.35901924289E+01 -0.67270215574E+01  0.68688679909E+02  0.41800000000E+01 0.  1.
         -5    1    3    3    0  502  0.29325438084E+02 -0.14790976585E+03 -0.46626007011E+01  0.15091882718E+03  0.41800000000E+01 0.  1.
        -11    1    1    2    0    0  0.23621768920E+01  0.36199689395E+02  0.19107975301E+01  0.36326967106E+02  0.00000000000E+00 0. -1.
         11    1    1    2    0    0 -0.99823655711E+02  0.11530026888E+03 -0.15062148924E+03  0.21434959124E+03  0.00000000000E+00 0.  1.
</event>
<event>
 7    1  0.3663211E-009  0.1486247E+03  0.7561462E-02  0.1202173E+00
          2   -1    0    0  501    0  0.00000000000E+00  0.00000000000E+00  0.54597697612E+03  0.54597697612E+03  0.00000000000E+00 0. -1.
         -2   -1    0    0    0  501 -0.00000000000E+00 -0.00000000000E+00 -0.60316681373E+02  0.60316681373E+02  0.00000000000E+00 0.  1.
         25    2    1    2    0    0 -0.66525552171E+02  0.11707861767E+03  0.16558687506E+03  0.24738606972E+03  0.12509117673E+03 0.  0.
          5    1    3    3  502    0 -0.72010888553E+02  0.99126754400E+02  0.53666374739E+02  0.13382538506E+03  0.41800000000E+01 0. -1.
         -5    1    3    3    0  502  0.54853363818E+01  0.17951863266E+02  0.11192050032E+03  0.11356068466E+03  0.41800000000E+01 0. -1.
        -11    1    1    2    0    0  0.69504003805E+02 -0.43945959689E+02  0.11668167817E+03  0.14274686665E+03  0.00000000000E+00 0.  1.
         11    1    1    2    0    0 -0.29784516337E+01 -0.73132657978E+02  0.20339174152E+03  0.21616072112E+03  0.00000000000E+00 0. -1.
</event>
<event>
 7    1  0.2334784E-009  0.1794341E+03  0.7561462E-02  0.1168352E+00
          1   -1    0    0  501    0  0.00000000000E+00  0.00000000000E+00  0.96636435772E+03  0.96636435772E+03  0.00000000000E+00 0. -1.
         -1   -1    0    0    0  501 -0.00000000000E+00 -0.00000000000E+00 -0.50366064332E+02  0.50366064332E+02  0.00000000000E+00 0.  1.
         25    2    1    2    0    0 -0.20566999266E+02  0.14701401787E+03  0.75283292863E+03  0.77745765697E+03  0.12508743755E+03 0.  0.
          5    1    3    3  502    0 -0.65563351981E+02  0.10395443654E+03  0.37906072383E+03  0.39850920033E+03  0.41800000000E+01 0.  1.
         -5    1    3    3    0  502  0.44996352715E+02  0.43059581338E+02  0.37377220480E+03  0.37894845664E+03  0.41800000000E+01 0.  1.
        -11    1    1    2    0    0  0.50797420454E+02 -0.47778847185E+02  0.50358560511E+02  0.86018490918E+02  0.00000000000E+00 0. -1.
         11    1    1    2    0    0 -0.30230421188E+02 -0.99235170690E+02  0.11280680425E+03  0.15325427417E+03  0.00000000000E+00 0.  1.
</event>
<event>
 7    1  0.2334784E-009  0.8846465E+02  0.7561462E-02  0.1306613E+00
         -2   -1    0    0    0  501 -0.00000000000E+00  0.00000000000E+00  0.28658432953E+02  0.28658432953E+02  0.00000000000E+00 0.  1.
          2   -1    0    0  501    0  0.00000000000E+00 -0.00000000000E+00 -0.52049342157E+03  0.52049342157E+03  0.00000000000E+00 0. -1.
         25    2    1    2    0    0 -0.48712139582E+02  0.11587536449E+02 -0.33182147709E+03  0.35813222246E+03  0.12508418193E+03 0.  0.
          5    1    3    3  502    0 -0.20159296665E+02  0.45775524307E+02 -0.29760750967E+03  0.30181036775E+03  0.41800000000E+01 0.  1.
         -5    1    3    3    0  502 -0.28552842917E+02 -0.34187987858E+02 -0.34213967416E+02  0.56321854717E+02  0.41800000000E+01 0.  1.
        -11    1    1    2    0    0  0.35554814342E+02  0.24770522465E+02 -0.23828837453E+02  0.49452372041E+02  0.00000000000E+00 0.  1.
         11    1    1    2    0    0  0.13157325240E+02 -0.36358058914E+02 -0.13618467408E+03  0.14156726002E+03  0.00000000000E+00 0. -1.
</event>
<event>
 7    1  0.2334784E-009  0.1015568E+03  0.7561462E-02  0.1277056E+00
          2   -1    0    0  501    0  0.00000000000E+00  0.00000000000E+00  0.69287478126E+02  0.69287478126E+02  0.00000000000E+00 0. -1.
         -2   -1    0    0    0  501 -0.00000000000E+00 -0.00000000000E+00 -0.28648142854E+03  0.28648142854E+03  0.00000000000E+00 0.  1.
         25    2    1    2    0    0 -0.36707084474E+02 -0.73577888186E+02 -0.72393849810E+02  0.16628112968E+03  0.12508968350E+03 0.  0.
          5    1    3    3  502    0  0.21126340113E+01 -0.80608395655E+02  0.33100060430E+01  0.80812160053E+02  0.41800000000E+01 0.  1.
         -5    1    3    3    0  502 -0.38819718485E+02  0.70305074685E+01 -0.75703855853E+02  0.85468969629E+02  0.41800000000E+01 0.  1.
        -11    1    1    2    0    0  0.31283534154E+02  0.54259715518E+02 -0.24064179048E+02  0.67095908597E+02  0.00000000000E+00 0. -1.
         11    1    1    2    0    0  0.54235503197E+01  0.19318172668E+02 -0.12073592156E+03  0.12239186839E+03  0.00000000000E+00 0.  1.
</event>
<event>
 7    1  0.2334784E-009  0.2069318E+03  0.7561462E-02  0.1144019E+00
          1   -1    0    0  501    0  0.00000000000E+00  0.00000000000E+00  0.55553204264E+02  0.55553204264E+02  0.00000000000E+00 0. -1.
         -1   -1    0    0    0  501 -0.00000000000E+00 -0.00000000000E+00 -0.13159242854E+04  0.13159242854E+04  0.00000000000E+00 0.  1.
         25    2    1    2    0    0  0.16580500782E+03 -0.10516950844E+03 -0.10230059639E+04  0.10491617359E+04  0.12508884823E+03 0.  0.
          5    1    3    3  502    0  0.27053070208E+02 -0.54010673379E+02 -0.12321351022E+03  0.13728824767E+03  0.41800000000E+01 0.  1.
         -5    1    3    3    0  502  0.13875193761E+03 -0.51158835066E+02 -0.89979245364E+03  0.91187348828E+03  0.41800000000E+01 0.  1.
        -11    1    1    2    0    0 -0.58476849926E+02  0.52192134142E+01 -0.12314650319E+03  0.13642523013E+03  0.00000000000E+00 0. -1.
         11    1    1    2    0    0 -0.10732815789E+03  0.99950295030E+02 -0.11421861404E+03  0.18589052356E+03  0.00000000000E+00 0.  1.
</event>
<event>
 7    1  0.2334784E-009  0.1908227E+03  0.7561462E-02  0.1157721E+00
          2   -1    0    0  501    0  0.00000000000E+00  0.00000000000E+00  0.32310184527E+03  0.32310184527E+03  0.00000000000E+00 0. -1.
         -2   -1    0    0    0  501 -0.00000000000E+00 -0.00000000000E+00 -0.13063887135E+03  0.13063887135E+03  0.00000000000E+00 0.  1.
         25    2    1    2    0    0 -0.38904173851E-01 -0.17661733092E+03  0.97512324817E+02  0.23738218352E+03  0.12509182414E+03 0.  0.
          5    1    3    3  502    0 -0.40556377403E+02 -0.11670222791E+03  0.10365640747E+02  0.12405300744E+03  0.41800000000E+01 0. -1.
         -5    1    3    3    0  502  0.40517473229E+02 -0.59915103007E+02  0.87146684070E+02  0.11332917607E+03  0.41800000000E+01 0. -1.
        -11    1    1    2    0    0 -0.23840666816E+02  0.13892955215E+03  0.41931621384E+02  0.14706481131E+03  0.00000000000E+00 0.  1.
         11    1    1    2    0    0  0.23879570990E+02  0.37687778769E+02  0.53019027715E+02  0.69293721787E+02  0.00000000000E+00 0. -1.
</event>
<event>
 7    1  0.2334784E-009  0.1424579E+03  0.7561462E-02  0.1210059E+00
         -3   -1    0    0    0  501 -0.00000000000E+00  0.00000000000E+00  0.27060533480E+03  0.27060533480E+03  0.00000000000E+00 0.  1.
          3   -1    0    0  501    0  0.00000000000E+00 -0.00000000000E+00 -0.96876907992E+02  0.96876907992E+02  0.00000000000E+00 0. -1.
         25    2    1    2    0    0  0.10248344993E+03  0.45691229876E+02  0.13892613118E+03  0.21803376962E+03  0.12509080211E+03 0.  0.
          5    1    3    3  502    0  0.49421115136E+02  0.87110738488E+02  0.89966467238E+02  0.13469285433E+03  0.41800000000E+01 0. -1.
         -5    1    3    3    0  502  0.53062334794E+02 -0.41419508612E+02  0.48959663941E+02  0.83340915286E+02  0.41800000000E+01 0. -1.
        -11    1    1    2    0    0 -0.68187663706E+02 -0.47154695421E+02 -0.19536638526E+02  0.85175131505E+02  0.00000000000E+00 0. -1.
         11    1    1    2    0    0 -0.34295786224E+02  0.14634655451E+01  0.54338934159E+02  0.64273341672E+02  0.00000000000E+00 0.  1.
</event>
<event>
 7    1  0.2334784E-009  0.1756181E+03  0.7561462E-02  0.1172113E+00
         -1   -1    0    0    0  501 -0.00000000000E+00  0.00000000000E+00  0.58424118774E+02  0.58424118774E+02  0.00000000000E+00 0.  1.
          1   -1    0    0  501    0  0.00000000000E+00 -0.00000000000E+00 -0.59081866769E+03  0.59081866769E+03  0.00000000000E+00 0. -1.
         25    2    1    2    0    0  0.32743468946E+02  0.14552038393E+03 -0.31579098204E+03  0.37097235679E+03  0.12509287856E+03 0.  0.
          5    1    3    3  502    0  0.63146710372E+02  0.27269874743E+02 -0.14961074257E+03  0.16471794010E+03  0.41800000000E+01 0. -1.
         -5    1    3    3    0  502 -0.30403241427E+02  0.11825050919E+03 -0.16618023947E+03  0.20625441669E+03  0.41800000000E+01 0. -1.
        -11    1    1    2    0    0 -0.33894680713E+02 -0.31942865710E+02 -0.12152798344E+03  0.13014701998E+03  0.00000000000E+00 0. -1.
         11    1    1    2    0    0  0.11512117674E+01 -0.11357751822E+03 -0.95075583439E+02  0.14812340970E+03  0.00000000000E+00 0.  1.
</event>
<event>
 7    1  0.2334784E-009  0.9640148E+02  0.7561462E-02  0.1288050E+00
         -2   -1    0    0    0  501 -0.00000000000E+00  0.00000000000E+00  0.40628075890E+02  0.40628075890E+02  0.00000000000E+00 0. -1.
          2   -1    0    0  501    0  0.00000000000E+00 -0.00000000000E+00 -0.47138128523E+03  0.47138128523E+03  0.00000000000E+00 0.  1.
         25    2    1    2    0    0  0.63476393399E+01 -0.46023479609E+02 -0.36862034891E+03  0.39203207110E+03  0.12509888064E+03 0.  0.
          5    1    3    3  502    0 -0.31078421055E+02  0.27133749214E+02 -0.62192034670E+02  0.74749114898E+02  0.41800000000E+01 0.  1.
         -5    1    3    3    0  502  0.37426060395E+02 -0.73157228823E+02 -0.30642831424E+03  0.31728295620E+03  0.41800000000E+01 0.  1.
        -11    1    1    2    0    0 -0.19960976930E+02  0.50836565248E+02  0.15908712888E+01  0.54638153681E+02  0.00000000000E+00 0.  1.
         11    1    1    2    0    0  0.13613337590E+02 -0.48130856398E+01 -0.63723731719E+02  0.65339136342E+02  0.00000000000E+00 0. -1.
</event>
<event>
 7    1  0.2334784E-009  0.1355401E+03  0.7561462E-02  0.1219459E+00
         -1   -1    0    0    0  501 -0.00000000000E+00  0.00000000000E+00  0.10973171315E+03  0.10973171315E+03  0.00000000000E+00 0.  1.
          1   -1    0    0  501    0  0.00000000000E+00 -0.00000000000E+00 -0.17053627608E+03  0.17053627608E+03  0.00000000000E+00 0. -1.
         25    2    1    2    0    0 -0.29322775427E+02  0.77657260105E+02 -0.34469947268E+02  0.15403293903E+03  0.12508994298E+03 0.  0.
          5    1    3    3  502    0 -0.63020317113E+02  0.91782089101E+02 -0.36391447172E+02  0.11720632268E+03  0.41800000000E+01 0.  1.
         -5    1    3    3    0  502  0.33697541687E+02 -0.14124828996E+02  0.19214999049E+01  0.36826616350E+02  0.41800000000E+01 0.  1.
        -11    1    1    2    0    0 -0.32959311267E+02 -0.27271998924E+02 -0.14965575608E+02  0.45321590635E+02  0.00000000000E+00 0. -1.
         11    1    1    2    0    0  0.62282086693E+02 -0.50385261181E+02 -0.11369040060E+02  0.80913459566E+02  0.00000000000E+00 0.  1.
</event>
<event>
 7    1  0.4083802E-009  0.1279784E+03  0.7561462E-02  0.1230487E+00
         -1   -1    0    0    0  501 -0.00000000000E+00  0.00000000000E+00  0.40663302406E+02  0.40663302406E+02  0.00000000000E+00 0.  1.
          1   -1    0    0  501    0  0.00000000000E+00 -0.00000000000E+00 -0.59531279666E+03  0.59531279666E+03  0.00000000000E+00 0. -1.
         25    2    1    2    0    0 -0.73853819025E+02 -0.69071178678E+02 -0.39211207611E+03  0.42382233883E+03  0.12509308675E+03 0.  0.
          5    1    3    3  502    0 -0.59262989302E+01 -0.77529898138E+02 -0.11885932029E+03  0.14209509684E+03  0.41800000000E+01 0.  1.
         -5    1    3    3    0  502 -0.67927520095E+02  0.84587194592E+01 -0.27325275581E+03  0.28172724199E+03  0.41800000000E+01 0.  1.
        -11    1    1    2    0    0  0.49839317502E+02  0.17853201837E+02 -0.16357113727E+02  0.55409832650E+02  0.00000000000E+00 0.  1.
         11    1    1    2    0    0  0.24014501523E+02  0.51217976841E+02 -0.14618030442E+03  0.15674392759E+03  0.00000000000E+00 0. -1.
</event>
<event>
 7    1  0.2334784E-009  0.9909481E+02  0.7561462E-02  0.1282211E+00
         -1   -1    0    0    0  501 -0.00000000000E+00  0.00000000000E+00  0.97689173896E+02  0.97689173896E+02  0.00000000000E+00 0.  1.
          1   -1    0    0  501    0  0.00000000000E+00 -0.00000000000E+00 -0.20844080892E+03  0.20844080892E+03  0.00000000000E+00 0. -1.
         25    2    1    2    0    0  0.31039301670E+02 -0.68953752215E+02 -0.12132289074E+03  0.18996072871E+03  0.12509107260E+03 0.  0.
          5    1    3    3  502    0  0.35032225312E+01  0.24319255647E+02  0.96921680918E+01  0.26741527362E+02  0.41800000000E+01 0.  1.
         -5    1    3    3    0  502  0.27536079138E+02 -0.93273007862E+02 -0.13101505883E+03  0.16321920135E+03  0.41800000000E+01 0.  1.
        -11    1    1    2    0    0 -0.13084451353E+02  0.37354084006E+02 -0.38425841586E+02  0.55164080348E+02  0.00000000000E+00 0. -1.
         11    1    1    2    0    0 -0.17954850316E+02  0.31599668209E+02  0.48997097301E+02  0.61005173753E+02  0.00000000000E+00 0.  1.
</event>
<event>
 7    1  0.2334784E-009  0.9781006E+02  0.7561462E-02  0.1284970E+00
         -2   -1    0    0    0  501 -0.00000000000E+00  0.00000000000E+00  0.22388844117E+02  0.22388844117E+02  0.00000000000E+00 0.  1.
          2   -1    0    0  501    0  0.00000000000E+00 -0.00000000000E+00 -0.58407732280E+03  0.58407732280E+03  0.00000000000E+00 0. -1.
         25    2    1    2    0    0  0.12089619415E+02  0.33958686171E+01 -0.42159494737E+03  0.43993995667E+03  0.12508866858E+03 0.  0.
          5    1    3    3  502    0 -0.28280348678E+02 -0.50438769432E+02 -0.17933740168E+03  0.18847605584E+03  0.41800000000E+01 0. -1.
         -5    1    3    3    0  502  0.40369968093E+02  0.53834638049E+02 -0.24225754569E+03  0.25146390083E+03  0.41800000000E+01 0. -1.
        -11    1    1    2    0    0 -0.14150832396E+02  0.31884326775E+02 -0.17669381091E+02  0.39103240013E+02  0.00000000000E+00 0.  1.
         11    1    1    2    0    0  0.20612129809E+01 -0.35280195392E+02 -0.12242415022E+03  0.12742297023E+03  0.00000000000E+00 0. -1.
</event>
<event>
 7    1  0.2334784E-009  0.1512075E+03  0.7561462E-02  0.1198997E+00
          3   -1    0    0  501    0  0.00000000000E+00  0.00000000000E+00  0.48385933598E+03  0.48385933598E+03  0.00000000000E+00 0. -1.
         -3   -1    0    0    0  501 -0.00000000000E+00 -0.00000000000E+00 -0.70341752320E+02  0.70341752320E+02  0.00000000000E+00 0.  1.
         25    2    1    2    0    0  0.15255760215E+02  0.11898752213E+03  0.85029613035E+02  0.19304917181E+03  0.12508868454E+03 0.  0.
          5    1    3    3  502    0 -0.29446941378E+02 -0.75147500053E+01  0.42153606672E+02  0.52134372343E+02  0.41800000000E+01 0.  1.
         -5    1    3    3    0  502  0.44702701593E+02  0.12650227214E+03  0.42876006363E+02  0.14091479946E+03  0.41800000000E+01 0.  1.
        -11    1    1    2    0    0  0.23148368912E+02 -0.77887394242E+02  0.11794774650E+03  0.14322696698E+03  0.00000000000E+00 0.  1.
         11    1    1    2    0    0 -0.38404129128E+02 -0.41100127892E+02  0.21054022413E+03  0.21792494952E+03  0.00000000000E+00 0. -1.
</event>
<event>
 7    1  0.2334784E-009  0.9537614E+02  0.7561462E-02  0.1290331E+00
          1   -1    0    0  501    0  0.00000000000E+00  0.00000000000E+00  0.19455208284E+02  0.19455208284E+02  0.00000000000E+00 0. -1.
         -1   -1    0    0    0  501 -0.00000000000E+00 -0.00000000000E+00 -0.69262660437E+03  0.69262660437E+03  0.00000000000E+00 0.  1.
         25    2    1    2    0    0  0.70091732861E+01 -0.34990006160E+01 -0.50841251132E+03  0.52363378716E+03  0.12509072656E+03 0.  0.
          5    1    3    3  502    0  0.58015342744E+02 -0.14755364500E+02 -0.15245236221E+03  0.16383740696E+03  0.41800000000E+01 0. -1.
         -5    1    3    3    0  502 -0.51006169458E+02  0.11256363884E+02 -0.35596014911E+03  0.35979638020E+03  0.41800000000E+01 0. -1.
        -11    1    1    2    0    0 -0.18900944546E+02 -0.34056825425E+02 -0.13067410406E+03  0.13635554457E+03  0.00000000000E+00 0.  1.
         11    1    1    2    0    0  0.11891771260E+02  0.37555826041E+02 -0.34084780704E+02  0.52092480925E+02  0.00000000000E+00 0. -1.
</event>
<event>
 7    1  0.2334784E-009  0.8982657E+02  0.7561462E-02  0.1303272E+00
          1   -1    0    0  501    0  0.00000000000E+00  0.00000000000E+00  0.22098091370E+03  0.22098091370E+03  0.00000000000E+00 0. -1.
         -1   -1    0    0    0  501 -0.00000000000E+00 -0.00000000000E+00 -0.58283566680E+02  0.58283566680E+02  0.00000000000E+00 0.  1.
         25    2    1    2    0    0  0.23261063014E+02 -0.12498178077E+01  0.56793946183E+02  0.13934178024E+03  0.12509172755E+03 0.  0.
          5    1    3    3  502    0  0.14887775935E+02 -0.53806075420E+02 -0.67057672987E+01  0.56384211793E+02  0.41800000000E+01 0.  1.
         -5    1    3    3    0  502  0.83732870788E+01  0.52556257613E+02  0.63499713482E+02  0.82957568449E+02  0.41800000000E+01 0.  1.
        -11    1    1    2    0    0  0.11516910835E+02  0.25438002006E+02  0.90721997393E+02  0.94922136471E+02  0.00000000000E+00 0. -1.
         11    1    1    2    0    0 -0.34777973849E+02 -0.24188184199E+02  0.15181403443E+02  0.45000563667E+02  0.00000000000E+00 0.  1.
</event>
<event>
 7    1  0.2334784E-009  0.1048862E+03  0.7561462E-02  0.1270344E+00
          2   -1    0    0  501    0  0.00000000000E+00  0.00000000000E+00  0.30426087534E+03  0.30426087534E+03  0.00000000000E+00 0. -1.
         -2   -1    0    0    0  501 -0.00000000000E+00 -0.00000000000E+00 -0.54850605332E+02  0.54850605332E+02  0.00000000000E+00 0.  1.
         25    2    1    2    0    0 -0.51749447872E+02  0.41239724565E+01  0.20634333645E+03  0.24682046410E+03  0.12509099288E+03 0.  0.
          5    1    3    3  502    0 -0.16112135602E+02 -0.56930907729E+02  0.12882360244E+03  0.14182285470E+03  0.41800000000E+01 0.  1.
         -5    1    3    3    0  502 -0.35637312270E+02  0.61054880185E+02  0.77519734006E+02  0.10499760940E+03  0.41800000000E+01 0.  1.
        -11    1    1    2    0    0 -0.11998124886E+02  0.84357671238E+01  0.44958494895E+02  0.47290415847E+02  0.00000000000E+00 0. -1.
         11    1    1    2    0    0  0.63747572758E+02 -0.12559739580E+02 -0.18915613296E+01  0.65000600729E+02  0.00000000000E+00 0.  1.
</event>
<event>
 7    1  0.2334784E-009  0.1201068E+03  0.7561462E-02  0.1242921E+00
          1   -1    0    0  501    0  0.00000000000E+00  0.00000000000E+00  0.81209053210E+02  0.81209053210E+02  0.00000000000E+00 0. -1.
         -1   -1    0    0    0  501 -0.00000000000E+00 -0.00000000000E+00 -0.22188463221E+03  0.22188463221E+03  0.00000000000E+00 0.  1.
         25    2    1    2    0    0  0.39046281186E+02 -0.52258955781E+02 -0.47156678421E+02  0.14875015516E+03  0.12508895158E+03 0.  0.
          5    1    3    3  502    0 -0.11169519695E+02  0.24988235087E+02 -0.49247303906E+02  0.56497251305E+02  0.41800000000E+01 0.  1.
         -5    1    3    3    0  502  0.50215800880E+02 -0.77247190868E+02  0.20906254852E+01  0.92252903857E+02  0.41800000000E+01 0.  1.
        -11    1    1    2    0    0  0.26577064027E+02 -0.11354327247E+02 -0.36749741510E+02  0.46752589025E+02  0.00000000000E+00 0.  1.
         11    1    1    2    0    0 -0.65623345212E+02  0.63613283028E+02 -0.56769159073E+02  0.10759094124E+03  0.00000000000E+00 0. -1.
</event>
<event>
 7    1  0.2334784E-009  0.1181798E+03  0.7561462E-02  0.1246130E+00
          1   -1    0    0  501    0  0.00000000000E+00  0.00000000000E+00  0.26282677562E+03  0.26282677562E+03  0.00000000000E+00 0. -1.
         -1   -1    0    0    0  501 -0.00000000000E+00 -0.00000000000E+00 -0.12254204523E+03  0.12254204523E+03  0.00000000000E+00 0.  1.
         25    2    1    2    0    0 -0.10016448887E+03  0.41854217794E+02  0.17589099938E+03  0.24159830378E+03  0.12508955331E+03 0.  0.
          5    1    3    3  502    0 -0.42866357461E+02  0.53045305165E+02  0.14402440657E+02  0.69830020041E+02  0.41800000000E+01 0.  1.
         -5    1    3    3    0  502 -0.57298131411E+02 -0.11191087371E+02  0.16148855873E+03  0.17176828374E+03  0.41800000000E+01 0.  1.
        -11    1    1    2    0    0  0.57432952233E+02 -0.16258539927E+02 -0.63113706362E+02  0.86869005137E+02  0.00000000000E+00 0.  1.
         11    1    1    2    0    0  0.42731536639E+02 -0.25595677867E+02  0.27507437373E+02  0.56901511929E+02  0.00000000000E+00 0. -1.
</event>
<event>
 7    1  0.2334784E-009  0.1244033E+03  0.7561462E-02  0.1236005E+00
         -2   -1    0    0    0  501 -0.00000000000E+00  0.00000000000E+00  0.47717311807E+02  0.47717311807E+02  0.00000000000E+00 0.  1.
          2   -1    0    0  501    0  0.00000000000E+00 -0.00000000000E+00 -0.38109519780E+03  0.38109519780E+03  0.00000000000E+00 0. -1.
         25    2    1    2    0    0  0.28047621197E+02 -0.59928835173E+02 -0.11728140292E+03  0.18379708441E+03  0.12509319096E+03 0.  0.
          5    1    3    3  502    0  0.65096969757E+02 -0.21724846682E+01 -0.86791597908E+02  0.10859368779E+03  0.41800000000E+01 0.  1.
         -5    1    3    3    0  502 -0.37049348561E+02 -0.57756350505E+02 -0.30489805017E+02  0.75203396614E+02  0.41800000000E+01 0.  1.
        -11    1    1    2    0    0 -0.62788946042E+02  0.43348430933E+02 -0.15577925074E+03  0.17346098458E+03  0.00000000000E+00 0. -1.
         11    1    1    2    0    0  0.34741324845E+02  0.16580404240E+02 -0.60317232327E+02  0.71554440619E+02  0.00000000000E+00 0.  1.
</event>
<event>
 7    1  0.2334784E-009  0.1066923E+03  0.7561462E-02  0.1266821E+00
          1   -1    0    0  501    0  0.00000000000E+00  0.00000000000E+00  0.14850078653E+03  0.14850078653E+03  0.00000000000E+00 0. -1.
         -1   -1    0    0    0  501 -0.00000000000E+00 -0.00000000000E+00 -0.11759977070E+03  0.11759977070E+03  0.00000000000E+00 0.  1.
         25    2    1    2    0    0 -0.38047929527E+02 -0.15472712305E+02  0.79140404911E+02  0.15361601185E+03  0.12509046983E+03 0.  0.
          5    1    3    3  502    0 -0.42662173109E+01  0.43664024083E+02  0.72784434293E+02  0.85086978349E+02  0.41800000000E+01 0. -1.
         -5    1    3    3    0  502 -0.33781712216E+02 -0.59136736388E+02  0.63559706187E+01  0.68529033506E+02  0.41800000000E+01 0. -1.
        -11    1    1    2    0    0  0.67263507588E+02  0.22688374292E+02 -0.39052770963E+02  0.81020125284E+02  0.00000000000E+00 0.  1.
         11    1    1    2    0    0 -0.29215578062E+02 -0.72156619866E+01 -0.91866181191E+01  0.31464420094E+02  0.00000000000E+00 0. -1.
</event>
<event>
 6    1  0.2334784E-009  0.1615749E+03  0.7561462E-02  0.1186930E+00
          2   -1    0    0  501    0  0.00000000000E+00  0.00000000000E+00  0.82670659331E+03  0.82670659331E+03  0.00000000000E+00 0. -1.
         -2   -1    0    0    0  501 -0.00000000000E+00 -0.00000000000E+00 -0.36124049594E+02  0.36124049594E+02  0.00000000000E+00 0.  1.
          5    1    1    2  502    0  0.26740758462E+02  0.14164840008E+03  0.42189649042E+03  0.44586260040E+03  0.41800000000E+01 0. -1.
         -5    1    1    2    0  502 -0.31426073779E+02 -0.13251164573E+02  0.77446910833E+02  0.84727137762E+02  0.41800000000E+01 0. -1.
        -11    1    1    2    0    0  0.14244898650E+02 -0.13314472162E+03  0.29230313436E+03  0.32151447306E+03  0.00000000000E+00 0. -1.
         11    1    1    2    0    0 -0.95595833337E+01  0.47474861162E+01 -0.10639918877E+01  0.10726431684E+02  0.00000000000E+00 0.  1.
</event>
<event>
 7    1  0.2334784E-009  0.1235199E+03  0.7561462E-02  0.1237401E+00
         -2   -1    0    0    0  501 -0.00000000000E+00  0.00000000000E+00  0.16503408500E+03  0.16503408500E+03  0.00000000000E+00 0.  1.
          2   -1    0    0  501    0  0.00000000000E+00 -0.00000000000E+00 -0.14555963114E+03  0.14555963114E+03  0.00000000000E+00 0. -1.
         25    2    1    2    0    0 -0.52877994746E+01  0.80099696224E+02  0.65341676606E+02  0.16236021131E+03  0.12508949339E+03 0.  0.
          5    1    3    3  502    0 -0.26285908819E+02  0.97228069409E+02  0.82288380940E+02  0.13012723205E+03  0.41800000000E+01 0.  1.
         -5    1    3    3    0  502  0.20998109344E+02 -0.17128373185E+02 -0.16946704334E+02  0.32232979257E+02  0.41800000000E+01 0.  1.
        -11    1    1    2    0    0 -0.40231092746E+02 -0.50301015784E+02  0.15472220900E+02  0.66242906277E+02  0.00000000000E+00 0.  1.
         11    1    1    2    0    0  0.45518892221E+02 -0.29798680440E+02 -0.61339443648E+02  0.81990598559E+02  0.00000000000E+00 0. -1.
</event>
<event>
 7    1  0.2334784E-009  0.2177630E+03  0.7561462E-02  0.1135562E+00
          1   -1    0    0  501    0  0.00000000000E+00  0.00000000000E+00  0.89041059735E+03  0.89041059735E+03  0.00000000000E+00 0. -1.
         -1   -1    0    0    0  501 -0.00000000000E+00 -0.00000000000E+00 -0.62679016804E+02  0.62679016804E+02  0.00000000000E+00 0.  1.
         25    2    1    2    0    0 -0.80681741549E+02  0.18480196740E+03  0.30772052335E+03  0.38858800058E+03  0.12508958041E+03 0.  0.
          5    1    3    3  502    0 -0.10936552772E+03  0.13230413780E+03  0.18750814127E+03  0.25424786917E+03  0.41800000000E+01 0.  1.
         -5    1    3    3    0  502  0.28683786174E+02  0.52497829601E+02  0.12021238208E+03  0.13434013141E+03  0.41800000000E+01 0.  1.
        -11    1    1    2    0    0  0.41530022679E+02 -0.13020737846E+03  0.23659954603E+03  0.27323625194E+03  0.00000000000E+00 0.  1.
         11    1    1    2    0    0  0.39151718870E+02 -0.54594588947E+02  0.28341151116E+03  0.29126536164E+03  0.00000000000E+00 0. -1.
</event>
<event>
 7    1  0.2334784E-009  0.2436936E+03  0.7561462E-02  0.1117356E+00
          1   -1    0    0  501    0  0.00000000000E+00  0.00000000000E+00  0.20539406265E+04  0.20539406265E+04  0.00000000000E+00 0. -1.
         -1   -1    0    0    0  501 -0.00000000000E+00 -0.00000000000E+00 -0.45086358300E+02  0.45086358300E+02  0.00000000000E+00 0.  1.
         25    2    1    2    0    0  0.20871738220E+03 -0.75411452034E+02  0.16408798945E+04  0.16605371357E+04  0.12508764208E+03 0.  0.
          5    1    3    3  502    0  0.27214892625E+02  0.28865741246E+02  0.41439311725E+03  0.41630879095E+03  0.41800000000E+01 0. -1.
         -5    1    3    3    0  502  0.18150248958E+03 -0.10427719328E+03  0.12264867772E+04  0.12442283447E+04  0.41800000000E+01 0. -1.
        -11    1    1    2    0    0 -0.20317315878E+02  0.42183079320E+02  0.63337448965E+02  0.78764445956E+02  0.00000000000E+00 0.  1.
         11    1    1    2    0    0 -0.18840006633E+03  0.33228372713E+02  0.30463692478E+03  0.35972540317E+03  0.00000000000E+00 0. -1.
</event>
<event>
 7    1  0.2334784E-009  0.1804935E+03  0.7561462E-02  0.1167326E+00
         -1   -1    0    0    0  501 -0.00000000000E+00  0.00000000000E+00  0.93828678112E+03  0.93828678112E+03  0.00000000000E+00 0.  1.
          1   -1    0    0  501    0  0.00000000000E+00 -0.00000000000E+00 -0.42964993805E+02  0.42964993805E+02  0.00000000000E+00 0. -1.
         25    2    1    2    0    0  0.16406314151E+02  0.15036854781E+03  0.28966432042E+03  0.34991101878E+03  0.12510969277E+03 0.  0.
          5    1    3    3  502    0 -0.30770633538E+02  0.12852818551E+03  0.14551891895E+03  0.19662033092E+03  0.41800000000E+01 0. -1.
         -5    1    3    3    0  502  0.47176947689E+02  0.21840362295E+02  0.14414540147E+03  0.15329068786E+03  0.41800000000E+01 0. -1.
        -11    1    1    2    0    0 -0.54501711363E+02 -0.86469786710E+02  0.39181054907E+03  0.40492340871E+03  0.00000000000E+00 0.  1.
         11    1    1    2    0    0  0.38095397213E+02 -0.63898761098E+02  0.21384691782E+03  0.22641734744E+03  0.00000000000E+00 0. -1.
</event>
<event>
 7    1  0.2334784E-009  0.1308615E+03  0.7561462E-02  0.1226183E+00
          1   -1    0    0  501    0  0.00000000000E+00  0.00000000000E+00  0.22125168926E+02  0.22125168926E+02  0.00000000000E+00 0. -1.
         -1   -1    0    0    0  501 -0.00000000000E+00 -0.00000000000E+00 -0.97873770147E+03  0.97873770147E+03  0.00000000000E+00 0.  1.
         25    2    1    2    0    0  0.71007322331E+02  0.36281666522E+02 -0.52960801974E+03  0.54999106606E+03  0.12508844480E+03 0.  0.
          5    1    3    3  502    0  0.87175117737E+01 -0.42584144115E+02 -0.22522395355E+03  0.22941819020E+03  0.41800000000E+01 0. -1.
         -5    1    3    3    0  502  0.62289810557E+02  0.78865810637E+02 -0.30438406619E+03  0.32057287586E+03  0.41800000000E+01 0. -1.
        -11    1    1    2    0    0 -0.58656331781E+02  0.18350184000E+02 -0.88396635157E+02  0.10766271229E+03  0.00000000000E+00 0. -1.
         11    1    1    2    0    0 -0.12350990550E+02 -0.54631850522E+02 -0.33860787765E+03  0.34320909205E+03  0.00000000000E+00 0.  1.
</event>
<event>
 7    1  0.2334784E-009  0.1872658E+03  0.7561462E-02  0.1160951E+00
          1   -1    0    0  501    0  0.00000000000E+00  0.00000000000E+00  0.75446494456E+03  0.75446494456E+03  0.00000000000E+00 0. -1.
         -1   -1    0    0    0  501 -0.00000000000E+00 -0.00000000000E+00 -0.55327714941E+02  0.55327714941E+02  0.00000000000E+00 0.  1.
         25    2    1    2    0    0  0.91282929865E+02 -0.14678812729E+03  0.34344500509E+03  0.40432690667E+03  0.12508576391E+03 0.  0.
          5    1    3    3  502    0 -0.11590598310E+02 -0.52813745865E+02  0.31655787227E+02  0.62794864332E+02  0.41800000000E+01 0.  1.
         -5    1    3    3    0  502  0.10287352817E+03 -0.93974381428E+02  0.31178921786E+03  0.34153204233E+03  0.41800000000E+01 0.  1.
        -11    1    1    2    0    0 -0.89756532612E+02  0.10112130538E+03  0.18742963892E+03  0.23110954782E+03  0.00000000000E+00 0.  1.
         11    1    1    2    0    0 -0.15263972529E+01  0.45666821911E+02  0.16826258560E+03  0.17435620501E+03  0.00000000000E+00 0. -1.
</event>
<event>
 7    1  0.2334784E-009  0.9961522E+02  0.7561462E-02  0.1281107E+00
          2   -1    0    0  501    0  0.00000000000E+00  0.00000000000E+00  0.53297177158E+03  0.53297177158E+03  0.00000000000E+00 0. -1.
         -2   -1    0    0    0  501 -0.00000000000E+00 -0.00000000000E+00 -0.27565843925E+02  0.27565843925E+02  0.00000000000E+00 0.  1.
         25    2    1    2    0    0 -0.50700757806E+02 -0.10767389395E+02  0.23663584179E+03  0.27263684291E+03  0.12509125860E+03 0.  0.
          5    1    3    3  502    0 -0.28969669848E+02  0.51338194479E+02  0.60531290362E+02  0.84595280580E+02  0.41800000000E+01 0.  1.
         -5    1    3    3    0  502 -0.21731087958E+02 -0.62105583874E+02  0.17610455143E+03  0.18804156233E+03  0.41800000000E+01 0.  1.
        -11    1    1    2    0    0  0.15575731270E+02 -0.21472155568E+02  0.16665061675E+02  0.31327003527E+02  0.00000000000E+00 0.  1.
         11    1    1    2    0    0  0.35125026536E+02  0.32239544963E+02  0.25210502419E+03  0.25657376906E+03  0.00000000000E+00 0. -1.
</event>
<event>
 7    1  0.2334784E-009  0.1228858E+03  0.7561462E-02  0.1238411E+00
          2   -1    0    0  501    0  0.00000000000E+00  0.00000000000E+00  0.91074738093E+02  0.91074738093E+02  0.00000000000E+00 0. -1.
         -2   -1    0    0    0  501 -0.00000000000E+00 -0.00000000000E+00 -0.27032691799E+03  0.27032691799E+03  0.00000000000E+00 0.  1.
         25    2    1    2    0    0 -0.65546197910E+02 -0.43723579221E+02 -0.19532886479E+03  0.24496873141E+03  0.12509299944E+03 0.  0.
          5    1    3    3  502    0  0.16014837683E+01 -0.73947672976E+02 -0.97449235281E+02  0.12241180068E+03  0.41800000000E+01 0.  1.
         -5    1    3    3    0  502 -0.67147681678E+02  0.30224093755E+02 -0.97879629508E+02  0.12255693073E+03  0.41800000000E+01 0.  1.
        -11    1    1    2    0    0  0.49874631035E+02 -0.16787576213E+01  0.38882653381E+02  0.63262609667E+02  0.00000000000E+00 0. -1.
         11    1    1    2    0    0  0.15671566875E+02  0.45402336842E+02 -0.22805968491E+02  0.53170315006E+02  0.00000000000E+00 0.  1.
</event>
<event>
 7    1  0.2334784E-009  0.2079844E+03  0.7561462E-02  0.1143172E+00
         -2   -1    0    0    0  501 -0.00000000000E+00  0.00000000000E+00  0.13347431325E+03  0.13347431325E+03  0.00000000000E+00 0.  1.
          2   -1    0    0  501    0  0.00000000000E+00 -0.00000000000E+00 -0.45396057791E+03  0.45396057791E+03  0.00000000000E+00 0. -1.
         25    2    1    2    0    0 -0.19631730867E+03  0.11410350009E+01 -0.47078870161E+02  0.23748741349E+03  0.12506823700E+03 0.  0.
          5    1    3    3  502    0 -0.14051193766E+03 -0.39625095113E+02  0.11900309010E+02  0.14653614756E+03  0.41800000000E+01 0.  1.
         -5    1    3    3    0  502 -0.55805371010E+02  0.40766130113E+02 -0.58979179171E+02  0.90951265926E+02  0.41800000000E+01 0.  1.
        -11    1    1    2    0    0  0.48711625618E+02 -0.18397087374E+02 -0.19218108943E+02  0.55503252207E+02  0.00000000000E+00 0.  1.
         11    1    1    2    0    0  0.14760568306E+03  0.17256052373E+02 -0.25418928556E+03  0.29444422546E+03  0.00000000000E+00 0. -1.
</event>
<event>
 7    1  0.2334784E-009  0.1109318E+03  0.7561462E-02  0.1258854E+00
         -1   -1    0    0    0  501 -0.00000000000E+00  0.00000000000E+00  0.86887548515E+03  0.86887548515E+03  0.00000000000E+00 0.  1.
          1   -1    0    0  501    0  0.00000000000E+00 -0.00000000000E+00 -0.15134934469E+02  0.15134934469E+02  0.00000000000E+00 0. -1.
         25    2    1    2    0    0  0.27496381047E+02  0.15442013886E+02  0.55941039980E+03  0.57409174993E+03  0.12508731019E+03 0.  0.
          5    1    3    3  502    0  0.41958266971E+02  0.64119816947E+02  0.37499112853E+03  0.38276319830E+03  0.41800000000E+01 0. -1.
         -5    1    3    3    0  502 -0.14461885924E+02 -0.48677803061E+02  0.18441927127E+03  0.19132855163E+03  0.41800000000E+01 0. -1.
        -11    1    1    2    0    0 -0.23771012096E+02  0.35700969872E+02  0.17217946899E+03  0.17744122917E+03  0.00000000000E+00 0. -1.
         11    1    1    2    0    0 -0.37253689510E+01 -0.51142983758E+02  0.12215068189E+03  0.13247744053E+03  0.00000000000E+00 0.  1.
</event>
<event>
 7    1  0.2334784E-009  0.1420877E+03  0.7561462E-02  0.1210547E+00
         -2   -1    0    0    0  501 -0.00000000000E+00  0.00000000000E+00  0.31119265083E+02  0.31119265083E+02  0.00000000000E+00 0.  1.
          2   -1    0    0  501    0  0.00000000000E+00 -0.00000000000E+00 -0.75527902282E+03  0.75527902282E+03  0.00000000000E+00 0. -1.
         25    2    1    2    0    0  0.84874524540E+02  0.59603141489E+02 -0.31678140247E+03  0.35602387785E+03  0.12508527195E+03 0.  0.
          5    1    3    3  502    0  0.90197315251E+02  0.86372247287E+02 -0.19843154260E+03  0.23449577880E+03  0.41800000000E+01 0.  1.
         -5    1    3    3    0  502 -0.53227907106E+01 -0.26769105799E+02 -0.11834985987E+03  0.12152809905E+03  0.41800000000E+01 0.  1.
        -11    1    1    2    0    0 -0.91462938246E+02 -0.22852367788E+02 -0.34525183082E+03  0.35789178039E+03  0.00000000000E+00 0. -1.
         11    1    1    2    0    0  0.65884137052E+01 -0.36750773701E+02 -0.62126524456E+02  0.72482629669E+02  0.00000000000E+00 0.  1.
</event>
<event>
 7    1  0.2334784E-009  0.9548225E+02  0.7561462E-02  0.1290094E+00
         -1   -1    0    0    0  501 -0.00000000000E+00  0.00000000000E+00  0.45782164921E+02  0.45782164921E+02  0.00000000000E+00 0.  1.
          1   -1    0    0  501    0  0.00000000000E+00 -0.00000000000E+00 -0.45458691428E+03  0.45458691428E+03  0.00000000000E+00 0. -1.
         25    2    1    2    0    0 -0.80684038337E+02  0.16604055345E+02 -0.30560736819E+03  0.34033482091E+03  0.12508524346E+03 0.  0.
          5    1    3    3  502    0 -0.11374028528E+02  0.18622606555E+02  0.43918402168E+01  0.22647972543E+02  0.41800000000E+01 0. -1.
         -5    1    3    3    0  502 -0.69310009810E+02 -0.20185512092E+01 -0.30999920841E+03  0.31768684836E+03  0.41800000000E+01 0. -1.
        -11    1    1    2    0    0  0.22470393769E+02 -0.31967053042E+02  0.16728815221E+01  0.39110223841E+02  0.00000000000E+00 0.  1.
         11    1    1    2    0    0  0.58213644568E+02  0.15362997697E+02 -0.10487026269E+03  0.12092403445E+03  0.00000000000E+00 0. -1.
</event>
<event>
 7    1  0.2334784E-009  0.7676782E+02  0.7561462E-02  0.1338482E+00
          1   -1    0    0  501    0  0.00000000000E+00  0.00000000000E+00  0.18578726781E+03  0.18578726781E+03  0.00000000000E+00 0. -1.
         -1   -1    0    0    0  501 -0.00000000000E+00 -0.00000000000E+00 -0.98535432314E+02  0.98535432314E+02  0.00000000000E+00 0.  1.
         25    2    1    2    0    0 -0.50943506863E+02 -0.30755426906E+02 -0.83476954153E+01  0.13877273153E+03  0.12508816819E+03 0.  0.
          5    1    3    3  502    0  0.60345209692E+01 -0.26546201482E+02  0.49949576987E+02  0.57039888654E+02  0.41800000000E+01 0. -1.
         -5    1    3    3    0  502 -0.56978027832E+02 -0.42092254238E+01 -0.58297272402E+02  0.81732842872E+02  0.41800000000E+01 0. -1.
        -11    1    1    2    0    0  0.25679943895E+02 -0.37390069656E+01 -0.12863379576E+02  0.28963877946E+02  0.00000000000E+00 0.  1.
         11    1    1    2    0    0  0.25263562968E+02  0.34494433872E+02  0.10846291049E+03  0.11658609065E+03  0.00000000000E+00 0. -1.
</event>
<event>
 7    1  0.2334784E-009  0.1329594E+03  0.7561462E-02  0.1223129E+00
         -2   -1    0    0    0  501 -0.00000000000E+00  0.00000000000E+00  0.35510885474E+02  0.35510885474E+02  0.00000000000E+00 0.  1.
          2   -1    0    0  501    0  0.00000000000E+00 -0.00000000000E+00 -0.96359725568E+03  0.96359725568E+03  0.00000000000E+00 0. -1.
         25    2    1    2    0    0  0.10245718489E+03 -0.77436471584E+01 -0.77805018219E+03  0.79471236262E+03  0.12509282348E+03 0.  0.
          5    1    3    3  502    0 -0.92976758608E+00  0.43324353198E+02 -0.28727487291E+03  0.29055496735E+03  0.41800000000E+01 0.  1.
         -5    1    3    3    0  502  0.10338695248E+03 -0.51068000357E+02 -0.49077530928E+03  0.50415739527E+03  0.41800000000E+01 0.  1.
        -11    1    1    2    0    0 -0.34096961359E+02  0.16847560578E+02 -0.12559812645E+03  0.13123007445E+03  0.00000000000E+00 0. -1.
         11    1    1    2    0    0 -0.68360223535E+02 -0.91039134194E+01 -0.24438061564E+02  0.73165704086E+02  0.00000000000E+00 0.  1.
</event>
<event>
 7    1  0.2334784E-009  0.1015264E+03  0.7561462E-02  0.1277118E+00
         -2   -1    0    0    0  501 -0.00000000000E+00  0.00000000000E+00  0.23204187129E+03  0.23204187129E+03  0.00000000000E+00 0.  1.
          2   -1    0    0  501    0  0.00000000000E+00 -0.00000000000E+00 -0.12031623479E+03  0.12031623479E+03  0.00000000000E+00 0. -1.
         25    2    1    2    0    0  0.22291742348E+02  0.54324656618E+02 -0.59039514818E+02  0.15026806798E+03  0.12508692119E+03 0.  0.
          5    1    3    3  502    0 -0.30802225704E+02 -0.15878173763E+02  0.12177906352E+02  0.36968463770E+02  0.41800000000E+01 0.  1.
         -5    1    3    3    0  502  0.53093968052E+02  0.70202830381E+02 -0.71217421170E+02  0.11329960421E+03  0.41800000000E+01 0.  1.
        -11    1    1    2    0    0 -0.32428171487E+02 -0.90976144249E+01  0.10532594270E+02  0.35288644580E+02  0.00000000000E+00 0. -1.
         11    1    1    2    0    0  0.10136429139E+02 -0.45227042193E+02  0.16023255705E+03  0.16680139352E+03  0.00000000000E+00 0.  1.
</event>
<event>
 7    1  0.2334784E-009  0.1378568E+03  0.7561462E-02  0.1216242E+00
          2   -1    0    0  501    0  0.00000000000E+00  0.00000000000E+00  0.45161637573E+03  0.45161637573E+03  0.00000000000E+00 0. -1.
         -2   -1    0    0    0  501 -0.00000000000E+00 -0.00000000000E+00 -0.65461460916E+02  0.65461460916E+02  0.00000000000E+00 0.  1.
         25    2    1    2    0    0  0.30113460141E+02 -0.10764962519E+03  0.95933349667E+02  0.19324593243E+03  0.12508205521E+03 0.  0.
          5    1    3    3  502    0  0.93629769154E+01 -0.11337160802E+03  0.11671480044E+03  0.16303559085E+03  0.41800000000E+01 0.  1.
         -5    1    3    3    0  502  0.20750483226E+02  0.57219828375E+01 -0.20781450775E+02  0.30210341573E+02  0.41800000000E+01 0.  1.
        -11    1    1    2    0    0 -0.59654220140E+02  0.67100863339E+02  0.14895576645E+03  0.17392231657E+03  0.00000000000E+00 0.  1.
         11    1    1    2    0    0  0.29540759999E+02  0.40548761847E+02  0.14126579870E+03  0.14990958765E+03  0.00000000000E+00 0. -1.
</event>
<event>
 7    1  0.2334784E-009  0.1159786E+03  0.7561462E-02  0.1249883E+00
          1   -1    0    0  501    0  0.00000000000E+00  0.00000000000E+00  0.14803660453E+03  0.14803660453E+03  0.00000000000E+00 0. -1.
         -1   -1    0    0    0  501 -0.00000000000E+00 -0.00000000000E+00 -0.12518170341E+03  0.12518170341E+03  0.00000000000E+00 0.  1.
         25    2    1    2    0    0 -0.53087547544E+02 -0.29357681874E+00  0.74845489828E+02  0.15513891741E+03  0.12509141640E+03 0.  0.
          5    1    3    3  502    0 -0.56750476771E+02  0.50736157750E+02  0.70135681544E+02  0.10359179766E+03  0.41800000000E+01 0. -1.
         -5    1    3    3    0  502  0.36629292277E+01 -0.51029734569E+02  0.47098082841E+01  0.51547119753E+02  0.41800000000E+01 0. -1.
        -11    1    1    2    0    0 -0.83516481402E+01  0.33516272648E+02 -0.77472105828E+01  0.35399291387E+02  0.00000000000E+00 0. -1.
         11    1    1    2    0    0  0.61439195684E+02 -0.33222695830E+02 -0.44243378126E+02  0.82680099132E+02  0.00000000000E+00 0.  1.
</event>
<event>
 7    1  0.2334784E-009  0.1415551E+03  0.7561462E-02  0.1211252E+00
          1   -1    0    0  501    0  0.00000000000E+00  0.00000000000E+00  0.33984823841E+03  0.33984823841E+03  0.00000000000E+00 0. -1.
         -1   -1    0    0    0  501 -0.00000000000E+00 -0.00000000000E+00 -0.65433059653E+02  0.65433059653E+02  0.00000000000E+00 0.  1.
         25    2    1    2    0    0  0.55811500764E+02 -0.70022580789E+02  0.85514091805E+02  0.17601198958E+03  0.12509786225E+03 0.  0.
          5    1    3    3  502    0 -0.38888682416E+02 -0.66482062067E+01  0.25433615912E+02  0.47126101942E+02  0.41800000000E+01 0.  1.
         -5    1    3    3    0  502  0.94700183181E+02 -0.63374374582E+02  0.60080475892E+02  0.12888588764E+03  0.41800000000E+01 0.  1.
        -11    1    1    2    0    0 -0.27558861819E+02  0.90444521922E+02  0.12860924752E+03  0.15962468781E+03  0.00000000000E+00 0.  1.
         11    1    1    2    0    0 -0.28252638945E+02 -0.20421941133E+02  0.60291839437E+02  0.69644620681E+02  0.00000000000E+00 0. -1.
</event>
<event>
 7    1  0.2334784E-009  0.9514598E+02  0.7561462E-02  0.1290848E+00
          2   -1    0    0  501    0  0.00000000000E+00  0.00000000000E+00  0.74383153231E+03  0.74383153231E+03  0.00000000000E+00 0. -1.
         -2   -1    0    0    0  501 -0.00000000000E+00 -0.00000000000E+00 -0.24651776860E+02  0.24651776860E+02  0.00000000000E+00 0.  1.
         25    2    1    2    0    0 -0.72060175445E+02 -0.31689782698E+02  0.34069711964E+03  0.37137996881E+03  0.12510652538E+03 0.  0.
          5    1    3    3  502    0 -0.49620910677E+02 -0.23315473814E+01  0.32847398883E+03  0.33223531514E+03  0.41800000000E+01 0. -1.
         -5    1    3    3    0  502 -0.22439264768E+02 -0.29358235316E+02  0.12223130809E+02  0.39144653671E+02  0.41800000000E+01 0. -1.
        -11    1    1    2    0    0  0.27266830263E+02  0.48311888771E+02  0.30103607809E+03  0.30610494760E+03  0.00000000000E+00 0. -1.
         11    1    1    2    0    0  0.44793345183E+02 -0.16622106073E+02  0.77446557721E+02  0.90998392765E+02  0.00000000000E+00 0.  1.
</event>
<event>
 7    1  0.2334784E-009  0.1439770E+03  0.7561462E-02  0.1208076E+00
          1   -1    0    0  501    0  0.00000000000E+00  0.00000000000E+00  0.16860880554E+04  0.16860880554E+04  0.00000000000E+00 0. -1.
         -1   -1    0    0    0  501 -0.00000000000E+00 -0.00000000000E+00 -0.14890026499E+02  0.14890026499E+02  0.00000000000E+00 0.  1.
         25    2    1    2    0    0 -0.84204295055E+02 -0.49421474842E+02  0.12237672248E+04  0.12340122457E+04  0.12508859491E+03 0.  0.
          5    1    3    3  502    0 -0.11544091779E+03 -0.42015093766E+02  0.84942778640E+03  0.85827554451E+03  0.41800000000E+01 0. -1.
         -5    1    3    3    0  502  0.31236622734E+02 -0.74063810763E+01  0.37433943838E+03  0.37573670117E+03  0.41800000000E+01 0. -1.
        -11    1    1    2    0    0  0.62218646786E+02 -0.15497373326E+02  0.18800071474E+03  0.19863433070E+03  0.00000000000E+00 0. -1.
         11    1    1    2    0    0  0.21985648269E+02  0.64918848168E+02  0.25943008940E+03  0.26833150554E+03  0.00000000000E+00 0.  1.
</event>
<event>
 7    1  0.2676419E-009  0.1372548E+03  0.7561462E-02  0.1217071E+00
          2   -1    0    0  501    0  0.00000000000E+00  0.00000000000E+00  0.18526788509E+03  0.18526788509E+03  0.00000000000E+00 0. -1.
         -2   -1    0    0    0  501 -0.00000000000E+00 -0.00000000000E+00 -0.18066680936E+03  0.18066680936E+03  0.00000000000E+00 0.  1.
         25    2    1    2    0    0 -0.11050147146E+03  0.30101594301E+02  0.94567789609E+02  0.19418239789E+03  0.12508819146E+03 0.  0.
          5    1    3    3  502    0 -0.11641566073E+03 -0.30128797110E+01  0.28558153656E+02  0.11997801485E+03  0.41800000000E+01 0.  1.
         -5    1    3    3    0  502  0.59141892638E+01  0.33114474012E+02  0.66009635953E+02  0.74204383041E+02  0.41800000000E+01 0.  1.
        -11    1    1    2    0    0  0.77196409966E+02 -0.43003385853E+02 -0.16262751003E+02  0.89850175162E+02  0.00000000000E+00 0. -1.
         11    1    1    2    0    0  0.33305061497E+02  0.12901791552E+02 -0.73703962869E+02  0.81902121397E+02  0.00000000000E+00 0.  1.
</event>
<event>
 7    1  0.2334784E-009  0.1099346E+03  0.7561462E-02  0.1260691E+00
         -2   -1    0    0    0  501 -0.00000000000E+00  0.00000000000E+00  0.40292694527E+02  0.40292694527E+02  0.00000000000E+00 0.  1.
          2   -1    0    0  501    0  0.00000000000E+00 -0.00000000000E+00 -0.61589015621E+03  0.61589015621E+03  0.00000000000E+00 0. -1.
         25    2    1    2    0    0 -0.72155165680E+02 -0.59483493193E+02 -0.46100174722E+03  0.48673900895E+03  0.12509035932E+03 0.  0.
          5    1    3    3  502    0 -0.68178620302E+02 -0.42791147979E+02 -0.46206806374E+03  0.46904559964E+03  0.41800000000E+01 0. -1.
         -5    1    3    3    0  502 -0.39765453778E+01 -0.16692345214E+02  0.10663165252E+01  0.17693409305E+02  0.41800000000E+01 0. -1.
        -11    1    1    2    0    0  0.87529218832E+02  0.60169394550E+02 -0.11101663084E+03  0.15364378449E+03  0.00000000000E+00 0. -1.
         11    1    1    2    0    0 -0.15374053152E+02 -0.68590135727E+00 -0.35790836219E+01  0.15800057296E+02  0.00000000000E+00 0.  1.
</event>
<event>
 7    1  0.2334784E-009  0.1017170E+03  0.7561462E-02  0.1276726E+00
          1   -1    0    0  501    0  0.00000000000E+00  0.00000000000E+00  0.23229867158E+03  0.23229867158E+03  0.00000000000E+00 0. -1.
         -1   -1    0    0    0  501 -0.00000000000E+00 -0.00000000000E+00 -0.76882282221E+02  0.76882282221E+02  0.00000000000E+00 0.  1.
         25    2    1    2    0    0  0.71637559670E+02  0.17804055377E+02  0.11969149905E+03  0.18820673267E+03  0.12508714935E+03 0.  0.
          5    1    3    3  502    0  0.69139987740E+02 -0.30518426927E+02  0.21540162577E+02  0.78696653618E+02  0.41800000000E+01 0.  1.
         -5    1    3    3    0  502  0.24975719305E+01  0.48322482304E+02  0.98151336476E+02  0.10951007905E+03  0.41800000000E+01 0.  1.
        -11    1    1    2    0    0 -0.93312679914E+01  0.74551365911E+01  0.50705978274E+02  0.52093645069E+02  0.00000000000E+00 0. -1.
         11    1    1    2    0    0 -0.62306291679E+02 -0.25259191968E+02 -0.14981087971E+02  0.68880576061E+02  0.00000000000E+00 0.  1.
</event>
<event>
 7    1  0.2334784E-009  0.9571152E+02  0.7561462E-02  0.1289582E+00
          2   -1    0    0  501    0  0.00000000000E+00  0.00000000000E+00  0.44788261052E+02  0.44788261052E+02  0.00000000000E+00 0. -1.
         -2   -1    0    0    0  501 -0.00000000000E+00 -0.00000000000E+00 -0.33045875885E+03  0.33045875885E+03  0.00000000000E+00 0.  1.
         25    2    1    2    0    0  0.17455270951E+02 -0.51874116280E+02 -0.19311391998E+03  0.23652062479E+03  0.12511358614E+03 0.  0.
          5    1    3    3  502    0  0.23630819557E+02  0.28751180749E+02 -0.12570187510E+03  0.13116203655E+03  0.41800000000E+01 0. -1.
         -5    1    3    3    0  502 -0.61755486063E+01 -0.80625297029E+02 -0.67412044885E+02  0.10535858825E+03  0.41800000000E+01 0. -1.
        -11    1    1    2    0    0  0.13102510262E+02  0.35957671538E+00  0.12296023640E+02  0.17972124748E+02  0.00000000000E+00 0. -1.
         11    1    1    2    0    0 -0.30557781213E+02  0.51514539565E+02 -0.10485260145E+03  0.12075427036E+03  0.00000000000E+00 0.  1.
</event>
<event>
 7    1  0.2334784E-009  0.8951771E+02  0.7561462E-02  0.1304024E+00
          1   -1    0    0  501    0  0.00000000000E+00  0.00000000000E+00  0.98488495364E+02  0.98488495364E+02  0.00000000000E+00 0. -1.
         -1   -1    0    0    0  501 -0.00000000000E+00 -0.00000000000E+00 -0.15819890860E+03  0.15819890860E+03  0.00000000000E+00 0.  1.
         25    2    1    2    0    0  0.15468632937E+02 -0.58224496788E+02 -0.24853913073E+02  0.14104880790E+03  0.12509068144E+03 0.  0.
          5    1    3    3  502    0  0.37504233456E+02 -0.40383798470E+02 -0.69005260244E+02  0.88411634117E+02  0.41800000000E+01 0. -1.
         -5    1    3    3    0  502 -0.22035600519E+02 -0.17840698318E+02  0.44151347170E+02  0.52637173781E+02  0.41800000000E+01 0. -1.
        -11    1    1    2    0    0 -0.34724906923E+02  0.65809604676E+02 -0.50299929145E+02  0.89815400129E+02  0.00000000000E+00 0.  1.
         11    1    1    2    0    0  0.19256273986E+02 -0.75851078878E+01  0.15443428983E+02  0.25823195934E+02  0.00000000000E+00 0. -1.
</event>
<event>
 7    1  0.2334784E-009  0.1549657E+03  0.7561462E-02  0.1194501E+00
          3   -1    0    0  501    0  0.00000000000E+00  0.00000000000E+00  0.16223915939E+03  0.16223915939E+03  0.00000000000E+00 0. -1.
         -3   -1    0    0    0  501 -0.00000000000E+00 -0.00000000000E+00 -0.16311704823E+03  0.16311704823E+03  0.00000000000E+00 0.  1.
         25    2    1    2    0    0  0.12757099730E+03  0.20862299935E+02 -0.96564869375E+01  0.18013969156E+03  0.12508983102E+03 0.  0.
          5    1    3    3  502    0  0.90017714085E+02 -0.39891332154E+02 -0.34484894812E+02  0.10440875251E+03  0.41800000000E+01 0. -1.
         -5    1    3    3    0  502  0.37553283214E+02  0.60753632089E+02  0.24828407874E+02  0.75730939052E+02  0.41800000000E+01 0. -1.
        -11    1    1    2    0    0 -0.44034062660E+02  0.18164136408E+02 -0.15103196099E+02  0.49970401822E+02  0.00000000000E+00 0.  1.
         11    1    1    2    0    0 -0.83536934639E+02 -0.39026436343E+02  0.23881794200E+02  0.95246114234E+02  0.00000000000E+00 0. -1.
</event>
<event>
 7    1  0.2334784E-009  0.1347877E+03  0.7561462E-02  0.1220520E+00
         -4   -1    0    0    0  501 -0.00000000000E+00  0.00000000000E+00  0.66205791468E+03  0.66205791468E+03  0.00000000000E+00 0.  1.
          4   -1    0    0  501    0  0.00000000000E+00 -0.00000000000E+00 -0.55148150277E+02  0.55148150277E+02  0.00000000000E+00 0. -1.
         25    2    1    2    0    0 -0.72465885593E+02  0.69367155103E+02  0.54463634314E+03  0.56774744079E+03  0.12508118751E+03 0.  0.
          5    1    3    3  502    0 -0.99213603427E+01  0.92624702993E+02  0.33208281133E+03  0.34492641965E+03  0.41800000000E+01 0. -1.
         -5    1    3    3    0  502 -0.62544525250E+02 -0.23257547890E+02  0.21255353181E+03  0.22282102113E+03  0.41800000000E+01 0. -1.
        -11    1    1    2    0    0  0.45153978547E+02 -0.13251265064E+02 -0.15678688626E+02  0.49601402011E+02  0.00000000000E+00 0. -1.
         11    1    1    2    0    0  0.27311907046E+02 -0.56115890039E+02  0.77952109890E+02  0.99857222160E+02  0.00000000000E+00 0.  1.
</event>
<event>
 7    1  0.2334784E-009  0.1121777E+03  0.7561462E-02  0.1256590E+00
          1   -1    0    0  501    0  0.00000000000E+00  0.00000000000E+00  0.18829185471E+03  0.18829185471E+03  0.00000000000E+00 0. -1.
         -1   -1    0    0    0  501 -0.00000000000E+00 -0.00000000000E+00 -0.13683059784E+03  0.13683059784E+03  0.00000000000E+00 0.  1.
         25    2    1    2    0    0 -0.65032193456E+02 -0.49707322327E+02 -0.57863728990E+02  0.16032168338E+03  0.12511925092E+03 0.  0.
          5    1    3    3  502    0 -0.12089056563E+02 -0.79028137126E+02 -0.59321480823E+02  0.99639862672E+02  0.41800000000E+01 0. -1.
         -5    1    3    3    0  502 -0.52943136893E+02  0.29320814799E+02  0.14577518338E+01  0.60681820712E+02  0.41800000000E+01 0. -1.
        -11    1    1    2    0    0  0.44016505968E+02  0.23041688570E+02  0.11945101588E+03  0.12937123871E+03  0.00000000000E+00 0.  1.
         11    1    1    2    0    0  0.21015687488E+02  0.26665633757E+02 -0.10126030026E+02  0.35429530456E+02  0.00000000000E+00 0. -1.
</event>
<event>
 7    1  0.2334784E-009  0.7071036E+02  0.7561462E-02  0.1357694E+00
         -2   -1    0    0    0  501 -0.00000000000E+00  0.00000000000E+00  0.81019753107E+02  0.81019753107E+02  0.00000000000E+00 0.  1.
          2   -1    0    0  501    0  0.00000000000E+00 -0.00000000000E+00 -0.14845484985E+03  0.14845484985E+03  0.00000000000E+00 0. -1.
         25    2    1    2    0    0  0.97708400333E+01  0.19521704632E+02 -0.35673751453E+02  0.13189926428E+03  0.12509289791E+03 0.  0.
          5    1    3    3  502    0 -0.13611906354E+02 -0.23893344991E+02  0.35569989743E+02  0.45153875800E+02  0.41800000000E+01 0.  1.
         -5    1    3    3    0  502  0.23382746387E+02  0.43415049624E+02 -0.71243741196E+02  0.86745388477E+02  0.41800000000E+01 0.  1.
        -11    1    1    2    0    0 -0.49557687748E+01 -0.41410372542E+02 -0.52493721304E+02  0.67044532772E+02  0.00000000000E+00 0. -1.
         11    1    1    2    0    0 -0.48150712585E+01  0.21888667910E+02  0.20732376015E+02  0.30530805907E+02  0.00000000000E+00 0.  1.
</event>
<event>
 7    1  0.2334784E-009  0.9361104E+02  0.7561462E-02  0.1294335E+00
         -2   -1    0    0    0  501 -0.00000000000E+00  0.00000000000E+00  0.10107238194E+03  0.10107238194E+03  0.00000000000E+00 0. -1.
          2   -1    0    0  501    0  0.00000000000E+00 -0.00000000000E+00 -0.17899634334E+03  0.17899634334E+03  0.00000000000E+00 0.  1.
         25    2    1    2    0    0  0.72015396900E+02  0.45510000049E+01 -0.76427287400E+01  0.14462640727E+03  0.12510578478E+03 0.  0.
          5    1    3    3  502    0  0.62530592224E+02  0.87292706983E+01 -0.62324146362E+02  0.88814676437E+02  0.41800000000E+01 0.  1.
         -5    1    3    3    0  502  0.94848046761E+01 -0.41782706934E+01  0.54681417622E+02  0.55811730836E+02  0.41800000000E+01 0.  1.
        -11    1    1    2    0    0 -0.40728864687E+02  0.40816889992E+02 -0.20559154065E+02  0.61217136026E+02  0.00000000000E+00 0.  1.
         11    1    1    2    0    0 -0.31286532213E+02 -0.45367889997E+02 -0.49722078594E+02  0.74225181983E+02  0.00000000000E+00 0. -1.
</event>
<event>
 7    1  0.2334784E-009  0.2366883E+03  0.7561462E-02  0.1122019E+00
         -1   -1    0    0    0  501 -0.00000000000E+00  0.00000000000E+00  0.89457738753E+03  0.89457738753E+03  0.00000000000E+00 0.  1.
          1   -1    0    0  501    0  0.00000000000E+00 -0.00000000000E+00 -0.75833998958E+02  0.75833998958E+02  0.00000000000E+00 0. -1.
         25    2    1    2    0    0 -0.17104112167E+03  0.15280381978E+03  0.53133863922E+03  0.59209196375E+03  0.12509225146E+03 0.  0.
          5    1    3    3  502    0 -0.10779379409E+03  0.55691570639E+02  0.39431971440E+03  0.41258521865E+03  0.41800000000E+01 0.  1.
         -5    1    3    3    0  502 -0.63247327574E+02  0.97112249144E+02  0.13701892482E+03  0.17950674510E+03  0.41800000000E+01 0.  1.
        -11    1    1    2    0    0  0.12935881375E+03 -0.79949162886E+02  0.13056272504E+03  0.20043002896E+03  0.00000000000E+00 0. -1.
         11    1    1    2    0    0  0.41682307921E+02 -0.72854656897E+02  0.15684202432E+03  0.17788939378E+03  0.00000000000E+00 0.  1.
</event>
<event>
 7    1  0.2334784E-009  0.3657411E+03  0.7561462E-02  0.1056333E+00
          1   -1    0    0  501    0  0.00000000000E+00  0.00000000000E+00  0.16762584418E+04  0.16762584418E+04  0.00000000000E+00 0. -1.
         -1   -1    0    0    0  501 -0.00000000000E+00 -0.00000000000E+00 -0.85566820694E+02  0.85566820694E+02  0.00000000000E+00 0.  1.
         25    2    1    2    0    0 -0.34088744238E+03  0.11627482890E+03  0.86554776084E+03  0.94580370296E+03  0.12509050335E+03 0.  0.
          5    1    3    3  502    0 -0.22622658126E+03  0.91325336416E+02  0.42688743313E+03  0.49170025026E+03  0.41800000000E+01 0.  1.
         -5    1    3    3    0  502 -0.11466086112E+03  0.24949492486E+02  0.43866032771E+03  0.45410345270E+03  0.41800000000E+01 0.  1.
        -11    1    1    2    0    0  0.16883306533E+03 -0.12861763801E+02  0.27188130009E+03  0.32029591046E+03  0.00000000000E+00 0. -1.
         11    1    1    2    0    0  0.17205437705E+03 -0.10341306510E+03  0.45326256019E+03  0.49572564909E+03  0.00000000000E+00 0.  1.
</event>
<event>
 7    1  0.2334784E-009  0.9523226E+02  0.7561462E-02  0.1290654E+00
         -1   -1    0    0    0  501 -0.00000000000E+00  0.00000000000E+00  0.30282230648E+02  0.30282230648E+02  0.00000000000E+00 0.  1.
          1   -1    0    0  501    0  0.00000000000E+00 -0.00000000000E+00 -0.39636583595E+03  0.39636583595E+03  0.00000000000E+00 0. -1.
         25    2    1    2    0    0 -0.15449242060E+02 -0.15012397560E+01 -0.20032816570E+03  0.23668439966E+03  0.12508876157E+03 0.  0.
          5    1    3    3  502    0  0.54604801534E+02 -0.74884597980E+01 -0.79522081657E+02  0.96845212849E+02  0.41800000000E+01 0. -1.
         -5    1    3    3    0  502 -0.70054043594E+02  0.59872200420E+01 -0.12080608404E+03  0.13983918681E+03  0.41800000000E+01 0. -1.
        -11    1    1    2    0    0  0.89819861139E+01  0.32176786212E+02 -0.16144524285E+02  0.37103467626E+02  0.00000000000E+00 0.  1.
         11    1    1    2    0    0  0.64672559459E+01 -0.30675546456E+02 -0.14961091532E+03  0.15286019931E+03  0.00000000000E+00 0. -1.
</event>
<event>
 7    1  0.2334784E-009  0.1128373E+03  0.7561462E-02  0.1255404E+00
         -1   -1    0    0    0  501 -0.00000000000E+00  0.00000000000E+00  0.19490994258E+02  0.19490994258E+02  0.00000000000E+00 0.  1.
          1   -1    0    0  501    0  0.00000000000E+00 -0.00000000000E+00 -0.79417279993E+03  0.79417279993E+03  0.00000000000E+00 0. -1.
         25    2    1    2    0    0 -0.39727011960E+02  0.39040404595E+02 -0.35828623468E+03  0.38356119631E+03  0.12509107354E+03 0.  0.
          5    1    3    3  502    0  0.10022724554E+02  0.71070836955E+02 -0.24952668080E+03  0.25967779209E+03  0.41800000000E+01 0. -1.
         -5    1    3    3    0  502 -0.49749736514E+02 -0.32030432360E+02 -0.10875955388E+03  0.12388340422E+03  0.41800000000E+01 0. -1.
        -11    1    1    2    0    0  0.71103162534E+01 -0.56854883886E+02 -0.34385229555E+03  0.34859351051E+03  0.00000000000E+00 0. -1.
         11    1    1    2    0    0  0.32616695707E+02  0.17814479291E+02 -0.72543275441E+02  0.81509087364E+02  0.00000000000E+00 0.  1.
</event>
<event>
 7    1  0.2334784E-009  0.1086012E+03  0.7561462E-02  0.1263182E+00
          2   -1    0    0  501    0  0.00000000000E+00  0.00000000000E+00  0.79243023696E+02  0.79243023696E+02  0.00000000000E+00 0.  1.
         -2   -1    0    0    0  501 -0.00000000000E+00 -0.00000000000E+00 -0.22041868701E+03  0.22041868701E+03  0.00000000000E+00 0. -1.
         25    2    1    2    0    0 -0.36323366355E+02  0.51306315315E+02 -0.27589407858E+02  0.14269048784E+03  0.12509066696E+03 0.  0.
          5    1    3    3  502    0 -0.42205089897E+02  0.74974895039E+02 -0.57728989076E+02  0.10369480739E+03  0.41800000000E+01 0. -1.
         -5    1    3    3    0  502  0.58817235416E+01 -0.23668579724E+02  0.30139581218E+02  0.38995680453E+02  0.41800000000E+01 0. -1.
        -11    1    1    2    0    0 -0.12015024648E+02 -0.56443851728E+02 -0.46428406648E+02  0.74066633237E+02  0.00000000000E+00 0.  1.
         11    1    1    2    0    0  0.48338391004E+02  0.51375364133E+01 -0.67157848811E+02  0.82904589633E+02  0.00000000000E+00 0. -1.
</event>
<event>
 7    1  0.2334784E-009  0.7597524E+02  0.7561462E-02  0.1340877E+00
         -2   -1    0    0    0  501 -0.00000000000E+00  0.00000000000E+00  0.19737199890E+03  0.19737199890E+03  0.00000000000E+00 0.  1.
          2   -1    0    0  501    0  0.00000000000E+00 -0.00000000000E+00 -0.59811678477E+02  0.59811678477E+02  0.00000000000E+00 0. -1.
         25    2    1    2    0    0  0.14961954446E+02 -0.33180447247E+01  0.72501930867E+02  0.14539314794E+03  0.12509103880E+03 0.  0.
          5    1    3    3  502    0 -0.35712539585E+02 -0.36968963866E+02  0.66458819772E+02  0.84120965867E+02  0.41800000000E+01 0.  1.
         -5    1    3    3    0  502  0.50674494030E+02  0.33650919142E+02  0.60431110946E+01  0.61272182073E+02  0.41800000000E+01 0.  1.
        -11    1    1    2    0    0 -0.20078576304E+02 -0.11907433256E+02  0.83867904334E+02  0.87056082903E+02  0.00000000000E+00 0.  1.
         11    1    1    2    0    0  0.51166218586E+01  0.15225477980E+02 -0.18809514780E+02  0.24734446532E+02  0.00000000000E+00 0. -1.
</event>
<event>
 7    1  0.2334784E-009  0.6949752E+02  0.7561462E-02  0.1361810E+00
          2   -1    0    0  501    0  0.00000000000E+00  0.00000000000E+00  0.44150855879E+03  0.44150855879E+03  0.00000000000E+00 0. -1.
         -2   -1    0    0    0  501 -0.00000000000E+00 -0.00000000000E+00 -0.27734343872E+02  0.27734343872E+02  0.00000000000E+00 0.  1.
         25    2    1    2    0    0  0.59240234286E+01 -0.31985945682E+01  0.18713349339E+03  0.22519229958E+03  0.12508917771E+03 0.  0.
          5    1    3    3  502    0 -0.20161455272E+02  0.45299805539E+01  0.19533612435E+03  0.19647055473E+03  0.41800000000E+01 0.  1.
         -5    1    3    3    0  502  0.26085478700E+02 -0.77285751222E+01 -0.82026309531E+01  0.28721744846E+02  0.41800000000E+01 0.  1.
        -11    1    1    2    0    0 -0.46712699991E+02  0.12898302122E+02  0.11477984948E+03  0.12459075562E+03  0.00000000000E+00 0.  1.
         11    1    1    2    0    0  0.40788676562E+02 -0.96997075543E+01  0.11186087205E+03  0.11945984747E+03  0.00000000000E+00 0. -1.
</event>
<event>
 7    1  0.2334784E-009  0.9707442E+02  0.7561462E-02  0.1286571E+00
         -2   -1    0    0    0  501 -0.00000000000E+00  0.00000000000E+00  0.82191093093E+02  0.82191093093E+02  0.00000000000E+00 0.  1.
          2   -1    0    0  501    0  0.00000000000E+00 -0.00000000000E+00 -0.22351467684E+03  0.22351467684E+03  0.00000000000E+00 0. -1.
         25    2    1    2    0    0 -0.10702327651E+02 -0.62329689669E+02 -0.22032160565E+02  0.14188770051E+03  0.12508866226E+03 0.  0.
          5    1    3    3  502    0  0.22596576742E+02 -0.27980167502E+02  0.46045804890E+02  0.58576305806E+02  0.41800000000E+01 0.  1.
         -5    1    3    3    0  502 -0.33298904394E+02 -0.34349522167E+02 -0.68077965456E+02  0.83311394704E+02  0.41800000000E+01 0.  1.
        -11    1    1    2    0    0 -0.30537451263E+02 -0.50187869103E+01 -0.19577165006E+02  0.36619524046E+02  0.00000000000E+00 0.  1.
         11    1    1    2    0    0  0.41239778914E+02  0.67348476580E+02 -0.99714258176E+02  0.12719854538E+03  0.00000000000E+00 0. -1.
</event>
<event>
 7    1  0.2334784E-009  0.1205830E+03  0.7561462E-02  0.1242138E+00
         -4   -1    0    0    0  501 -0.00000000000E+00  0.00000000000E+00  0.79189206523E+03  0.79189206523E+03  0.00000000000E+00 0.  1.
          4   -1    0    0  501    0  0.00000000000E+00 -0.00000000000E+00 -0.24183747773E+02  0.24183747773E+02  0.00000000000E+00 0. -1.
         25    2    1    2    0    0  0.82410433332E+02  0.22611494440E+02  0.43574135822E+03  0.46132708705E+03  0.12509752507E+03 0.  0.
          5    1    3    3  502    0 -0.22075966291E+02 -0.18522533312E+01  0.21147407794E+03  0.21267237049E+03  0.41800000000E+01 0.  1.
         -5    1    3    3    0  502  0.10448639962E+03  0.24463747771E+02  0.22426728028E+03  0.24865471656E+03  0.41800000000E+01 0.  1.
        -11    1    1    2    0    0 -0.14871148867E+02  0.24654597142E+02  0.29390639873E+02  0.41143771594E+02  0.00000000000E+00 0. -1.
         11    1    1    2    0    0 -0.67539284465E+02 -0.47266091582E+02  0.30257631937E+03  0.31360495436E+03  0.00000000000E+00 0.  1.
</event>
<event>
 7    1  0.2334784E-009  0.2070329E+03  0.7561462E-02  0.1143937E+00
          3   -1    0    0  501    0  0.00000000000E+00  0.00000000000E+00  0.53935307631E+03  0.53935307631E+03  0.00000000000E+00 0. -1.
         -3   -1    0    0    0  501 -0.00000000000E+00 -0.00000000000E+00 -0.95697529806E+02  0.95697529806E+02  0.00000000000E+00 0.  1.
         25    2    1    2    0    0 -0.11055633604E+03  0.16497448224E+03  0.24634242226E+03  0.34024985768E+03  0.12508434521E+03 0.  0.
          5    1    3    3  502    0 -0.94719624675E+02  0.12169114143E+03  0.93123432897E+02  0.18019430445E+03  0.41800000000E+01 0.  1.
         -5    1    3    3    0  502 -0.15836711364E+02  0.43283340810E+02  0.15321898936E+03  0.16005555323E+03  0.41800000000E+01 0.  1.
        -11    1    1    2    0    0  0.67929986080E+02 -0.34357254565E+02  0.40207578338E+02  0.86090378707E+02  0.00000000000E+00 0.  1.
         11    1    1    2    0    0  0.42626349959E+02 -0.13061722768E+03  0.15710554591E+03  0.20871036973E+03  0.00000000000E+00 0. -1.
</event>
<event>
 7    1  0.2334784E-009  0.1189992E+03  0.7561462E-02  0.1244757E+00
          2   -1    0    0  501    0  0.00000000000E+00  0.00000000000E+00  0.61338040767E+03  0.61338040767E+03  0.00000000000E+00 0. -1.
         -2   -1    0    0    0  501 -0.00000000000E+00 -0.00000000000E+00 -0.34240620865E+02  0.34240620865E+02  0.00000000000E+00 0.  1.
         25    2    1    2    0    0 -0.52343317196E+02  0.78080109460E+02  0.34389275317E+03  0.37781791371E+03  0.12509126222E+03 0.  0.
          5    1    3    3  502    0 -0.10010859553E+02  0.57719782275E+02  0.31925115424E+03  0.32460832161E+03  0.41800000000E+01 0.  1.
         -5    1    3    3    0  502 -0.42332457644E+02  0.20360327184E+02  0.24641598935E+02  0.53209592098E+02  0.41800000000E+01 0.  1.
        -11    1    1    2    0    0 -0.14574087821E+01 -0.78293396993E+02  0.13940460061E+03  0.15989253492E+03  0.00000000000E+00 0.  1.
         11    1    1    2    0    0  0.53800725978E+02  0.21328753317E+00  0.95842433019E+02  0.10991057990E+03  0.00000000000E+00 0. -1.
</event>
<event>
 7    1  0.2334784E-009  0.7931718E+02  0.7561462E-02  0.1331000E+00
          2   -1    0    0  501    0  0.00000000000E+00  0.00000000000E+00  0.23028981498E+03  0.23028981498E+03  0.00000000000E+00 0. -1.
         -2   -1    0    0    0  501 -0.00000000000E+00 -0.00000000000E+00 -0.73431256977E+02  0.73431256977E+02  0.00000000000E+00 0.  1.
         25    2    1    2    0    0 -0.16638361351E+02 -0.47155842222E+02  0.26803662691E+02  0.13736653874E+03  0.12510244245E+03 0.  0.
          5    1    3    3  502    0  0.19054632839E+02 -0.31569237765E+02  0.69892608387E+02  0.79133715399E+02  0.41800000000E+01 0. -1.
         -5    1    3    3    0  502 -0.35692994190E+02 -0.15586604457E+02 -0.43088945696E+02  0.58232823338E+02  0.41800000000E+01 0. -1.
        -11    1    1    2    0    0 -0.16014315075E+02  0.47049048133E+02  0.23626700713E+02  0.55029920989E+02  0.00000000000E+00 0.  1.
         11    1    1    2    0    0  0.32652676426E+02  0.10679408958E+00  0.10642819459E+03  0.11132461223E+03  0.00000000000E+00 0. -1.
</event>
<event>
 7    1  0.2334784E-009  0.3413030E+03  0.7561462E-02  0.1066242E+00
          2   -1    0    0  501    0  0.00000000000E+00  0.00000000000E+00  0.33999815305E+03  0.33999815305E+03  0.00000000000E+00 0. -1.
         -2   -1    0    0    0  501 -0.00000000000E+00 -0.00000000000E+00 -0.57599953879E+03  0.57599953879E+03  0.00000000000E+00 0.  1.
         25    2    1    2    0    0 -0.14337048669E+03  0.29299115501E+03  0.16863282349E+03  0.38792070666E+03  0.12508609886E+03 0.  0.
          5    1    3    3  502    0 -0.67008697080E+02  0.24497615790E+03  0.94256323076E+02  0.27093395923E+03  0.41800000000E+01 0. -1.
         -5    1    3    3    0  502 -0.76361789608E+02  0.48014997111E+02  0.74376500417E+02  0.11698674743E+03  0.41800000000E+01 0. -1.
        -11    1    1    2    0    0  0.65999672797E+02 -0.22765586437E+03 -0.26426317145E+03  0.35499038462E+03  0.00000000000E+00 0.  1.
         11    1    1    2    0    0  0.77370813891E+02 -0.65335290648E+02 -0.14037103778E+03  0.17308660056E+03  0.00000000000E+00 0. -1.
</event>
<event>
 7    1  0.2334784E-009  0.1137828E+03  0.7561462E-02  0.1253721E+00
         -1   -1    0    0    0  501 -0.00000000000E+00  0.00000000000E+00  0.53745037689E+02  0.53745037689E+02  0.00000000000E+00 0.  1.
          1   -1    0    0  501    0  0.00000000000E+00 -0.00000000000E+00 -0.31750978777E+03  0.31750978777E+03  0.00000000000E+00 0. -1.
         25    2    1    2    0    0  0.31869645524E+02  0.56229497843E+02 -0.99978854638E+02  0.17269221371E+03  0.12509755620E+03 0.  0.
          5    1    3    3  502    0 -0.23858004059E+02 -0.12296522654E+02 -0.76535361689E+02  0.81212947341E+02  0.41800000000E+01 0. -1.
         -5    1    3    3    0  502  0.55727649583E+02  0.68526020497E+02 -0.23443492950E+02  0.91479266366E+02  0.41800000000E+01 0. -1.
        -11    1    1    2    0    0 -0.13608633813E+02  0.25138341367E+02 -0.48105623741E+02  0.55957860542E+02  0.00000000000E+00 0. -1.
         11    1    1    2    0    0 -0.18261011711E+02 -0.81367839210E+02 -0.11568027170E+03  0.14260475121E+03  0.00000000000E+00 0.  1.
</event>
<event>
 7    1  0.2334784E-009  0.1100660E+03  0.7561462E-02  0.1260448E+00
         -1   -1    0    0    0  501 -0.00000000000E+00  0.00000000000E+00  0.22765787893E+03  0.22765787893E+03  0.00000000000E+00 0.  1.
          1   -1    0    0  501    0  0.00000000000E+00 -0.00000000000E+00 -0.65690295845E+02  0.65690295845E+02  0.00000000000E+00 0. -1.
         25    2    1    2    0    0  0.17194066987E+02 -0.38510583554E+02  0.14174477479E+03  0.19369657688E+03  0.12509229285E+03 0.  0.
          5    1    3    3  502    0 -0.37097757423E+02  0.22835509868E+02  0.23178932285E+02  0.49522110401E+02  0.41800000000E+01 0. -1.
         -5    1    3    3    0  502  0.54291824410E+02 -0.61346093422E+02  0.11856584250E+03  0.14417446648E+03  0.41800000000E+01 0. -1.
        -11    1    1    2    0    0 -0.51657220415E+02  0.22658694351E+02  0.24457066980E+02  0.61481972772E+02  0.00000000000E+00 0.  1.
         11    1    1    2    0    0  0.34463153428E+02  0.15851889203E+02 -0.42342586815E+01  0.38169625124E+02  0.00000000000E+00 0. -1.
</event>
<event>
 7    1  0.2334784E-009  0.2255086E+03  0.7561462E-02  0.1129842E+00
         -2   -1    0    0    0  501 -0.00000000000E+00  0.00000000000E+00  0.86024293382E+02  0.86024293382E+02  0.00000000000E+00 0.  1.
          2   -1    0    0  501    0  0.00000000000E+00 -0.00000000000E+00 -0.65841143156E+03  0.65841143156E+03  0.00000000000E+00 0. -1.
         25    2    1    2    0    0  0.18654412932E+03 -0.91705562215E+02 -0.23106267770E+03  0.33503247262E+03  0.12509266309E+03 0.  0.
          5    1    3    3  502    0  0.15290986503E+03 -0.11663108090E+03 -0.15083993228E+03  0.24444711785E+03  0.41800000000E+01 0.  1.
         -5    1    3    3    0  502  0.33634264291E+02  0.24925518687E+02 -0.80222745413E+02  0.90585354765E+02  0.41800000000E+01 0.  1.
        -11    1    1    2    0    0 -0.20000354295E+02 -0.90339742063E+01 -0.79010524366E+01  0.23324954266E+02  0.00000000000E+00 0.  1.
         11    1    1    2    0    0 -0.16654377503E+03  0.10073953642E+03 -0.33342340804E+03  0.38607829805E+03  0.00000000000E+00 0. -1.
</event>
<event>
 7    1  0.2334784E-009  0.9595783E+02  0.7561462E-02  0.1289033E+00
          2   -1    0    0  501    0  0.00000000000E+00  0.00000000000E+00  0.82740173447E+02  0.82740173447E+02  0.00000000000E+00 0. -1.
         -2   -1    0    0    0  501 -0.00000000000E+00 -0.00000000000E+00 -0.14150991938E+03  0.14150991938E+03  0.00000000000E+00 0.  1.
         25    2    1    2    0    0 -0.24762843235E+02  0.49555583119E+01 -0.82293943385E+01  0.12787413177E+03  0.12508522967E+03 0.  0.
          5    1    3    3  502    0  0.42569405222E+02  0.42575847305E+01  0.27995785219E+02  0.51298320428E+02  0.41800000000E+01 0. -1.
         -5    1    3    3    0  502 -0.67332248458E+02  0.69797358141E+00 -0.36225179557E+02  0.76575811347E+02  0.41800000000E+01 0. -1.
        -11    1    1    2    0    0  0.33057403440E+02  0.30544534186E+02 -0.22117700919E+02  0.50149308916E+02  0.00000000000E+00 0.  1.
         11    1    1    2    0    0 -0.82945602048E+01 -0.35500092498E+02 -0.28422650677E+02  0.46226652138E+02  0.00000000000E+00 0. -1.
</event>
<event>
 7    1  0.2334784E-009  0.1747855E+03  0.7561462E-02  0.1172947E+00
          1   -1    0    0  501    0  0.00000000000E+00  0.00000000000E+00  0.22112846286E+03  0.22112846286E+03  0.00000000000E+00 0. -1.
         -1   -1    0    0    0  501 -0.00000000000E+00 -0.00000000000E+00 -0.17806224366E+03  0.17806224366E+03  0.00000000000E+00 0.  1.
         25    2    1    2    0    0  0.15034613598E+03 -0.54641212881E+02 -0.18601323771E+02  0.20392062905E+03  0.12509193002E+03 0.  0.
          5    1    3    3  502    0  0.10102533067E+03  0.14761315612E+02  0.29087336965E+02  0.10624292658E+03  0.41800000000E+01 0.  1.
         -5    1    3    3    0  502  0.49320805310E+02 -0.69402528492E+02 -0.47688660736E+02  0.97677702473E+02  0.41800000000E+01 0.  1.
        -11    1    1    2    0    0 -0.13101547524E+03  0.37423317965E+02  0.84854272743E+02  0.16051731085E+03  0.00000000000E+00 0. -1.
         11    1    1    2    0    0 -0.19330660748E+02  0.17217894915E+02 -0.23186729775E+02  0.34752766622E+02  0.00000000000E+00 0.  1.
</event>
<event>
 7    1  0.2334784E-009  0.1788302E+03  0.7561462E-02  0.1168940E+00
          1   -1    0    0  501    0  0.00000000000E+00  0.00000000000E+00  0.29910740586E+03  0.29910740586E+03  0.00000000000E+00 0. -1.
         -1   -1    0    0    0  501 -0.00000000000E+00 -0.00000000000E+00 -0.14154556044E+03  0.14154556044E+03  0.00000000000E+00 0.  1.
         25    2    1    2    0    0  0.15203760501E+03  0.75593851107E+02  0.12525081812E+03  0.24528501413E+03  0.12508839696E+03 0.  0.
          5    1    3    3  502    0  0.27417649896E+02  0.70852262164E+00 -0.24145518380E+02  0.36779178729E+02  0.41800000000E+01 0.  1.
         -5    1    3    3    0  502  0.12461995512E+03  0.74885328485E+02  0.14939633650E+03  0.20850583540E+03  0.41800000000E+01 0.  1.
        -11    1    1    2    0    0 -0.12085577112E+02  0.13844985465E+02  0.22411679108E+02  0.28983239245E+02  0.00000000000E+00 0.  1.
         11    1    1    2    0    0 -0.13995202790E+03 -0.89438836572E+02  0.98993481906E+01  0.16638471292E+03  0.00000000000E+00 0. -1.
</event>
<event>
 7    1  0.2334784E-009  0.1995640E+03  0.7561462E-02  0.1150107E+00
          2   -1    0    0  501    0  0.00000000000E+00  0.00000000000E+00  0.77535673786E+03  0.77535673786E+03  0.00000000000E+00 0. -1.
         -2   -1    0    0    0  501 -0.00000000000E+00 -0.00000000000E+00 -0.72118602661E+02  0.72118602661E+02  0.00000000000E+00 0.  1.
         25    2    1    2    0    0  0.17325864768E+03  0.36422016968E+02  0.16238570957E+03  0.27085363424E+03  0.12508976853E+03 0.  0.
          5    1    3    3  502    0  0.15201565612E+03 -0.70803386886E+01  0.72378952579E+02  0.16856771956E+03  0.41800000000E+01 0.  1.
         -5    1    3    3    0  502  0.21242991566E+02  0.43502355657E+02  0.90006756990E+02  0.10228591468E+03  0.41800000000E+01 0.  1.
        -11    1    1    2    0    0 -0.76389036121E+02 -0.61688692628E+02  0.23110668147E+03  0.25109973688E+03  0.00000000000E+00 0.  1.
         11    1    1    2    0    0 -0.96869611561E+02  0.25266675659E+02  0.30974574416E+03  0.32552196941E+03  0.00000000000E+00 0. -1.
</event>
<event>
 7    1  0.2334784E-009  0.1028766E+03  0.7561462E-02  0.1274361E+00
         -4   -1    0    0    0  501 -0.00000000000E+00  0.00000000000E+00  0.13821571450E+03  0.13821571450E+03  0.00000000000E+00 0.  1.
          4   -1    0    0  501    0  0.00000000000E+00 -0.00000000000E+00 -0.13689633613E+03  0.13689633613E+03  0.00000000000E+00 0. -1.
         25    2    1    2    0    0 -0.67803055733E+02 -0.62505713326E+01  0.45634741615E+02  0.14953772091E+03  0.12507068532E+03 0.  0.
          5    1    3    3  502    0 -0.35503542327E+02  0.50127135505E+02 -0.11832026898E+02  0.62695298805E+02  0.41800000000E+01 0. -1.
         -5    1    3    3    0  502 -0.32299513406E+02 -0.56377706838E+02  0.57466768513E+02  0.86842422110E+02  0.41800000000E+01 0. -1.
        -11    1    1    2    0    0  0.66071252655E+02 -0.63323638723E+01  0.12341099271E+02  0.67511569311E+02  0.00000000000E+00 0.  1.
         11    1    1    2    0    0  0.17318030777E+01  0.12582935205E+02 -0.56656462519E+02  0.58062760401E+02  0.00000000000E+00 0. -1.
</event>
<event>
 7    1  0.2334784E-009  0.1529250E+03  0.7561462E-02  0.1196924E+00
         -2   -1    0    0    0  501 -0.00000000000E+00  0.00000000000E+00  0.26054600405E+02  0.26054600405E+02  0.00000000000E+00 0.  1.
          2   -1    0    0  501    0  0.00000000000E+00 -0.00000000000E+00 -0.98854243869E+03  0.98854243869E+03  0.00000000000E+00 0. -1.
         25    2    1    2    0    0 -0.12658340175E+01  0.10833577688E+03 -0.36428463803E+03  0.40011183615E+03  0.12509173047E+03 0.  0.
          5    1    3    3  502    0  0.39288326240E+01 -0.28149299774E+02 -0.69020371783E+02  0.74760303133E+02  0.41800000000E+01 0.  1.
         -5    1    3    3    0  502 -0.51946666414E+01  0.13648507666E+03 -0.29526426625E+03  0.32535153302E+03  0.41800000000E+01 0.  1.
        -11    1    1    2    0    0  0.43602269732E+01 -0.12421741506E+03 -0.52432335330E+03  0.53885429997E+03  0.00000000000E+00 0.  1.
         11    1    1    2    0    0 -0.30943929557E+01  0.15881638170E+02 -0.73879846948E+02  0.75630902968E+02  0.00000000000E+00 0. -1.
</event>
<event>
 7    1  0.2334784E-009  0.9621218E+02  0.7561462E-02  0.1288469E+00
         -1   -1    0    0    0  501 -0.00000000000E+00  0.00000000000E+00  0.43852308074E+02  0.43852308074E+02  0.00000000000E+00 0.  1.
          1   -1    0    0  501    0  0.00000000000E+00 -0.00000000000E+00 -0.28760990868E+03  0.28760990868E+03  0.00000000000E+00 0. -1.
         25    2    1    2    0    0 -0.25937578214E+02  0.16991584802E+02 -0.14022346748E+03  0.19045116381E+03  0.12509017967E+03 0.  0.
          5    1    3    3  502    0 -0.17301865101E+02  0.71415634001E+02 -0.81392364508E+02  0.10973484732E+03  0.41800000000E+01 0. -1.
         -5    1    3    3    0  502 -0.86357131128E+01 -0.54424049198E+02 -0.58831102970E+02  0.80716316497E+02  0.41800000000E+01 0. -1.
        -11    1    1    2    0    0 -0.13467981587E+02 -0.19920957519E+02 -0.98244220097E+02  0.10114424284E+03  0.00000000000E+00 0. -1.
         11    1    1    2    0    0  0.39405559801E+02  0.29293727169E+01 -0.52899130279E+01  0.39866810101E+02  0.00000000000E+00 0.  1.
</event>
<event>
 7    1  0.2334784E-009  0.2495824E+03  0.7561462E-02  0.1113569E+00
         -1   -1    0    0    0  501 -0.00000000000E+00  0.00000000000E+00  0.63235030749E+02  0.63235030749E+02  0.00000000000E+00 0.  1.
          1   -1    0    0  501    0  0.00000000000E+00 -0.00000000000E+00 -0.10229313647E+04  0.10229313647E+04  0.00000000000E+00 0. -1.
         25    2    1    2    0    0 -0.22884845004E+03 -0.89377141066E+01 -0.47409054712E+03  0.54116574046E+03  0.12508803284E+03 0.  0.
          5    1    3    3  502    0 -0.14616261645E+03 -0.59775179142E+02 -0.23572141358E+03  0.28375806545E+03  0.41800000000E+01 0.  1.
         -5    1    3    3    0  502 -0.82685833591E+02  0.50837465035E+02 -0.23836913355E+03  0.25740767501E+03  0.41800000000E+01 0.  1.
        -11    1    1    2    0    0  0.11385447341E+03  0.46623226286E+02 -0.28957710621E+03  0.31462909399E+03  0.00000000000E+00 0.  1.
         11    1    1    2    0    0  0.11499397663E+03 -0.37685512179E+02 -0.19602868059E+03  0.23037156097E+03  0.00000000000E+00 0. -1.
</event>
<event>
 7    1  0.3086072E-009  0.2130408E+03  0.7561462E-02  0.1139180E+00
         -2   -1    0    0    0  501 -0.00000000000E+00  0.00000000000E+00  0.88333966469E+02  0.88333966469E+02  0.00000000000E+00 0.  1.
          2   -1    0    0  501    0  0.00000000000E+00 -0.00000000000E+00 -0.68164312094E+03  0.68164312094E+03  0.00000000000E+00 0. -1.
         25    2    1    2    0    0  0.16152780848E+03 -0.11035525271E+03 -0.46274341713E+03  0.51773417303E+03  0.12509072351E+03 0.  0.
          5    1    3    3  502    0  0.50817101231E+02 -0.89547798789E+02 -0.31796214853E+03  0.33424330411E+03  0.41800000000E+01 0.  1.
         -5    1    3    3    0  502  0.11071070725E+03 -0.20807453917E+02 -0.14478126860E+03  0.18349086892E+03  0.41800000000E+01 0.  1.
        -11    1    1    2    0    0 -0.45128571869E+02  0.76955498520E+02 -0.27869269516E+02  0.93463537996E+02  0.00000000000E+00 0.  1.
         11    1    1    2    0    0 -0.11639923661E+03  0.33399754187E+02 -0.10269646783E+03  0.15877937639E+03  0.00000000000E+00 0. -1.
</event>
<event>
 7    1  0.2334784E-009  0.1470953E+03  0.7561462E-02  0.1204088E+00
         -2   -1    0    0    0  501 -0.00000000000E+00  0.00000000000E+00  0.46501759879E+02  0.46501759879E+02  0.00000000000E+00 0.  1.
          2   -1    0    0  501    0  0.00000000000E+00 -0.00000000000E+00 -0.62186020744E+03  0.62186020744E+03  0.00000000000E+00 0. -1.
         25    2    1    2    0    0  0.10077895376E+03 -0.51569743036E+02 -0.43718946215E+03  0.46861020005E+03  0.12508020568E+03 0.  0.
          5    1    3    3  502    0  0.11417366725E+03 -0.76906499881E+02 -0.33021635493E+03  0.35778561944E+03  0.41800000000E+01 0.  1.
         -5    1    3    3    0  502 -0.13394713491E+02  0.25336756845E+02 -0.10697310722E+03  0.11082458061E+03  0.41800000000E+01 0.  1.
        -11    1    1    2    0    0 -0.10664899077E+03  0.38866285155E+02 -0.77388624272E+02  0.13738120149E+03  0.00000000000E+00 0.  1.
         11    1    1    2    0    0  0.58700370114E+01  0.12703457882E+02 -0.60780361138E+02  0.62370565788E+02  0.00000000000E+00 0. -1.
</event>
<event>
 7    1  0.2334784E-009  0.1085321E+03  0.7561462E-02  0.1263313E+00
         -2   -1    0    0    0  501 -0.00000000000E+00  0.00000000000E+00  0.42616029890E+02  0.42616029890E+02  0.00000000000E+00 0. -1.
          2   -1    0    0  501    0  0.00000000000E+00 -0.00000000000E+00 -0.36360038573E+03  0.36360038573E+03  0.00000000000E+00 0.  1.
         25    2    1    2    0    0  0.46775642263E+02 -0.37104705101E+02 -0.16165330352E+03  0.21294060848E+03  0.12508873792E+03 0.  0.
          5    1    3    3  502    0  0.42435658047E+02 -0.82361252423E+02 -0.11370434607E+03  0.14673210859E+03  0.41800000000E+01 0. -1.
         -5    1    3    3    0  502  0.43399842157E+01  0.45256547322E+02 -0.47948957446E+02  0.66208499897E+02  0.41800000000E+01 0. -1.
        -11    1    1    2    0    0 -0.32273187357E+02 -0.63153950969E+01 -0.13960962393E+03  0.14343043586E+03  0.00000000000E+00 0.  1.
         11    1    1    2    0    0 -0.14502454906E+02  0.43420100198E+02 -0.19721428388E+02  0.49845371271E+02  0.00000000000E+00 0. -1.
</event>
<event>
 7    1  0.2334784E-009  0.1081640E+03  0.7561462E-02  0.1264008E+00
          1   -1    0    0  501    0  0.00000000000E+00  0.00000000000E+00  0.52259024327E+02  0.52259024327E+02  0.00000000000E+00 0. -1.
         -1   -1    0    0    0  501 -0.00000000000E+00 -0.00000000000E+00 -0.30388285174E+03  0.30388285174E+03  0.00000000000E+00 0.  1.
         25    2    1    2    0    0 -0.38295357769E+02  0.47021844271E+02 -0.10787517276E+03  0.17595752575E+03  0.12508560950E+03 0.  0.
          5    1    3    3  502    0  0.25730240409E+02  0.32925834654E+02  0.80054584545E+01  0.42751790889E+02  0.41800000000E+01 0.  1.
         -5    1    3    3    0  502 -0.64025598178E+02  0.14096009617E+02 -0.11588063122E+03  0.13320573486E+03  0.41800000000E+01 0.  1.
        -11    1    1    2    0    0 -0.34533652419E+01  0.25083898453E+02 -0.33462933979E+02  0.41963027102E+02  0.00000000000E+00 0. -1.
         11    1    1    2    0    0  0.41748723011E+02 -0.72105742724E+02 -0.11028572067E+03  0.13822132321E+03  0.00000000000E+00 0.  1.
</event>
<event>
 7    1  0.2334784E-009  0.1123535E+03  0.7561462E-02  0.1256273E+00
          1   -1    0    0  501    0  0.00000000000E+00  0.00000000000E+00  0.64539945125E+02  0.64539945125E+02  0.00000000000E+00 0. -1.
         -1   -1    0    0    0  501 -0.00000000000E+00 -0.00000000000E+00 -0.35688893268E+03  0.35688893268E+03  0.00000000000E+00 0.  1.
         25    2    1    2    0    0 -0.23854414047E+02 -0.89355598933E+02 -0.22168366509E+03  0.27084091066E+03  0.12513071321E+03 0.  0.
          5    1    3    3  502    0  0.64955739275E+01 -0.21642891473E+02  0.11786795214E+02  0.25826501377E+02  0.41800000000E+01 0.  1.
         -5    1    3    3    0  502 -0.30349987975E+02 -0.67712707460E+02 -0.23347046031E+03  0.24501440929E+03  0.41800000000E+01 0.  1.
        -11    1    1    2    0    0 -0.18455101561E+02 -0.88550113671E+01  0.30644241071E+01  0.20697649505E+02  0.00000000000E+00 0. -1.
         11    1    1    2    0    0  0.42309515608E+02  0.98210610300E+02 -0.73729746569E+02  0.12989031764E+03  0.00000000000E+00 0.  1.
</event>
<event>
 7    1  0.2334784E-009  0.1312094E+03  0.7561462E-02  0.1225672E+00
         -2   -1    0    0    0  501 -0.00000000000E+00  0.00000000000E+00  0.26378567073E+03  0.26378567073E+03  0.00000000000E+00 0.  1.
          2   -1    0    0  501    0  0.00000000000E+00 -0.00000000000E+00 -0.15536791933E+03  0.15536791933E+03  0.00000000000E+00 0. -1.
         25    2    1    2    0    0  0.11698766142E+03  0.44886787658E+01  0.18532316659E+03  0.25238663003E+03  0.12509226107E+03 0.  0.
          5    1    3    3  502    0  0.55061495526E+02  0.25155558830E+02  0.17617558010E+03  0.18633270741E+03  0.41800000000E+01 0. -1.
         -5    1    3    3    0  502  0.61926165898E+02 -0.20666880065E+02  0.91475864969E+01  0.66053922618E+02  0.41800000000E+01 0. -1.
        -11    1    1    2    0    0 -0.24101099578E+02  0.28886937877E+02  0.57124457858E+01  0.38051941050E+02  0.00000000000E+00 0.  1.
         11    1    1    2    0    0 -0.92886561847E+02 -0.33375616643E+02 -0.82617860979E+02  0.12871501898E+03  0.00000000000E+00 0. -1.
</event>
<event>
 7    1  0.2334784E-009  0.1038345E+03  0.7561462E-02  0.1272433E+00
          4   -1    0    0  501    0  0.00000000000E+00  0.00000000000E+00  0.25871040614E+03  0.25871040614E+03  0.00000000000E+00 0. -1.
         -4   -1    0    0    0  501 -0.00000000000E+00 -0.00000000000E+00 -0.47752217243E+02  0.47752217243E+02  0.00000000000E+00 0.  1.
         25    2    1    2    0    0 -0.45914626163E+00  0.12972038145E+02  0.10718351813E+03  0.16524239561E+03  0.12509299804E+03 0.  0.
          5    1    3    3  502    0  0.15478472778E+02  0.65968901184E+02  0.74679164039E+02  0.10092536343E+03  0.41800000000E+01 0.  1.
         -5    1    3    3    0  502 -0.15937619039E+02 -0.52996863039E+02  0.32504354093E+02  0.64317032173E+02  0.41800000000E+01 0.  1.
        -11    1    1    2    0    0  0.93137510183E+01 -0.47618360235E+02  0.24722330506E+02  0.54455925437E+02  0.00000000000E+00 0.  1.
         11    1    1    2    0    0 -0.88546047567E+01  0.34646322090E+02  0.79052340256E+02  0.86764302335E+02  0.00000000000E+00 0. -1.
</event>
<event>
 7    1  0.2334784E-009  0.1874926E+03  0.7561462E-02  0.1160743E+00
         -2   -1    0    0    0  501 -0.00000000000E+00  0.00000000000E+00  0.26250445679E+02  0.26250445679E+02  0.00000000000E+00 0. -1.
          2   -1    0    0  501    0  0.00000000000E+00 -0.00000000000E+00 -0.15483101367E+04  0.15483101367E+04  0.00000000000E+00 0.  1.
         25    2    1    2    0    0 -0.16584642333E+03 -0.31436346544E+02 -0.74504680876E+03  0.77411231892E+03  0.12514733332E+03 0.  0.
          5    1    3    3  502    0 -0.88191753440E+02 -0.71779988407E+02 -0.30742980141E+03  0.32781199994E+03  0.41800000000E+01 0. -1.
         -5    1    3    3    0  502 -0.77654669892E+02  0.40343641863E+02 -0.43761700735E+03  0.44630031898E+03  0.41800000000E+01 0. -1.
        -11    1    1    2    0    0  0.12233732163E+03  0.45079124592E+01 -0.67833226808E+03  0.68929051020E+03  0.00000000000E+00 0.  1.
         11    1    1    2    0    0  0.43509101707E+02  0.26928434085E+02 -0.98680614139E+02  0.11115775322E+03  0.00000000000E+00 0. -1.
</event>
<event>
 6    1  0.2334784E-009  0.6543769E+02  0.7561462E-02  0.1376333E+00
          2   -1    0    0  501    0  0.00000000000E+00  0.00000000000E+00  0.24306673560E+03  0.24306673560E+03  0.00000000000E+00 0. -1.
         -2   -1    0    0    0  501 -0.00000000000E+00 -0.00000000000E+00 -0.49285742066E+02  0.49285742066E+02  0.00000000000E+00 0.  1.
          5    1    1    2  502    0 -0.16693471747E+02 -0.47121864293E+02 -0.32337985303E+01  0.50269990515E+02  0.41800000000E+01 0.  1.
         -5    1    1    2    0  502  0.26079252757E+02  0.35452536365E+02  0.97864072319E+02  0.10738649268E+03  0.41800000000E+01 0.  1.
        -11    1    1    2    0    0 -0.99929948295E+01 -0.10399657348E+02 -0.13588374935E+02  0.19815568424E+02  0.00000000000E+00 0.  1.
         11    1    1    2    0    0  0.60721381885E+00  0.22068985276E+02  0.11273909468E+03  0.11488042605E+03  0.00000000000E+00 0. -1.
</event>
<event>
 7    1  0.3106301E-009  0.9880078E+02  0.7561462E-02  0.1282838E+00
         -1   -1    0    0    0  501 -0.00000000000E+00  0.00000000000E+00  0.35795160866E+02  0.35795160866E+02  0.00000000000E+00 0.  1.
          1   -1    0    0  501    0  0.00000000000E+00 -0.00000000000E+00 -0.38550291315E+03  0.38550291315E+03  0.00000000000E+00 0. -1.
         25    2    1    2    0    0  0.69135498968E+00  0.23584735171E+02 -0.12763406221E+03  0.18026583924E+03  0.12509436941E+03 0.  0.
          5    1    3    3  502    0 -0.54610572066E+02  0.14370717708E+02 -0.10571368908E+03  0.11992367810E+03  0.41800000000E+01 0.  1.
         -5    1    3    3    0  502  0.55301927056E+02  0.92140174628E+01 -0.21920373123E+02  0.60342161146E+02  0.41800000000E+01 0.  1.
        -11    1    1    2    0    0 -0.18731321321E+01 -0.54143475503E+02 -0.86600766882E+02  0.10215046445E+03  0.00000000000E+00 0.  1.
         11    1    1    2    0    0  0.11817771425E+01  0.30558740332E+02 -0.13547292319E+03  0.13888177032E+03  0.00000000000E+00 0. -1.
</event>
<event>
 7    1  0.2334784E-009  0.1331122E+03  0.7561462E-02  0.1222909E+00
          2   -1    0    0  501    0  0.00000000000E+00  0.00000000000E+00  0.44312795799E+03  0.44312795799E+03  0.00000000000E+00 0. -1.
         -2   -1    0    0    0  501 -0.00000000000E+00 -0.00000000000E+00 -0.47251414881E+02  0.47251414881E+02  0.00000000000E+00 0.  1.
         25    2    1    2    0    0 -0.77554207150E+02  0.21486850782E+02  0.29572872085E+03  0.33102695162E+03  0.12508807521E+03 0.  0.
          5    1    3    3  502    0 -0.10590352101E+03 -0.91388482208E+01  0.22292534077E+03  0.24700658749E+03  0.41800000000E+01 0.  1.
         -5    1    3    3    0  502  0.28349313863E+02  0.30625699003E+02  0.72803380083E+02  0.84020364124E+02  0.41800000000E+01 0.  1.
        -11    1    1    2    0    0  0.94908885052E+02 -0.67715095570E+01  0.57941861973E+02  0.11140381130E+03  0.00000000000E+00 0.  1.
         11    1    1    2    0    0 -0.17354677902E+02 -0.14715341226E+02  0.42205960287E+02  0.47948609951E+02  0.00000000000E+00 0. -1.
</event>
<event>
 7    1  0.2334784E-009  0.6072191E+02  0.7561462E-02  0.1394827E+00
          2   -1    0    0  501    0  0.00000000000E+00  0.00000000000E+00  0.18499247771E+03  0.18499247771E+03  0.00000000000E+00 0. -1.
         -2   -1    0    0    0  501 -0.00000000000E+00 -0.00000000000E+00 -0.14227158330E+03  0.14227158330E+03  0.00000000000E+00 0.  1.
         25    2    1    2    0    0 -0.11019326171E+02 -0.28917493435E+02  0.13927549957E+03  0.18974182617E+03  0.12508656539E+03 0.  0.
          5    1    3    3  502    0 -0.32762649041E+02 -0.31010649484E+02 -0.33163312147E+01  0.45426005837E+02  0.41800000000E+01 0.  1.
         -5    1    3    3    0  502  0.21743322870E+02  0.20931560495E+01  0.14259183079E+03  0.14431582033E+03  0.41800000000E+01 0.  1.
        -11    1    1    2    0    0 -0.16739649375E+02  0.16446851515E+02 -0.10365089036E+03  0.10627427656E+03  0.00000000000E+00 0.  1.
         11    1    1    2    0    0  0.27758975546E+02  0.12470641920E+02  0.70962851914E+01  0.31247958282E+02  0.00000000000E+00 0. -1.
</event>
<event>
 7    1  0.2334784E-009  0.1706542E+03  0.7561462E-02  0.1177167E+00
         -1   -1    0    0    0  501 -0.00000000000E+00  0.00000000000E+00  0.12240428188E+03  0.12240428188E+03  0.00000000000E+00 0.  1.
          1   -1    0    0  501    0  0.00000000000E+00 -0.00000000000E+00 -0.51200608690E+03  0.51200608690E+03  0.00000000000E+00 0. -1.
         25    2    1    2    0    0  0.14017803931E+03 -0.30981213325E+01 -0.42178949363E+03  0.46175139855E+03  0.12509394897E+03 0.  0.
          5    1    3    3  502    0  0.41315982491E+02 -0.58579274690E+02 -0.12710580183E+03  0.14598595511E+03  0.41800000000E+01 0.  1.
         -5    1    3    3    0  502  0.98862056814E+02  0.55481153358E+02 -0.29468369180E+03  0.31576544344E+03  0.41800000000E+01 0.  1.
        -11    1    1    2    0    0 -0.77404071132E+02 -0.32436985503E+02 -0.16631253240E+02  0.85557856685E+02  0.00000000000E+00 0. -1.
         11    1    1    2    0    0 -0.62773968174E+02  0.35535106835E+02  0.48818941850E+02  0.87101113548E+02  0.00000000000E+00 0.  1.
</event>
<event>
 7    1  0.2334784E-009  0.1345752E+03  0.7561462E-02  0.1220821E+00
          1   -1    0    0  501    0  0.00000000000E+00  0.00000000000E+00  0.91214500921E+02  0.91214500921E+02  0.00000000000E+00 0. -1.
         -1   -1    0    0    0  501 -0.00000000000E+00 -0.00000000000E+00 -0.26938679099E+03  0.26938679099E+03  0.00000000000E+00 0.  1.
         25    2    1    2    0    0 -0.12105740870E+01  0.11004046853E+03 -0.65005796417E+02  0.17884174105E+03  0.12509294372E+03 0.  0.
          5    1    3    3  502    0 -0.34093466024E+02  0.32794703837E+02  0.26666857516E+02  0.54465133021E+02  0.41800000000E+01 0. -1.
         -5    1    3    3    0  502  0.32882891937E+02  0.77245764698E+02 -0.91672653934E+02  0.12437660803E+03  0.41800000000E+01 0. -1.
        -11    1    1    2    0    0 -0.24618963698E+02 -0.10900694309E+03 -0.10797394624E+03  0.15539298594E+03  0.00000000000E+00 0. -1.
         11    1    1    2    0    0  0.25829537785E+02 -0.10335254489E+01 -0.51925474192E+01  0.26366564921E+02  0.00000000000E+00 0.  1.
</event>
<event>
 7    1  0.2334784E-009  0.1056492E+03  0.7561462E-02  0.1268846E+00
          3   -1    0    0  501    0  0.00000000000E+00  0.00000000000E+00  0.70107244043E+02  0.70107244043E+02  0.00000000000E+00 0.  1.
         -3   -1    0    0    0  501 -0.00000000000E+00 -0.00000000000E+00 -0.19778562626E+03  0.19778562626E+03  0.00000000000E+00 0. -1.
         25    2    1    2    0    0 -0.92252056209E+00  0.30070525401E+02 -0.34253332149E+02  0.13313688076E+03  0.12508817176E+03 0.  0.
          5    1    3    3  502    0 -0.42738556580E+02  0.59542754414E+02 -0.39247370203E+01  0.73517343412E+02  0.41800000000E+01 0.  1.
         -5    1    3    3    0  502  0.41816036018E+02 -0.29472229012E+02 -0.30328595129E+02  0.59619537349E+02  0.41800000000E+01 0.  1.
        -11    1    1    2    0    0  0.95752211431E+00  0.28235092036E+02 -0.47772826470E+01  0.28652394321E+02  0.00000000000E+00 0.  1.
         11    1    1    2    0    0 -0.35001552226E-01 -0.58305617437E+02 -0.88647767420E+02  0.10610359522E+03  0.00000000000E+00 0. -1.
</event>
<event>
 7    1  0.2334784E-009  0.1337843E+03  0.7561462E-02  0.1221946E+00
          4   -1    0    0  501    0  0.00000000000E+00  0.00000000000E+00  0.37710899846E+03  0.37710899846E+03  0.00000000000E+00 0. -1.
         -4   -1    0    0    0  501 -0.00000000000E+00 -0.00000000000E+00 -0.94685936861E+02  0.94685936861E+02  0.00000000000E+00 0.  1.
         25    2    1    2    0    0  0.59292086522E+02 -0.77454480922E+02  0.29933636836E+03  0.33877106920E+03  0.12509527476E+03 0.  0.
          5    1    3    3  502    0  0.87818413478E+02 -0.90389068257E+02  0.25306114631E+03  0.28273604931E+03  0.41800000000E+01 0. -1.
         -5    1    3    3    0  502 -0.28526326955E+02  0.12934587335E+02  0.46275222048E+02  0.56035019896E+02  0.41800000000E+01 0. -1.
        -11    1    1    2    0    0 -0.52025259346E+02  0.26463839073E+02 -0.45598564670E+02  0.74068829398E+02  0.00000000000E+00 0. -1.
         11    1    1    2    0    0 -0.72668271763E+01  0.50990641849E+02  0.28685257913E+02  0.58955036722E+02  0.00000000000E+00 0.  1.
</event>
<event>
 7    1  0.2334784E-009  0.1337820E+03  0.7561462E-02  0.1221949E+00
         -4   -1    0    0    0  501 -0.00000000000E+00  0.00000000000E+00  0.77746659473E+03  0.77746659473E+03  0.00000000000E+00 0.  1.
          4   -1    0    0  501    0  0.00000000000E+00 -0.00000000000E+00 -0.23563437370E+02  0.23563437370E+02  0.00000000000E+00 0. -1.
         25    2    1    2    0    0 -0.43687357556E+02 -0.66788498507E+02  0.40367790673E+03  0.43008310622E+03  0.12508531940E+03 0.  0.
          5    1    3    3  502    0 -0.77588111659E+02 -0.79244733233E+02  0.28071419260E+03  0.30185687527E+03  0.41800000000E+01 0. -1.
         -5    1    3    3    0  502  0.33900754103E+02  0.12456234727E+02  0.12296371413E+03  0.12822623095E+03  0.41800000000E+01 0. -1.
        -11    1    1    2    0    0 -0.25852022061E+02  0.33005925830E+01  0.51278668633E+02  0.57521498701E+02  0.00000000000E+00 0. -1.
         11    1    1    2    0    0  0.69539379617E+02  0.63487905924E+02  0.29894658200E+03  0.31342542718E+03  0.00000000000E+00 0.  1.
</event>
<event>
 7    1  0.2334784E-009  0.1536770E+03  0.7561462E-02  0.1196026E+00
          1   -1    0    0  501    0  0.00000000000E+00  0.00000000000E+00  0.12786479068E+04  0.12786479068E+04  0.00000000000E+00 0. -1.
         -1   -1    0    0    0  501 -0.00000000000E+00 -0.00000000000E+00 -0.24827351124E+02  0.24827351124E+02  0.00000000000E+00 0.  1.
         25    2    1    2    0    0  0.23652865586E+02  0.11641986966E+03  0.93495889409E+03  0.95074119534E+03  0.12509053836E+03 0.  0.
          5    1    3    3  502    0  0.55880786124E+02  0.10679459781E+02  0.22002926027E+03  0.22730389546E+03  0.41800000000E+01 0. -1.
         -5    1    3    3    0  502 -0.32227920538E+02  0.10574040988E+03  0.71492963382E+03  0.72343729988E+03  0.41800000000E+01 0. -1.
        -11    1    1    2    0    0  0.12799634188E+02 -0.98023000560E+02  0.15483373335E+03  0.18370036543E+03  0.00000000000E+00 0.  1.
         11    1    1    2    0    0 -0.36452499774E+02 -0.18396869098E+02  0.16402792825E+03  0.16903369717E+03  0.00000000000E+00 0. -1.
</event>
<event>
 7    1  0.2334784E-009  0.1891956E+03  0.7561462E-02  0.1159189E+00
          2   -1    0    0  501    0  0.00000000000E+00  0.00000000000E+00  0.21306528058E+03  0.21306528058E+03  0.00000000000E+00 0. -1.
         -2   -1    0    0    0  501 -0.00000000000E+00 -0.00000000000E+00 -0.30012448942E+03  0.30012448942E+03  0.00000000000E+00 0.  1.
         25    2    1    2    0    0 -0.83693766394E+02  0.15293781825E+03 -0.19421256309E+03  0.28941432508E+03  0.12509000405E+03 0.  0.
          5    1    3    3  502    0  0.15024593234E+02 -0.41760493452E+01  0.52311709672E+01  0.16971014692E+02  0.41800000000E+01 0. -1.
         -5    1    3    3    0  502 -0.98718359628E+02  0.15711386760E+03 -0.19944373406E+03  0.27244331039E+03  0.41800000000E+01 0. -1.
        -11    1    1    2    0    0  0.44692050890E+02 -0.10949339022E+03  0.11489096658E+03  0.16488212794E+03  0.00000000000E+00 0.  1.
         11    1    1    2    0    0  0.39001715504E+02 -0.43444428036E+02 -0.77376123292E+01  0.58893316974E+02  0.00000000000E+00 0. -1.
</event>
<event>
 7    1  0.2334784E-009  0.1650796E+03  0.7561462E-02  0.1183078E+00
         -2   -1    0    0    0  501 -0.00000000000E+00  0.00000000000E+00  0.67613360191E+02  0.67613360191E+02  0.00000000000E+00 0.  1.
          2   -1    0    0  501    0  0.00000000000E+00 -0.00000000000E+00 -0.46003798751E+03  0.46003798751E+03  0.00000000000E+00 0. -1.
         25    2    1    2    0    0  0.93580556566E+02  0.91071056795E+02 -0.27707697510E+03  0.33086372260E+03  0.12509154588E+03 0.  0.
          5    1    3    3  502    0  0.63713598284E+02  0.11679828420E+03 -0.16510015056E+03  0.21207733003E+03  0.41800000000E+01 0. -1.
         -5    1    3    3    0  502  0.29866958282E+02 -0.25727227402E+02 -0.11197682453E+03  0.11878639257E+03  0.41800000000E+01 0. -1.
        -11    1    1    2    0    0 -0.10849625089E+03 -0.92293066390E+02 -0.93796449337E+02  0.17054975951E+03  0.00000000000E+00 0. -1.
         11    1    1    2    0    0  0.14915694329E+02  0.12220095947E+01 -0.21551202888E+02  0.26237865589E+02  0.00000000000E+00 0.  1.
</event>
<event>
 7    1  0.2334784E-009  0.1192933E+03  0.7561462E-02  0.1244268E+00
          4   -1    0    0  501    0  0.00000000000E+00  0.00000000000E+00  0.49755380908E+02  0.49755380908E+02  0.00000000000E+00 0. -1.
         -4   -1    0    0    0  501 -0.00000000000E+00 -0.00000000000E+00 -0.34117935508E+03  0.34117935508E+03  0.00000000000E+00 0.  1.
         25    2    1    2    0    0  0.45496916077E+02  0.51973770165E+02 -0.12814966905E+03  0.19193999108E+03  0.12508948934E+03 0.  0.
          5    1    3    3  502    0  0.40036437203E+02 -0.36336895074E+02 -0.45431873322E+02  0.70744708361E+02  0.41800000000E+01 0. -1.
         -5    1    3    3    0  502  0.54604788734E+01  0.88310665240E+02 -0.82717795726E+02  0.12119528272E+03  0.41800000000E+01 0. -1.
        -11    1    1    2    0    0 -0.22138229248E+02  0.13728026689E+02 -0.56778752402E+01  0.26660798530E+02  0.00000000000E+00 0. -1.
         11    1    1    2    0    0 -0.23358686829E+02 -0.65701796855E+02 -0.15759642989E+03  0.17233394638E+03  0.00000000000E+00 0.  1.
</event>
<event>
 7    1  0.2334784E-009  0.9944556E+02  0.7561462E-02  0.1281466E+00
         -1   -1    0    0    0  501 -0.00000000000E+00  0.00000000000E+00  0.34055997877E+03  0.34055997877E+03  0.00000000000E+00 0.  1.
          1   -1    0    0  501    0  0.00000000000E+00 -0.00000000000E+00 -0.52028608797E+02  0.52028608797E+02  0.00000000000E+00 0. -1.
         25    2    1    2    0    0  0.47298959300E+02  0.52002484737E+02  0.15491231012E+03  0.21115522602E+03  0.12508899103E+03 0.  0.
          5    1    3    3  502    0 -0.17623312437E+02 -0.26955609227E+01 -0.13338258980E+02  0.22654552358E+02  0.41800000000E+01 0.  1.
         -5    1    3    3    0  502  0.64922271737E+02  0.54698045659E+02  0.16825056910E+03  0.18850067366E+03  0.41800000000E+01 0.  1.
        -11    1    1    2    0    0  0.67846342452E+01 -0.39494050964E+02  0.11671928668E+03  0.12340665787E+03  0.00000000000E+00 0.  1.
         11    1    1    2    0    0 -0.54083593545E+02 -0.12508433772E+02  0.16899773164E+02  0.58026703673E+02  0.00000000000E+00 0. -1.
</event>
<event>
 7    1  0.2334784E-009  0.8293441E+02  0.7561462E-02  0.1320924E+00
          2   -1    0    0  501    0  0.00000000000E+00  0.00000000000E+00  0.12447754116E+03  0.12447754116E+03  0.00000000000E+00 0. -1.
         -2   -1    0    0    0  501 -0.00000000000E+00 -0.00000000000E+00 -0.10799668808E+03  0.10799668808E+03  0.00000000000E+00 0.  1.
         25    2    1    2    0    0 -0.70581662189E+01 -0.20649612055E+02 -0.24586715640E+02  0.12934895279E+03  0.12510164193E+03 0.  0.
          5    1    3    3  502    0  0.47145752283E+02 -0.32962063813E+02 -0.41547916043E+02  0.71083903499E+02  0.41800000000E+01 0. -1.
         -5    1    3    3    0  502 -0.54203918502E+02  0.12312451757E+02  0.16961200404E+02  0.58265049287E+02  0.41800000000E+01 0. -1.
        -11    1    1    2    0    0 -0.78988550131E+01 -0.13233813525E+02  0.59705368873E+02  0.61662442404E+02  0.00000000000E+00 0. -1.
         11    1    1    2    0    0  0.14957021232E+02  0.33883425580E+02 -0.18637800156E+02  0.41462834054E+02  0.00000000000E+00 0.  1.
</event>
<event>
 7    1  0.2334784E-009  0.1033494E+03  0.7561462E-02  0.1273406E+00
          1   -1    0    0  501    0  0.00000000000E+00  0.00000000000E+00  0.37249569031E+03  0.37249569031E+03  0.00000000000E+00 0. -1.
         -1   -1    0    0    0  501 -0.00000000000E+00 -0.00000000000E+00 -0.50077258218E+02  0.50077258218E+02  0.00000000000E+00 0.  1.
         25    2    1    2    0    0  0.77004710286E+02 -0.27783827122E+02  0.15687813978E+03  0.21670057114E+03  0.12508685117E+03 0.  0.
          5    1    3    3  502    0  0.85721882746E+02 -0.48586778588E+01  0.16856058986E+03  0.18921414532E+03  0.41800000000E+01 0.  1.
         -5    1    3    3    0  502 -0.87171724597E+01 -0.22925149263E+02 -0.11682450086E+02  0.27486425822E+02  0.41800000000E+01 0.  1.
        -11    1    1    2    0    0 -0.62941243820E+02  0.42151926631E+02  0.55238682170E+02  0.93753384473E+02  0.00000000000E+00 0.  1.
         11    1    1    2    0    0 -0.14063466466E+02 -0.14368099508E+02  0.11030161014E+03  0.11211899291E+03  0.00000000000E+00 0. -1.
</event>
<event>
 7    1  0.2334784E-009  0.1876569E+03  0.7561462E-02  0.1160592E+00
          2   -1    0    0  501    0  0.00000000000E+00  0.00000000000E+00  0.30760696404E+03  0.30760696404E+03  0.00000000000E+00 0. -1.
         -2   -1    0    0    0  501 -0.00000000000E+00 -0.00000000000E+00 -0.18710523254E+03  0.18710523254E+03  0.00000000000E+00 0.  1.
         25    2    1    2    0    0  0.47398904391E+02 -0.17115559915E+03  0.17702915899E+03  0.28022825962E+03  0.12509060357E+03 0.  0.
          5    1    3    3  502    0  0.50851206498E+02 -0.45988147306E+02  0.70265009510E+01  0.69047802358E+02  0.41800000000E+01 0. -1.
         -5    1    3    3    0  502 -0.34523021068E+01 -0.12516745184E+03  0.17000265804E+03  0.21118045726E+03  0.41800000000E+01 0. -1.
        -11    1    1    2    0    0 -0.22270021546E+02  0.13774627274E+03 -0.85476331609E+02  0.16363432641E+03  0.00000000000E+00 0.  1.
         11    1    1    2    0    0 -0.25128882845E+02  0.33409326408E+02  0.28948904113E+02  0.50849610553E+02  0.00000000000E+00 0. -1.
</event>
<event>
 7    1  0.2334784E-009  0.1008155E+03  0.7561462E-02  0.1278590E+00
          2   -1    0    0  501    0  0.00000000000E+00  0.00000000000E+00  0.14671744606E+04  0.14671744606E+04  0.00000000000E+00 0. -1.
         -2   -1    0    0    0  501 -0.00000000000E+00 -0.00000000000E+00 -0.11162314436E+02  0.11162314436E+02  0.00000000000E+00 0.  1.
         25    2    1    2    0    0  0.33316981231E+02 -0.31222308511E+02  0.11028230739E+04  0.11108334602E+04  0.12508952918E+03 0.  0.
          5    1    3    3  502    0 -0.28582139390E+02  0.91433531580E+01  0.73569252580E+03  0.73631617157E+03  0.41800000000E+01 0. -1.
         -5    1    3    3    0  502  0.61899120621E+02 -0.40365661669E+02  0.36713054807E+03  0.37451728866E+03  0.41800000000E+01 0. -1.
        -11    1    1    2    0    0 -0.13453580502E+01 -0.29054266790E+02  0.15993011796E+03  0.16255338520E+03  0.00000000000E+00 0.  1.
         11    1    1    2    0    0 -0.31971623181E+02  0.60276575301E+02  0.19325895429E+03  0.20494992958E+03  0.00000000000E+00 0. -1.
</event>
<event>
 7    1  0.2334784E-009  0.1062055E+03  0.7561462E-02  0.1267763E+00
         -2   -1    0    0    0  501 -0.00000000000E+00  0.00000000000E+00  0.40186225772E+02  0.40186225772E+02  0.00000000000E+00 0.  1.
          2   -1    0    0  501    0  0.00000000000E+00 -0.00000000000E+00 -0.76745660093E+03  0.76745660093E+03  0.00000000000E+00 0. -1.
         25    2    1    2    0    0  0.49783362197E+02  0.37939219326E+02 -0.68672335171E+03  0.70082355215E+03  0.12508765709E+03 0.  0.
          5    1    3    3  502    0  0.87194106718E+02  0.33026895733E+02 -0.35999371938E+03  0.37189587048E+03  0.41800000000E+01 0.  1.
         -5    1    3    3    0  502 -0.37410744521E+02  0.49123235929E+01 -0.32672963232E+03  0.32892768167E+03  0.41800000000E+01 0.  1.
        -11    1    1    2    0    0 -0.40470694080E+02  0.15918800342E+01  0.10253621437E+02  0.41779754833E+02  0.00000000000E+00 0.  1.
         11    1    1    2    0    0 -0.93126681171E+01 -0.39531099360E+02 -0.50800644890E+02  0.65039519719E+02  0.00000000000E+00 0. -1.
</event>
<event>
 7    1  0.2334784E-009  0.1220973E+03  0.7561462E-02  0.1239677E+00
         -2   -1    0    0    0  501 -0.00000000000E+00  0.00000000000E+00  0.35811255299E+03  0.35811255299E+03  0.00000000000E+00 0.  1.
          2   -1    0    0  501    0  0.00000000000E+00 -0.00000000000E+00 -0.53431816489E+02  0.53431816489E+02  0.00000000000E+00 0. -1.
         25    2    1    2    0    0  0.60741137990E+02 -0.59757332583E+02  0.18971377721E+03  0.24269246164E+03  0.12509152263E+03 0.  0.
          5    1    3    3  502    0 -0.33293744673E+02 -0.52256714411E+01  0.85706078132E+02  0.92188856730E+02  0.41800000000E+01 0. -1.
         -5    1    3    3    0  502  0.94034882663E+02 -0.54531661141E+02  0.10400769908E+03  0.15050360491E+03  0.41800000000E+01 0. -1.
        -11    1    1    2    0    0  0.79461192094E+01  0.21295013307E+02  0.79177752488E+02  0.82375572176E+02  0.00000000000E+00 0.  1.
         11    1    1    2    0    0 -0.68687257199E+02  0.38462319276E+02  0.35789206801E+02  0.86476335659E+02  0.00000000000E+00 0. -1.
</event>
<event>
 7    1  0.2334784E-009  0.2907801E+03  0.7561462E-02  0.1089943E+00
         -2   -1    0    0    0  501 -0.00000000000E+00  0.00000000000E+00  0.71710915165E+02  0.71710915165E+02  0.00000000000E+00 0. -1.
          2   -1    0    0  501    0  0.00000000000E+00 -0.00000000000E+00 -0.16226563873E+04  0.16226563873E+04  0.00000000000E+00 0.  1.
         25    2    1    2    0    0 -0.27251023976E+03  0.15176696199E+02 -0.35716098921E+03  0.46658722833E+03  0.12508999380E+03 0.  0.
          5    1    3    3  502    0 -0.18418775058E+03  0.62439822781E+02 -0.27562330422E+03  0.33735669130E+03  0.41800000000E+01 0.  1.
         -5    1    3    3    0  502 -0.88322489184E+02 -0.47263126582E+02 -0.81537684988E+02  0.12923053704E+03  0.41800000000E+01 0.  1.
        -11    1    1    2    0    0  0.16130797665E+03  0.34534895042E+02 -0.66715810724E+03  0.68725021816E+03  0.00000000000E+00 0. -1.
         11    1    1    2    0    0  0.11120226311E+03 -0.49711591241E+02 -0.52662637565E+03  0.54052985594E+03  0.00000000000E+00 0.  1.
</event>
<event>
 7    1  0.3280735E-009  0.7708930E+02  0.7561462E-02  0.1337521E+00
         -2   -1    0    0    0  501 -0.00000000000E+00  0.00000000000E+00  0.20123468783E+02  0.20123468783E+02  0.00000000000E+00 0. -1.
          2   -1    0    0  501    0  0.00000000000E+00 -0.00000000000E+00 -0.71997648425E+03  0.71997648425E+03  0.00000000000E+00 0.  1.
         25    2    1    2    0    0  0.48805039890E+02 -0.17616530320E+02 -0.42161507437E+03  0.44283041446E+03  0.12508889231E+03 0.  0.
          5    1    3    3  502    0  0.42061076126E+02 -0.31955071071E+02 -0.42307293577E+03  0.42637828518E+03  0.41800000000E+01 0.  1.
         -5    1    3    3    0  502  0.67439637641E+01  0.14338540751E+02  0.14578614001E+01  0.16452129284E+02  0.41800000000E+01 0.  1.
        -11    1    1    2    0    0  0.65875366535E+00  0.32996774122E+02 -0.33187806454E+02  0.46804396760E+02  0.00000000000E+00 0. -1.
         11    1    1    2    0    0 -0.49463793555E+02 -0.15380243802E+02 -0.24505013464E+03  0.25046514181E+03  0.00000000000E+00 0.  1.
</event>
<event>
 7    1  0.2334784E-009  0.2645464E+03  0.7561462E-02  0.1104442E+00
          2   -1    0    0  501    0  0.00000000000E+00  0.00000000000E+00  0.87471939250E+03  0.87471939250E+03  0.00000000000E+00 0. -1.
         -2   -1    0    0    0  501 -0.00000000000E+00 -0.00000000000E+00 -0.13457363143E+03  0.13457363143E+03  0.00000000000E+00 0.  1.
         25    2    1    2    0    0 -0.57603822105E+02 -0.24478963126E+03  0.72466539252E+02  0.29006942538E+03  0.12509479739E+03 0.  0.
          5    1    3    3  502    0 -0.93808507426E+02 -0.17918459937E+03  0.32023304999E+02  0.20481728730E+03  0.41800000000E+01 0.  1.
         -5    1    3    3    0  502  0.36204685320E+02 -0.65605031896E+02  0.40443234253E+02  0.85252138073E+02  0.41800000000E+01 0.  1.
        -11    1    1    2    0    0  0.35439629501E+02  0.17381182665E+03  0.56674254764E+03  0.59385489282E+03  0.00000000000E+00 0. -1.
         11    1    1    2    0    0  0.22164192605E+02  0.70977804617E+02  0.10093667418E+03  0.12536870573E+03  0.00000000000E+00 0.  1.
</event>
<event>
 7    1  0.2334784E-009  0.1877654E+03  0.7561462E-02  0.1160492E+00
         -2   -1    0    0    0  501 -0.00000000000E+00  0.00000000000E+00  0.92484703745E+03  0.92484703745E+03  0.00000000000E+00 0.  1.
          2   -1    0    0  501    0  0.00000000000E+00 -0.00000000000E+00 -0.45213695599E+02  0.45213695599E+02  0.00000000000E+00 0. -1.
         25    2    1    2    0    0 -0.11258162715E+03 -0.13180956837E+03  0.42059888702E+03  0.47180490898E+03  0.12509221912E+03 0.  0.
          5    1    3    3  502    0 -0.33662519871E+02  0.12771867122E+02  0.15552919531E+03  0.15969686543E+03  0.41800000000E+01 0.  1.
         -5    1    3    3    0  502 -0.78919107280E+02 -0.14458143549E+03  0.26506969171E+03  0.31210804354E+03  0.41800000000E+01 0.  1.
        -11    1    1    2    0    0  0.60108362316E+02  0.54882903420E+02  0.10894167578E+03  0.13599057699E+03  0.00000000000E+00 0. -1.
         11    1    1    2    0    0  0.52473264835E+02  0.76926664950E+02  0.35009277905E+03  0.36226524708E+03  0.00000000000E+00 0.  1.
</event>
<event>
 7    1  0.2334784E-009  0.1077546E+03  0.7561462E-02  0.1264785E+00
          2   -1    0    0  501    0  0.00000000000E+00  0.00000000000E+00  0.82868472723E+03  0.82868472723E+03  0.00000000000E+00 0. -1.
         -2   -1    0    0    0  501 -0.00000000000E+00 -0.00000000000E+00 -0.22936876424E+02  0.22936876424E+02  0.00000000000E+00 0.  1.
         25    2    1    2    0    0 -0.77120682423E+02  0.13268011080E+02  0.53938710226E+03  0.55920454882E+03  0.12509053346E+03 0.  0.
          5    1    3    3  502    0 -0.60623184134E+01  0.40926524021E+02  0.55615770535E+02  0.69442914723E+02  0.41800000000E+01 0.  1.
         -5    1    3    3    0  502 -0.71058364010E+02 -0.27658512941E+02  0.48377133172E+03  0.48976163410E+03  0.41800000000E+01 0.  1.
        -11    1    1    2    0    0 -0.80049073173E+01  0.63321487185E+01 -0.18207097785E+01  0.10367720707E+02  0.00000000000E+00 0.  1.
         11    1    1    2    0    0  0.85125589740E+02 -0.19600159799E+02  0.26818145833E+03  0.28204933413E+03  0.00000000000E+00 0. -1.
</event>
<event>
 7    1  0.2386566E-009  0.1036596E+03  0.7561462E-02  0.1272783E+00
          2   -1    0    0  501    0  0.00000000000E+00  0.00000000000E+00  0.34757453465E+03  0.34757453465E+03  0.00000000000E+00 0. -1.
         -2   -1    0    0    0  501 -0.00000000000E+00 -0.00000000000E+00 -0.44786406471E+02  0.44786406471E+02  0.00000000000E+00 0.  1.
         25    2    1    2    0    0 -0.96333538596E+01  0.14982607027E+02  0.76405088514E+02  0.14765683839E+03  0.12509006496E+03 0.  0.
          5    1    3    3  502    0 -0.63469440008E+02  0.27483659147E+02  0.54107138456E+02  0.87913458395E+02  0.41800000000E+01 0. -1.
         -5    1    3    3    0  502  0.53836086148E+02 -0.12501052121E+02  0.22297950057E+02  0.59743379990E+02  0.41800000000E+01 0. -1.
        -11    1    1    2    0    0 -0.27967378845E+02 -0.30982992046E+02  0.58147391438E+02  0.71576806345E+02  0.00000000000E+00 0.  1.
         11    1    1    2    0    0  0.37600732705E+02  0.16000385019E+02  0.16823564822E+03  0.17312729639E+03  0.00000000000E+00 0. -1.
</event>
<event>
 7    1  0.2334784E-009  0.1484226E+03  0.7561462E-02  0.1202425E+00
          2   -1    0    0  501    0  0.00000000000E+00  0.00000000000E+00  0.14010509316E+04  0.14010509316E+04  0.00000000000E+00 0. -1.
         -2   -1    0    0    0  501 -0.00000000000E+00 -0.00000000000E+00 -0.24571720925E+02  0.24571720925E+02  0.00000000000E+00 0.  1.
         25    2    1    2    0    0  0.63052248248E+02  0.90631892238E+02  0.11207506997E+04  0.11331014992E+04  0.12508857187E+03 0.  0.
          5    1    3    3  502    0  0.93761433897E+02  0.81594368404E+02  0.10133788308E+04  0.10209813781E+04  0.41800000000E+01 0.  1.
         -5    1    3    3    0  502 -0.30709185649E+02  0.90375238338E+01  0.10737186890E+03  0.11212012108E+03  0.41800000000E+01 0.  1.
        -11    1    1    2    0    0 -0.77649880387E+02 -0.39688459019E+02  0.18097059266E+03  0.20088562196E+03  0.00000000000E+00 0.  1.
         11    1    1    2    0    0  0.14597632139E+02 -0.50943433219E+02  0.74757918402E+02  0.91635531406E+02  0.00000000000E+00 0. -1.
</event>
<event>
 7    1  0.2334784E-009  0.1105808E+03  0.7561462E-02  0.1259498E+00
         -2   -1    0    0    0  501 -0.00000000000E+00  0.00000000000E+00  0.19326691957E+03  0.19326691957E+03  0.00000000000E+00 0.  1.
          2   -1    0    0  501    0  0.00000000000E+00 -0.00000000000E+00 -0.69446931717E+02  0.69446931717E+02  0.00000000000E+00 0. -1.
         25    2    1    2    0    0 -0.37131664172E+02 -0.14958953462E+02  0.81315830189E+02  0.15445259982E+03  0.12506322633E+03 0.  0.
          5    1    3    3  502    0  0.10028795314E+02  0.44380768091E+02  0.60353762292E+02  0.75698601933E+02  0.41800000000E+01 0.  1.
         -5    1    3    3    0  502 -0.47160459486E+02 -0.59339721553E+02  0.20962067897E+02  0.78753997889E+02  0.41800000000E+01 0.  1.
        -11    1    1    2    0    0  0.66347443788E+02  0.21258476091E+02  0.30491563360E+02  0.76050256666E+02  0.00000000000E+00 0.  1.
         11    1    1    2    0    0 -0.29215779616E+02 -0.62995226294E+01  0.12012594300E+02  0.32210994796E+02  0.00000000000E+00 0. -1.
</event>
<event>
 7    1  0.2334784E-009  0.1134174E+03  0.7561462E-02  0.1254369E+00
          2   -1    0    0  501    0  0.00000000000E+00  0.00000000000E+00  0.11711826536E+04  0.11711826536E+04  0.00000000000E+00 0. -1.
         -2   -1    0    0    0  501 -0.00000000000E+00 -0.00000000000E+00 -0.18552587988E+02  0.18552587988E+02  0.00000000000E+00 0.  1.
         25    2    1    2    0    0 -0.20223002744E+02 -0.87877700590E+02  0.76448680333E+03  0.77988491506E+03  0.12509575604E+03 0.  0.
          5    1    3    3  502    0 -0.20788762569E+02  0.28040914714E+01  0.49610159450E+03  0.49656248353E+03  0.41800000000E+01 0. -1.
         -5    1    3    3    0  502  0.56575982429E+00 -0.90681792061E+02  0.26838520883E+03  0.28332243154E+03  0.41800000000E+01 0. -1.
        -11    1    1    2    0    0  0.43558993930E+02  0.31816646724E+02  0.84899155517E+02  0.10058604062E+03  0.00000000000E+00 0.  1.
         11    1    1    2    0    0 -0.23335991186E+02  0.56061053866E+02  0.30324410682E+03  0.30926428595E+03  0.00000000000E+00 0. -1.
</event>
<event>
 7    1  0.2334784E-009  0.8026250E+02  0.7561462E-02  0.1328308E+00
         -1   -1    0    0    0  501 -0.00000000000E+00  0.00000000000E+00  0.27965346263E+02  0.27965346263E+02  0.00000000000E+00 0. -1.
          1   -1    0    0  501    0  0.00000000000E+00 -0.00000000000E+00 -0.49052919992E+03  0.49052919992E+03  0.00000000000E+00 0.  1.
         25    2    1    2    0    0  0.24676259773E+02 -0.54012796082E+01 -0.33243385377E+03  0.35608660547E+03  0.12508921555E+03 0.  0.
          5    1    3    3  502    0  0.65644939853E+02 -0.19478084499E+02 -0.11155074264E+03  0.13095684208E+03  0.41800000000E+01 0. -1.
         -5    1    3    3    0  502 -0.40968680080E+02  0.14076804891E+02 -0.22088311113E+03  0.22512976339E+03  0.41800000000E+01 0. -1.
        -11    1    1    2    0    0 -0.23357236499E+02  0.21800781840E+02 -0.13974564807E+03  0.14335159831E+03  0.00000000000E+00 0.  1.
         11    1    1    2    0    0 -0.13190232749E+01 -0.16399502231E+02  0.96156481749E+01  0.19056342400E+02  0.00000000000E+00 0. -1.
</event>
<event>
 7    1  0.2334784E-009  0.1288616E+03  0.7561462E-02  0.1229155E+00
         -3   -1    0    0    0  501 -0.00000000000E+00  0.00000000000E+00  0.10656321328E+03  0.10656321328E+03  0.00000000000E+00 0.  1.
          3   -1    0    0  501    0  0.00000000000E+00 -0.00000000000E+00 -0.21343462855E+03  0.21343462855E+03  0.00000000000E+00 0. -1.
         25    2    1    2    0    0 -0.15837866609E+02  0.74342764175E+02  0.18213826094E+02  0.14750839769E+03  0.12509715954E+03 0.  0.
          5    1    3    3  502    0 -0.65216079209E+02  0.58218375514E+02  0.32683261813E+02  0.93424751739E+02  0.41800000000E+01 0. -1.
         -5    1    3    3    0  502  0.49378212600E+02  0.16124388662E+02 -0.14469435719E+02  0.54083645951E+02  0.41800000000E+01 0. -1.
        -11    1    1    2    0    0  0.31936396122E+02  0.90207976136E+01 -0.43761979462E+02  0.54921935811E+02  0.00000000000E+00 0.  1.
         11    1    1    2    0    0 -0.16098529513E+02 -0.83363561789E+02 -0.81323261902E+02  0.11756750832E+03  0.00000000000E+00 0. -1.
</event>
<event>
 7    1  0.2334784E-009  0.2378540E+03  0.7561462E-02  0.1121231E+00
          2   -1    0    0  501    0  0.00000000000E+00  0.00000000000E+00  0.12776111473E+04  0.12776111473E+04  0.00000000000E+00 0. -1.
         -2   -1    0    0    0  501 -0.00000000000E+00 -0.00000000000E+00 -0.65149562498E+02  0.65149562498E+02  0.00000000000E+00 0.  1.
         25    2    1    2    0    0 -0.11409036925E+03  0.19550997171E+03  0.29265517824E+03  0.39055792200E+03  0.12509066987E+03 0.  0.
          5    1    3    3  502    0 -0.28827908493E+02  0.11730077283E+03  0.22774314100E+03  0.25782732650E+03  0.41800000000E+01 0. -1.
         -5    1    3    3    0  502 -0.85262460757E+02  0.78209198873E+02  0.64912037241E+02  0.13273059550E+03  0.41800000000E+01 0. -1.
        -11    1    1    2    0    0  0.24385130525E+02 -0.11807123594E+03  0.57787315702E+03  0.59031587896E+03  0.00000000000E+00 0. -1.
         11    1    1    2    0    0  0.89705238725E+02 -0.77438735763E+02  0.34193324954E+03  0.36188690885E+03  0.00000000000E+00 0.  1.
</event>
<event>
 7    1  0.2334784E-009  0.9132044E+02  0.7561462E-02  0.1299685E+00
          1   -1    0    0  501    0  0.00000000000E+00  0.00000000000E+00  0.38436465531E+03  0.38436465531E+03  0.00000000000E+00 0.  1.
         -1   -1    0    0    0  501 -0.00000000000E+00 -0.00000000000E+00 -0.45613923064E+02  0.45613923064E+02  0.00000000000E+00 0. -1.
         25    2    1    2    0    0  0.17636091731E+02  0.25051420506E+02  0.30908006365E+03  0.33483827105E+03  0.12509027384E+03 0.  0.
          5    1    3    3  502    0  0.53332227306E+02 -0.21939571312E+02  0.22310578607E+03  0.23047632294E+03  0.41800000000E+01 0. -1.
         -5    1    3    3    0  502 -0.35696135574E+02  0.46990991818E+02  0.85974277587E+02  0.10436194811E+03  0.41800000000E+01 0. -1.
        -11    1    1    2    0    0 -0.34579502067E+02 -0.32220177694E+02 -0.12706245659E+02  0.48942113691E+02  0.00000000000E+00 0. -1.
         11    1    1    2    0    0  0.16943410336E+02  0.71687571879E+01  0.42376914247E+02  0.46198193628E+02  0.00000000000E+00 0.  1.
</event>
<event>
 7    1  0.2334784E-009  0.4102620E+03  0.7561462E-02  0.1040283E+00
         -2   -1    0    0    0  501 -0.00000000000E+00  0.00000000000E+00  0.52978585762E+02  0.52978585762E+02  0.00000000000E+00 0.  1.
          2   -1    0    0  501    0  0.00000000000E+00 -0.00000000000E+00 -0.33704365568E+04  0.33704365568E+04  0.00000000000E+00 0. -1.
         25    2    1    2    0    0 -0.28553214173E+03  0.27223057769E+03 -0.12743032100E+04  0.13398263584E+04  0.12509160015E+03 0.  0.
          5    1    3    3  502    0 -0.49124280026E+02 -0.48852160312E+01 -0.14627073765E+03  0.15443335558E+03  0.41800000000E+01 0. -1.
         -5    1    3    3    0  502 -0.23640786171E+03  0.27711579372E+03 -0.11280324723E+04  0.11853930029E+04  0.41800000000E+01 0. -1.
        -11    1    1    2    0    0  0.11733671680E+03 -0.48898102789E+02 -0.73218530035E+03  0.74313810534E+03  0.00000000000E+00 0. -1.
         11    1    1    2    0    0  0.16819542493E+03 -0.22333247490E+03 -0.13109694607E+04  0.13404506788E+04  0.00000000000E+00 0.  1.
</event>
<event>
 7    1  0.2334784E-009  0.1517809E+03  0.7561462E-02  0.1198302E+00
         -1   -1    0    0    0  501 -0.00000000000E+00  0.00000000000E+00  0.21793662679E+02  0.21793662679E+02  0.00000000000E+00 0.  1.
          1   -1    0    0  501    0  0.00000000000E+00 -0.00000000000E+00 -0.12022748641E+04  0.12022748641E+04  0.00000000000E+00 0. -1.
         25    2    1    2    0    0  0.73697102003E+02  0.92917065972E+02 -0.66742107953E+03  0.68932097360E+03  0.12509062015E+03 0.  0.
          5    1    3    3  502    0  0.41731783012E+02  0.11318160047E+03 -0.59879156988E+03  0.61083584780E+03  0.41800000000E+01 0.  1.
         -5    1    3    3    0  502  0.31965318991E+02 -0.20264534500E+02 -0.68629509643E+02  0.78485125792E+02  0.41800000000E+01 0.  1.
        -11    1    1    2    0    0 -0.67088968142E+02 -0.17848194844E+02 -0.32123244992E+03  0.32864840572E+03  0.00000000000E+00 0.  1.
         11    1    1    2    0    0 -0.66081338606E+01 -0.75068871128E+02 -0.19182767193E+03  0.20609914742E+03  0.00000000000E+00 0. -1.
</event>
<event>
 7    1  0.2433517E-009  0.1921035E+03  0.7561462E-02  0.1156578E+00
          2   -1    0    0  501    0  0.00000000000E+00  0.00000000000E+00  0.15391781486E+04  0.15391781486E+04  0.00000000000E+00 0. -1.
         -2   -1    0    0    0  501 -0.00000000000E+00 -0.00000000000E+00 -0.29081349734E+02  0.29081349734E+02  0.00000000000E+00 0.  1.
         25    2    1    2    0    0 -0.18102527339E+03 -0.10660577660E+02  0.80320164985E+03  0.83286576652E+03  0.12509475292E+03 0.  0.
          5    1    3    3  502    0 -0.21367724950E+02 -0.29587585884E+02  0.35096333452E+03  0.35288063065E+03  0.41800000000E+01 0.  1.
         -5    1    3    3    0  502 -0.15965754844E+03  0.18927008225E+02  0.45223831532E+03  0.47998513587E+03  0.41800000000E+01 0.  1.
        -11    1    1    2    0    0  0.95673717321E+02 -0.16472474510E+02  0.50900642731E+03  0.51818176892E+03  0.00000000000E+00 0. -1.
         11    1    1    2    0    0  0.85351556064E+02  0.27133052170E+02  0.19788872174E+03  0.21721196292E+03  0.00000000000E+00 0.  1.
</event>
<event>
 7    1  0.2334784E-009  0.1860783E+03  0.7561462E-02  0.1162047E+00
          2   -1    0    0  501    0  0.00000000000E+00  0.00000000000E+00  0.45855496374E+03  0.45855496374E+03  0.00000000000E+00 0. -1.
         -2   -1    0    0    0  501 -0.00000000000E+00 -0.00000000000E+00 -0.85838215517E+02  0.85838215517E+02  0.00000000000E+00 0.  1.
         25    2    1    2    0    0  0.16124768630E+03 -0.26473241391E+02  0.21841317111E+03  0.30008905211E+03  0.12508987581E+03 0.  0.
          5    1    3    3  502    0 -0.38383382001E+01 -0.26012264137E+02  0.44537995322E+00  0.26627832976E+02  0.41800000000E+01 0.  1.
         -5    1    3    3    0  502  0.16508602450E+03 -0.46097725365E+00  0.21796779116E+03  0.27346121913E+03  0.41800000000E+01 0.  1.
        -11    1    1    2    0    0 -0.10186805750E+03  0.53601648742E+02  0.60558952412E+02  0.13006776927E+03  0.00000000000E+00 0.  1.
         11    1    1    2    0    0 -0.59379628798E+02 -0.27128407351E+02  0.93744624698E+02  0.11423635788E+03  0.00000000000E+00 0. -1.
</event>
<event>
 7    1  0.2334784E-009  0.8347264E+02  0.7561462E-02  0.1319476E+00
         -3   -1    0    0    0  501 -0.00000000000E+00  0.00000000000E+00  0.90541801968E+03  0.90541801968E+03  0.00000000000E+00 0.  1.
          3   -1    0    0  501    0  0.00000000000E+00 -0.00000000000E+00 -0.19979531740E+02  0.19979531740E+02  0.00000000000E+00 0. -1.
         25    2    1    2    0    0 -0.60416306025E+02 -0.51772054527E+01  0.65139572459E+03  0.66606367546E+03  0.12508995272E+03 0.  0.
          5    1    3    3  502    0 -0.43899581110E+02  0.11121721537E+02  0.63661119989E+03  0.63823362348E+03  0.41800000000E+01 0. -1.
         -5    1    3    3    0  502 -0.16516724916E+02 -0.16298926990E+02  0.14784524696E+02  0.27830051984E+02  0.41800000000E+01 0. -1.
        -11    1    1    2    0    0 -0.16504976757E+02 -0.10258710465E+02  0.11587460647E+03  0.11749289265E+03  0.00000000000E+00 0.  1.
         11    1    1    2    0    0  0.76921282783E+02  0.15435915918E+02  0.11816815688E+03  0.14184098331E+03  0.00000000000E+00 0. -1.
</event>
<event>
 7    1  0.2334784E-009  0.1066162E+03  0.7561462E-02  0.1266968E+00
         -1   -1    0    0    0  501 -0.00000000000E+00  0.00000000000E+00  0.19618418260E+02  0.19618418260E+02  0.00000000000E+00 0.  1.
          1   -1    0    0  501    0  0.00000000000E+00 -0.00000000000E+00 -0.62914171456E+03  0.62914171456E+03  0.00000000000E+00 0. -1.
         25    2    1    2    0    0  0.20931339510E+02 -0.16728078526E+01 -0.31288455127E+03  0.33761658484E+03  0.12508915493E+03 0.  0.
          5    1    3    3  502    0 -0.43139085911E+01  0.59850181094E+02 -0.14343824710E+03  0.15553988914E+03  0.41800000000E+01 0. -1.
         -5    1    3    3    0  502  0.25245248101E+02 -0.61522988946E+02 -0.16944630417E+03  0.18207669570E+03  0.41800000000E+01 0. -1.
        -11    1    1    2    0    0  0.30575041128E+02  0.13783361730E+02 -0.60743905905E+02  0.69387580338E+02  0.00000000000E+00 0.  1.
         11    1    1    2    0    0 -0.51506380638E+02 -0.12110553878E+02 -0.23589483913E+03  0.24175596764E+03  0.00000000000E+00 0. -1.
</event>
<event>
 7    1  0.2334784E-009  0.2530601E+03  0.7561462E-02  0.1111386E+00
         -2   -1    0    0    0  501 -0.00000000000E+00  0.00000000000E+00  0.79250573434E+02  0.79250573434E+02  0.00000000000E+00 0.  1.
          2   -1    0    0  501    0  0.00000000000E+00 -0.00000000000E+00 -0.92617408225E+03  0.92617408225E+03  0.00000000000E+00 0. -1.
         25    2    1    2    0    0 -0.22751660878E+03  0.89828492040E+02 -0.45171590068E+03  0.52870272477E+03  0.12508537484E+03 0.  0.
          5    1    3    3  502    0 -0.44585547548E+02 -0.50239392585E+01 -0.18031615330E+02  0.48535786460E+02  0.41800000000E+01 0.  1.
         -5    1    3    3    0  502 -0.18293106123E+03  0.94852431299E+02 -0.43368428535E+03  0.48016693831E+03  0.41800000000E+01 0.  1.
        -11    1    1    2    0    0  0.11701481578E+03 -0.76847726719E+01 -0.25259449875E+03  0.27848788778E+03  0.00000000000E+00 0.  1.
         11    1    1    2    0    0  0.11050179300E+03 -0.82143719368E+02 -0.14261310938E+03  0.19823404312E+03  0.00000000000E+00 0. -1.
</event>
<event>
 7    1  0.2334784E-009  0.1365870E+03  0.7561462E-02  0.1217997E+00
          3   -1    0    0  501    0  0.00000000000E+00  0.00000000000E+00  0.94164502915E+03  0.94164502915E+03  0.00000000000E+00 0.  1.
         -3   -1    0    0    0  501 -0.00000000000E+00 -0.00000000000E+00 -0.21349351703E+02  0.21349351703E+02  0.00000000000E+00 0. -1.
         25    2    1    2    0    0 -0.70675538793E+02  0.44823169240E+02  0.62561359844E+03  0.64346265133E+03  0.12509061043E+03 0.  0.
          5    1    3    3  502    0 -0.10430692456E+03  0.49375668040E+02  0.45238448991E+03  0.46689087613E+03  0.41800000000E+01 0. -1.
         -5    1    3    3    0  502  0.33631385762E+02 -0.45524988000E+01  0.17322910853E+03  0.17657177520E+03  0.41800000000E+01 0. -1.
        -11    1    1    2    0    0 -0.18674573482E+02  0.73090980121E+01  0.51023158196E+02  0.54822671230E+02  0.00000000000E+00 0.  1.
         11    1    1    2    0    0  0.89350112276E+02 -0.52132267252E+02  0.24365892081E+03  0.26470905829E+03  0.00000000000E+00 0. -1.
</event>
<event>
 7    1  0.2334784E-009  0.1137063E+03  0.7561462E-02  0.1253856E+00
          2   -1    0    0  501    0  0.00000000000E+00  0.00000000000E+00  0.10995091213E+04  0.10995091213E+04  0.00000000000E+00 0. -1.
         -2   -1    0    0    0  501 -0.00000000000E+00 -0.00000000000E+00 -0.12063019254E+02  0.12063019254E+02  0.00000000000E+00 0.  1.
         25    2    1    2    0    0  0.11780370371E+02  0.29583711255E+02  0.64205709818E+03  0.65490375402E+03  0.12509051364E+03 0.  0.
          5    1    3    3  502    0 -0.14239849475E+02 -0.46339706173E+02  0.25142312047E+03  0.25608826523E+03  0.41800000000E+01 0. -1.
         -5    1    3    3    0  502  0.26020219845E+02  0.75923417428E+02  0.39063397771E+03  0.39881548879E+03  0.41800000000E+01 0. -1.
        -11    1    1    2    0    0 -0.23663120566E+02  0.29671775742E+02  0.12520229886E+03  0.13082802907E+03  0.00000000000E+00 0.  1.
         11    1    1    2    0    0  0.11882750196E+02 -0.59255486997E+02  0.32018670501E+03  0.32584035747E+03  0.00000000000E+00 0. -1.
</event>
<event>
 7    1  0.2334784E-009  0.7547469E+02  0.7561462E-02  0.1342407E+00
          3   -1    0    0  501    0  0.00000000000E+00  0.00000000000E+00  0.13207800684E+03  0.13207800684E+03  0.00000000000E+00 0. -1.
         -3   -1    0    0    0  501 -0.00000000000E+00 -0.00000000000E+00 -0.10213061167E+03  0.10213061167E+03  0.00000000000E+00 0.  1.
         25    2    1    2    0    0 -0.49355082202E+02 -0.98497558616E+01  0.18589170776E+02  0.13610834477E+03  0.12508789876E+03 0.  0.
          5    1    3    3  502    0 -0.44881984529E+01  0.52880159795E+01  0.67452767456E+02  0.67937142094E+02  0.41800000000E+01 0.  1.
         -5    1    3    3    0  502 -0.44866883750E+02 -0.15137771841E+02 -0.48863596680E+02  0.68171202676E+02  0.41800000000E+01 0.  1.
        -11    1    1    2    0    0  0.12086913282E+02  0.43472604295E+02  0.15564364523E+02  0.47730600665E+02  0.00000000000E+00 0.  1.
         11    1    1    2    0    0  0.37268168920E+02 -0.33622848433E+02 -0.42061401298E+01  0.50369673080E+02  0.00000000000E+00 0. -1.
</event>
<event>
 7    1  0.2401731E-009  0.9537042E+02  0.7561462E-02  0.1290344E+00
         -3   -1    0    0    0  501 -0.00000000000E+00  0.00000000000E+00  0.55525775461E+02  0.55525775461E+02  0.00000000000E+00 0.  1.
          3   -1    0    0  501    0  0.00000000000E+00 -0.00000000000E+00 -0.29200121426E+03  0.29200121426E+03  0.00000000000E+00 0. -1.
         25    2    1    2    0    0 -0.51470984876E+02 -0.40414998931E+02 -0.11889728073E+03  0.18456939869E+03  0.12508663056E+03 0.  0.
          5    1    3    3  502    0 -0.70138945697E+02 -0.34649128002E+02 -0.16268219131E+02  0.80013505913E+02  0.41800000000E+01 0. -1.
         -5    1    3    3    0  502  0.18667960821E+02 -0.57658709289E+01 -0.10262906160E+03  0.10455589278E+03  0.41800000000E+01 0. -1.
        -11    1    1    2    0    0  0.37977230278E+02 -0.10777840537E+02 -0.99449595280E+02  0.10699838255E+03  0.00000000000E+00 0. -1.
         11    1    1    2    0    0  0.13493754598E+02  0.51192839468E+02 -0.18128562788E+02  0.55959208489E+02  0.00000000000E+00 0.  1.
</event>
<event>
 7    1  0.2334784E-009  0.1485998E+03  0.7561462E-02  0.1202204E+00
         -4   -1    0    0    0  501 -0.00000000000E+00  0.00000000000E+00  0.10523908983E+04  0.10523908983E+04  0.00000000000E+00 0. -1.
          4   -1    0    0  501    0  0.00000000000E+00 -0.00000000000E+00 -0.46277588795E+02  0.46277588795E+02  0.00000000000E+00 0.  1.
         25    2    1    2    0    0 -0.11276102521E+03 -0.42941245008E+02  0.89336364953E+03  0.91011316424E+03  0.12509341343E+03 0.  0.
          5    1    3    3  502    0 -0.73200685871E+02 -0.85880665167E+02  0.51379204028E+03  0.52605471400E+03  0.41800000000E+01 0.  1.
         -5    1    3    3    0  502 -0.39560339342E+02  0.42939420159E+02  0.37957160925E+03  0.38405845024E+03  0.41800000000E+01 0.  1.
        -11    1    1    2    0    0  0.53403199918E+02  0.39240997554E+02  0.62365198715E+01  0.66563141682E+02  0.00000000000E+00 0.  1.
         11    1    1    2    0    0  0.59357825296E+02  0.37002474535E+01  0.10651314015E+03  0.12199218122E+03  0.00000000000E+00 0. -1.
</event>
<event>
 7    1  0.2334784E-009  0.8911905E+02  0.7561462E-02  0.1304999E+00
         -2   -1    0    0    0  501 -0.00000000000E+00  0.00000000000E+00  0.65049581204E+02  0.65049581204E+02  0.00000000000E+00 0.  1.
          2   -1    0    0  501    0  0.00000000000E+00 -0.00000000000E+00 -0.24678397384E+03  0.24678397384E+03  0.00000000000E+00 0. -1.
         25    2    1    2    0    0  0.54747475705E+02  0.51009569089E+02 -0.12831233769E+03  0.19419761454E+03  0.12509754296E+03 0.  0.
          5    1    3    3  502    0  0.42202662313E+02  0.14847370410E+02  0.13765864059E+02  0.46994473374E+02  0.41800000000E+01 0.  1.
         -5    1    3    3    0  502  0.12544813392E+02  0.36162198679E+02 -0.14207820175E+03  0.14720314117E+03  0.41800000000E+01 0.  1.
        -11    1    1    2    0    0 -0.42254867293E+02  0.30059647497E-01  0.61969373341E+00  0.42259421835E+02  0.00000000000E+00 0.  1.
         11    1    1    2    0    0 -0.12492608412E+02 -0.51039628736E+02 -0.54041748677E+02  0.75376518668E+02  0.00000000000E+00 0. -1.
</event>
<event>
 7    1  0.2334784E-009  0.1127426E+03  0.7561462E-02  0.1255574E+00
         -2   -1    0    0    0  501 -0.00000000000E+00  0.00000000000E+00  0.18433516504E+02  0.18433516504E+02  0.00000000000E+00 0.  1.
          2   -1    0    0  501    0  0.00000000000E+00 -0.00000000000E+00 -0.13590158090E+04  0.13590158090E+04  0.00000000000E+00 0. -1.
         25    2    1    2    0    0 -0.81257161046E+02 -0.95061639099E+01 -0.10581331547E+04  0.10686376364E+04  0.12509009374E+03 0.  0.
          5    1    3    3  502    0  0.20732376798E+01 -0.27835942261E+02 -0.69573905151E+03  0.69631130839E+03  0.41800000000E+01 0.  1.
         -5    1    3    3    0  502 -0.83330398726E+02  0.18329778351E+02 -0.36239410315E+03  0.37232632801E+03  0.41800000000E+01 0.  1.
        -11    1    1    2    0    0  0.18990612271E+02  0.38667491614E+02 -0.18237361685E+03  0.18739251422E+03  0.00000000000E+00 0. -1.
         11    1    1    2    0    0  0.62266548775E+02 -0.29161327704E+02 -0.10007552096E+03  0.12141917486E+03  0.00000000000E+00 0.  1.
</event>
<event>
 7    1  0.2334784E-009  0.1404453E+03  0.7561462E-02  0.1212731E+00
          1   -1    0    0  501    0  0.00000000000E+00  0.00000000000E+00  0.50751852920E+02  0.50751852920E+02  0.00000000000E+00 0. -1.
         -1   -1    0    0    0  501 -0.00000000000E+00 -0.00000000000E+00 -0.42773538334E+03  0.42773538334E+03  0.00000000000E+00 0.  1.
         25    2    1    2    0    0  0.91480343831E+02  0.18712031784E+01 -0.17231226602E+03  0.23175579768E+03  0.12508828095E+03 0.  0.
          5    1    3    3  502    0  0.14896580399E+02  0.56877546915E+02 -0.83099980984E+02  0.10188249452E+03  0.41800000000E+01 0. -1.
         -5    1    3    3    0  502  0.76583763432E+02 -0.55006343737E+02 -0.89212285033E+02  0.12987330316E+03  0.41800000000E+01 0. -1.
        -11    1    1    2    0    0 -0.18816882216E+02  0.39638934507E+02 -0.11961855767E+03  0.12741239941E+03  0.00000000000E+00 0.  1.
         11    1    1    2    0    0 -0.72663461615E+02 -0.41510137686E+02 -0.85052706733E+02  0.11931903917E+03  0.00000000000E+00 0. -1.
</event>
<event>
 7    1  0.2334784E-009  0.8701809E+02  0.7561462E-02  0.1310238E+00
         -2   -1    0    0    0  501 -0.00000000000E+00  0.00000000000E+00  0.47956769691E+02  0.47956769691E+02  0.00000000000E+00 0.  1.
          2   -1    0    0  501    0  0.00000000000E+00 -0.00000000000E+00 -0.36052910251E+03  0.36052910251E+03  0.00000000000E+00 0. -1.
         25    2    1    2    0    0  0.10166789771E+02  0.66647273039E+02 -0.21565586675E+03  0.25826359523E+03  0.12508960444E+03 0.  0.
          5    1    3    3  502    0  0.23186018159E+02  0.96113492030E+01  0.82925409678E+01  0.26762064705E+02  0.41800000000E+01 0. -1.
         -5    1    3    3    0  502 -0.13019228389E+02  0.57035923836E+02 -0.22394840772E+03  0.23150153052E+03  0.41800000000E+01 0. -1.
        -11    1    1    2    0    0  0.24067032687E+02 -0.39471893884E+02 -0.26392211942E+01  0.46305701135E+02  0.00000000000E+00 0.  1.
         11    1    1    2    0    0 -0.34233822458E+02 -0.27175379155E+02 -0.94277244879E+02  0.10391657584E+03  0.00000000000E+00 0. -1.
</event>
<event>
 7    1  0.2334784E-009  0.7316766E+02  0.7561462E-02  0.1349641E+00
          2   -1    0    0  501    0  0.00000000000E+00  0.00000000000E+00  0.88077551117E+03  0.88077551117E+03  0.00000000000E+00 0. -1.
         -2   -1    0    0    0  501 -0.00000000000E+00 -0.00000000000E+00 -0.15111462814E+02  0.15111462814E+02  0.00000000000E+00 0.  1.
         25    2    1    2    0    0 -0.13711563363E+02 -0.28836704203E+02  0.57064751976E+03  0.58506819593E+03  0.12508652843E+03 0.  0.
          5    1    3    3  502    0 -0.21598366123E+02 -0.32518778297E+02  0.46611067886E+02  0.60942796215E+02  0.41800000000E+01 0. -1.
         -5    1    3    3    0  502  0.78868027597E+01  0.36820740934E+01  0.52403645188E+03  0.52412539971E+03  0.41800000000E+01 0. -1.
        -11    1    1    2    0    0  0.37325720305E+02  0.52218451756E+02  0.18023068762E+03  0.19131930603E+03  0.00000000000E+00 0.  1.
         11    1    1    2    0    0 -0.23614156942E+02 -0.23381747553E+02  0.11478584097E+03  0.11949947203E+03  0.00000000000E+00 0. -1.
</event>
<event>
 7    1  0.2334784E-009  0.1147110E+03  0.7561462E-02  0.1252086E+00
          3   -1    0    0  501    0  0.00000000000E+00  0.00000000000E+00  0.13708505454E+03  0.13708505454E+03  0.00000000000E+00 0. -1.
         -3   -1    0    0    0  501 -0.00000000000E+00 -0.00000000000E+00 -0.13289160219E+03  0.13289160219E+03  0.00000000000E+00 0.  1.
         25    2    1    2    0    0 -0.25853900842E+02 -0.54691755196E+02 -0.59856131796E+02  0.15129522012E+03  0.12509146590E+03 0.  0.
          5    1    3    3  502    0 -0.14875557919E+02 -0.92409482455E+02 -0.60954370883E+02  0.11177523161E+03  0.41800000000E+01 0.  1.
         -5    1    3    3    0  502 -0.10978342923E+02  0.37717727259E+02  0.10982390872E+01  0.39519988512E+02  0.41800000000E+01 0.  1.
        -11    1    1    2    0    0  0.17217894585E+02 -0.16892955309E+02  0.31227671935E+02  0.39458780107E+02  0.00000000000E+00 0. -1.
         11    1    1    2    0    0  0.86360062575E+01  0.71584710505E+02  0.32821912216E+02  0.79222656505E+02  0.00000000000E+00 0.  1.
</event>
<event>
 7    1  0.2334784E-009  0.1589650E+03  0.7561462E-02  0.1189870E+00
         -2   -1    0    0    0  501 -0.00000000000E+00  0.00000000000E+00  0.43730290322E+02  0.43730290322E+02  0.00000000000E+00 0.  1.
          2   -1    0    0  501    0  0.00000000000E+00 -0.00000000000E+00 -0.75488560010E+03  0.75488560010E+03  0.00000000000E+00 0. -1.
         25    2    1    2    0    0 -0.27661497019E+02 -0.12796166378E+03 -0.23992393422E+03  0.30058393394E+03  0.12509141185E+03 0.  0.
          5    1    3    3  502    0 -0.69326578327E+02 -0.11940280786E+03 -0.18908700631E+03  0.23416783157E+03  0.41800000000E+01 0. -1.
         -5    1    3    3    0  502  0.41665081308E+02 -0.85588559213E+01 -0.50836927917E+02  0.66416102378E+02  0.41800000000E+01 0. -1.
        -11    1    1    2    0    0  0.28715819083E+02  0.40816722303E+02 -0.61833387466E+02  0.79460498933E+02  0.00000000000E+00 0.  1.
         11    1    1    2    0    0 -0.10543220645E+01  0.87144941474E+02 -0.40939798808E+03  0.41857145754E+03  0.00000000000E+00 0. -1.
</event>
<event>
 7    1  0.2334784E-009  0.1166162E+03  0.7561462E-02  0.1248786E+00
         -2   -1    0    0    0  501 -0.00000000000E+00  0.00000000000E+00  0.67430262650E+02  0.67430262650E+02  0.00000000000E+00 0.  1.
          2   -1    0    0  501    0  0.00000000000E+00 -0.00000000000E+00 -0.45965377678E+03  0.45965377678E+03  0.00000000000E+00 0. -1.
         25    2    1    2    0    0  0.72662213412E+02 -0.49494320459E+02 -0.54106263887E+02  0.16219392833E+03  0.12509955067E+03 0.  0.
          5    1    3    3  502    0  0.41008014838E+02 -0.70292546141E+02  0.15398062071E+02  0.82929319541E+02  0.41800000000E+01 0. -1.
         -5    1    3    3    0  502  0.31654198574E+02  0.20798225682E+02 -0.69504325958E+02  0.79264608784E+02  0.41800000000E+01 0. -1.
        -11    1    1    2    0    0 -0.30765445184E+02 -0.16922427731E+02 -0.27783053695E+02  0.44774761309E+02  0.00000000000E+00 0.  1.
         11    1    1    2    0    0 -0.41896768228E+02  0.66416748189E+02 -0.31033419655E+03  0.32011534979E+03  0.00000000000E+00 0. -1.
</event>
<event>
 7    1  0.2334784E-009  0.9967180E+02  0.7561462E-02  0.1280988E+00
         -1   -1    0    0    0  501 -0.00000000000E+00  0.00000000000E+00  0.52321074460E+03  0.52321074460E+03  0.00000000000E+00 0.  1.
          1   -1    0    0  501    0  0.00000000000E+00 -0.00000000000E+00 -0.27484332786E+02  0.27484332786E+02  0.00000000000E+00 0. -1.
         25    2    1    2    0    0  0.14247859624E+02  0.35173907307E+02  0.37159846776E+03  0.39392228263E+03  0.12509651574E+03 0.  0.
          5    1    3    3  502    0  0.62059279870E+02 -0.49149082565E+01  0.12759967018E+03  0.14203752593E+03  0.41800000000E+01 0.  1.
         -5    1    3    3    0  502 -0.47811420246E+02  0.40088815564E+02  0.24399879758E+03  0.25188475670E+03  0.41800000000E+01 0.  1.
        -11    1    1    2    0    0 -0.39908670962E+02 -0.21997512273E+02  0.21911174342E+02  0.50563743188E+02  0.00000000000E+00 0. -1.
         11    1    1    2    0    0  0.25660811338E+02 -0.13176395034E+02  0.10221676971E+03  0.10620905157E+03  0.00000000000E+00 0.  1.
</event>
<event>
 7    1  0.2334784E-009  0.7513474E+02  0.7561462E-02  0.1343454E+00
         -2   -1    0    0    0  501 -0.00000000000E+00  0.00000000000E+00  0.17430565739E+03  0.17430565739E+03  0.00000000000E+00 0.  1.
          2   -1    0    0  501    0  0.00000000000E+00 -0.00000000000E+00 -0.77791683953E+02  0.77791683953E+02  0.00000000000E+00 0. -1.
         25    2    1    2    0    0 -0.17875685022E+02  0.32281445675E+02  0.82153164794E+02  0.15413911863E+03  0.12509234012E+03 0.  0.
          5    1    3    3  502    0  0.13266365538E+02  0.15539190242E+02  0.10809413843E+03  0.11008759263E+03  0.41800000000E+01 0. -1.
         -5    1    3    3    0  502 -0.31142050559E+02  0.16742255433E+02 -0.25940973637E+02  0.44051526004E+02  0.41800000000E+01 0. -1.
        -11    1    1    2    0    0  0.52724046043E+02 -0.14464907799E+02  0.20404160173E+02  0.58355705300E+02  0.00000000000E+00 0.  1.
         11    1    1    2    0    0 -0.34848361021E+02 -0.17816537876E+02 -0.60433515277E+01  0.39602517412E+02  0.00000000000E+00 0. -1.
</event>
<event>
 7    1  0.2334784E-009  0.1466884E+03  0.7561462E-02  0.1204602E+00
         -1   -1    0    0    0  501 -0.00000000000E+00  0.00000000000E+00  0.53827927764E+02  0.53827927764E+02  0.00000000000E+00 0.  1.
          1   -1    0    0  501    0  0.00000000000E+00 -0.00000000000E+00 -0.70156991446E+03  0.70156991446E+03  0.00000000000E+00 0. -1.
         25    2    1    2    0    0  0.65052066804E+02  0.75001774619E+02 -0.93926734430E+02  0.18527865041E+03  0.12509560051E+03 0.  0.
          5    1    3    3  502    0 -0.33193765537E+02  0.44788309553E+02 -0.42773430968E+02  0.70390748965E+02  0.41800000000E+01 0. -1.
         -5    1    3    3    0  502  0.98245832341E+02  0.30213465066E+02 -0.51153303462E+02  0.11488790145E+03  0.41800000000E+01 0. -1.
        -11    1    1    2    0    0 -0.32673549255E+02  0.17168036792E+02 -0.18035788272E+03  0.18409581246E+03  0.00000000000E+00 0.  1.
         11    1    1    2    0    0 -0.32378517550E+02 -0.92169811411E+02 -0.37345736955E+03  0.38602337935E+03  0.00000000000E+00 0. -1.
</event>
<event>
 7    1  0.2334784E-009  0.1106068E+03  0.7561462E-02  0.1259450E+00
          3   -1    0    0  501    0  0.00000000000E+00  0.00000000000E+00  0.43433535639E+03  0.43433535639E+03  0.00000000000E+00 0. -1.
         -3   -1    0    0    0  501 -0.00000000000E+00 -0.00000000000E+00 -0.34855478202E+02  0.34855478202E+02  0.00000000000E+00 0.  1.
         25    2    1    2    0    0  0.20731456452E+02 -0.21824507745E+02  0.31330175737E+03  0.33869173046E+03  0.12509194493E+03 0.  0.
          5    1    3    3  502    0  0.63222604427E+02 -0.44259619302E+02  0.22740287793E+03  0.24017816908E+03  0.41800000000E+01 0. -1.
         -5    1    3    3    0  502 -0.42491147975E+02  0.22435111557E+02  0.85898879448E+02  0.98513561388E+02  0.41800000000E+01 0. -1.
        -11    1    1    2    0    0 -0.50971027732E+01 -0.35710343053E+02  0.46628999285E+02  0.58953139288E+02  0.00000000000E+00 0.  1.
         11    1    1    2    0    0 -0.15634353679E+02  0.57534850799E+02  0.39549121530E+02  0.71545964842E+02  0.00000000000E+00 0. -1.
</event>
<event>
 7    1  0.2334784E-009  0.7257088E+02  0.7561462E-02  0.1351563E+00
         -2   -1    0    0    0  501 -0.00000000000E+00  0.00000000000E+00  0.13617809279E+02  0.13617809279E+02  0.00000000000E+00 0.  1.
          2   -1    0    0  501    0  0.00000000000E+00 -0.00000000000E+00 -0.95494668745E+03  0.95494668745E+03  0.00000000000E+00 0. -1.
         25    2    1    2    0    0  0.31014393181E+02 -0.68365461831E+01 -0.60814486489E+03  0.62168843159E+03  0.12509076036E+03 0.  0.
          5    1    3    3  502    0  0.38098307521E+02  0.46394725038E+01 -0.49076576419E+02  0.62441880930E+02  0.41800000000E+01 0.  1.
         -5    1    3    3    0  502 -0.70839143396E+01 -0.11476018687E+02 -0.55906828847E+03  0.55924655066E+03  0.41800000000E+01 0.  1.
        -11    1    1    2    0    0  0.30566719300E+02  0.14895361420E+01 -0.16220563618E+03  0.16506729372E+03  0.00000000000E+00 0.  1.
         11    1    1    2    0    0 -0.61581112481E+02  0.53470100411E+01 -0.17097837711E+03  0.18180877143E+03  0.00000000000E+00 0. -1.
</event>
<event>
 7    1  0.2334784E-009  0.9627730E+02  0.7561462E-02  0.1288325E+00
          1   -1    0    0  501    0  0.00000000000E+00  0.00000000000E+00  0.11983781117E+03  0.11983781117E+03  0.00000000000E+00 0. -1.
         -1   -1    0    0    0  501 -0.00000000000E+00 -0.00000000000E+00 -0.11756326260E+03  0.11756326260E+03  0.00000000000E+00 0.  1.
         25    2    1    2    0    0  0.39158515763E+02 -0.93570227740E+01  0.30258961249E+02  0.13484492664E+03  0.12508639524E+03 0.  0.
          5    1    3    3  502    0 -0.42625987295E+02 -0.23069101722E+01  0.30533342778E+02  0.52650299606E+02  0.41800000000E+01 0.  1.
         -5    1    3    3    0  502  0.81784503059E+02 -0.70501126017E+01 -0.27438152895E+00  0.82194627035E+02  0.41800000000E+01 0.  1.
        -11    1    1    2    0    0 -0.42540096180E+02 -0.13291606853E+02 -0.52595480542E+02  0.68939184570E+02  0.00000000000E+00 0. -1.
         11    1    1    2    0    0  0.33815804168E+01  0.22648629627E+02  0.24611067865E+02  0.33616962557E+02  0.00000000000E+00 0.  1.
</event>
<event>
 7    1  0.2334784E-009  0.2224184E+03  0.7561462E-02  0.1132093E+00
         -1   -1    0    0    0  501 -0.00000000000E+00  0.00000000000E+00  0.59365880137E+02  0.59365880137E+02  0.00000000000E+00 0.  1.
          1   -1    0    0  501    0  0.00000000000E+00 -0.00000000000E+00 -0.96080066038E+03  0.96080066038E+03  0.00000000000E+00 0. -1.
         25    2    1    2    0    0  0.13628844712E+03  0.15919931306E+03 -0.38977441002E+03  0.45988091540E+03  0.12508958206E+03 0.  0.
          5    1    3    3  502    0  0.11654010377E+03  0.17449713239E+03 -0.29673445130E+03  0.36345515816E+03  0.41800000000E+01 0.  1.
         -5    1    3    3    0  502  0.19748343352E+02 -0.15297819329E+02 -0.93039958720E+02  0.96425757244E+02  0.41800000000E+01 0.  1.
        -11    1    1    2    0    0 -0.87802348175E+02 -0.10633410739E+03 -0.43011120511E+03  0.45167670241E+03  0.00000000000E+00 0. -1.
         11    1    1    2    0    0 -0.48486098947E+02 -0.52865205671E+02 -0.81549165119E+02  0.10860892271E+03  0.00000000000E+00 0.  1.
</event>
<event>
 7    1  0.2334784E-009  0.1640892E+03  0.7561462E-02  0.1184156E+00
          2   -1    0    0  501    0  0.00000000000E+00  0.00000000000E+00  0.36737189259E+03  0.36737189259E+03  0.00000000000E+00 0. -1.
         -2   -1    0    0    0  501 -0.00000000000E+00 -0.00000000000E+00 -0.84575543574E+02  0.84575543574E+02  0.00000000000E+00 0.  1.
         25    2    1    2    0    0 -0.11698730435E+03  0.70625906295E+02  0.12390152337E+03  0.22288535562E+03  0.12510893748E+03 0.  0.
          5    1    3    3  502    0 -0.69715559591E+02 -0.16650914390E+02  0.11229448358E+02  0.72671074779E+02  0.41800000000E+01 0. -1.
         -5    1    3    3    0  502 -0.47271744756E+02  0.87276820685E+02  0.11267207501E+03  0.15021428084E+03  0.41800000000E+01 0. -1.
        -11    1    1    2    0    0  0.33500417387E+02  0.15652902701E+02  0.11015673096E+02  0.38582850878E+02  0.00000000000E+00 0.  1.
         11    1    1    2    0    0  0.83486886960E+02 -0.86278808997E+02  0.14787915255E+03  0.19047922967E+03  0.00000000000E+00 0. -1.
</event>
<event>
 7    1  0.2334784E-009  0.9639446E+02  0.7561462E-02  0.1288066E+00
          1   -1    0    0  501    0  0.00000000000E+00  0.00000000000E+00  0.87417098834E+02  0.87417098834E+02  0.00000000000E+00 0. -1.
         -1   -1    0    0    0  501 -0.00000000000E+00 -0.00000000000E+00 -0.27307229915E+03  0.27307229915E+03  0.00000000000E+00 0.  1.
         25    2    1    2    0    0 -0.35599280243E+02 -0.11073416004E+02 -0.21872044684E+03  0.25470730272E+03  0.12508895595E+03 0.  0.
          5    1    3    3  502    0 -0.31142495635E+02 -0.56004456195E+02 -0.19112722752E+03  0.20162699136E+03  0.41800000000E+01 0. -1.
         -5    1    3    3    0  502 -0.44567846084E+01  0.44931040191E+02 -0.27593219324E+02  0.53080311362E+02  0.41800000000E+01 0. -1.
        -11    1    1    2    0    0  0.20141176384E+02  0.43150581174E+02  0.47592408946E+02  0.67325158975E+02  0.00000000000E+00 0. -1.
         11    1    1    2    0    0  0.15458103859E+02 -0.32077165169E+02 -0.14527162421E+02  0.38456936282E+02  0.00000000000E+00 0.  1.
</event>
<event>
 7    1  0.2334784E-009  0.1075010E+03  0.7561462E-02  0.1265269E+00
         -2   -1    0    0    0  501 -0.00000000000E+00  0.00000000000E+00  0.25589342721E+03  0.25589342721E+03  0.00000000000E+00 0.  1.
          2   -1    0    0  501    0  0.00000000000E+00 -0.00000000000E+00 -0.61998482799E+02  0.61998482799E+02  0.00000000000E+00 0. -1.
         25    2    1    2    0    0  0.43642518909E+01 -0.44081454634E+02  0.16445507357E+03  0.21132286408E+03  0.12509860239E+03 0.  0.
          5    1    3    3  502    0  0.36862578101E+02 -0.66223489972E+02  0.51718310284E+02  0.91851272756E+02  0.41800000000E+01 0.  1.
         -5    1    3    3    0  502 -0.32498326210E+02  0.22142035338E+02  0.11273676329E+03  0.11947159132E+03  0.41800000000E+01 0.  1.
        -11    1    1    2    0    0  0.18463736743E+02  0.65617386664E+02  0.81619611069E+01  0.68652520829E+02  0.00000000000E+00 0.  1.
         11    1    1    2    0    0 -0.22827988634E+02 -0.21535932029E+02  0.21277909729E+02  0.37916525103E+02  0.00000000000E+00 0. -1.
</event>
<event>
 7    1  0.2334784E-009  0.1235020E+03  0.7561462E-02  0.1237429E+00
         -3   -1    0    0    0  501 -0.00000000000E+00  0.00000000000E+00  0.10067207364E+03  0.10067207364E+03  0.00000000000E+00 0.  1.
          3   -1    0    0  501    0  0.00000000000E+00 -0.00000000000E+00 -0.22284111517E+03  0.22284111517E+03  0.00000000000E+00 0. -1.
         25    2    1    2    0    0  0.17489172768E+02 -0.99518263885E+02 -0.96478904661E+02  0.18752172977E+03  0.12508582686E+03 0.  0.
          5    1    3    3  502    0 -0.39566553427E+02 -0.13634007918E+02  0.55290819818E+01  0.42419824016E+02  0.41800000000E+01 0. -1.
         -5    1    3    3    0  502  0.57055726194E+02 -0.85884255967E+02 -0.10200798664E+03  0.14510190575E+03  0.41800000000E+01 0. -1.
        -11    1    1    2    0    0 -0.12358753390E+02  0.36702912113E+02  0.32237497106E+02  0.50389470752E+02  0.00000000000E+00 0.  1.
         11    1    1    2    0    0 -0.51304193776E+01  0.62815351772E+02 -0.57927633978E+02  0.85601988292E+02  0.00000000000E+00 0. -1.
</event>
<event>
 7    1  0.2334784E-009  0.2701777E+03  0.7561462E-02  0.1101178E+00
          2   -1    0    0  501    0  0.00000000000E+00  0.00000000000E+00  0.13054855440E+03  0.13054855440E+03  0.00000000000E+00 0. -1.
         -2   -1    0    0    0  501 -0.00000000000E+00 -0.00000000000E+00 -0.58858006592E+03  0.58858006592E+03  0.00000000000E+00 0.  1.
         25    2    1    2    0    0 -0.17900335921E+03  0.17997132012E+03 -0.22157970082E+03  0.35941488250E+03  0.12509842234E+03 0.  0.
          5    1    3    3  502    0 -0.17390030804E+03  0.10935631965E+03 -0.19617025571E+03  0.28407809385E+03  0.41800000000E+01 0. -1.
         -5    1    3    3    0  502 -0.51030511761E+01  0.70615000469E+02 -0.25409445114E+02  0.75336788646E+02  0.41800000000E+01 0. -1.
        -11    1    1    2    0    0  0.13271434677E+03 -0.83055097710E+02 -0.17936417396E+03  0.23808140204E+03  0.00000000000E+00 0.  1.
         11    1    1    2    0    0  0.46289012440E+02 -0.96916222408E+02 -0.57087636739E+02  0.12163233578E+03  0.00000000000E+00 0. -1.
</event>
<event>
 7    1  0.2334784E-009  0.1064802E+03  0.7561462E-02  0.1267230E+00
          1   -1    0    0  501    0  0.00000000000E+00  0.00000000000E+00  0.33922075033E+02  0.33922075033E+02  0.00000000000E+00 0. -1.
         -1   -1    0    0    0  501 -0.00000000000E+00 -0.00000000000E+00 -0.54411420125E+03  0.54411420125E+03  0.00000000000E+00 0.  1.
         25    2    1    2    0    0 -0.43465356921E+02 -0.26530522431E+02 -0.40972557604E+03  0.43142286220E+03  0.12513006229E+03 0.  0.
          5    1    3    3  502    0 -0.25238112102E+02  0.42586639657E+02 -0.26877891614E+03  0.27333159778E+03  0.41800000000E+01 0. -1.
         -5    1    3    3    0  502 -0.18227244819E+02 -0.69117162088E+02 -0.14094665990E+03  0.15809126442E+03  0.41800000000E+01 0. -1.
        -11    1    1    2    0    0  0.14328626906E+01 -0.25078049607E+02  0.11425972420E+01  0.25144923862E+02  0.00000000000E+00 0. -1.
         11    1    1    2    0    0  0.42032494230E+02  0.51608572038E+02 -0.10160914741E+03  0.12146849022E+03  0.00000000000E+00 0.  1.
</event>
<event>
 7    1  0.2334784E-009  0.8385184E+02  0.7561462E-02  0.1318463E+00
          2   -1    0    0  501    0  0.00000000000E+00  0.00000000000E+00  0.21424460089E+03  0.21424460089E+03  0.00000000000E+00 0. -1.
         -2   -1    0    0    0  501 -0.00000000000E+00 -0.00000000000E+00 -0.12721992298E+03  0.12721992298E+03  0.00000000000E+00 0.  1.
         25    2    1    2    0    0  0.23510910464E+02  0.63057608575E+02  0.15138170779E+03  0.20758807913E+03  0.12508942494E+03 0.  0.
          5    1    3    3  502    0 -0.16869960528E+02 -0.73862141274E+01 -0.13861554728E+02  0.23425772705E+02  0.41800000000E+01 0. -1.
         -5    1    3    3    0  502  0.40380870992E+02  0.70443822702E+02  0.16524326252E+03  0.18416230643E+03  0.41800000000E+01 0. -1.
        -11    1    1    2    0    0 -0.13287318558E+02 -0.42932640062E+02 -0.89461744711E+02  0.10011577390E+03  0.00000000000E+00 0.  1.
         11    1    1    2    0    0 -0.10223591906E+02 -0.20124968513E+02  0.25104714821E+02  0.33760670837E+02  0.00000000000E+00 0. -1.
</event>
<event>
 7    1  0.2334784E-009  0.1133853E+03  0.7561462E-02  0.1254426E+00
         -4   -1    0    0    0  501 -0.00000000000E+00  0.00000000000E+00  0.11135731855E+03  0.11135731855E+03  0.00000000000E+00 0.  1.
          4   -1    0    0  501    0  0.00000000000E+00 -0.00000000000E+00 -0.16974106382E+03  0.16974106382E+03  0.00000000000E+00 0. -1.
         25    2    1    2    0    0 -0.65257743974E+02 -0.25028727057E+02  0.17669166807E+02  0.14437581810E+03  0.12508863685E+03 0.  0.
          5    1    3    3  502    0  0.25183112865E+02  0.21603354269E+02 -0.16055129850E+02  0.37096275875E+02  0.41800000000E+01 0.  1.
         -5    1    3    3    0  502 -0.90440856840E+02 -0.46632081326E+02  0.33724296657E+02  0.10727954222E+03  0.41800000000E+01 0.  1.
        -11    1    1    2    0    0  0.21789453291E+02  0.39969819720E+02  0.26284814039E+01  0.45599075403E+02  0.00000000000E+00 0.  1.
         11    1    1    2    0    0  0.43468290683E+02 -0.14941092662E+02 -0.78681393481E+02  0.91123488876E+02  0.00000000000E+00 0. -1.
</event>
<event>
 7    1  0.2334784E-009  0.1224162E+03  0.7561462E-02  0.1239164E+00
         -2   -1    0    0    0  501 -0.00000000000E+00  0.00000000000E+00  0.16173735363E+03  0.16173735363E+03  0.00000000000E+00 0.  1.
          2   -1    0    0  501    0  0.00000000000E+00 -0.00000000000E+00 -0.10709571553E+03  0.10709571553E+03  0.00000000000E+00 0. -1.
         25    2    1    2    0    0 -0.38900778496E+02 -0.60803517059E+02  0.49595816280E+02  0.15270023990E+03  0.12508908832E+03 0.  0.
          5    1    3    3  502    0 -0.62868996641E+01 -0.88957474121E+02  0.60765943200E+02  0.10799504416E+03  0.41800000000E+01 0. -1.
         -5    1    3    3    0  502 -0.32613878832E+02  0.28153957062E+02 -0.11170126919E+02  0.44705195739E+02  0.41800000000E+01 0. -1.
        -11    1    1    2    0    0  0.60467581971E+02  0.66580741036E+02  0.15853835099E+02  0.91327255700E+02  0.00000000000E+00 0.  1.
         11    1    1    2    0    0 -0.21566803475E+02 -0.57772239764E+01 -0.10808013272E+02  0.24805573565E+02  0.00000000000E+00 0. -1.
</event>
<event>
 7    1  0.3300143E-009  0.9853825E+02  0.7561462E-02  0.1283400E+00
         -3   -1    0    0    0  501 -0.00000000000E+00  0.00000000000E+00  0.32438656616E+02  0.32438656616E+02  0.00000000000E+00 0.  1.
          3   -1    0    0  501    0  0.00000000000E+00 -0.00000000000E+00 -0.41490119359E+03  0.41490119359E+03  0.00000000000E+00 0. -1.
         25    2    1    2    0    0  0.72971644573E+01 -0.65662396950E+01 -0.13736555005E+03  0.18604551989E+03  0.12508907634E+03 0.  0.
          5    1    3    3  502    0  0.16873896158E+02  0.53083887464E+02 -0.31618443719E+02  0.64185869653E+02  0.41800000000E+01 0. -1.
         -5    1    3    3    0  502 -0.95767317009E+01 -0.59650127159E+02 -0.10574710633E+03  0.12185965024E+03  0.41800000000E+01 0. -1.
        -11    1    1    2    0    0 -0.10024264013E+02  0.42985569476E+02 -0.72528780643E+02  0.84903881382E+02  0.00000000000E+00 0.  1.
         11    1    1    2    0    0  0.27270995555E+01 -0.36419329781E+02 -0.17256820629E+03  0.17639044893E+03  0.00000000000E+00 0. -1.
</event>
<event>
 7    1  0.2334784E-009  0.9002153E+02  0.7561462E-02  0.1302800E+00
         -2   -1    0    0    0  501 -0.00000000000E+00  0.00000000000E+00  0.58198163432E+02  0.58198163432E+02  0.00000000000E+00 0.  1.
          2   -1    0    0  501    0  0.00000000000E+00 -0.00000000000E+00 -0.31781195041E+03  0.31781195041E+03  0.00000000000E+00 0. -1.
         25    2    1    2    0    0  0.33822610605E+02 -0.57099051694E+02 -0.21302823301E+03  0.25579798725E+03  0.12508921427E+03 0.  0.
          5    1    3    3  502    0  0.20401669895E+02  0.12889505656E+02 -0.17144077801E+03  0.17318135077E+03  0.41800000000E+01 0. -1.
         -5    1    3    3    0  502  0.13420940710E+02 -0.69988557350E+02 -0.41587455007E+02  0.82616636481E+02  0.41800000000E+01 0. -1.
        -11    1    1    2    0    0 -0.13285293337E+02  0.61703954516E+02  0.61643835317E+01  0.63418267449E+02  0.00000000000E+00 0. -1.
         11    1    1    2    0    0 -0.20537317268E+02 -0.46049028222E+01 -0.52749937497E+02  0.56793859144E+02  0.00000000000E+00 0.  1.
</event>
<event>
 7    1  0.2334784E-009  0.1266590E+03  0.7561462E-02  0.1232499E+00
         -2   -1    0    0    0  501 -0.00000000000E+00  0.00000000000E+00  0.58210271073E+02  0.58210271073E+02  0.00000000000E+00 0.  1.
          2   -1    0    0  501    0  0.00000000000E+00 -0.00000000000E+00 -0.40173516047E+03  0.40173516047E+03  0.00000000000E+00 0. -1.
         25    2    1    2    0    0  0.77537849412E+02 -0.24923325114E+02 -0.11022430668E+03  0.18555246904E+03  0.12508809200E+03 0.  0.
          5    1    3    3  502    0  0.16005523569E+02  0.29244689413E+02 -0.96687712674E+02  0.10235924397E+03  0.41800000000E+01 0.  1.
         -5    1    3    3    0  502  0.61532325843E+02 -0.54168014527E+02 -0.13536594003E+02  0.83193225077E+02  0.41800000000E+01 0.  1.
        -11    1    1    2    0    0 -0.66673475518E+01 -0.40582816295E+02 -0.11246235680E+03  0.11974639952E+03  0.00000000000E+00 0. -1.
         11    1    1    2    0    0 -0.70870501860E+02  0.65506141410E+02 -0.12083822592E+03  0.15464656298E+03  0.00000000000E+00 0.  1.
</event>
<event>
 7    1  0.2334784E-009  0.1289271E+03  0.7561462E-02  0.1229057E+00
         -1   -1    0    0    0  501 -0.00000000000E+00  0.00000000000E+00  0.23357985192E+02  0.23357985192E+02  0.00000000000E+00 0.  1.
          1   -1    0    0  501    0  0.00000000000E+00 -0.00000000000E+00 -0.86399321197E+03  0.86399321197E+03  0.00000000000E+00 0. -1.
         25    2    1    2    0    0 -0.28504293544E+02  0.82395559143E+02 -0.55496368781E+03  0.57553057383E+03  0.12509685730E+03 0.  0.
          5    1    3    3  502    0 -0.48725420906E+02 -0.16189076057E+02 -0.17268005983E+03  0.18020024498E+03  0.41800000000E+01 0. -1.
         -5    1    3    3    0  502  0.20221127362E+02  0.98584635200E+02 -0.38228362798E+03  0.39533032885E+03  0.41800000000E+01 0. -1.
        -11    1    1    2    0    0  0.45736076460E+02 -0.43701208742E+02 -0.80804096689E+02  0.10262010708E+03  0.00000000000E+00 0.  1.
         11    1    1    2    0    0 -0.17231782916E+02 -0.38694350402E+02 -0.20486744228E+03  0.20920051626E+03  0.00000000000E+00 0. -1.
</event>
<event>
 7    1  0.2334784E-009  0.2818273E+03  0.7561462E-02  0.1094695E+00
         -2   -1    0    0    0  501 -0.00000000000E+00  0.00000000000E+00  0.58019024399E+02  0.58019024399E+02  0.00000000000E+00 0.  1.
          2   -1    0    0  501    0  0.00000000000E+00 -0.00000000000E+00 -0.14271138459E+04  0.14271138459E+04  0.00000000000E+00 0. -1.
         25    2    1    2    0    0 -0.18020589141E+03  0.19278583822E+03 -0.78663564726E+03  0.83909735707E+03  0.12509272713E+03 0.  0.
          5    1    3    3  502    0  0.47082584273E+01 -0.93645692456E+01 -0.86881578914E+02  0.87611323521E+02  0.41800000000E+01 0.  1.
         -5    1    3    3    0  502 -0.18491414983E+03  0.20215040746E+03 -0.69975406835E+03  0.75148603355E+03  0.41800000000E+01 0.  1.
        -11    1    1    2    0    0  0.63219658493E+02 -0.13240057298E+03 -0.33543685658E+03  0.36612091131E+03  0.00000000000E+00 0. -1.
         11    1    1    2    0    0  0.11698623291E+03 -0.60385265242E+02 -0.24702231768E+03  0.27991460195E+03  0.00000000000E+00 0.  1.
</event>
<event>
 7    1  0.2334784E-009  0.1303495E+03  0.7561462E-02  0.1226938E+00
          1   -1    0    0  501    0  0.00000000000E+00  0.00000000000E+00  0.88404892755E+03  0.88404892755E+03  0.00000000000E+00 0. -1.
         -1   -1    0    0    0  501 -0.00000000000E+00 -0.00000000000E+00 -0.30470307191E+02  0.30470307191E+02  0.00000000000E+00 0.  1.
         25    2    1    2    0    0 -0.12012350474E+03  0.44653865963E+01  0.38599201270E+03  0.42318715841E+03  0.12509173077E+03 0.  0.
          5    1    3    3  502    0 -0.44495420932E+02  0.16075472744E+01  0.19238275476E+02  0.48682751930E+02  0.41800000000E+01 0. -1.
         -5    1    3    3    0  502 -0.75628083813E+02  0.28578393219E+01  0.36675373722E+03  0.37450440648E+03  0.41800000000E+01 0. -1.
        -11    1    1    2    0    0  0.89153245458E+02  0.29792668556E+02  0.38885708703E+03  0.40005716892E+03  0.00000000000E+00 0. -1.
         11    1    1    2    0    0  0.30970259287E+02 -0.34258055153E+02  0.78729520634E+02  0.91274907408E+02  0.00000000000E+00 0.  1.
</event>
<event>
 7    1  0.2334784E-009  0.1617345E+03  0.7561462E-02  0.1186752E+00
          1   -1    0    0  501    0  0.00000000000E+00  0.00000000000E+00  0.11990159324E+04  0.11990159324E+04  0.00000000000E+00 0. -1.
         -1   -1    0    0    0  501 -0.00000000000E+00 -0.00000000000E+00 -0.29334676563E+02  0.29334676563E+02  0.00000000000E+00 0.  1.
         25    2    1    2    0    0  0.74210549955E+02  0.12191539753E+03  0.79403987692E+03  0.81640516984E+03  0.12508998891E+03 0.  0.
          5    1    3    3  502    0  0.41654302948E+02  0.18246557630E+02  0.51351679320E+03  0.51554339014E+03  0.41800000000E+01 0.  1.
         -5    1    3    3    0  502  0.32556247007E+02  0.10366883990E+03  0.28052308372E+03  0.30086177971E+03  0.41800000000E+01 0.  1.
        -11    1    1    2    0    0 -0.73865634683E+02 -0.34293513194E+02  0.18500182988E+03  0.20213325825E+03  0.00000000000E+00 0. -1.
         11    1    1    2    0    0 -0.34491527155E+00 -0.87621884334E+02  0.19063954900E+03  0.20981218083E+03  0.00000000000E+00 0.  1.
</event>
<event>
 6    1  0.2334784E-009  0.1014110E+03  0.7561462E-02  0.1277356E+00
         -1   -1    0    0    0  501 -0.00000000000E+00  0.00000000000E+00  0.16004166225E+02  0.16004166225E+02  0.00000000000E+00 0.  1.
          1   -1    0    0  501    0  0.00000000000E+00 -0.00000000000E+00 -0.74713352023E+03  0.74713352023E+03  0.00000000000E+00 0. -1.
          5    1    1    2  502    0  0.30918361177E+01 -0.60477536870E+02 -0.25136818256E+03  0.25859336325E+03  0.41800000000E+01 0. -1.
         -5    1    1    2    0  502  0.62913763887E+01  0.61955732087E+02 -0.17337911132E+03  0.18427122075E+03  0.41800000000E+01 0. -1.
        -11    1    1    2    0    0 -0.16105727414E+02  0.37153792890E+02 -0.71763324400E+02  0.82400081982E+02  0.00000000000E+00 0.  1.
         11    1    1    2    0    0  0.67225149075E+01 -0.38631988107E+02 -0.23461873573E+03  0.23787302047E+03  0.00000000000E+00 0. -1.
</event>
<event>
 7    1  0.2334784E-009  0.9590468E+02  0.7561462E-02  0.1289151E+00
         -3   -1    0    0    0  501 -0.00000000000E+00  0.00000000000E+00  0.10759908704E+03  0.10759908704E+03  0.00000000000E+00 0. -1.
          3   -1    0    0  501    0  0.00000000000E+00 -0.00000000000E+00 -0.14068611974E+03  0.14068611974E+03  0.00000000000E+00 0.  1.
         25    2    1    2    0    0 -0.26753141684E+02 -0.30672294582E+02  0.20480325405E+02  0.13313477345E+03  0.12509557917E+03 0.  0.
          5    1    3    3  502    0  0.33727514882E+02 -0.56274506184E+02  0.10339199264E+02  0.66548754667E+02  0.41800000000E+01 0.  1.
         -5    1    3    3    0  502 -0.60480656566E+02  0.25602211602E+02  0.10141126141E+02  0.66586018780E+02  0.41800000000E+01 0.  1.
        -11    1    1    2    0    0  0.38862456576E+02  0.18328598142E+02 -0.75711765324E+02  0.87054577418E+02  0.00000000000E+00 0.  1.
         11    1    1    2    0    0 -0.12109314893E+02  0.12343696440E+02  0.22144407216E+02  0.28095855921E+02  0.00000000000E+00 0. -1.
</event>
<event>
 7    1  0.2334784E-009  0.1002476E+03  0.7561462E-02  0.1279776E+00
          1   -1    0    0  501    0  0.00000000000E+00  0.00000000000E+00  0.41780728081E+03  0.41780728081E+03  0.00000000000E+00 0. -1.
         -1   -1    0    0    0  501 -0.00000000000E+00 -0.00000000000E+00 -0.27537669991E+02  0.27537669991E+02  0.00000000000E+00 0.  1.
         25    2    1    2    0    0  0.22928841522E+02 -0.48271771563E+02  0.18910992195E+03  0.23294515876E+03  0.12507992927E+03 0.  0.
          5    1    3    3  502    0  0.67515754438E+02  0.10875483838E+01  0.76796906909E+02  0.10234645656E+03  0.41800000000E+01 0.  1.
         -5    1    3    3    0  502 -0.44586912917E+02 -0.49359319946E+02  0.11231301505E+03  0.13059870220E+03  0.41800000000E+01 0.  1.
        -11    1    1    2    0    0  0.90736729359E+01  0.25083624406E+02  0.57197381338E+02  0.63111490125E+02  0.00000000000E+00 0.  1.
         11    1    1    2    0    0 -0.32002514457E+02  0.23188147157E+02  0.14396230753E+03  0.14928830192E+03  0.00000000000E+00 0. -1.
</event>
<event>
 7    1  0.2334784E-009  0.1067104E+03  0.7561462E-02  0.1266786E+00
          2   -1    0    0  501    0  0.00000000000E+00  0.00000000000E+00  0.12863679853E+03  0.12863679853E+03  0.00000000000E+00 0.  1.
         -2   -1    0    0    0  501 -0.00000000000E+00 -0.00000000000E+00 -0.12834632390E+03  0.12834632390E+03  0.00000000000E+00 0. -1.
         25    2    1    2    0    0 -0.28923531255E+02 -0.61678435108E+02 -0.20812363223E+02  0.14394804901E+03  0.12508831414E+03 0.  0.
          5    1    3    3  502    0  0.20985218412E+02  0.96299510872E+01 -0.47360399233E+02  0.52854471573E+02  0.41800000000E+01 0.  1.
         -5    1    3    3    0  502 -0.49908749666E+02 -0.71308386196E+02  0.26548036011E+02  0.91093577442E+02  0.41800000000E+01 0.  1.
        -11    1    1    2    0    0 -0.19498891400E+02  0.49037255206E+02 -0.10555388311E+02  0.53817054791E+02  0.00000000000E+00 0. -1.
         11    1    1    2    0    0  0.48422422655E+02  0.12641179902E+02  0.31658226170E+02  0.59218018620E+02  0.00000000000E+00 0.  1.
</event>
<event>
 7    1  0.2334784E-009  0.1232865E+03  0.7561462E-02  0.1237772E+00
          3   -1    0    0  501    0  0.00000000000E+00  0.00000000000E+00  0.80819239467E+02  0.80819239467E+02  0.00000000000E+00 0. -1.
         -3   -1    0    0    0  501 -0.00000000000E+00 -0.00000000000E+00 -0.22094718956E+03  0.22094718956E+03  0.00000000000E+00 0.  1.
         25    2    1    2    0    0 -0.63937828529E+02  0.24665931403E+02 -0.94552423603E+02  0.17111263396E+03  0.12507165387E+03 0.  0.
          5    1    3    3  502    0  0.17794498186E+02  0.45330518541E+02 -0.67894452153E+01  0.49346418747E+02  0.41800000000E+01 0. -1.
         -5    1    3    3    0  502 -0.81732326714E+02 -0.20664587137E+02 -0.87762978388E+02  0.12176621521E+03  0.41800000000E+01 0. -1.
        -11    1    1    2    0    0 -0.16446667133E+02  0.16223354476E+02  0.95015306119E+01  0.24979374976E+02  0.00000000000E+00 0. -1.
         11    1    1    2    0    0  0.80384495661E+02 -0.40889285879E+02 -0.55077057098E+02  0.10567442009E+03  0.00000000000E+00 0.  1.
</event>
<event>
 7    1  0.2334784E-009  0.1225563E+03  0.7561462E-02  0.1238939E+00
          1   -1    0    0  501    0  0.00000000000E+00  0.00000000000E+00  0.10472477277E+04  0.10472477277E+04  0.00000000000E+00 0. -1.
         -1   -1    0    0    0  501 -0.00000000000E+00 -0.00000000000E+00 -0.35533259931E+02  0.35533259931E+02  0.00000000000E+00 0.  1.
         25    2    1    2    0    0 -0.10650148430E+03 -0.18512255903E+02  0.84425945961E+03  0.86029442639E+03  0.12508874911E+03 0.  0.
          5    1    3    3  502    0 -0.49064434005E+02 -0.50703370375E+02  0.19006323652E+03  0.20277982327E+03  0.41800000000E+01 0. -1.
         -5    1    3    3    0  502 -0.57437050296E+02  0.32191114472E+02  0.65419622310E+03  0.65751460312E+03  0.41800000000E+01 0. -1.
        -11    1    1    2    0    0  0.38895677079E+02  0.11087420147E+02 -0.13788534121E+01  0.40468578153E+02  0.00000000000E+00 0.  1.
         11    1    1    2    0    0  0.67605807221E+02  0.74248357562E+01  0.16883386159E+03  0.18201798311E+03  0.00000000000E+00 0. -1.
</event>
<event>
 7    1  0.2334784E-009  0.1354694E+03  0.7561462E-02  0.1219559E+00
          1   -1    0    0  501    0  0.00000000000E+00  0.00000000000E+00  0.71780196990E+03  0.71780196990E+03  0.00000000000E+00 0. -1.
         -1   -1    0    0    0  501 -0.00000000000E+00 -0.00000000000E+00 -0.32905182595E+02  0.32905182595E+02  0.00000000000E+00 0.  1.
         25    2    1    2    0    0 -0.55512820396E+02  0.91420832697E+02  0.33433095279E+03  0.37264562439E+03  0.12509249979E+03 0.  0.
          5    1    3    3  502    0 -0.32063221579E+02  0.10571842186E+03  0.32508134465E+03  0.34336538547E+03  0.41800000000E+01 0.  1.
         -5    1    3    3    0  502 -0.23449598817E+02 -0.14297589165E+02  0.92496081416E+01  0.29280238923E+02  0.41800000000E+01 0.  1.
        -11    1    1    2    0    0 -0.16302976215E+02 -0.43009884673E+02  0.64839299610E+02  0.79496993572E+02  0.00000000000E+00 0.  1.
         11    1    1    2    0    0  0.71815796611E+02 -0.48410948023E+02  0.28572653490E+03  0.29856453453E+03  0.00000000000E+00 0. -1.
</event>
<event>
 7    1  0.2334784E-009  0.1026091E+03  0.7561462E-02  0.1274903E+00
         -3   -1    0    0    0  501 -0.00000000000E+00  0.00000000000E+00  0.36392603073E+03  0.36392603073E+03  0.00000000000E+00 0.  1.
          3   -1    0    0  501    0  0.00000000000E+00 -0.00000000000E+00 -0.37842056371E+02  0.37842056371E+02  0.00000000000E+00 0. -1.
         25    2    1    2    0    0 -0.97688160205E+01 -0.16827575276E+02  0.11646169363E+03  0.17201660954E+03  0.12509113006E+03 0.  0.
          5    1    3    3  502    0 -0.18088807473E+02 -0.62685722651E+02  0.10524386358E+03  0.12389692490E+03  0.41800000000E+01 0.  1.
         -5    1    3    3    0  502  0.83199914521E+01  0.45858147374E+02  0.11217830050E+02  0.48119684635E+02  0.41800000000E+01 0.  1.
        -11    1    1    2    0    0  0.49291766484E+02 -0.18643257158E+01  0.12764423420E+03  0.13684372283E+03  0.00000000000E+00 0.  1.
         11    1    1    2    0    0 -0.39522950464E+02  0.18691900992E+02  0.81978046531E+02  0.92907754731E+02  0.00000000000E+00 0. -1.
</event>
<event>
 7    1  0.2334784E-009  0.2035506E+03  0.7561462E-02  0.1146777E+00
          1   -1    0    0  501    0  0.00000000000E+00  0.00000000000E+00  0.14125690008E+03  0.14125690008E+03  0.00000000000E+00 0. -1.
         -1   -1    0    0    0  501 -0.00000000000E+00 -0.00000000000E+00 -0.30437356887E+03  0.30437356887E+03  0.00000000000E+00 0.  1.
         25    2    1    2    0    0  0.17151559663E+03 -0.41397523079E+02 -0.78432402840E+02  0.23006603483E+03  0.12508950300E+03 0.  0.
          5    1    3    3  502    0  0.13402328131E+03 -0.84167054756E+02 -0.48041820494E+02  0.16544431678E+03  0.41800000000E+01 0.  1.
         -5    1    3    3    0  502  0.37492315324E+02  0.42769531677E+02 -0.30390582346E+02  0.64621718049E+02  0.41800000000E+01 0.  1.
        -11    1    1    2    0    0 -0.33643331195E+02  0.42087976009E+02 -0.23426942588E+00  0.53882523517E+02  0.00000000000E+00 0. -1.
         11    1    1    2    0    0 -0.13787226544E+03 -0.69045292996E+00 -0.84449996526E+02  0.16168191060E+03  0.00000000000E+00 0.  1.
</event>
<event>
 6    1  0.2334784E-009  0.7793979E+02  0.7561462E-02  0.1335002E+00
         -2   -1    0    0    0  501 -0.00000000000E+00  0.00000000000E+00  0.26761211449E+03  0.26761211449E+03  0.00000000000E+00 0.  1.
          2   -1    0    0  501    0  0.00000000000E+00 -0.00000000000E+00 -0.59960499289E+02  0.59960499289E+02  0.00000000000E+00 0. -1.
          5    1    1    2  502    0  0.48483534859E+02 -0.15698385877E+02  0.11862913781E+03  0.12917986379E+03  0.41800000000E+01 0.  1.
         -5    1    1    2    0  502  0.36606857291E+01 -0.17492477205E+02 -0.30740583519E+02  0.35802838629E+02  0.41800000000E+01 0.  1.
        -11    1    1    2    0    0 -0.65950568378E+02  0.27844151281E+02  0.12724581763E+03  0.14600093265E+03  0.00000000000E+00 0.  1.
         11    1    1    2    0    0  0.13806347790E+02  0.53467118015E+01 -0.74827567239E+01  0.16588978708E+02  0.00000000000E+00 0. -1.
</event>
<event>
 7    1  0.2334784E-009  0.1398030E+03  0.7561462E-02  0.1213594E+00
          1   -1    0    0  501    0  0.00000000000E+00  0.00000000000E+00  0.94511705663E+03  0.94511705663E+03  0.00000000000E+00 0. -1.
         -1   -1    0    0    0  501 -0.00000000000E+00 -0.00000000000E+00 -0.28198040342E+02  0.28198040342E+02  0.00000000000E+00 0.  1.
         25    2    1    2    0    0  0.11806944419E+02  0.12118878143E+03  0.48962272855E+03  0.51981127814E+03  0.12508886394E+03 0.  0.
          5    1    3    3  502    0 -0.29023158673E+02  0.54736599645E+02  0.72583524675E+02  0.95521094708E+02  0.41800000000E+01 0. -1.
         -5    1    3    3    0  502  0.40830103092E+02  0.66452181789E+02  0.41703920388E+03  0.42429018343E+03  0.41800000000E+01 0. -1.
        -11    1    1    2    0    0 -0.30694424521E+02 -0.20385899282E+02  0.21016386498E+03  0.21336959186E+03  0.00000000000E+00 0. -1.
         11    1    1    2    0    0  0.18887480102E+02 -0.10080288215E+03  0.21713242275E+03  0.24013422697E+03  0.00000000000E+00 0.  1.
</event>
<event>
 7    1  0.2334784E-009  0.2334621E+03  0.7561462E-02  0.1124226E+00
          1   -1    0    0  501    0  0.00000000000E+00  0.00000000000E+00  0.28789882939E+03  0.28789882939E+03  0.00000000000E+00 0. -1.
         -1   -1    0    0    0  501 -0.00000000000E+00 -0.00000000000E+00 -0.27989016335E+03  0.27989016335E+03  0.00000000000E+00 0.  1.
         25    2    1    2    0    0  0.95320397265E+02 -0.18954811721E+03  0.15882917744E+03  0.29307022983E+03  0.12509590375E+03 0.  0.
          5    1    3    3  502    0  0.41653197811E+02 -0.16381530545E+01  0.11141267512E+01  0.41909260453E+02  0.41800000000E+01 0.  1.
         -5    1    3    3    0  502  0.53667199454E+02 -0.18790996415E+03  0.15771505069E+03  0.25116096938E+03  0.41800000000E+01 0.  1.
        -11    1    1    2    0    0 -0.70912973037E+02  0.47313311302E+02 -0.58908589426E+02  0.10362152807E+03  0.00000000000E+00 0.  1.
         11    1    1    2    0    0 -0.24407424228E+02  0.14223480591E+03 -0.91911921971E+02  0.17109723484E+03  0.00000000000E+00 0. -1.
</event>
<event>
 7    1  0.2334784E-009  0.3059256E+03  0.7561462E-02  0.1082315E+00
          1   -1    0    0  501    0  0.00000000000E+00  0.00000000000E+00  0.20618948805E+03  0.20618948805E+03  0.00000000000E+00 0. -1.
         -1   -1    0    0    0  501 -0.00000000000E+00 -0.00000000000E+00 -0.47721454056E+03  0.47721454056E+03  0.00000000000E+00 0.  1.
         25    2    1    2    0    0 -0.10544130172E+03  0.27236104889E+03 -0.96492290600E+02  0.33205251213E+03  0.12509875942E+03 0.  0.
          5    1    3    3  502    0 -0.13832250834E+02 -0.11041635736E+02  0.20601077326E+01  0.18302057992E+02  0.41800000000E+01 0.  1.
         -5    1    3    3    0  502 -0.91609050890E+02  0.28340268462E+03 -0.98552398332E+02  0.31375045414E+03  0.41800000000E+01 0.  1.
        -11    1    1    2    0    0  0.96802638481E+02 -0.19251083681E+03 -0.16305665341E+03  0.27021962424E+03  0.00000000000E+00 0.  1.
         11    1    1    2    0    0  0.86386632444E+01 -0.79850212079E+02 -0.11476108496E+02  0.81131892237E+02  0.00000000000E+00 0. -1.
</event>
<event>
 7    1  0.2334784E-009  0.1182920E+03  0.7561462E-02  0.1245942E+00
         -2   -1    0    0    0  501 -0.00000000000E+00  0.00000000000E+00  0.62811279855E+02  0.62811279855E+02  0.00000000000E+00 0. -1.
          2   -1    0    0  501    0  0.00000000000E+00 -0.00000000000E+00 -0.28153215487E+03  0.28153215487E+03  0.00000000000E+00 0.  1.
         25    2    1    2    0    0  0.18183291882E+02  0.60828473098E+02 -0.64933407653E+02  0.15457939840E+03  0.12509079797E+03 0.  0.
          5    1    3    3  502    0  0.22459590478E+01 -0.31502297756E+02 -0.50466805438E+02  0.59680901024E+02  0.41800000000E+01 0.  1.
         -5    1    3    3    0  502  0.15937332834E+02  0.92330770854E+02 -0.14466602214E+02  0.94898497374E+02  0.41800000000E+01 0.  1.
        -11    1    1    2    0    0 -0.55295559377E+02 -0.41176036603E+02 -0.89476415238E+02  0.11295615858E+03  0.00000000000E+00 0.  1.
         11    1    1    2    0    0  0.37112267495E+02 -0.19652436495E+02 -0.64311052127E+02  0.76807877751E+02  0.00000000000E+00 0. -1.
</event>
<event>
 7    1  0.2334784E-009  0.9355550E+02  0.7561462E-02  0.1294463E+00
         -1   -1    0    0    0  501 -0.00000000000E+00  0.00000000000E+00  0.14117922158E+02  0.14117922158E+02  0.00000000000E+00 0.  1.
          1   -1    0    0  501    0  0.00000000000E+00 -0.00000000000E+00 -0.15988824198E+04  0.15988824198E+04  0.00000000000E+00 0. -1.
         25    2    1    2    0    0  0.35855519630E+02 -0.53187608298E+02 -0.12896754948E+04  0.12973147212E+04  0.12509222144E+03 0.  0.
          5    1    3    3  502    0 -0.36785876933E+02 -0.18172210215E+02 -0.79695494347E+03  0.79802135579E+03  0.41800000000E+01 0.  1.
         -5    1    3    3    0  502  0.72641396563E+02 -0.35015398083E+02 -0.49272055134E+03  0.49929336538E+03  0.41800000000E+01 0.  1.
        -11    1    1    2    0    0 -0.32867295583E+02  0.40873741647E+02 -0.29808569042E+03  0.30266483230E+03  0.00000000000E+00 0. -1.
         11    1    1    2    0    0 -0.29882240466E+01  0.12313866651E+02  0.29966876449E+01  0.13020788443E+02  0.00000000000E+00 0.  1.
</event>
<event>
 7    1  0.2334784E-009  0.6614614E+02  0.7561462E-02  0.1373711E+00
          2   -1    0    0  501    0  0.00000000000E+00  0.00000000000E+00  0.19249884684E+03  0.19249884684E+03  0.00000000000E+00 0. -1.
         -2   -1    0    0    0  501 -0.00000000000E+00 -0.00000000000E+00 -0.78635296055E+02  0.78635296055E+02  0.00000000000E+00 0.  1.
         25    2    1    2    0    0  0.16892239452E+02  0.16739949783E+02  0.12344786352E+03  0.17734966984E+03  0.12509179314E+03 0.  0.
          5    1    3    3  502    0 -0.98953872525E+01 -0.30324642229E+02  0.11852328494E+03  0.12281182389E+03  0.41800000000E+01 0. -1.
         -5    1    3    3    0  502  0.26787626705E+02  0.47064592012E+02  0.49245785816E+01  0.54537845941E+02  0.41800000000E+01 0. -1.
        -11    1    1    2    0    0  0.11956420133E+02 -0.11295610325E+02  0.35991304661E+02  0.39571717251E+02  0.00000000000E+00 0. -1.
         11    1    1    2    0    0 -0.28848659586E+02 -0.54443394580E+01 -0.45575617393E+02  0.54212755813E+02  0.00000000000E+00 0.  1.
</event>
<event>
 7    1  0.2334784E-009  0.8486538E+02  0.7561462E-02  0.1315785E+00
         -3   -1    0    0    0  501 -0.00000000000E+00  0.00000000000E+00  0.59351356448E+02  0.59351356448E+02  0.00000000000E+00 0.  1.
          3   -1    0    0  501    0  0.00000000000E+00 -0.00000000000E+00 -0.24128476498E+03  0.24128476498E+03  0.00000000000E+00 0. -1.
         25    2    1    2    0    0  0.10844662189E+02  0.21909316666E+02 -0.15928308118E+03  0.20400159110E+03  0.12509166387E+03 0.  0.
          5    1    3    3  502    0  0.31091886973E+02  0.38544200718E+02 -0.16868191826E+03  0.17585056950E+03  0.41800000000E+01 0.  1.
         -5    1    3    3    0  502 -0.20247224784E+02 -0.16634884052E+02  0.93988370858E+01  0.28151021606E+02  0.41800000000E+01 0.  1.
        -11    1    1    2    0    0  0.38540201689E+02 -0.21457166255E+02 -0.60030367555E+01  0.44517340220E+02  0.00000000000E+00 0.  1.
         11    1    1    2    0    0 -0.49384863879E+02 -0.45215041062E+00 -0.16647290605E+02  0.52117190108E+02  0.00000000000E+00 0. -1.
</event>
<event>
 7    1  0.2334784E-009  0.8360367E+02  0.7561462E-02  0.1319125E+00
         -2   -1    0    0    0  501 -0.00000000000E+00  0.00000000000E+00  0.20678757120E+02  0.20678757120E+02  0.00000000000E+00 0.  1.
          2   -1    0    0  501    0  0.00000000000E+00 -0.00000000000E+00 -0.67960836368E+03  0.67960836368E+03  0.00000000000E+00 0. -1.
         25    2    1    2    0    0  0.17110299438E+02  0.26913543995E+02 -0.47738557483E+03  0.49453643083E+03  0.12510872538E+03 0.  0.
          5    1    3    3  502    0  0.26700776075E+02  0.43427865062E+02 -0.70078454416E+02  0.86760434993E+02  0.41800000000E+01 0.  1.
         -5    1    3    3    0  502 -0.95904766378E+01 -0.16514321067E+02 -0.40730712041E+03  0.40777599583E+03  0.41800000000E+01 0.  1.
        -11    1    1    2    0    0  0.48046339577E+01 -0.58151131022E+02 -0.10149563390E+03  0.11707263663E+03  0.00000000000E+00 0.  1.
         11    1    1    2    0    0 -0.21914933395E+02  0.31237587026E+02 -0.80048397837E+02  0.88678053346E+02  0.00000000000E+00 0. -1.
</event>
<event>
 7    1  0.2334784E-009  0.1792666E+03  0.7561462E-02  0.1168515E+00
         -1   -1    0    0    0  501 -0.00000000000E+00  0.00000000000E+00  0.38538841017E+03  0.38538841017E+03  0.00000000000E+00 0.  1.
          1   -1    0    0  501    0  0.00000000000E+00 -0.00000000000E+00 -0.36001878893E+03  0.36001878893E+03  0.00000000000E+00 0. -1.
         25    2    1    2    0    0 -0.15038624707E+03 -0.54367785213E+02  0.33454703801E+03  0.39133298050E+03  0.12509157289E+03 0.  0.
          5    1    3    3  502    0 -0.15418873763E+03 -0.73199422149E+02  0.32938663838E+03  0.37100586539E+03  0.41800000000E+01 0. -1.
         -5    1    3    3    0  502  0.38024905556E+01  0.18831636936E+02  0.51603996299E+01  0.20327115104E+02  0.41800000000E+01 0. -1.
        -11    1    1    2    0    0  0.34725049143E+02 -0.95193467677E+01 -0.10375888242E+03  0.10982874252E+03  0.00000000000E+00 0.  1.
         11    1    1    2    0    0  0.11566119793E+03  0.63887131981E+02 -0.20541853434E+03  0.24424547609E+03  0.00000000000E+00 0. -1.
</event>
<event>
 7    1  0.2334784E-009  0.1630850E+03  0.7561462E-02  0.1185257E+00
         -2   -1    0    0    0  501 -0.00000000000E+00  0.00000000000E+00  0.72231165031E+03  0.72231165031E+03  0.00000000000E+00 0.  1.
          2   -1    0    0  501    0  0.00000000000E+00 -0.00000000000E+00 -0.55374554836E+02  0.55374554836E+02  0.00000000000E+00 0. -1.
         25    2    1    2    0    0 -0.71836731836E+01  0.13281863617E+03  0.54859568210E+03  0.57818443897E+03  0.12509047835E+03 0.  0.
          5    1    3    3  502    0  0.84120968612E+01  0.14977541078E+03  0.39012493195E+03  0.41799326786E+03  0.41800000000E+01 0. -1.
         -5    1    3    3    0  502 -0.15595770045E+02 -0.16956774606E+02  0.15847075015E+03  0.16019117111E+03  0.41800000000E+01 0. -1.
        -11    1    1    2    0    0 -0.33367724580E+02 -0.45632930590E+02  0.75285882158E+02  0.94147402780E+02  0.00000000000E+00 0.  1.
         11    1    1    2    0    0  0.40551397764E+02 -0.87185705582E+02  0.43055531218E+02  0.10535436340E+03  0.00000000000E+00 0. -1.
</event>
<event>
 7    1  0.2334784E-009  0.7762627E+02  0.7561462E-02  0.1335926E+00
          2   -1    0    0  501    0  0.00000000000E+00  0.00000000000E+00  0.63579966904E+03  0.63579966904E+03  0.00000000000E+00 0. -1.
         -2   -1    0    0    0  501 -0.00000000000E+00 -0.00000000000E+00 -0.27541330196E+02  0.27541330196E+02  0.00000000000E+00 0.  1.
         25    2    1    2    0    0  0.54390287141E+01 -0.75682082933E+02  0.30807886726E+03  0.34105435702E+03  0.12509246691E+03 0.  0.
          5    1    3    3  502    0  0.49453038569E+01 -0.11253801376E+02 -0.10063067579E+02  0.16426862292E+02  0.41800000000E+01 0.  1.
         -5    1    3    3    0  502  0.49372485718E+00 -0.64428281556E+02  0.31814193484E+03  0.32462749473E+03  0.41800000000E+01 0.  1.
        -11    1    1    2    0    0  0.60417192336E+01  0.29828697657E+02  0.16350275190E+02  0.34548300595E+02  0.00000000000E+00 0.  1.
         11    1    1    2    0    0 -0.11480747948E+02  0.45853385276E+02  0.28382919639E+03  0.28773834162E+03  0.00000000000E+00 0. -1.
</event>
<event>
 7    1  0.2334784E-009  0.1166806E+03  0.7561462E-02  0.1248676E+00
          1   -1    0    0  501    0  0.00000000000E+00  0.00000000000E+00  0.64957779018E+03  0.64957779018E+03  0.00000000000E+00 0. -1.
         -1   -1    0    0    0  501 -0.00000000000E+00 -0.00000000000E+00 -0.27749014658E+02  0.27749014658E+02  0.00000000000E+00 0.  1.
         25    2    1    2    0    0 -0.78772188845E+02  0.90427167163E+01  0.30807030570E+03  0.34182269567E+03  0.12509441860E+03 0.  0.
          5    1    3    3  502    0 -0.10338184983E+03  0.36353297068E+02  0.24959037941E+03  0.27262098044E+03  0.41800000000E+01 0.  1.
         -5    1    3    3    0  502  0.24609660983E+02 -0.27310580352E+02  0.58479926287E+02  0.69201715235E+02  0.41800000000E+01 0.  1.
        -11    1    1    2    0    0  0.49842399298E+02 -0.22622593743E+02  0.29141153748E+03  0.29650755587E+03  0.00000000000E+00 0. -1.
         11    1    1    2    0    0  0.28929789547E+02  0.13579877026E+02  0.22346932351E+02  0.38996553293E+02  0.00000000000E+00 0.  1.
</event>
<event>
 7    1  0.2334784E-009  0.1587946E+03  0.7561462E-02  0.1190064E+00
          2   -1    0    0  501    0  0.00000000000E+00  0.00000000000E+00  0.22953374087E+04  0.22953374087E+04  0.00000000000E+00 0. -1.
         -2   -1    0    0    0  501 -0.00000000000E+00 -0.00000000000E+00 -0.18356022364E+02  0.18356022364E+02  0.00000000000E+00 0.  1.
         25    2    1    2    0    0 -0.78100152490E+02 -0.10633433334E+03  0.18221683105E+04  0.18312156539E+04  0.12508714940E+03 0.  0.
          5    1    3    3  502    0 -0.91285046023E+02 -0.11854806653E+03  0.12781372958E+04  0.12868717974E+04  0.41800000000E+01 0.  1.
         -5    1    3    3    0  502  0.13184893533E+02  0.12213733187E+02  0.54403101470E+03  0.54434385644E+03  0.41800000000E+01 0.  1.
        -11    1    1    2    0    0  0.68958509114E+02  0.34617468518E+02  0.14402801580E+03  0.16339435253E+03  0.00000000000E+00 0.  1.
         11    1    1    2    0    0  0.91416433757E+01  0.71716864826E+02  0.31078506001E+03  0.31908342462E+03  0.00000000000E+00 0. -1.
</event>
<event>
 7    1  0.2334784E-009  0.8937045E+02  0.7561462E-02  0.1304383E+00
         -1   -1    0    0    0  501 -0.00000000000E+00  0.00000000000E+00  0.77930694900E+02  0.77930694900E+02  0.00000000000E+00 0.  1.
          1   -1    0    0  501    0  0.00000000000E+00 -0.00000000000E+00 -0.26450673504E+03  0.26450673504E+03  0.00000000000E+00 0. -1.
         25    2    1    2    0    0  0.20177285060E+02 -0.44117628271E+02 -0.18098580072E+03  0.22529233777E+03  0.12508912599E+03 0.  0.
          5    1    3    3  502    0  0.23985912070E+02  0.21823325057E+02 -0.14757592156E+03  0.15115457823E+03  0.41800000000E+01 0. -1.
         -5    1    3    3    0  502 -0.38086270092E+01 -0.65940953329E+02 -0.33409879159E+02  0.74137759549E+02  0.41800000000E+01 0. -1.
        -11    1    1    2    0    0  0.10873622272E+02  0.47405909330E+02  0.39253678910E+02  0.62501257657E+02  0.00000000000E+00 0.  1.
         11    1    1    2    0    0 -0.31050907332E+02 -0.32882810588E+01 -0.44843918330E+02  0.54643834507E+02  0.00000000000E+00 0. -1.
</event>
<event>
 7    1  0.2334784E-009  0.1106225E+03  0.7561462E-02  0.1259421E+00
          1   -1    0    0  501    0  0.00000000000E+00  0.00000000000E+00  0.38859989957E+03  0.38859989957E+03  0.00000000000E+00 0. -1.
         -1   -1    0    0    0  501 -0.00000000000E+00 -0.00000000000E+00 -0.46998648944E+02  0.46998648944E+02  0.00000000000E+00 0.  1.
         25    2    1    2    0    0  0.41237530375E+02 -0.20209124377E+02  0.28826316135E+03  0.31757276444E+03  0.12509143818E+03 0.  0.
          5    1    3    3  502    0  0.66120661196E+02  0.30764842945E+02  0.12616640745E+03  0.14578700960E+03  0.41800000000E+01 0. -1.
         -5    1    3    3    0  502 -0.24883130821E+02 -0.50973967321E+02  0.16209675390E+03  0.17178575485E+03  0.41800000000E+01 0. -1.
        -11    1    1    2    0    0  0.22713061039E+02  0.14869984041E+02  0.46028128842E+02  0.53437704029E+02  0.00000000000E+00 0. -1.
         11    1    1    2    0    0 -0.63950591414E+02  0.53391403353E+01  0.73099604348E+01  0.64588080040E+02  0.00000000000E+00 0.  1.
</event>
<event>
 7    1  0.2334784E-009  0.1000960E+03  0.7561462E-02  0.1280094E+00
         -1   -1    0    0    0  501 -0.00000000000E+00  0.00000000000E+00  0.62078270888E+02  0.62078270888E+02  0.00000000000E+00 0.  1.
          1   -1    0    0  501    0  0.00000000000E+00 -0.00000000000E+00 -0.34481399221E+03  0.34481399221E+03  0.00000000000E+00 0. -1.
         25    2    1    2    0    0  0.41932874924E+02  0.44898932314E+02 -0.25836028885E+03  0.29355049359E+03  0.12509026067E+03 0.  0.
          5    1    3    3  502    0  0.60152341946E+02  0.56935351294E+02 -0.25833288327E+03  0.27131769099E+03  0.41800000000E+01 0. -1.
         -5    1    3    3    0  502 -0.18219467022E+02 -0.12036418979E+02 -0.27405579209E-01  0.22232802601E+02  0.41800000000E+01 0. -1.
        -11    1    1    2    0    0 -0.29914290249E+02  0.15329424863E+02 -0.37687774889E+02  0.50499746572E+02  0.00000000000E+00 0. -1.
         11    1    1    2    0    0 -0.12018584675E+02 -0.60228357178E+02  0.13312342412E+02  0.62842022934E+02  0.00000000000E+00 0.  1.
</event>
<event>
 7    1  0.2334784E-009  0.7574614E+02  0.7561462E-02  0.1341576E+00
         -1   -1    0    0    0  501 -0.00000000000E+00  0.00000000000E+00  0.13756608613E+03  0.13756608613E+03  0.00000000000E+00 0.  1.
          1   -1    0    0  501    0  0.00000000000E+00 -0.00000000000E+00 -0.10062283325E+03  0.10062283325E+03  0.00000000000E+00 0. -1.
         25    2    1    2    0    0 -0.47194662043E+02 -0.12380504994E+02  0.25508466643E+02  0.13666685129E+03  0.12508610371E+03 0.  0.
          5    1    3    3  502    0 -0.22845182593E+02  0.19027863919E+02  0.70418681010E+02  0.76552106491E+02  0.41800000000E+01 0. -1.
         -5    1    3    3    0  502 -0.24349479449E+02 -0.31408368913E+02 -0.44910214367E+02  0.60114744795E+02  0.41800000000E+01 0. -1.
        -11    1    1    2    0    0 -0.16148239564E+02  0.79793458937E+01 -0.23060521559E+02  0.29261292803E+02  0.00000000000E+00 0. -1.
         11    1    1    2    0    0  0.63342901607E+02  0.44011591007E+01  0.34495307794E+02  0.72260775288E+02  0.00000000000E+00 0.  1.
</event>
<event>
 7    1  0.2334784E-009  0.1888270E+03  0.7561462E-02  0.1159524E+00
          2   -1    0    0  501    0  0.00000000000E+00  0.00000000000E+00  0.11512616877E+04  0.11512616877E+04  0.00000000000E+00 0. -1.
         -2   -1    0    0    0  501 -0.00000000000E+00 -0.00000000000E+00 -0.32310274337E+02  0.32310274337E+02  0.00000000000E+00 0.  1.
         25    2    1    2    0    0 -0.15633194647E+03  0.27506576139E+02  0.54771184290E+03  0.58380879791E+03  0.12509260747E+03 0.  0.
          5    1    3    3  502    0 -0.91055124136E+02  0.77409763521E+02  0.33836612180E+03  0.35887659704E+03  0.41800000000E+01 0.  1.
         -5    1    3    3    0  502 -0.65276822336E+02 -0.49903187382E+02  0.20934572110E+03  0.22493220087E+03  0.41800000000E+01 0.  1.
        -11    1    1    2    0    0  0.14631118090E+03  0.22192510025E+00  0.39818419495E+03  0.42421417234E+03  0.00000000000E+00 0. -1.
         11    1    1    2    0    0  0.10020765568E+02 -0.27728501239E+02  0.17305537552E+03  0.17554899180E+03  0.00000000000E+00 0.  1.
</event>
<event>
 7    1  0.2334784E-009  0.1155988E+03  0.7561462E-02  0.1250539E+00
         -3   -1    0    0    0  501 -0.00000000000E+00  0.00000000000E+00  0.10871526555E+03  0.10871526555E+03  0.00000000000E+00 0.  1.
          3   -1    0    0  501    0  0.00000000000E+00 -0.00000000000E+00 -0.14466013323E+03  0.14466013323E+03  0.00000000000E+00 0. -1.
         25    2    1    2    0    0  0.61885248645E+02  0.16865319192E+02 -0.29780027315E+02  0.14369595517E+03  0.12508978582E+03 0.  0.
          5    1    3    3  502    0 -0.31283932114E+02  0.24457288531E+02  0.11310441758E+02  0.41499901971E+02  0.41800000000E+01 0.  1.
         -5    1    3    3    0  502  0.93169180759E+02 -0.75919693385E+01 -0.41090469073E+02  0.10219605320E+03  0.41800000000E+01 0.  1.
        -11    1    1    2    0    0 -0.38976367518E+02 -0.46220757791E+02 -0.27873852383E+02  0.66576777651E+02  0.00000000000E+00 0. -1.
         11    1    1    2    0    0 -0.22908881127E+02  0.29355438599E+02  0.21709012021E+02  0.43102665958E+02  0.00000000000E+00 0.  1.
</event>
<event>
 7    1  0.2334784E-009  0.6987258E+02  0.7561462E-02  0.1360527E+00
         -2   -1    0    0    0  501 -0.00000000000E+00  0.00000000000E+00  0.35255973238E+03  0.35255973238E+03  0.00000000000E+00 0.  1.
          2   -1    0    0  501    0  0.00000000000E+00 -0.00000000000E+00 -0.14743932258E+03  0.14743932258E+03  0.00000000000E+00 0. -1.
         25    2    1    2    0    0 -0.46427561881E+00 -0.39891088810E+01  0.32616503457E+03  0.34935319536E+03  0.12509155364E+03 0.  0.
          5    1    3    3  502    0  0.24488208417E+02 -0.13129102406E+02  0.68687388783E+01  0.28925726529E+02  0.41800000000E+01 0. -1.
         -5    1    3    3    0  502 -0.24952484036E+02  0.91399935247E+01  0.31929629569E+03  0.32042746883E+03  0.41800000000E+01 0. -1.
        -11    1    1    2    0    0 -0.25543687299E+02 -0.31621338271E+02 -0.33704663611E+02  0.52805239741E+02  0.00000000000E+00 0.  1.
         11    1    1    2    0    0  0.26007962918E+02  0.35610447152E+02 -0.87339961156E+02  0.97840619868E+02  0.00000000000E+00 0. -1.
</event>
<event>
 7    1  0.2334784E-009  0.1349178E+03  0.7561462E-02  0.1220336E+00
         -2   -1    0    0    0  501 -0.00000000000E+00  0.00000000000E+00  0.40298208979E+02  0.40298208979E+02  0.00000000000E+00 0. -1.
          2   -1    0    0  501    0  0.00000000000E+00 -0.00000000000E+00 -0.55217475121E+03  0.55217475121E+03  0.00000000000E+00 0.  1.
         25    2    1    2    0    0  0.22937195994E+02  0.87787090698E+02 -0.37316513837E+03  0.40389651826E+03  0.12508992252E+03 0.  0.
          5    1    3    3  502    0  0.55830069127E+02  0.13238899137E+01 -0.90267174759E+02  0.10622798380E+03  0.41800000000E+01 0.  1.
         -5    1    3    3    0  502 -0.32892873133E+02  0.86463200784E+02 -0.28289796361E+03  0.29766853446E+03  0.41800000000E+01 0.  1.
        -11    1    1    2    0    0  0.28084485624E+02 -0.51369495547E+02 -0.96944230062E+02  0.11325081522E+03  0.00000000000E+00 0.  1.
         11    1    1    2    0    0 -0.51021681618E+02 -0.36417595151E+02 -0.41767173797E+02  0.75325626707E+02  0.00000000000E+00 0. -1.
</event>
<event>
 7    1  0.2334784E-009  0.1094076E+03  0.7561462E-02  0.1261671E+00
         -2   -1    0    0    0  501 -0.00000000000E+00  0.00000000000E+00  0.15385230014E+02  0.15385230014E+02  0.00000000000E+00 0.  1.
          2   -1    0    0  501    0  0.00000000000E+00 -0.00000000000E+00 -0.96799299015E+03  0.96799299015E+03  0.00000000000E+00 0. -1.
         25    2    1    2    0    0  0.90159836840E+00  0.66587392667E+02 -0.58781713811E+03  0.60465764547E+03  0.12508871502E+03 0.  0.
          5    1    3    3  502    0 -0.57661258359E+02  0.35764100461E+02 -0.20065764804E+03  0.21186046284E+03  0.41800000000E+01 0.  1.
         -5    1    3    3    0  502  0.58562856728E+02  0.30823292206E+02 -0.38715949007E+03  0.39279718263E+03  0.41800000000E+01 0.  1.
        -11    1    1    2    0    0  0.23256818062E+02 -0.15320040984E+02 -0.38341017218E+02  0.47387939852E+02  0.00000000000E+00 0.  1.
         11    1    1    2    0    0 -0.24158416431E+02 -0.51267351683E+02 -0.32644960481E+03  0.33133263484E+03  0.00000000000E+00 0. -1.
</event>
<event>
 7    1  0.2334784E-009  0.2163604E+03  0.7561462E-02  0.1136626E+00
         -1   -1    0    0    0  501 -0.00000000000E+00  0.00000000000E+00  0.41012143831E+02  0.41012143831E+02  0.00000000000E+00 0.  1.
          1   -1    0    0  501    0  0.00000000000E+00 -0.00000000000E+00 -0.14124379797E+04  0.14124379797E+04  0.00000000000E+00 0. -1.
         25    2    1    2    0    0 -0.12944584915E+03  0.16982509294E+03 -0.76218847025E+03  0.80135996803E+03  0.12509893737E+03 0.  0.
          5    1    3    3  502    0 -0.11842606926E+03  0.12370824549E+03 -0.71147442772E+03  0.73180721340E+03  0.41800000000E+01 0.  1.
         -5    1    3    3    0  502 -0.11019779891E+02  0.46116847452E+02 -0.50714042527E+02  0.69552754634E+02  0.41800000000E+01 0.  1.
        -11    1    1    2    0    0  0.62998534331E+02 -0.73648842645E+02 -0.15298540376E+03  0.18110080374E+03  0.00000000000E+00 0. -1.
         11    1    1    2    0    0  0.66447314824E+02 -0.96176250299E+02 -0.45625196188E+03  0.47098935178E+03  0.00000000000E+00 0.  1.
</event>
<event>
 7    1  0.2334784E-009  0.1141179E+03  0.7561462E-02  0.1253129E+00
         -2   -1    0    0    0  501 -0.00000000000E+00  0.00000000000E+00  0.18646586509E+02  0.18646586509E+02  0.00000000000E+00 0.  1.
          2   -1    0    0  501    0  0.00000000000E+00 -0.00000000000E+00 -0.12751144044E+04  0.12751144044E+04  0.00000000000E+00 0. -1.
         25    2    1    2    0    0  0.25323375749E+02  0.28120411846E+02 -0.11072408192E+04  0.11149259410E+04  0.12508233832E+03 0.  0.
          5    1    3    3  502    0  0.57559471427E+02 -0.28577613007E+02 -0.48331704533E+03  0.48758856778E+03  0.41800000000E+01 0.  1.
         -5    1    3    3    0  502 -0.32236095678E+02  0.56698024854E+02 -0.62392377384E+03  0.62733737323E+03  0.41800000000E+01 0.  1.
        -11    1    1    2    0    0 -0.59442973030E+02 -0.11565222532E+02 -0.95118720618E+02  0.11275988838E+03  0.00000000000E+00 0.  1.
         11    1    1    2    0    0  0.34119597281E+02 -0.16555189314E+02 -0.54108278096E+02  0.66075161524E+02  0.00000000000E+00 0. -1.
</event>
<event>
 7    1  0.2334784E-009  0.1085498E+03  0.7561462E-02  0.1263279E+00
          2   -1    0    0  501    0  0.00000000000E+00  0.00000000000E+00  0.16534274055E+03  0.16534274055E+03  0.00000000000E+00 0. -1.
         -2   -1    0    0    0  501 -0.00000000000E+00 -0.00000000000E+00 -0.95182541008E+02  0.95182541008E+02  0.00000000000E+00 0.  1.
         25    2    1    2    0    0  0.61115419369E+02 -0.18061933790E+02  0.40455062993E+02  0.14609393990E+03  0.12508196999E+03 0.  0.
          5    1    3    3  502    0 -0.14777588786E+02 -0.50872273933E+02  0.33933530657E+02  0.63050156926E+02  0.41800000000E+01 0.  1.
         -5    1    3    3    0  502  0.75893008156E+02  0.32810340143E+02  0.65215323361E+01  0.83043782978E+02  0.41800000000E+01 0.  1.
        -11    1    1    2    0    0  0.43114176729E+01 -0.93029805691E+01 -0.23588010237E+02  0.25720186562E+02  0.00000000000E+00 0.  1.
         11    1    1    2    0    0 -0.65426837042E+02  0.27364914360E+02  0.53293146782E+02  0.88711155089E+02  0.00000000000E+00 0. -1.
</event>
<event>
 7    1  0.2334784E-009  0.1195441E+03  0.7561462E-02  0.1243851E+00
         -2   -1    0    0    0  501 -0.00000000000E+00  0.00000000000E+00  0.22244969268E+02  0.22244969268E+02  0.00000000000E+00 0.  1.
          2   -1    0    0  501    0  0.00000000000E+00 -0.00000000000E+00 -0.88504113719E+03  0.88504113719E+03  0.00000000000E+00 0. -1.
         25    2    1    2    0    0  0.32028737049E+02  0.77294999961E+02 -0.58131702847E+03  0.60048016285E+03  0.12508629571E+03 0.  0.
          5    1    3    3  502    0  0.18947221205E+02  0.94795600745E+02 -0.56413096004E+03  0.57236912529E+03  0.41800000000E+01 0. -1.
         -5    1    3    3    0  502  0.13081515845E+02 -0.17500600784E+02 -0.17186068429E+02  0.28111037560E+02  0.41800000000E+01 0. -1.
        -11    1    1    2    0    0  0.26642548160E+02 -0.47059083542E+02 -0.99815029128E+02  0.11352278518E+03  0.00000000000E+00 0.  1.
         11    1    1    2    0    0 -0.58671285209E+02 -0.30235916419E+02 -0.18166411033E+03  0.19328315843E+03  0.00000000000E+00 0. -1.
</event>
<event>
 7    1  0.2334784E-009  0.1248368E+03  0.7561462E-02  0.1235325E+00
         -1   -1    0    0    0  501 -0.00000000000E+00  0.00000000000E+00  0.13765759098E+03  0.13765759098E+03  0.00000000000E+00 0.  1.
          1   -1    0    0  501    0  0.00000000000E+00 -0.00000000000E+00 -0.14214378380E+03  0.14214378380E+03  0.00000000000E+00 0. -1.
         25    2    1    2    0    0  0.10930526575E+02 -0.85510911004E+02  0.17510030511E+02  0.15292270340E+03  0.12508860753E+03 0.  0.
          5    1    3    3  502    0 -0.33622427032E+02 -0.99430308526E+02  0.11338004324E+02  0.10565451526E+03  0.41800000000E+01 0.  1.
         -5    1    3    3    0  502  0.44552953607E+02  0.13919397521E+02  0.61720261870E+01  0.47268188137E+02  0.41800000000E+01 0.  1.
        -11    1    1    2    0    0 -0.28250581199E+02  0.39177839735E+02  0.28589484205E+02  0.56128041757E+02  0.00000000000E+00 0.  1.
         11    1    1    2    0    0  0.17320054625E+02  0.46333071270E+02 -0.50585707533E+02  0.70750629624E+02  0.00000000000E+00 0. -1.
</event>
<event>
 7    1  0.2334784E-009  0.6425611E+02  0.7561462E-02  0.1380792E+00
         -1   -1    0    0    0  501 -0.00000000000E+00  0.00000000000E+00  0.23670938179E+02  0.23670938179E+02  0.00000000000E+00 0.  1.
          1   -1    0    0  501    0  0.00000000000E+00 -0.00000000000E+00 -0.73892386078E+03  0.73892386078E+03  0.00000000000E+00 0. -1.
         25    2    1    2    0    0 -0.27461981523E+02 -0.17937805924E+01 -0.59515718918E+03  0.60878301344E+03  0.12508916636E+03 0.  0.
          5    1    3    3  502    0 -0.75111378860E+00  0.26741574616E+01 -0.57436023492E+03  0.57438216124E+03  0.41800000000E+01 0. -1.
         -5    1    3    3    0  502 -0.26710867734E+02 -0.44679380540E+01 -0.20796954257E+02  0.34400852198E+02  0.41800000000E+01 0. -1.
        -11    1    1    2    0    0  0.13079163724E+02  0.46929988600E+02 -0.59867283837E+02  0.77185361486E+02  0.00000000000E+00 0. -1.
         11    1    1    2    0    0  0.14382817798E+02 -0.45136208007E+02 -0.60228449583E+02  0.76626424034E+02  0.00000000000E+00 0.  1.
</event>
<event>
 7    1  0.2334784E-009  0.1398680E+03  0.7561462E-02  0.1213507E+00
          2   -1    0    0  501    0  0.00000000000E+00  0.00000000000E+00  0.30894186868E+03  0.30894186868E+03  0.00000000000E+00 0. -1.
         -2   -1    0    0    0  501 -0.00000000000E+00 -0.00000000000E+00 -0.10429548197E+03  0.10429548197E+03  0.00000000000E+00 0.  1.
         25    2    1    2    0    0 -0.96701030589E+02 -0.47651590533E+02  0.12169595785E+01  0.16513702277E+03  0.12508793667E+03 0.  0.
          5    1    3    3  502    0 -0.20883292833E+02  0.34870087022E+02  0.28385423094E+02  0.49751779191E+02  0.41800000000E+01 0. -1.
         -5    1    3    3    0  502 -0.75817737756E+02 -0.82521677555E+02 -0.27168463515E+02  0.11538524357E+03  0.41800000000E+01 0. -1.
        -11    1    1    2    0    0  0.11661556431E+02 -0.16505173854E+02  0.91008519981E+02  0.93225336532E+02  0.00000000000E+00 0. -1.
         11    1    1    2    0    0  0.85039474158E+02  0.64156764387E+02  0.11242090715E+03  0.15487499135E+03  0.00000000000E+00 0.  1.
</event>
<event>
 7    1  0.2334784E-009  0.1239732E+03  0.7561462E-02  0.1236683E+00
         -2   -1    0    0    0  501 -0.00000000000E+00  0.00000000000E+00  0.74457967288E+02  0.74457967288E+02  0.00000000000E+00 0.  1.
          2   -1    0    0  501    0  0.00000000000E+00 -0.00000000000E+00 -0.26692145327E+03  0.26692145327E+03  0.00000000000E+00 0. -1.
         25    2    1    2    0    0  0.74204123860E+02  0.81461112187E+01 -0.16502757843E+03  0.22012241639E+03  0.12508863030E+03 0.  0.
          5    1    3    3  502    0  0.37130337598E+02 -0.49825880932E+02 -0.31372727729E+02  0.69735219408E+02  0.41800000000E+01 0. -1.
         -5    1    3    3    0  502  0.37073786262E+02  0.57971992150E+02 -0.13365485070E+03  0.15038719699E+03  0.41800000000E+01 0. -1.
        -11    1    1    2    0    0 -0.70998928968E+02 -0.42152973985E+02 -0.27719737775E+02  0.87098249079E+02  0.00000000000E+00 0. -1.
         11    1    1    2    0    0 -0.32051948924E+01  0.34006862767E+02  0.28383021853E+00  0.34158755087E+02  0.00000000000E+00 0.  1.
</event>
<event>
 7    1  0.2334784E-009  0.1170016E+03  0.7561462E-02  0.1248127E+00
         -2   -1    0    0    0  501 -0.00000000000E+00  0.00000000000E+00  0.10938322124E+02  0.10938322124E+02  0.00000000000E+00 0.  1.
          2   -1    0    0  501    0  0.00000000000E+00 -0.00000000000E+00 -0.17072061021E+04  0.17072061021E+04  0.00000000000E+00 0. -1.
         25    2    1    2    0    0  0.44400455354E+02  0.75708166929E+01 -0.13700834971E+04  0.13765185350E+04  0.12508305488E+03 0.  0.
          5    1    3    3  502    0  0.53670141826E+02 -0.50441816588E+02 -0.80559382553E+03  0.80896461302E+03  0.41800000000E+01 0.  1.
         -5    1    3    3    0  502 -0.92696864721E+01  0.58012633281E+02 -0.56448967154E+03  0.56755392201E+03  0.41800000000E+01 0.  1.
        -11    1    1    2    0    0  0.22254171191E+02  0.19309248455E+02 -0.85049714337E+02  0.90008605811E+02  0.00000000000E+00 0. -1.
         11    1    1    2    0    0 -0.66654626544E+02 -0.26880065148E+02 -0.24113456859E+03  0.25161728341E+03  0.00000000000E+00 0.  1.
</event>
<event>
 7    1  0.2334784E-009  0.1186971E+03  0.7561462E-02  0.1245262E+00
         -2   -1    0    0    0  501 -0.00000000000E+00  0.00000000000E+00  0.85291195591E+02  0.85291195591E+02  0.00000000000E+00 0.  1.
          2   -1    0    0  501    0  0.00000000000E+00 -0.00000000000E+00 -0.25601218249E+03  0.25601218249E+03  0.00000000000E+00 0. -1.
         25    2    1    2    0    0  0.62313119090E+01  0.20497877270E+02 -0.33039905210E+01  0.12695342515E+03  0.12508902264E+03 0.  0.
          5    1    3    3  502    0 -0.17278033501E+02  0.69458225791E+02  0.49101869456E+01  0.71864858642E+02  0.41800000000E+01 0.  1.
         -5    1    3    3    0  502  0.23509345410E+02 -0.48960348521E+02 -0.82141774665E+01  0.55088566512E+02  0.41800000000E+01 0.  1.
        -11    1    1    2    0    0  0.37727598219E+02 -0.46710519572E+02 -0.14781318125E+03  0.15954303763E+03  0.00000000000E+00 0. -1.
         11    1    1    2    0    0 -0.43958910128E+02  0.26212642302E+02 -0.19603815123E+02  0.54806915289E+02  0.00000000000E+00 0.  1.
</event>
<event>
 7    1  0.2334784E-009  0.1476189E+03  0.7561462E-02  0.1203430E+00
         -1   -1    0    0    0  501 -0.00000000000E+00  0.00000000000E+00  0.17340133635E+03  0.17340133635E+03  0.00000000000E+00 0.  1.
          1   -1    0    0  501    0  0.00000000000E+00 -0.00000000000E+00 -0.17041616658E+03  0.17041616658E+03  0.00000000000E+00 0. -1.
         25    2    1    2    0    0  0.30916069291E+02 -0.12960604747E+03 -0.95212202858E+01  0.18298690662E+03  0.12506007948E+03 0.  0.
          5    1    3    3  502    0  0.13032220167E+02 -0.13311559540E+02 -0.53887184843E+02  0.57169375282E+02  0.41800000000E+01 0. -1.
         -5    1    3    3    0  502  0.17883849124E+02 -0.11629448793E+03  0.44365964557E+02  0.12581753134E+03  0.41800000000E+01 0. -1.
        -11    1    1    2    0    0  0.19326241606E+02 -0.85579151281E-01  0.99187109690E+01  0.21723069896E+02  0.00000000000E+00 0.  1.
         11    1    1    2    0    0 -0.50242310897E+02  0.12969162662E+03  0.25876790865E+01  0.13910752641E+03  0.00000000000E+00 0. -1.
</event>
<event>
 7    1  0.2334784E-009  0.1423625E+03  0.7561462E-02  0.1210185E+00
         -3   -1    0    0    0  501 -0.00000000000E+00  0.00000000000E+00  0.92450733288E+02  0.92450733288E+02  0.00000000000E+00 0.  1.
          3   -1    0    0  501    0  0.00000000000E+00 -0.00000000000E+00 -0.29484552501E+03  0.29484552501E+03  0.00000000000E+00 0. -1.
         25    2    1    2    0    0  0.37412523088E+02  0.11426594845E+03 -0.76288054084E+02  0.18953683798E+03  0.12509173392E+03 0.  0.
          5    1    3    3  502    0  0.34093267537E+02  0.13195477461E+03 -0.92654704200E+02  0.16485381417E+03  0.41800000000E+01 0.  1.
         -5    1    3    3    0  502  0.33192555501E+01 -0.17688826162E+02  0.16366650116E+02  0.24683023810E+02  0.41800000000E+01 0.  1.
        -11    1    1    2    0    0 -0.44974522810E+02 -0.59368001910E+02 -0.18533488636E+02  0.76751270698E+02  0.00000000000E+00 0.  1.
         11    1    1    2    0    0  0.75619997221E+01 -0.54897946543E+02 -0.10757324900E+03  0.12100814963E+03  0.00000000000E+00 0. -1.
</event>
<event>
 7    1  0.2334784E-009  0.1205512E+03  0.7561462E-02  0.1242190E+00
         -2   -1    0    0    0  501 -0.00000000000E+00  0.00000000000E+00  0.13295773878E+03  0.13295773878E+03  0.00000000000E+00 0. -1.
          2   -1    0    0  501    0  0.00000000000E+00 -0.00000000000E+00 -0.15529374134E+03  0.15529374134E+03  0.00000000000E+00 0.  1.
         25    2    1    2    0    0  0.45907647809E+02 -0.75021022651E+02 -0.45366810265E+02  0.15950263066E+03  0.12508907125E+03 0.  0.
          5    1    3    3  502    0 -0.38634653614E+02  0.10817852608E+01 -0.79130085060E+01  0.39672343299E+02  0.41800000000E+01 0.  1.
         -5    1    3    3    0  502  0.84542301423E+02 -0.76102807912E+02 -0.37453801759E+02  0.11983028736E+03  0.41800000000E+01 0.  1.
        -11    1    1    2    0    0 -0.23033946578E+02  0.46038077902E+02  0.58240072171E+02  0.77730131341E+02  0.00000000000E+00 0. -1.
         11    1    1    2    0    0 -0.22873701231E+02  0.28982944749E+02 -0.35209264463E+02  0.51018718118E+02  0.00000000000E+00 0.  1.
</event>
<event>
 6    1  0.2334784E-009  0.1036924E+03  0.7561462E-02  0.1272718E+00
          1   -1    0    0  501    0  0.00000000000E+00  0.00000000000E+00  0.12774619796E+04  0.12774619796E+04  0.00000000000E+00 0. -1.
         -1   -1    0    0    0  501 -0.00000000000E+00 -0.00000000000E+00 -0.16980849644E+02  0.16980849644E+02  0.00000000000E+00 0.  1.
          5    1    1    2  502    0  0.47603412239E+02  0.57176696985E+01  0.16709565970E+03  0.17388849443E+03  0.41800000000E+01 0. -1.
         -5    1    1    2    0  502 -0.39489796498E+02  0.71367038841E+02  0.82366430451E+03  0.82770348385E+03  0.41800000000E+01 0. -1.
        -11    1    1    2    0    0 -0.19289195278E+01 -0.34594798565E+02  0.21139609243E+02  0.40588223627E+02  0.00000000000E+00 0.  1.
         11    1    1    2    0    0 -0.61846962135E+01 -0.42489909975E+02  0.24858155653E+03  0.25226262737E+03  0.00000000000E+00 0. -1.
</event>
<event>
 7    1  0.2334784E-009  0.9042845E+02  0.7561462E-02  0.1301817E+00
         -2   -1    0    0    0  501 -0.00000000000E+00  0.00000000000E+00  0.38530653017E+02  0.38530653017E+02  0.00000000000E+00 0.  1.
          2   -1    0    0  501    0  0.00000000000E+00 -0.00000000000E+00 -0.43240802083E+03  0.43240802083E+03  0.00000000000E+00 0. -1.
         25    2    1    2    0    0 -0.67156434982E+02  0.17861582273E+02 -0.20048087285E+03  0.24629169198E+03  0.12505196630E+03 0.  0.
          5    1    3    3  502    0 -0.29969078205E+01  0.32781598374E+02 -0.17067350432E+03  0.17386929610E+03  0.41800000000E+01 0. -1.
         -5    1    3    3    0  502 -0.64159527161E+02 -0.14920016101E+02 -0.29807368530E+02  0.72422395878E+02  0.41800000000E+01 0. -1.
        -11    1    1    2    0    0  0.63880750380E+02 -0.37735019526E+00 -0.19647028182E+03  0.20659492806E+03  0.00000000000E+00 0. -1.
         11    1    1    2    0    0  0.32756846021E+01 -0.17484232078E+02  0.30737868611E+01  0.18052053807E+02  0.00000000000E+00 0.  1.
</event>
<event>
 7    1  0.2334784E-009  0.1340446E+03  0.7561462E-02  0.1221575E+00
          2   -1    0    0  501    0  0.00000000000E+00  0.00000000000E+00  0.13137459912E+03  0.13137459912E+03  0.00000000000E+00 0. -1.
         -2   -1    0    0    0  501 -0.00000000000E+00 -0.00000000000E+00 -0.14141649036E+03  0.14141649036E+03  0.00000000000E+00 0.  1.
         25    2    1    2    0    0 -0.63022923660E+02 -0.46472492540E+02 -0.20937122560E+01  0.14758514637E+03  0.12508161467E+03 0.  0.
          5    1    3    3  502    0 -0.28550096545E+02 -0.85954886830E+02  0.15816634817E+02  0.92037975421E+02  0.41800000000E+01 0. -1.
         -5    1    3    3    0  502 -0.34472827115E+02  0.39482394290E+02 -0.17910347073E+02  0.55547170949E+02  0.41800000000E+01 0. -1.
        -11    1    1    2    0    0 -0.22355963459E+02  0.30762322776E+02 -0.48791320564E+01  0.38339477493E+02  0.00000000000E+00 0.  1.
         11    1    1    2    0    0  0.85378887119E+02  0.15710169764E+02 -0.30690469275E+01  0.86866465617E+02  0.00000000000E+00 0. -1.
</event>
<event>
 7    1  0.2334784E-009  0.1130048E+03  0.7561462E-02  0.1255105E+00
          2   -1    0    0  501    0  0.00000000000E+00  0.00000000000E+00  0.22207757416E+03  0.22207757416E+03  0.00000000000E+00 0. -1.
         -2   -1    0    0    0  501 -0.00000000000E+00 -0.00000000000E+00 -0.12312242704E+03  0.12312242704E+03  0.00000000000E+00 0.  1.
         25    2    1    2    0    0 -0.60959005889E+02 -0.25456310059E+02  0.16231272198E+03  0.21530366331E+03  0.12508486558E+03 0.  0.
          5    1    3    3  502    0 -0.86813187835E+02 -0.52144576783E+02  0.98448375655E+02  0.14129805922E+03  0.41800000000E+01 0. -1.
         -5    1    3    3    0  502  0.25854181946E+02  0.26688266724E+02  0.63864346329E+02  0.74005604091E+02  0.41800000000E+01 0. -1.
        -11    1    1    2    0    0  0.80590239599E+01 -0.17402762360E+02  0.16256292128E+02  0.25141023024E+02  0.00000000000E+00 0. -1.
         11    1    1    2    0    0  0.52899981929E+02  0.42859072419E+02 -0.79613866988E+02  0.10475531487E+03  0.00000000000E+00 0.  1.
</event>
<event>
 7    1  0.2334784E-009  0.6522092E+02  0.7561462E-02  0.1377142E+00
         -1   -1    0    0    0  501 -0.00000000000E+00  0.00000000000E+00  0.14931797286E+03  0.14931797286E+03  0.00000000000E+00 0.  1.
          1   -1    0    0  501    0  0.00000000000E+00 -0.00000000000E+00 -0.99884362663E+02  0.99884362663E+02  0.00000000000E+00 0. -1.
         25    2    1    2    0    0 -0.13062222546E+02 -0.39151595229E+02 -0.78873442142E+01  0.13195739490E+03  0.12508826805E+03 0.  0.
          5    1    3    3  502    0 -0.30155550399E+02 -0.77428396054E+01 -0.60521451077E+02  0.68188175115E+02  0.41800000000E+01 0.  1.
         -5    1    3    3    0  502  0.17093327853E+02 -0.31408755624E+02  0.52634106863E+02  0.63769219787E+02  0.41800000000E+01 0.  1.
        -11    1    1    2    0    0 -0.14862659167E+01 -0.10850022581E+02  0.63831741381E+02  0.64764366623E+02  0.00000000000E+00 0.  1.
         11    1    1    2    0    0  0.14548488463E+02  0.50001617810E+02 -0.65107869707E+01  0.52480573998E+02  0.00000000000E+00 0. -1.
</event>
<event>
 7    1  0.2334784E-009  0.1731140E+03  0.7561462E-02  0.1174639E+00
         -2   -1    0    0    0  501 -0.00000000000E+00  0.00000000000E+00  0.39513828367E+02  0.39513828367E+02  0.00000000000E+00 0.  1.
          2   -1    0    0  501    0  0.00000000000E+00 -0.00000000000E+00 -0.97433513588E+03  0.97433513588E+03  0.00000000000E+00 0. -1.
         25    2    1    2    0    0  0.72866526316E+02 -0.14659994757E+03 -0.47034292976E+03  0.51348956588E+03  0.12509191580E+03 0.  0.
          5    1    3    3  502    0  0.13975693226E+02 -0.49873505346E+02 -0.32531403525E+03  0.32943797666E+03  0.41800000000E+01 0.  1.
         -5    1    3    3    0  502  0.58890833090E+02 -0.96726442227E+02 -0.14502889452E+03  0.18405158921E+03  0.41800000000E+01 0.  1.
        -11    1    1    2    0    0  0.86755865442E+01  0.65031423537E+02 -0.22803410376E+03  0.23728443760E+03  0.00000000000E+00 0.  1.
         11    1    1    2    0    0 -0.81542112860E+02  0.81568524036E+02 -0.23644427399E+03  0.26307496077E+03  0.00000000000E+00 0. -1.
</event>
<event>
 7    1  0.2334784E-009  0.9413809E+02  0.7561462E-02  0.1293129E+00
          1   -1    0    0  501    0  0.00000000000E+00  0.00000000000E+00  0.14976387919E+03  0.14976387919E+03  0.00000000000E+00 0. -1.
         -1   -1    0    0    0  501 -0.00000000000E+00 -0.00000000000E+00 -0.93805505103E+02  0.93805505103E+02  0.00000000000E+00 0.  1.
         25    2    1    2    0    0 -0.44449523465E+02 -0.20999496704E+02  0.27712315138E+02  0.13723116949E+03  0.12509069698E+03 0.  0.
          5    1    3    3  502    0 -0.63375605241E+02  0.36538617515E+02  0.20514305105E+02  0.76091044305E+02  0.41800000000E+01 0. -1.
         -5    1    3    3    0  502  0.18926081776E+02 -0.57538114219E+02  0.71980100330E+01  0.61140125185E+02  0.41800000000E+01 0. -1.
        -11    1    1    2    0    0  0.20278457943E+02 -0.26748053381E+01 -0.31569734394E+02  0.37616732579E+02  0.00000000000E+00 0.  1.
         11    1    1    2    0    0  0.24171065521E+02  0.23674302042E+02  0.59815793340E+02  0.68721482220E+02  0.00000000000E+00 0. -1.
</event>
<event>
 7    1  0.2334784E-009  0.1061240E+03  0.7561462E-02  0.1267921E+00
         -2   -1    0    0    0  501 -0.00000000000E+00  0.00000000000E+00  0.85862833230E+02  0.85862833230E+02  0.00000000000E+00 0. -1.
          2   -1    0    0  501    0  0.00000000000E+00 -0.00000000000E+00 -0.18096212028E+03  0.18096212028E+03  0.00000000000E+00 0.  1.
         25    2    1    2    0    0 -0.59247221095E+02  0.71699378509E+01 -0.39466487153E+02  0.14410690393E+03  0.12509018721E+03 0.  0.
          5    1    3    3  502    0  0.16372211864E+02 -0.16846503104E+02  0.30164798510E+02  0.38460908170E+02  0.41800000000E+01 0.  1.
         -5    1    3    3    0  502 -0.75619432958E+02  0.24016440955E+02 -0.69631285663E+02  0.10564599576E+03  0.41800000000E+01 0.  1.
        -11    1    1    2    0    0  0.48994405161E+02  0.38385689605E+02 -0.26265666061E+02  0.67555888842E+02  0.00000000000E+00 0.  1.
         11    1    1    2    0    0  0.10252815933E+02 -0.45555627456E+02 -0.29367133835E+02  0.55162160737E+02  0.00000000000E+00 0. -1.
</event>
<event>
 7    1  0.2335942E-009  0.1176757E+03  0.7561462E-02  0.1246981E+00
          2   -1    0    0  501    0  0.00000000000E+00  0.00000000000E+00  0.17804017340E+03  0.17804017340E+03  0.00000000000E+00 0. -1.
         -2   -1    0    0    0  501 -0.00000000000E+00 -0.00000000000E+00 -0.10396196607E+03  0.10396196607E+03  0.00000000000E+00 0.  1.
         25    2    1    2    0    0  0.64847589023E+02  0.98569823371E+00 -0.10521654031E+02  0.14129435747E+03  0.12508880384E+03 0.  0.
          5    1    3    3  502    0 -0.10073325096E+02  0.49227084596E+02  0.52887948148E+01  0.50697351872E+02  0.41800000000E+01 0. -1.
         -5    1    3    3    0  502  0.74920914120E+02 -0.48241386362E+02 -0.15810448846E+02  0.90597005598E+02  0.41800000000E+01 0. -1.
        -11    1    1    2    0    0 -0.42056628676E+02 -0.35044069572E+02  0.10081041469E+02  0.55663940077E+02  0.00000000000E+00 0.  1.
         11    1    1    2    0    0 -0.22790960347E+02  0.34058371338E+02  0.74518819889E+02  0.85043841926E+02  0.00000000000E+00 0. -1.
</event>
<event>
 6    1  0.2334784E-009  0.1407249E+03  0.7561462E-02  0.1212357E+00
         -1   -1    0    0    0  501 -0.00000000000E+00  0.00000000000E+00  0.59637987788E+02  0.59637987788E+02  0.00000000000E+00 0.  1.
          1   -1    0    0  501    0  0.00000000000E+00 -0.00000000000E+00 -0.39616083634E+03  0.39616083634E+03  0.00000000000E+00 0. -1.
          5    1    1    2  502    0 -0.40629047994E+02  0.11933872369E+02 -0.12186880462E+03  0.12908375107E+03  0.41800000000E+01 0.  1.
         -5    1    1    2    0  502  0.72518300496E+02  0.79742887579E+02 -0.13662005148E+03  0.17406993678E+03  0.41800000000E+01 0.  1.
        -11    1    1    2    0    0 -0.50706664897E+02 -0.16180975106E+02 -0.28012259206E+02  0.60147123674E+02  0.00000000000E+00 0.  1.
         11    1    1    2    0    0  0.18817412395E+02 -0.75495784841E+02 -0.50021733249E+02  0.92498012602E+02  0.00000000000E+00 0. -1.
</event>
<event>
 7    1  0.2334784E-009  0.9675521E+02  0.7561462E-02  0.1287271E+00
          2   -1    0    0  501    0  0.00000000000E+00  0.00000000000E+00  0.86003803095E+02  0.86003803095E+02  0.00000000000E+00 0. -1.
         -2   -1    0    0    0  501 -0.00000000000E+00 -0.00000000000E+00 -0.15271097055E+03  0.15271097055E+03  0.00000000000E+00 0.  1.
         25    2    1    2    0    0 -0.14516036308E+02  0.24207470284E+02 -0.72342897709E+02  0.14723271066E+03  0.12508900556E+03 0.  0.
          5    1    3    3  502    0 -0.21629620999E+02  0.61574726119E+02 -0.54525182597E-02  0.65396940532E+02  0.41800000000E+01 0. -1.
         -5    1    3    3    0  502  0.71135846909E+01 -0.37367255835E+02 -0.72337445191E+02  0.81835770128E+02  0.41800000000E+01 0. -1.
        -11    1    1    2    0    0 -0.35681460223E+02 -0.15484092762E+02  0.10533452412E+02  0.40297361602E+02  0.00000000000E+00 0. -1.
         11    1    1    2    0    0  0.50197496532E+02 -0.87233775218E+01 -0.48977221599E+01  0.51184701384E+02  0.00000000000E+00 0.  1.
</event>
<event>
 7    1  0.2334784E-009  0.1406355E+03  0.7561462E-02  0.1212476E+00
          3   -1    0    0  501    0  0.00000000000E+00  0.00000000000E+00  0.30950243775E+03  0.30950243775E+03  0.00000000000E+00 0. -1.
         -3   -1    0    0    0  501 -0.00000000000E+00 -0.00000000000E+00 -0.71518368036E+02  0.71518368036E+02  0.00000000000E+00 0.  1.
         25    2    1    2    0    0 -0.11882117506E+02  0.92242596032E+02  0.75155971100E+02  0.17304964500E+03  0.12509148015E+03 0.  0.
          5    1    3    3  502    0  0.53151519912E+02  0.60143751535E+02  0.55885620419E+02  0.97892951162E+02  0.41800000000E+01 0.  1.
         -5    1    3    3    0  502 -0.65033637418E+02  0.32098844497E+02  0.19270350681E+02  0.75156693841E+02  0.41800000000E+01 0.  1.
        -11    1    1    2    0    0 -0.50313608197E+01 -0.10620346410E+03  0.14443146248E+03  0.17934586065E+03  0.00000000000E+00 0.  1.
         11    1    1    2    0    0  0.16913478325E+02  0.13960868071E+02  0.18396636131E+02  0.28625300126E+02  0.00000000000E+00 0. -1.
</event>
<event>
 7    1  0.2334784E-009  0.1074231E+03  0.7561462E-02  0.1265418E+00
         -1   -1    0    0    0  501 -0.00000000000E+00  0.00000000000E+00  0.68898030056E+02  0.68898030056E+02  0.00000000000E+00 0.  1.
          1   -1    0    0  501    0  0.00000000000E+00 -0.00000000000E+00 -0.19446530927E+03  0.19446530927E+03  0.00000000000E+00 0. -1.
         25    2    1    2    0    0  0.26311867247E+02  0.11969256036E+02 -0.57608788523E+02  0.14072278891E+03  0.12509417795E+03 0.  0.
          5    1    3    3  502    0 -0.11736896018E+01 -0.53960038287E+02 -0.10745685271E+02  0.55190628109E+02  0.41800000000E+01 0. -1.
         -5    1    3    3    0  502  0.27485556849E+02  0.65929294323E+02 -0.46863103253E+02  0.85532160803E+02  0.41800000000E+01 0. -1.
        -11    1    1    2    0    0  0.31007639745E+02 -0.31660379900E+01  0.26367873099E+01  0.31280188081E+02  0.00000000000E+00 0.  1.
         11    1    1    2    0    0 -0.57319506991E+02 -0.88032180465E+01 -0.70595278004E+02  0.91360362336E+02  0.00000000000E+00 0. -1.
</event>
<event>
 7    1  0.2334784E-009  0.1648666E+03  0.7561462E-02  0.1183309E+00
         -3   -1    0    0    0  501 -0.00000000000E+00  0.00000000000E+00  0.15885073681E+03  0.15885073681E+03  0.00000000000E+00 0.  1.
          3   -1    0    0  501    0  0.00000000000E+00 -0.00000000000E+00 -0.35310975400E+03  0.35310975400E+03  0.00000000000E+00 0. -1.
         25    2    1    2    0    0 -0.11610077344E+03  0.11041179548E+03 -0.24806238238E+03  0.32070873319E+03  0.12509593046E+03 0.  0.
          5    1    3    3  502    0 -0.67186189844E+02  0.40133378186E+02 -0.25836426018E+02  0.82520697160E+02  0.41800000000E+01 0.  1.
         -5    1    3    3    0  502 -0.48914583594E+02  0.70278417290E+02 -0.22222595636E+03  0.23818803603E+03  0.41800000000E+01 0.  1.
        -11    1    1    2    0    0  0.64407065869E+02 -0.32524886512E+02 -0.16825380583E+02  0.74089350167E+02  0.00000000000E+00 0. -1.
         11    1    1    2    0    0  0.51693707569E+02 -0.77886908964E+02  0.70628745782E+02  0.11716240746E+03  0.00000000000E+00 0.  1.
</event>
<event>
 7    1  0.2334784E-009  0.1729699E+03  0.7561462E-02  0.1174786E+00
         -1   -1    0    0    0  501 -0.00000000000E+00  0.00000000000E+00  0.35049591076E+02  0.35049591076E+02  0.00000000000E+00 0.  1.
          1   -1    0    0  501    0  0.00000000000E+00 -0.00000000000E+00 -0.99792853783E+03  0.99792853783E+03  0.00000000000E+00 0. -1.
         25    2    1    2    0    0 -0.14664804433E+03 -0.14327478993E+02 -0.40017653910E+03  0.44440881235E+03  0.12508798697E+03 0.  0.
          5    1    3    3  502    0 -0.87761005121E+02 -0.68204341996E+02 -0.26460981683E+03  0.28703598006E+03  0.41800000000E+01 0. -1.
         -5    1    3    3    0  502 -0.58887039208E+02  0.53876863003E+02 -0.13556672228E+03  0.15737283229E+03  0.41800000000E+01 0. -1.
        -11    1    1    2    0    0  0.85314483406E+02  0.31747174629E+02 -0.19276783297E+03  0.21318039686E+03  0.00000000000E+00 0.  1.
         11    1    1    2    0    0  0.61333560923E+02 -0.17419695637E+02 -0.36993457468E+03  0.37538891970E+03  0.00000000000E+00 0. -1.
</event>
<event>
 7    1  0.2334784E-009  0.1030146E+03  0.7561462E-02  0.1274081E+00
         -1   -1    0    0    0  501 -0.00000000000E+00  0.00000000000E+00  0.55671586451E+03  0.55671586451E+03  0.00000000000E+00 0.  1.
          1   -1    0    0  501    0  0.00000000000E+00 -0.00000000000E+00 -0.40432725335E+02  0.40432725335E+02  0.00000000000E+00 0. -1.
         25    2    1    2    0    0 -0.14242214803E+02  0.58621707278E+02  0.11244860472E+03  0.17869303312E+03  0.12508863312E+03 0.  0.
          5    1    3    3  502    0 -0.23183093857E+02  0.76326124890E+02  0.12953417002E+03  0.15218313567E+03  0.41800000000E+01 0. -1.
         -5    1    3    3    0  502  0.89408790537E+01 -0.17704417613E+02 -0.17085565297E+02  0.26509897449E+02  0.41800000000E+01 0. -1.
        -11    1    1    2    0    0  0.48418944456E+02 -0.52030404987E+02  0.31772283982E+03  0.32557542931E+03  0.00000000000E+00 0.  1.
         11    1    1    2    0    0 -0.34176729652E+02 -0.65913022904E+01  0.86111694634E+02  0.92880127414E+02  0.00000000000E+00 0. -1.
</event>
<event>
 7    1  0.2334784E-009  0.1060712E+03  0.7561462E-02  0.1268023E+00
          2   -1    0    0  501    0  0.00000000000E+00  0.00000000000E+00  0.34877233660E+03  0.34877233660E+03  0.00000000000E+00 0. -1.
         -2   -1    0    0    0  501 -0.00000000000E+00 -0.00000000000E+00 -0.63565369726E+02  0.63565369726E+02  0.00000000000E+00 0.  1.
         25    2    1    2    0    0 -0.58156832526E+02  0.34122775493E+02  0.49715608698E+02  0.15055012408E+03  0.12508843726E+03 0.  0.
          5    1    3    3  502    0 -0.83568373463E+02  0.35108181257E+02  0.72503386750E+02  0.11614848654E+03  0.41800000000E+01 0. -1.
         -5    1    3    3    0  502  0.25411540937E+02 -0.98540576351E+00 -0.22787778052E+02  0.34401637546E+02  0.41800000000E+01 0. -1.
        -11    1    1    2    0    0  0.27369426296E+02 -0.52905761676E+02  0.67744558625E+02  0.90207706642E+02  0.00000000000E+00 0.  1.
         11    1    1    2    0    0  0.30787406230E+02  0.18782986182E+02  0.16774679955E+03  0.17157987561E+03  0.00000000000E+00 0. -1.
</event>
<event>
 7    1  0.2334784E-009  0.1921530E+03  0.7561462E-02  0.1156534E+00
          2   -1    0    0  501    0  0.00000000000E+00  0.00000000000E+00  0.57619011247E+03  0.57619011247E+03  0.00000000000E+00 0. -1.
         -2   -1    0    0    0  501 -0.00000000000E+00 -0.00000000000E+00 -0.80754224448E+02  0.80754224448E+02  0.00000000000E+00 0.  1.
         25    2    1    2    0    0  0.17221582175E+03 -0.65295665511E+02  0.30595234890E+03  0.37838610749E+03  0.12508954132E+03 0.  0.
          5    1    3    3  502    0  0.11046036248E+02  0.49538744501E+01 -0.10359510872E+02  0.16472633498E+02  0.41800000000E+01 0.  1.
         -5    1    3    3    0  502  0.16116978550E+03 -0.70249539961E+02  0.31631185977E+03  0.36191347399E+03  0.41800000000E+01 0.  1.
        -11    1    1    2    0    0 -0.16302796296E+03  0.38786646209E+02  0.18588651106E+03  0.25027248276E+03  0.00000000000E+00 0. -1.
         11    1    1    2    0    0 -0.91878587925E+01  0.26509019302E+02  0.35970280531E+01  0.28285746665E+02  0.00000000000E+00 0.  1.
</event>
<event>
 7    1  0.2334784E-009  0.1808675E+03  0.7561462E-02  0.1166966E+00
          1   -1    0    0  501    0  0.00000000000E+00  0.00000000000E+00  0.80220365912E+03  0.80220365912E+03  0.00000000000E+00 0. -1.
         -1   -1    0    0    0  501 -0.00000000000E+00 -0.00000000000E+00 -0.46724632538E+02  0.46724632538E+02  0.00000000000E+00 0.  1.
         25    2    1    2    0    0 -0.33486698098E+02  0.15577497624E+03  0.41178213495E+03  0.45891173833E+03  0.12509298440E+03 0.  0.
          5    1    3    3  502    0  0.39530362553E+02  0.69433057880E+02  0.10557131128E+03  0.13246272402E+03  0.41800000000E+01 0. -1.
         -5    1    3    3    0  502 -0.73017060652E+02  0.86341918357E+02  0.30621082367E+03  0.32644901431E+03  0.41800000000E+01 0. -1.
        -11    1    1    2    0    0 -0.14128437996E+02 -0.59676426438E+02  0.20914997972E+03  0.21795550612E+03  0.00000000000E+00 0. -1.
         11    1    1    2    0    0  0.47615136095E+02 -0.96098549799E+02  0.13454691191E+03  0.17206104720E+03  0.00000000000E+00 0.  1.
</event>
<event>
 7    1  0.2334784E-009  0.9060599E+02  0.7561462E-02  0.1301391E+00
         -1   -1    0    0    0  501 -0.00000000000E+00  0.00000000000E+00  0.17788942955E+03  0.17788942955E+03  0.00000000000E+00 0.  1.
          1   -1    0    0  501    0  0.00000000000E+00 -0.00000000000E+00 -0.11282457634E+03  0.11282457634E+03  0.00000000000E+00 0. -1.
         25    2    1    2    0    0 -0.85053207899E+02  0.26589946234E+02  0.23719135901E+02  0.15541042095E+03  0.12509487646E+03 0.  0.
          5    1    3    3  502    0 -0.36856410444E+02  0.18360717733E+01  0.73093438827E+02  0.81987129172E+02  0.41800000000E+01 0. -1.
         -5    1    3    3    0  502 -0.48196797455E+02  0.24753874461E+02 -0.49374302925E+02  0.73423291775E+02  0.41800000000E+01 0. -1.
        -11    1    1    2    0    0  0.32827431214E+02 -0.15670177007E+02  0.66895910660E+02  0.76146290459E+02  0.00000000000E+00 0.  1.
         11    1    1    2    0    0  0.52225776685E+02 -0.10919769227E+02 -0.25550193350E+02  0.59157294483E+02  0.00000000000E+00 0. -1.
</event>
<event>
 7    1  0.2334784E-009  0.1321795E+03  0.7561462E-02  0.1224257E+00
         -1   -1    0    0    0  501 -0.00000000000E+00  0.00000000000E+00  0.76340814160E+02  0.76340814160E+02  0.00000000000E+00 0.  1.
          1   -1    0    0  501    0  0.00000000000E+00 -0.00000000000E+00 -0.30455006137E+03  0.30455006137E+03  0.00000000000E+00 0. -1.
         25    2    1    2    0    0 -0.30110583996E+02  0.25577878155E+02 -0.23042920531E+02  0.13318414018E+03  0.12508462691E+03 0.  0.
          5    1    3    3  502    0 -0.72626896352E+02  0.43260858282E+02 -0.10575584766E+02  0.85296443807E+02  0.41800000000E+01 0. -1.
         -5    1    3    3    0  502  0.42516312356E+02 -0.17682980127E+02 -0.12467335765E+02  0.47887696370E+02  0.41800000000E+01 0. -1.
        -11    1    1    2    0    0 -0.14072789990E+02 -0.69662284517E+02 -0.74853482677E+02  0.10321783359E+03  0.00000000000E+00 0. -1.
         11    1    1    2    0    0  0.44183373987E+02  0.44084406361E+02 -0.13031284401E+03  0.14448890177E+03  0.00000000000E+00 0.  1.
</event>
<event>
 7    1  0.2334784E-009  0.9999304E+02  0.7561462E-02  0.1280311E+00
          2   -1    0    0  501    0  0.00000000000E+00  0.00000000000E+00  0.10502095076E+04  0.10502095076E+04  0.00000000000E+00 0. -1.
         -2   -1    0    0    0  501 -0.00000000000E+00 -0.00000000000E+00 -0.13384386963E+02  0.13384386963E+02  0.00000000000E+00 0.  1.
         25    2    1    2    0    0  0.34629663614E+02 -0.26921670059E+02  0.51980306925E+03  0.53643917709E+03  0.12509104685E+03 0.  0.
          5    1    3    3  502    0 -0.28357691923E+02  0.44717714780E+01  0.36712614140E+03  0.36827059552E+03  0.41800000000E+01 0. -1.
         -5    1    3    3    0  502  0.62987355537E+02 -0.31393441537E+02  0.15267692785E+03  0.16816858157E+03  0.41800000000E+01 0. -1.
        -11    1    1    2    0    0 -0.25207225251E+02  0.60530462476E+02  0.38767167884E+03  0.39317765917E+03  0.00000000000E+00 0. -1.
         11    1    1    2    0    0 -0.94224383629E+01 -0.33608792417E+02  0.12935037251E+03  0.13397705826E+03  0.00000000000E+00 0.  1.
</event>
<event>
 7    1  0.2334784E-009  0.1035175E+03  0.7561462E-02  0.1273068E+00
         -2   -1    0    0    0  501 -0.00000000000E+00  0.00000000000E+00  0.99807418961E+02  0.99807418961E+02  0.00000000000E+00 0. -1.
          2   -1    0    0  501    0  0.00000000000E+00 -0.00000000000E+00 -0.37581465296E+03  0.37581465296E+03  0.00000000000E+00 0.  1.
         25    2    1    2    0    0  0.58236017056E+02  0.35636113076E+02 -0.32273372313E+03  0.35279558710E+03  0.12508518696E+03 0.  0.
          5    1    3    3  502    0  0.63212070845E+02  0.65998407031E+01 -0.31591220334E+03  0.32226901250E+03  0.41800000000E+01 0. -1.
         -5    1    3    3    0  502 -0.49760537891E+01  0.29036272373E+02 -0.68215197841E+01  0.30526574599E+02  0.41800000000E+01 0. -1.
        -11    1    1    2    0    0 -0.66906193223E+02  0.95434046891E+01  0.28305689684E+02  0.73271599773E+02  0.00000000000E+00 0.  1.
         11    1    1    2    0    0  0.86701761673E+01 -0.45179517765E+02  0.18420799441E+02  0.49554885050E+02  0.00000000000E+00 0. -1.
</event>
<event>
 7    1  0.2334784E-009  0.1198880E+03  0.7561462E-02  0.1243282E+00
         -3   -1    0    0    0  501 -0.00000000000E+00  0.00000000000E+00  0.64189784544E+02  0.64189784544E+02  0.00000000000E+00 0.  1.
          3   -1    0    0  501    0  0.00000000000E+00 -0.00000000000E+00 -0.53418669966E+03  0.53418669966E+03  0.00000000000E+00 0. -1.
         25    2    1    2    0    0 -0.84941751399E+02  0.40582139951E+01 -0.44582474613E+03  0.47078571806E+03  0.12509163775E+03 0.  0.
          5    1    3    3  502    0 -0.12250955407E+01  0.44892455036E+02 -0.24827052309E+03  0.25233421967E+03  0.41800000000E+01 0.  1.
         -5    1    3    3    0  502 -0.83716655858E+02 -0.40834241041E+02 -0.19755422304E+03  0.21845149839E+03  0.41800000000E+01 0.  1.
        -11    1    1    2    0    0  0.46633964031E+02  0.25406614265E+02 -0.49873342724E+02  0.72853091658E+02  0.00000000000E+00 0. -1.
         11    1    1    2    0    0  0.38307787368E+02 -0.29464828261E+02  0.25701173734E+02  0.54737674492E+02  0.00000000000E+00 0.  1.
</event>
<event>
 7    1  0.2334784E-009  0.1135369E+03  0.7561462E-02  0.1254157E+00
          4   -1    0    0  501    0  0.00000000000E+00  0.00000000000E+00  0.30469498917E+02  0.30469498917E+02  0.00000000000E+00 0. -1.
         -4   -1    0    0    0  501 -0.00000000000E+00 -0.00000000000E+00 -0.68159396532E+03  0.68159396532E+03  0.00000000000E+00 0.  1.
         25    2    1    2    0    0 -0.55228554290E+02  0.48752302028E+02 -0.49460294843E+03  0.51546767179E+03  0.12509142219E+03 0.  0.
          5    1    3    3  502    0  0.23761117069E+02  0.25732467639E+01 -0.29335497379E+03  0.29435662950E+03  0.41800000000E+01 0. -1.
         -5    1    3    3    0  502 -0.78989671359E+02  0.46179055264E+02 -0.20124797464E+03  0.22111104229E+03  0.41800000000E+01 0. -1.
        -11    1    1    2    0    0  0.55388025495E+02  0.66761661912E+01 -0.43604451045E+02  0.70807857716E+02  0.00000000000E+00 0. -1.
         11    1    1    2    0    0 -0.15947120528E+00 -0.55428468219E+02 -0.11291706693E+03  0.12578793473E+03  0.00000000000E+00 0.  1.
</event>
<event>
 7    1  0.2334784E-009  0.9946254E+02  0.7561462E-02  0.1281430E+00
          1   -1    0    0  501    0  0.00000000000E+00  0.00000000000E+00  0.18629603073E+03  0.18629603073E+03  0.00000000000E+00 0.  1.
         -1   -1    0    0    0  501 -0.00000000000E+00 -0.00000000000E+00 -0.65137472861E+02  0.65137472861E+02  0.00000000000E+00 0. -1.
         25    2    1    2    0    0  0.35139668665E+01 -0.19703708147E+02  0.65279030982E+02  0.14250373959E+03  0.12508149277E+03 0.  0.
          5    1    3    3  502    0 -0.20409471508E+02  0.37770364655E+02  0.67459410385E+02  0.80071164741E+02  0.41800000000E+01 0. -1.
         -5    1    3    3    0  502  0.23923438375E+02 -0.57474072802E+02 -0.21803794034E+01  0.62432574851E+02  0.41800000000E+01 0. -1.
        -11    1    1    2    0    0  0.43737905645E+02  0.13277643246E+02  0.24718103666E+02  0.51964265117E+02  0.00000000000E+00 0. -1.
         11    1    1    2    0    0 -0.47251872511E+02  0.64260649012E+01  0.31161423226E+02  0.56965498886E+02  0.00000000000E+00 0.  1.
</event>
<event>
 7    1  0.2334784E-009  0.1614937E+03  0.7561462E-02  0.1187021E+00
          1   -1    0    0  501    0  0.00000000000E+00  0.00000000000E+00  0.39647553669E+03  0.39647553669E+03  0.00000000000E+00 0.  1.
         -1   -1    0    0    0  501 -0.00000000000E+00 -0.00000000000E+00 -0.10826013925E+03  0.10826013925E+03  0.00000000000E+00 0. -1.
         25    2    1    2    0    0 -0.82292979654E+02  0.13776635519E+03  0.11480987986E+03  0.23362487107E+03  0.12509024242E+03 0.  0.
          5    1    3    3  502    0 -0.27613758825E+02  0.47043184717E+02 -0.23347853847E+02  0.59482565379E+02  0.41800000000E+01 0.  1.
         -5    1    3    3    0  502 -0.54679220829E+02  0.90723170470E+02  0.13815773370E+03  0.17414230569E+03  0.41800000000E+01 0.  1.
        -11    1    1    2    0    0  0.46735802738E+02 -0.10008956492E+03  0.18732355764E+03  0.21746786316E+03  0.00000000000E+00 0.  1.
         11    1    1    2    0    0  0.35557176916E+02 -0.37676790266E+02 -0.13918040054E+02  0.53642941698E+02  0.00000000000E+00 0. -1.
</event>
<event>
 7    1  0.2334784E-009  0.1412250E+03  0.7561462E-02  0.1211690E+00
          2   -1    0    0  501    0  0.00000000000E+00  0.00000000000E+00  0.44295150542E+03  0.44295150542E+03  0.00000000000E+00 0. -1.
         -2   -1    0    0    0  501 -0.00000000000E+00 -0.00000000000E+00 -0.83285192807E+02  0.83285192807E+02  0.00000000000E+00 0.  1.
         25    2    1    2    0    0 -0.11861723295E+03  0.52711133193E+01  0.51201637183E+02  0.17991018033E+03  0.12509289647E+03 0.  0.
          5    1    3    3  502    0 -0.42320266464E+02  0.24181803113E+02  0.81917164698E+02  0.95413095682E+02  0.41800000000E+01 0. -1.
         -5    1    3    3    0  502 -0.76296966487E+02 -0.18910689793E+02 -0.30715527516E+02  0.84497084649E+02  0.41800000000E+01 0. -1.
        -11    1    1    2    0    0  0.45160344261E+02  0.46596266929E+02  0.16130264048E+03  0.17386549575E+03  0.00000000000E+00 0. -1.
         11    1    1    2    0    0  0.73456888690E+02 -0.51867380248E+02  0.14716203494E+03  0.17246102214E+03  0.00000000000E+00 0.  1.
</event>
<event>
 7    1  0.2334784E-009  0.9005812E+02  0.7561462E-02  0.1302711E+00
         -1   -1    0    0    0  501 -0.00000000000E+00  0.00000000000E+00  0.18822144698E+03  0.18822144698E+03  0.00000000000E+00 0.  1.
          1   -1    0    0  501    0  0.00000000000E+00 -0.00000000000E+00 -0.67028502378E+02  0.67028502378E+02  0.00000000000E+00 0. -1.
         25    2    1    2    0    0 -0.26777667936E+01  0.87297702143E+01  0.10588953661E+03  0.16414705279E+03  0.12509309195E+03 0.  0.
          5    1    3    3  502    0  0.41795711899E+02  0.36981794408E+02  0.13282902083E+02  0.57519062392E+02  0.41800000000E+01 0.  1.
         -5    1    3    3    0  502 -0.44473478692E+02 -0.28252024193E+02  0.92606634530E+02  0.10662799040E+03  0.41800000000E+01 0.  1.
        -11    1    1    2    0    0  0.36414801442E+02 -0.91947738316E+01  0.35582971556E+02  0.51737119118E+02  0.00000000000E+00 0.  1.
         11    1    1    2    0    0 -0.33737034648E+02  0.46500361735E+00 -0.20279563570E+02  0.39365777444E+02  0.00000000000E+00 0. -1.
</event>
<event>
 7    1  0.2334784E-009  0.9798082E+02  0.7561462E-02  0.1284600E+00
          1   -1    0    0  501    0  0.00000000000E+00  0.00000000000E+00  0.25274957578E+02  0.25274957578E+02  0.00000000000E+00 0. -1.
         -1   -1    0    0    0  501 -0.00000000000E+00 -0.00000000000E+00 -0.58753027955E+03  0.58753027955E+03  0.00000000000E+00 0.  1.
         25    2    1    2    0    0  0.36855939287E+02  0.36748909391E+02 -0.38641299758E+03  0.40947843163E+03  0.12509491862E+03 0.  0.
          5    1    3    3  502    0  0.47784905056E+02  0.70563891685E+02 -0.17090477455E+03  0.19101982704E+03  0.41800000000E+01 0. -1.
         -5    1    3    3    0  502 -0.10928965769E+02 -0.33814982294E+02 -0.21550822304E+03  0.21845860459E+03  0.41800000000E+01 0. -1.
        -11    1    1    2    0    0 -0.55466363060E+01 -0.42638108434E+02 -0.26243969657E+02  0.50373796844E+02  0.00000000000E+00 0. -1.
         11    1    1    2    0    0 -0.31309302981E+02  0.58891990429E+01 -0.14959835473E+03  0.15295300866E+03  0.00000000000E+00 0.  1.
</event>
<event>
 7    1  0.2334784E-009  0.1027043E+03  0.7561462E-02  0.1274710E+00
         -2   -1    0    0    0  501 -0.00000000000E+00  0.00000000000E+00  0.40226969859E+02  0.40226969859E+02  0.00000000000E+00 0.  1.
          2   -1    0    0  501    0  0.00000000000E+00 -0.00000000000E+00 -0.48776465771E+03  0.48776465771E+03  0.00000000000E+00 0. -1.
         25    2    1    2    0    0 -0.84466342866E+02 -0.16450628011E+02 -0.28894749942E+03  0.32641081098E+03  0.12509266112E+03 0.  0.
          5    1    3    3  502    0 -0.67183572699E+02 -0.15320876699E+02 -0.46330623196E+02  0.83140608304E+02  0.41800000000E+01 0. -1.
         -5    1    3    3    0  502 -0.17282770167E+02 -0.11297513119E+01 -0.24261687622E+03  0.24327020268E+03  0.41800000000E+01 0. -1.
        -11    1    1    2    0    0  0.10072849097E+03  0.10645896663E+02 -0.10772912214E+03  0.14786861657E+03  0.00000000000E+00 0.  1.
         11    1    1    2    0    0 -0.16262148100E+02  0.58047313477E+01 -0.50861066294E+02  0.53712200024E+02  0.00000000000E+00 0. -1.
</event>
<event>
 7    1  0.2334784E-009  0.8245989E+02  0.7561462E-02  0.1322212E+00
          1   -1    0    0  501    0  0.00000000000E+00  0.00000000000E+00  0.31203245796E+03  0.31203245796E+03  0.00000000000E+00 0. -1.
         -1   -1    0    0    0  501 -0.00000000000E+00 -0.00000000000E+00 -0.68771313294E+02  0.68771313294E+02  0.00000000000E+00 0.  1.
         25    2    1    2    0    0  0.33177930355E+02  0.74562744049E+02  0.20108343339E+03  0.25048341411E+03  0.12508803180E+03 0.  0.
          5    1    3    3  502    0  0.21677810303E+02  0.48427071851E+02  0.21278722844E+03  0.21934216589E+03  0.41800000000E+01 0.  1.
         -5    1    3    3    0  502  0.11500120051E+02  0.26135672198E+02 -0.11703795056E+02  0.31141248227E+02  0.41800000000E+01 0.  1.
        -11    1    1    2    0    0 -0.11009236793E+02 -0.11175101291E+02  0.59035617212E+02  0.61084288350E+02  0.00000000000E+00 0. -1.
         11    1    1    2    0    0 -0.22168693561E+02 -0.63387642758E+02 -0.16857905935E+02  0.69236068788E+02  0.00000000000E+00 0.  1.
</event>
<event>
 7    1  0.2334784E-009  0.1957097E+03  0.7561462E-02  0.1153410E+00
          1   -1    0    0  501    0  0.00000000000E+00  0.00000000000E+00  0.22414104124E+04  0.22414104124E+04  0.00000000000E+00 0. -1.
         -1   -1    0    0    0  501 -0.00000000000E+00 -0.00000000000E+00 -0.19395680146E+02  0.19395680146E+02  0.00000000000E+00 0.  1.
         25    2    1    2    0    0  0.64517322050E+02  0.16093616855E+03  0.13734579964E+04  0.13899986686E+04  0.12508595257E+03 0.  0.
          5    1    3    3  502    0  0.80119794931E+02  0.16353921033E+03  0.10183269727E+04  0.10344909620E+04  0.41800000000E+01 0. -1.
         -5    1    3    3    0  502 -0.15602472881E+02 -0.26030417796E+01  0.35513102373E+03  0.35550770653E+03  0.41800000000E+01 0. -1.
        -11    1    1    2    0    0  0.20464769633E+02 -0.42023401091E+02  0.27362025309E+03  0.27758388991E+03  0.00000000000E+00 0.  1.
         11    1    1    2    0    0 -0.84982091684E+02 -0.11891276746E+03  0.57493648272E+03  0.59322353404E+03  0.00000000000E+00 0. -1.
</event>
<event>
 7    1  0.2334784E-009  0.1621071E+03  0.7561462E-02  0.1186338E+00
         -3   -1    0    0    0  501 -0.00000000000E+00  0.00000000000E+00  0.20404297191E+03  0.20404297191E+03  0.00000000000E+00 0.  1.
          3   -1    0    0  501    0  0.00000000000E+00 -0.00000000000E+00 -0.18989896920E+03  0.18989896920E+03  0.00000000000E+00 0. -1.
         25    2    1    2    0    0  0.18954639070E+02 -0.12894902709E+03  0.10742844354E+03  0.21018157221E+03  0.12509313684E+03 0.  0.
          5    1    3    3  502    0  0.72415040269E+02 -0.70750088247E+02  0.55522598618E+02  0.11554109399E+03  0.41800000000E+01 0. -1.
         -5    1    3    3    0  502 -0.53460401200E+02 -0.58198938845E+02  0.51905844922E+02  0.94640478212E+02  0.41800000000E+01 0. -1.
        -11    1    1    2    0    0 -0.38962016760E+02  0.56793305487E+02 -0.83509671594E+02  0.10824686392E+03  0.00000000000E+00 0. -1.
         11    1    1    2    0    0  0.20007377690E+02  0.72155721605E+02 -0.97747692314E+01  0.75513504990E+02  0.00000000000E+00 0.  1.
</event>
<event>
 7    1  0.2334784E-009  0.9921434E+02  0.7561462E-02  0.1281957E+00
          1   -1    0    0  501    0  0.00000000000E+00  0.00000000000E+00  0.94919410141E+03  0.94919410141E+03  0.00000000000E+00 0. -1.
         -1   -1    0    0    0  501 -0.00000000000E+00 -0.00000000000E+00 -0.13164955532E+02  0.13164955532E+02  0.00000000000E+00 0.  1.
         25    2    1    2    0    0 -0.57465379417E+02 -0.10389014202E+02  0.72310847365E+03  0.73616827001E+03  0.12509058978E+03 0.  0.
          5    1    3    3  502    0  0.18074872849E+02  0.31927337262E+02  0.91994750139E+02  0.99129018690E+02  0.41800000000E+01 0. -1.
         -5    1    3    3    0  502 -0.75540252267E+02 -0.42316351464E+02  0.63111372351E+03  0.63703925132E+03  0.41800000000E+01 0. -1.
        -11    1    1    2    0    0  0.32188293418E+02  0.29080545338E+02  0.10061401057E+03  0.10956707294E+03  0.00000000000E+00 0.  1.
         11    1    1    2    0    0  0.25277085999E+02 -0.18691531136E+02  0.11230666166E+03  0.11662371400E+03  0.00000000000E+00 0. -1.
</event>
<event>
 7    1  0.2334784E-009  0.6525579E+02  0.7561462E-02  0.1377012E+00
         -1   -1    0    0    0  501 -0.00000000000E+00  0.00000000000E+00  0.23775408460E+02  0.23775408460E+02  0.00000000000E+00 0.  1.
          1   -1    0    0  501    0  0.00000000000E+00 -0.00000000000E+00 -0.51770468482E+03  0.51770468482E+03  0.00000000000E+00 0. -1.
         25    2    1    2    0    0  0.52757595381E+00  0.21601695750E+02 -0.29787152146E+03  0.32378807293E+03  0.12507742115E+03 0.  0.
          5    1    3    3  502    0 -0.94246197082E+01  0.35526170318E+02 -0.30314786356E+03  0.30539651572E+03  0.41800000000E+01 0.  1.
         -5    1    3    3    0  502  0.99521956620E+01 -0.13924474568E+02  0.52763421057E+01  0.18391557207E+02  0.41800000000E+01 0.  1.
        -11    1    1    2    0    0 -0.21098089894E+02  0.20264925127E+02 -0.14744367508E+03  0.15031777642E+03  0.00000000000E+00 0. -1.
         11    1    1    2    0    0  0.20570513940E+02 -0.41866620877E+02 -0.48614079822E+02  0.67374243924E+02  0.00000000000E+00 0.  1.
</event>
<event>
 7    1  0.2334784E-009  0.1179272E+03  0.7561462E-02  0.1246556E+00
          1   -1    0    0  501    0  0.00000000000E+00  0.00000000000E+00  0.37467037543E+02  0.37467037543E+02  0.00000000000E+00 0. -1.
         -1   -1    0    0    0  501 -0.00000000000E+00 -0.00000000000E+00 -0.46148675017E+03  0.46148675017E+03  0.00000000000E+00 0.  1.
         25    2    1    2    0    0 -0.48056996098E+02  0.50329365726E+02 -0.24530839790E+03  0.28401777113E+03  0.12508942525E+03 0.  0.
          5    1    3    3  502    0 -0.22869428419E+02 -0.40942386525E+02 -0.10005331537E+03  0.11057770158E+03  0.41800000000E+01 0. -1.
         -5    1    3    3    0  502 -0.25187567679E+02  0.91271752251E+02 -0.14525508253E+03  0.17344006955E+03  0.41800000000E+01 0. -1.
        -11    1    1    2    0    0 -0.12259527509E+02 -0.26397494865E+02 -0.50411220128E+01  0.29538731541E+02  0.00000000000E+00 0. -1.
         11    1    1    2    0    0  0.60316523607E+02 -0.23931870861E+02 -0.17367019272E+03  0.18539728504E+03  0.00000000000E+00 0.  1.
</event>
<event>
 7    1  0.2334784E-009  0.1193713E+03  0.7561462E-02  0.1244138E+00
         -1   -1    0    0    0  501 -0.00000000000E+00  0.00000000000E+00  0.19004542333E+03  0.19004542333E+03  0.00000000000E+00 0.  1.
          1   -1    0    0  501    0  0.00000000000E+00 -0.00000000000E+00 -0.98267001543E+02  0.98267001543E+02  0.00000000000E+00 0. -1.
         25    2    1    2    0    0  0.74864006957E+02 -0.26157830655E+02  0.33216272795E+02  0.15178487720E+03  0.12508587661E+03 0.  0.
          5    1    3    3  502    0  0.88494731279E+02 -0.40251694966E+02  0.62971022837E+02  0.11590659398E+03  0.41800000000E+01 0.  1.
         -5    1    3    3    0  502 -0.13630724322E+02  0.14093864311E+02 -0.29754750042E+02  0.35878283220E+02  0.41800000000E+01 0.  1.
        -11    1    1    2    0    0 -0.14527766001E+02 -0.33513419331E+02  0.68808592570E+01  0.37169227654E+02  0.00000000000E+00 0. -1.
         11    1    1    2    0    0 -0.60336240956E+02  0.59671249986E+02  0.51681289735E+02  0.99358320015E+02  0.00000000000E+00 0.  1.
</event>
<event>
 7    1  0.2334784E-009  0.9191799E+02  0.7561462E-02  0.1298272E+00
          1   -1    0    0  501    0  0.00000000000E+00  0.00000000000E+00  0.40716249632E+03  0.40716249632E+03  0.00000000000E+00 0. -1.
         -1   -1    0    0    0  501 -0.00000000000E+00 -0.00000000000E+00 -0.29285351699E+02  0.29285351699E+02  0.00000000000E+00 0.  1.
         25    2    1    2    0    0  0.25759720437E+01 -0.13016035446E+02  0.20636717798E+03  0.24168534175E+03  0.12509332300E+03 0.  0.
          5    1    3    3  502    0  0.33379054493E+02 -0.57228278347E+02  0.78123164910E+02  0.10251799070E+03  0.41800000000E+01 0. -1.
         -5    1    3    3    0  502 -0.30803082449E+02  0.44212242901E+02  0.12824401307E+03  0.13916735105E+03  0.41800000000E+01 0. -1.
        -11    1    1    2    0    0  0.24898865755E+01  0.37915342991E+02  0.16388718766E+03  0.16823430996E+03  0.00000000000E+00 0. -1.
         11    1    1    2    0    0 -0.50658586192E+01 -0.24899307545E+02  0.76227789784E+01  0.26528196303E+02  0.00000000000E+00 0.  1.
</event>
<event>
 7    1  0.2917560E-009  0.1253612E+03  0.7561462E-02  0.1234506E+00
          1   -1    0    0  501    0  0.00000000000E+00  0.00000000000E+00  0.56446161625E+02  0.56446161625E+02  0.00000000000E+00 0. -1.
         -1   -1    0    0    0  501 -0.00000000000E+00 -0.00000000000E+00 -0.41698751135E+03  0.41698751135E+03  0.00000000000E+00 0.  1.
         25    2    1    2    0    0 -0.85766515023E+02  0.57819095316E+02 -0.24411266400E+03  0.29315033516E+03  0.12508870212E+03 0.  0.
          5    1    3    3  502    0 -0.70508039800E+02  0.69936633634E+02 -0.79348989462E+02  0.12718589123E+03  0.41800000000E+01 0. -1.
         -5    1    3    3    0  502 -0.15258475222E+02 -0.12117538318E+02 -0.16476367454E+03  0.16596444393E+03  0.41800000000E+01 0. -1.
        -11    1    1    2    0    0  0.53405560982E+02  0.11737551429E+02 -0.22810516380E+02  0.59247309769E+02  0.00000000000E+00 0. -1.
         11    1    1    2    0    0  0.32360954041E+02 -0.69556646745E+02 -0.93618169343E+02  0.12103602804E+03  0.00000000000E+00 0.  1.
</event>
<event>
 7    1  0.2334784E-009  0.1078333E+03  0.7561462E-02  0.1264636E+00
          2   -1    0    0  501    0  0.00000000000E+00  0.00000000000E+00  0.81883105326E+03  0.81883105326E+03  0.00000000000E+00 0.  1.
         -2   -1    0    0    0  501 -0.00000000000E+00 -0.00000000000E+00 -0.35097496037E+02  0.35097496037E+02  0.00000000000E+00 0. -1.
         25    2    1    2    0    0 -0.33920038888E+02  0.23713673045E+02  0.71159010801E+03  0.72368573749E+03  0.12509059719E+03 0.  0.
          5    1    3    3  502    0  0.33997088256E+02 -0.23620627709E+02  0.13796118475E+03  0.14409891381E+03  0.41800000000E+01 0.  1.
         -5    1    3    3    0  502 -0.67917127144E+02  0.47334300754E+02  0.57362892326E+03  0.57958682368E+03  0.41800000000E+01 0.  1.
        -11    1    1    2    0    0  0.48158444727E+02  0.14577205163E+02  0.35954310589E+01  0.50444601628E+02  0.00000000000E+00 0. -1.
         11    1    1    2    0    0 -0.14238405839E+02 -0.38290878208E+02  0.68548018161E+02  0.79798210184E+02  0.00000000000E+00 0.  1.
</event>
<event>
 7    1  0.2334784E-009  0.7670793E+02  0.7561462E-02  0.1338662E+00
          2   -1    0    0  501    0  0.00000000000E+00  0.00000000000E+00  0.28121625803E+03  0.28121625803E+03  0.00000000000E+00 0. -1.
         -2   -1    0    0    0  501 -0.00000000000E+00 -0.00000000000E+00 -0.45861281116E+02  0.45861281116E+02  0.00000000000E+00 0.  1.
         25    2    1    2    0    0 -0.17443209349E+02 -0.38593757018E+01  0.17416184370E+03  0.21517094152E+03  0.12508807275E+03 0.  0.
          5    1    3    3  502    0 -0.24420590716E+02  0.51996707074E+02  0.13412228860E+03  0.14596672051E+03  0.41800000000E+01 0.  1.
         -5    1    3    3    0  502  0.69773813665E+01 -0.55856082776E+02  0.40039555094E+02  0.69204221013E+02  0.41800000000E+01 0.  1.
        -11    1    1    2    0    0  0.28076795652E+02  0.55091458368E+01  0.82889211764E+02  0.87688531569E+02  0.00000000000E+00 0. -1.
         11    1    1    2    0    0 -0.10633586303E+02 -0.16497701350E+01 -0.21696078544E+02  0.24218066053E+02  0.00000000000E+00 0.  1.
</event>
<event>
 7    1  0.2334784E-009  0.1650987E+03  0.7561462E-02  0.1183058E+00
          1   -1    0    0  501    0  0.00000000000E+00  0.00000000000E+00  0.53220384160E+03  0.53220384160E+03  0.00000000000E+00 0. -1.
         -1   -1    0    0    0  501 -0.00000000000E+00 -0.00000000000E+00 -0.88212006664E+02  0.88212006664E+02  0.00000000000E+00 0.  1.
         25    2    1    2    0    0 -0.62566463098E+02  0.12323010863E+03  0.50212686248E+02  0.19305284735E+03  0.12509143070E+03 0.  0.
          5    1    3    3  502    0 -0.88264491506E+02  0.48752730732E+02  0.27050621976E+01  0.10095661928E+03  0.41800000000E+01 0. -1.
         -5    1    3    3    0  502  0.25698028408E+02  0.74477377898E+02  0.47507624051E+02  0.92096228075E+02  0.41800000000E+01 0. -1.
        -11    1    1    2    0    0  0.66454778338E+02 -0.68238047642E+02  0.32792968884E+03  0.34148286858E+03  0.00000000000E+00 0.  1.
         11    1    1    2    0    0 -0.38883152406E+01 -0.54992060988E+02  0.65849459845E+02  0.85880132330E+02  0.00000000000E+00 0. -1.
</event>
<event>
 7    1  0.2334784E-009  0.1055617E+03  0.7561462E-02  0.1269017E+00
          1   -1    0    0  501    0  0.00000000000E+00  0.00000000000E+00  0.13899065888E+03  0.13899065888E+03  0.00000000000E+00 0. -1.
         -1   -1    0    0    0  501 -0.00000000000E+00 -0.00000000000E+00 -0.15596212197E+03  0.15596212197E+03  0.00000000000E+00 0.  1.
         25    2    1    2    0    0 -0.17345919391E+02  0.79005568993E+02  0.47873760320E+02  0.15646770268E+03  0.12508990448E+03 0.  0.
          5    1    3    3  502    0 -0.54492987816E+02  0.16061658065E+02 -0.16154501329E+02  0.59210665375E+02  0.41800000000E+01 0.  1.
         -5    1    3    3    0  502  0.37147068425E+02  0.62943910928E+02  0.64028261649E+02  0.97257037305E+02  0.41800000000E+01 0.  1.
        -11    1    1    2    0    0  0.10883097459E+02 -0.56404604128E+02  0.11515752864E+02  0.58587829292E+02  0.00000000000E+00 0. -1.
         11    1    1    2    0    0  0.64628219321E+01 -0.22600964865E+02 -0.76360976271E+02  0.79897248872E+02  0.00000000000E+00 0.  1.
</event>
<event>
 7    1  0.2334784E-009  0.1004916E+03  0.7561462E-02  0.1279266E+00
          3   -1    0    0  501    0  0.00000000000E+00  0.00000000000E+00  0.76627533459E+02  0.76627533459E+02  0.00000000000E+00 0. -1.
         -3   -1    0    0    0  501 -0.00000000000E+00 -0.00000000000E+00 -0.17529337668E+03  0.17529337668E+03  0.00000000000E+00 0.  1.
         25    2    1    2    0    0  0.19498717032E+02 -0.34991025312E+02 -0.47420029590E+02  0.13964532764E+03  0.12509031340E+03 0.  0.
          5    1    3    3  502    0 -0.92821399913E+01 -0.64409623370E+02  0.12929786071E+02  0.66478639226E+02  0.41800000000E+01 0.  1.
         -5    1    3    3    0  502  0.28780857023E+02  0.29418598058E+02 -0.60349815661E+02  0.73166688411E+02  0.41800000000E+01 0.  1.
        -11    1    1    2    0    0  0.16917992126E+02 -0.21399575801E+02  0.86886520805E+00  0.27293135195E+02  0.00000000000E+00 0. -1.
         11    1    1    2    0    0 -0.36416709158E+02  0.56390601113E+02 -0.52114678838E+02  0.84982447306E+02  0.00000000000E+00 0.  1.
</event>
<event>
 6    1  0.2334784E-009  0.1089011E+03  0.7561462E-02  0.1262619E+00
          2   -1    0    0  501    0  0.00000000000E+00  0.00000000000E+00  0.99646254502E+03  0.99646254502E+03  0.00000000000E+00 0. -1.
         -2   -1    0    0    0  501 -0.00000000000E+00 -0.00000000000E+00 -0.14953574124E+02  0.14953574124E+02  0.00000000000E+00 0.  1.
          5    1    1    2  502    0  0.26495845822E+01 -0.38369282504E+02  0.66410670718E+02  0.76857476693E+02  0.41800000000E+01 0.  1.
         -5    1    1    2    0  502 -0.60508333661E+02  0.42338305633E+02  0.53826181694E+03  0.54332039033E+03  0.41800000000E+01 0.  1.
        -11    1    1    2    0    0 -0.17512062234E+02 -0.21534706806E+02  0.10345090568E+03  0.10710978390E+03  0.00000000000E+00 0.  1.
         11    1    1    2    0    0  0.75370811313E+02  0.17565683677E+02  0.27338557755E+03  0.28412846823E+03  0.00000000000E+00 0. -1.
</event>
<event>
 7    1  0.2334784E-009  0.2524873E+03  0.7561462E-02  0.1111743E+00
         -2   -1    0    0    0  501 -0.00000000000E+00  0.00000000000E+00  0.46817394418E+02  0.46817394418E+02  0.00000000000E+00 0.  1.
          2   -1    0    0  501    0  0.00000000000E+00 -0.00000000000E+00 -0.19477090918E+04  0.19477090918E+04  0.00000000000E+00 0. -1.
         25    2    1    2    0    0 -0.91225044504E+02 -0.21266442205E+03 -0.14867247675E+04  0.15098167015E+04  0.12509105743E+03 0.  0.
          5    1    3    3  502    0 -0.70218661123E+01 -0.16251593834E+03 -0.82924145843E+03  0.84505597778E+03  0.41800000000E+01 0. -1.
         -5    1    3    3    0  502 -0.84203178392E+02 -0.50148483717E+02 -0.65748330909E+03  0.66476072372E+03  0.41800000000E+01 0. -1.
        -11    1    1    2    0    0  0.73110114857E+02  0.72968326801E+02 -0.23575628388E+03  0.25739170732E+03  0.00000000000E+00 0.  1.
         11    1    1    2    0    0  0.18114929647E+02  0.13969609525E+03 -0.17841064597E+03  0.22731807737E+03  0.00000000000E+00 0. -1.
</event>
<event>
 7    1  0.2334784E-009  0.7194596E+02  0.7561462E-02  0.1353598E+00
         -1   -1    0    0    0  501 -0.00000000000E+00  0.00000000000E+00  0.23151713578E+03  0.23151713578E+03  0.00000000000E+00 0.  1.
          1   -1    0    0  501    0  0.00000000000E+00 -0.00000000000E+00 -0.71287663455E+02  0.71287663455E+02  0.00000000000E+00 0. -1.
         25    2    1    2    0    0 -0.19446698331E+02 -0.11546484740E+02  0.16607921778E+03  0.20914190693E+03  0.12508611142E+03 0.  0.
          5    1    3    3  502    0  0.38300067941E+02 -0.10844714994E+02  0.14005217398E+03  0.14565914624E+03  0.41800000000E+01 0.  1.
         -5    1    3    3    0  502 -0.57746766272E+02 -0.70176974621E+00  0.26027043808E+02  0.63482760692E+02  0.41800000000E+01 0.  1.
        -11    1    1    2    0    0  0.31848695758E+02  0.61363244707E+01  0.36720669314E+02  0.48993892011E+02  0.00000000000E+00 0.  1.
         11    1    1    2    0    0 -0.12401997427E+02  0.54101602696E+01 -0.42570414766E+02  0.44669000299E+02  0.00000000000E+00 0. -1.
</event>
<event>
 7    1  0.2513042E-009  0.1086997E+03  0.7561462E-02  0.1262997E+00
         -4   -1    0    0    0  501 -0.00000000000E+00  0.00000000000E+00  0.51910705802E+02  0.51910705802E+02  0.00000000000E+00 0.  1.
          4   -1    0    0  501    0  0.00000000000E+00 -0.00000000000E+00 -0.27246136323E+03  0.27246136323E+03  0.00000000000E+00 0. -1.
         25    2    1    2    0    0  0.46417810214E+02  0.15481010397E+02 -0.12912434179E+03  0.18632060285E+03  0.12509195264E+03 0.  0.
          5    1    3    3  502    0 -0.15985553476E+01 -0.41004050509E+02 -0.48215750277E+01  0.41528394179E+02  0.41800000000E+01 0.  1.
         -5    1    3    3    0  502  0.48016365562E+02  0.56485060906E+02 -0.12430276677E+03  0.14479220867E+03  0.41800000000E+01 0.  1.
        -11    1    1    2    0    0 -0.24590638745E+02 -0.53036785689E+02 -0.40513198160E+02  0.71126080837E+02  0.00000000000E+00 0. -1.
         11    1    1    2    0    0 -0.21827171469E+02  0.37555775292E+02 -0.50913117476E+02  0.66925385343E+02  0.00000000000E+00 0.  1.
</event>
<event>
 7    1  0.2334784E-009  0.1379346E+03  0.7561462E-02  0.1216135E+00
          2   -1    0    0  501    0  0.00000000000E+00  0.00000000000E+00  0.13217085722E+04  0.13217085722E+04  0.00000000000E+00 0. -1.
         -2   -1    0    0    0  501 -0.00000000000E+00 -0.00000000000E+00 -0.14458838588E+02  0.14458838588E+02  0.00000000000E+00 0.  1.
         25    2    1    2    0    0 -0.23251651633E+02  0.81623092845E+02  0.67608974951E+03  0.69278177414E+03  0.12508504546E+03 0.  0.
          5    1    3    3  502    0  0.51086642342E+02  0.44833575048E+02  0.30904679577E+03  0.31646056445E+03  0.41800000000E+01 0. -1.
         -5    1    3    3    0  502 -0.74338293975E+02  0.36789517797E+02  0.36704295375E+03  0.37632120970E+03  0.41800000000E+01 0. -1.
        -11    1    1    2    0    0 -0.68312980199E+01  0.18740571867E+02  0.11105116621E+03  0.11282835275E+03  0.00000000000E+00 0. -1.
         11    1    1    2    0    0  0.30082949653E+02 -0.10036366471E+03  0.52010881788E+03  0.53055728389E+03  0.00000000000E+00 0.  1.
</event>
<event>
 7    1  0.2334784E-009  0.8016221E+02  0.7561462E-02  0.1328592E+00
          2   -1    0    0  501    0  0.00000000000E+00  0.00000000000E+00  0.62156554263E+02  0.62156554263E+02  0.00000000000E+00 0. -1.
         -2   -1    0    0    0  501 -0.00000000000E+00 -0.00000000000E+00 -0.28802496246E+03  0.28802496246E+03  0.00000000000E+00 0.  1.
         25    2    1    2    0    0 -0.23254128527E+02  0.44296630140E+02 -0.20471861081E+03  0.24507480780E+03  0.12509598663E+03 0.  0.
          5    1    3    3  502    0  0.29700292027E+01  0.26426832511E+02  0.94479994818E+01  0.28529557379E+02  0.41800000000E+01 0. -1.
         -5    1    3    3    0  502 -0.26224157729E+02  0.17869797629E+02 -0.21416661029E+03  0.21654525042E+03  0.41800000000E+01 0. -1.
        -11    1    1    2    0    0  0.14968342353E+02  0.26329173868E+02  0.19215153257E+01  0.30347469260E+02  0.00000000000E+00 0.  1.
         11    1    1    2    0    0  0.82857861738E+01 -0.70625804008E+02 -0.23071312708E+02  0.74759239659E+02  0.00000000000E+00 0. -1.
</event>
<event>
 7    1  0.2334784E-009  0.1183501E+03  0.7561462E-02  0.1245844E+00
          2   -1    0    0  501    0  0.00000000000E+00  0.00000000000E+00  0.32713430300E+03  0.32713430300E+03  0.00000000000E+00 0. -1.
         -2   -1    0    0    0  501 -0.00000000000E+00 -0.00000000000E+00 -0.44176893162E+02  0.44176893162E+02  0.00000000000E+00 0.  1.
         25    2    1    2    0    0 -0.36142564506E+02  0.26551449991E+02  0.14730545333E+03  0.19838905391E+03  0.12509218867E+03 0.  0.
          5    1    3    3  502    0  0.55837169265E+01 -0.47344085306E+02  0.56140337772E+02  0.73768897466E+02  0.41800000000E+01 0. -1.
         -5    1    3    3    0  502 -0.41726281433E+02  0.73895535297E+02  0.91165115555E+02  0.12462015645E+03  0.41800000000E+01 0. -1.
        -11    1    1    2    0    0  0.66614174368E+02 -0.54945198527E+01  0.10671428221E+03  0.12591892631E+03  0.00000000000E+00 0.  1.
         11    1    1    2    0    0 -0.30471609862E+02 -0.21056930139E+02  0.28937674296E+02  0.47003215933E+02  0.00000000000E+00 0. -1.
</event>
<event>
 7    1  0.2334784E-009  0.1130427E+03  0.7561462E-02  0.1255037E+00
          3   -1    0    0  501    0  0.00000000000E+00  0.00000000000E+00  0.84482768360E+02  0.84482768360E+02  0.00000000000E+00 0. -1.
         -3   -1    0    0    0  501 -0.00000000000E+00 -0.00000000000E+00 -0.17308743084E+03  0.17308743084E+03  0.00000000000E+00 0.  1.
         25    2    1    2    0    0  0.63093630142E+02 -0.15605411874E+02 -0.61353985499E+02  0.15373479106E+03  0.12508293009E+03 0.  0.
          5    1    3    3  502    0  0.29625284921E+02  0.46468741495E+02 -0.62038584587E+02  0.83085858125E+02  0.41800000000E+01 0.  1.
         -5    1    3    3    0  502  0.33468345221E+02 -0.62074153369E+02  0.68459908809E+00  0.70648932931E+02  0.41800000000E+01 0.  1.
        -11    1    1    2    0    0 -0.80780900662E+02  0.16554914271E+02 -0.23281215497E+02  0.85683336147E+02  0.00000000000E+00 0. -1.
         11    1    1    2    0    0  0.17687270519E+02 -0.94950239688E+00 -0.39694614787E+01  0.18152071994E+02  0.00000000000E+00 0.  1.
</event>
<event>
 7    1  0.2334784E-009  0.1334909E+03  0.7561462E-02  0.1222366E+00
         -2   -1    0    0    0  501 -0.00000000000E+00  0.00000000000E+00  0.97323326744E+02  0.97323326744E+02  0.00000000000E+00 0.  1.
          2   -1    0    0  501    0  0.00000000000E+00 -0.00000000000E+00 -0.30203642459E+03  0.30203642459E+03  0.00000000000E+00 0. -1.
         25    2    1    2    0    0  0.67469096540E+02  0.98233200269E+02 -0.18002501864E+03  0.24951572494E+03  0.12508896447E+03 0.  0.
          5    1    3    3  502    0  0.51928209399E+01  0.10921151028E+02 -0.13082400178E+03  0.13144819805E+03  0.41800000000E+01 0.  1.
         -5    1    3    3    0  502  0.62276275600E+02  0.87312049241E+02 -0.49201016859E+02  0.11806752689E+03  0.41800000000E+01 0.  1.
        -11    1    1    2    0    0 -0.75632845686E+02 -0.35416514288E+02 -0.22361741691E+02  0.86456372364E+02  0.00000000000E+00 0.  1.
         11    1    1    2    0    0  0.81637491455E+01 -0.62816685980E+02 -0.23263375181E+01  0.63387654034E+02  0.00000000000E+00 0. -1.
</event>
<event>
 7    1  0.2334784E-009  0.1124082E+03  0.7561462E-02  0.1256174E+00
          2   -1    0    0  501    0  0.00000000000E+00  0.00000000000E+00  0.13601080869E+04  0.13601080869E+04  0.00000000000E+00 0. -1.
         -2   -1    0    0    0  501 -0.00000000000E+00 -0.00000000000E+00 -0.12252688691E+02  0.12252688691E+02  0.00000000000E+00 0.  1.
         25    2    1    2    0    0 -0.59553099658E+02 -0.60124119336E+00  0.95804476598E+03  0.96801015788E+03  0.12508780500E+03 0.  0.
          5    1    3    3  502    0 -0.36969519833E+02 -0.62245100298E+02  0.53082006179E+03  0.53575050939E+03  0.41800000000E+01 0.  1.
         -5    1    3    3    0  502 -0.22583579825E+02  0.61643859104E+02  0.42722470419E+03  0.43225964849E+03  0.41800000000E+01 0.  1.
        -11    1    1    2    0    0 -0.11692017214E+02 -0.88273169962E+01  0.98506471567E+01  0.17653895924E+02  0.00000000000E+00 0.  1.
         11    1    1    2    0    0  0.71245116872E+02  0.94285581895E+01  0.37995998502E+03  0.38669672174E+03  0.00000000000E+00 0. -1.
</event>
<event>
 7    1  0.2334784E-009  0.1039198E+03  0.7561462E-02  0.1272263E+00
          4   -1    0    0  501    0  0.00000000000E+00  0.00000000000E+00  0.97528728109E+02  0.97528728109E+02  0.00000000000E+00 0.  1.
         -4   -1    0    0    0  501 -0.00000000000E+00 -0.00000000000E+00 -0.15029071771E+03  0.15029071771E+03  0.00000000000E+00 0. -1.
         25    2    1    2    0    0 -0.10957266035E+02 -0.70446109138E+01  0.18795251336E+02  0.12716742881E+03  0.12509438539E+03 0.  0.
          5    1    3    3  502    0 -0.20995743819E+01  0.51312390523E+02 -0.21231272248E+02  0.55727990768E+02  0.41800000000E+01 0. -1.
         -5    1    3    3    0  502 -0.88576916530E+01 -0.58357001437E+02  0.40026523584E+02  0.71439438046E+02  0.41800000000E+01 0. -1.
        -11    1    1    2    0    0  0.65861272969E+01  0.51777747276E+02 -0.38284818948E+02  0.64730514810E+02  0.00000000000E+00 0.  1.
         11    1    1    2    0    0  0.43711387380E+01 -0.44733136362E+02 -0.33272421989E+02  0.55921502194E+02  0.00000000000E+00 0. -1.
</event>
<event>
 7    1  0.2334784E-009  0.2660472E+03  0.7561462E-02  0.1103563E+00
         -1   -1    0    0    0  501 -0.00000000000E+00  0.00000000000E+00  0.53891277490E+02  0.53891277490E+02  0.00000000000E+00 0.  1.
          1   -1    0    0  501    0  0.00000000000E+00 -0.00000000000E+00 -0.14860563807E+04  0.14860563807E+04  0.00000000000E+00 0. -1.
         25    2    1    2    0    0  0.25488681924E+03 -0.39138900346E+02 -0.62750174921E+03  0.68985962144E+03  0.12509479557E+03 0.  0.
          5    1    3    3  502    0  0.19348220743E+03 -0.29326315687E+02 -0.31241275173E+03  0.36866596972E+03  0.41800000000E+01 0.  1.
         -5    1    3    3    0  502  0.61404611806E+02 -0.98125846596E+01 -0.31508899748E+03  0.32119365172E+03  0.41800000000E+01 0.  1.
        -11    1    1    2    0    0 -0.17959950599E+03 -0.16590600952E+02 -0.51699927918E+03  0.54755774606E+03  0.00000000000E+00 0.  1.
         11    1    1    2    0    0 -0.75287313244E+02  0.55729501298E+02 -0.28766407480E+03  0.30253029068E+03  0.00000000000E+00 0. -1.
</event>
<event>
 7    1  0.2334784E-009  0.8877467E+02  0.7561462E-02  0.1305846E+00
          2   -1    0    0  501    0  0.00000000000E+00  0.00000000000E+00  0.13179139652E+03  0.13179139652E+03  0.00000000000E+00 0. -1.
         -2   -1    0    0    0  501 -0.00000000000E+00 -0.00000000000E+00 -0.13373160114E+03  0.13373160114E+03  0.00000000000E+00 0.  1.
         25    2    1    2    0    0 -0.31420575348E+02 -0.47423272263E+01  0.67259857748E+02  0.14553829170E+03  0.12509102151E+03 0.  0.
          5    1    3    3  502    0 -0.20849191418E+02 -0.61447751301E+02  0.13151777863E+02  0.66339705936E+02  0.41800000000E+01 0. -1.
         -5    1    3    3    0  502 -0.10571383930E+02  0.56705424075E+02  0.54108079885E+02  0.79198585761E+02  0.41800000000E+01 0. -1.
        -11    1    1    2    0    0  0.28015865007E+00  0.20009265702E+02 -0.80934598145E+02  0.83371808063E+02  0.00000000000E+00 0.  1.
         11    1    1    2    0    0  0.31140416698E+02 -0.15266938475E+02  0.11734535779E+02  0.36612897898E+02  0.00000000000E+00 0. -1.
</event>
<event>
 7    1  0.2334784E-009  0.1004658E+03  0.7561462E-02  0.1279320E+00
         -2   -1    0    0    0  501 -0.00000000000E+00  0.00000000000E+00  0.55191762364E+02  0.55191762364E+02  0.00000000000E+00 0.  1.
          2   -1    0    0  501    0  0.00000000000E+00 -0.00000000000E+00 -0.47832122417E+03  0.47832122417E+03  0.00000000000E+00 0. -1.
         25    2    1    2    0    0 -0.49355432497E+02  0.29150735160E+02 -0.39612021240E+03  0.41933771897E+03  0.12508867176E+03 0.  0.
          5    1    3    3  502    0 -0.39248006435E+02  0.55089906557E+02 -0.93858039227E+02  0.11576747273E+03  0.41800000000E+01 0.  1.
         -5    1    3    3    0  502 -0.10107426061E+02 -0.25939171397E+02 -0.30226217317E+03  0.30357024624E+03  0.41800000000E+01 0.  1.
        -11    1    1    2    0    0  0.69834778524E+02 -0.55389222136E+00 -0.34983270935E+02  0.78109105317E+02  0.00000000000E+00 0. -1.
         11    1    1    2    0    0 -0.20479346027E+02 -0.28596842939E+02  0.79740215295E+01  0.36066162246E+02  0.00000000000E+00 0.  1.
</event>
<event>
 7    1  0.2334784E-009  0.1182758E+03  0.7561462E-02  0.1245969E+00
          2   -1    0    0  501    0  0.00000000000E+00  0.00000000000E+00  0.58581645059E+03  0.58581645059E+03  0.00000000000E+00 0. -1.
         -2   -1    0    0    0  501 -0.00000000000E+00 -0.00000000000E+00 -0.85508338456E+02  0.85508338456E+02  0.00000000000E+00 0.  1.
         25    2    1    2    0    0 -0.10737219898E+03 -0.13047117181E+02  0.13614859954E+02  0.16592673284E+03  0.12508916770E+03 0.  0.
          5    1    3    3  502    0 -0.52805808149E+02 -0.59358372442E+00  0.69056872183E+02  0.87035221098E+02  0.41800000000E+01 0. -1.
         -5    1    3    3    0  502 -0.54566390836E+02 -0.12453533456E+02 -0.55442012230E+02  0.78891511739E+02  0.41800000000E+01 0. -1.
        -11    1    1    2    0    0  0.82099709241E+02 -0.21291737001E+02  0.22901479408E+03  0.24421604417E+03  0.00000000000E+00 0.  1.
         11    1    1    2    0    0  0.25272489743E+02  0.34338854182E+02  0.25767845810E+03  0.26118201204E+03  0.00000000000E+00 0. -1.
</event>
<event>
 7    1  0.2334784E-009  0.6569066E+02  0.7561462E-02  0.1375392E+00
         -2   -1    0    0    0  501 -0.00000000000E+00  0.00000000000E+00  0.21059262250E+03  0.21059262250E+03  0.00000000000E+00 0.  1.
          2   -1    0    0  501    0  0.00000000000E+00 -0.00000000000E+00 -0.75437094544E+02  0.75437094544E+02  0.00000000000E+00 0. -1.
         25    2    1    2    0    0 -0.19801755974E+02  0.21549711858E+02  0.18198943799E+01  0.12848188678E+03  0.12509110118E+03 0.  0.
          5    1    3    3  502    0 -0.29190031867E+02  0.10481758767E+01 -0.57639655722E+02  0.64753061278E+02  0.41800000000E+01 0. -1.
         -5    1    3    3    0  502  0.93882758924E+01  0.20501535982E+02  0.59459550102E+02  0.63728825504E+02  0.41800000000E+01 0. -1.
        -11    1    1    2    0    0  0.27983047680E+02 -0.45620343912E+02  0.62472353741E+02  0.82262152404E+02  0.00000000000E+00 0. -1.
         11    1    1    2    0    0 -0.81812917057E+01  0.24070632054E+02  0.70863279833E+02  0.75285677855E+02  0.00000000000E+00 0.  1.
</event>
<event>
 7    1  0.2334784E-009  0.1159696E+03  0.7561462E-02  0.1249898E+00
         -1   -1    0    0    0  501 -0.00000000000E+00  0.00000000000E+00  0.17256212947E+03  0.17256212947E+03  0.00000000000E+00 0.  1.
          1   -1    0    0  501    0  0.00000000000E+00 -0.00000000000E+00 -0.45190135846E+03  0.45190135846E+03  0.00000000000E+00 0. -1.
         25    2    1    2    0    0  0.80613853417E+02 -0.30462972356E+02  0.12934539821E+03  0.19950420946E+03  0.12508042016E+03 0.  0.
          5    1    3    3  502    0  0.10823159633E+03 -0.36324597775E+02  0.12706893248E+03  0.17087287921E+03  0.41800000000E+01 0.  1.
         -5    1    3    3    0  502 -0.27617742909E+02  0.58616254183E+01  0.22764657273E+01  0.28631330254E+02  0.41800000000E+01 0.  1.
        -11    1    1    2    0    0 -0.88375701273E+01  0.12252453965E+02 -0.72586584280E+01  0.16760471237E+02  0.00000000000E+00 0.  1.
         11    1    1    2    0    0 -0.71776283290E+02  0.18210518391E+02 -0.40142596877E+03  0.40819880723E+03  0.00000000000E+00 0. -1.
</event>
<event>
 7    1  0.2334784E-009  0.1410783E+03  0.7561462E-02  0.1211885E+00
         -1   -1    0    0    0  501 -0.00000000000E+00  0.00000000000E+00  0.32226562948E+02  0.32226562948E+02  0.00000000000E+00 0.  1.
          1   -1    0    0  501    0  0.00000000000E+00 -0.00000000000E+00 -0.80845334264E+03  0.80845334264E+03  0.00000000000E+00 0. -1.
         25    2    1    2    0    0  0.91801736701E+02 -0.65362953052E+02 -0.56387400198E+03  0.58847437711E+03  0.12509327687E+03 0.  0.
          5    1    3    3  502    0  0.45805405346E+02 -0.96729433813E+02 -0.43564081560E+03  0.44861465774E+03  0.41800000000E+01 0. -1.
         -5    1    3    3    0  502  0.45996331355E+02  0.31366480762E+02 -0.12823318638E+03  0.13985971937E+03  0.41800000000E+01 0. -1.
        -11    1    1    2    0    0 -0.49370966867E+02  0.57976178744E+02 -0.69838167206E+02  0.10332521120E+03  0.00000000000E+00 0.  1.
         11    1    1    2    0    0 -0.42430769835E+02  0.73867743077E+01 -0.14251461051E+03  0.14888031727E+03  0.00000000000E+00 0. -1.
</event>
<event>
 7    1  0.2334784E-009  0.1208289E+03  0.7561462E-02  0.1241736E+00
          1   -1    0    0  501    0  0.00000000000E+00  0.00000000000E+00  0.83422076996E+03  0.83422076996E+03  0.00000000000E+00 0. -1.
         -1   -1    0    0    0  501 -0.00000000000E+00 -0.00000000000E+00 -0.22088956869E+02  0.22088956869E+02  0.00000000000E+00 0.  1.
         25    2    1    2    0    0  0.56417587462E+02  0.17930392592E+02  0.30860598272E+03  0.33821466934E+03  0.12508823620E+03 0.  0.
          5    1    3    3  502    0  0.37407310031E+02  0.61962778334E+02  0.25953577321E+03  0.26947167331E+03  0.41800000000E+01 0. -1.
         -5    1    3    3    0  502  0.19010277430E+02 -0.44032385742E+02  0.49070209510E+02  0.68742996032E+02  0.41800000000E+01 0. -1.
        -11    1    1    2    0    0 -0.81442885316E+02  0.11647444725E+02  0.31016916639E+03  0.32089487113E+03  0.00000000000E+00 0.  1.
         11    1    1    2    0    0  0.25025297854E+02 -0.29577837317E+02  0.19335666398E+03  0.19720018636E+03  0.00000000000E+00 0. -1.
</event>
<event>
 7    1  0.2334784E-009  0.9521671E+02  0.7561462E-02  0.1290689E+00
          1   -1    0    0  501    0  0.00000000000E+00  0.00000000000E+00  0.59102636949E+03  0.59102636949E+03  0.00000000000E+00 0. -1.
         -1   -1    0    0    0  501 -0.00000000000E+00 -0.00000000000E+00 -0.22882457982E+02  0.22882457982E+02  0.00000000000E+00 0.  1.
         25    2    1    2    0    0  0.37890615863E+02 -0.15592783631E+02  0.35827497518E+03  0.38168834965E+03  0.12508479021E+03 0.  0.
          5    1    3    3  502    0  0.47686980864E+02  0.21556254039E+02  0.32911397171E+03  0.33327496007E+03  0.41800000000E+01 0. -1.
         -5    1    3    3    0  502 -0.97963650006E+01 -0.37149037671E+02  0.29161003469E+02  0.48413389577E+02  0.41800000000E+01 0. -1.
        -11    1    1    2    0    0 -0.55313380233E+02 -0.20676259634E+02  0.11924491119E+03  0.13306549737E+03  0.00000000000E+00 0.  1.
         11    1    1    2    0    0  0.17422764370E+02  0.36269043266E+02  0.90624025144E+02  0.99154980465E+02  0.00000000000E+00 0. -1.
</event>
<event>
 7    1  0.2334784E-009  0.9801411E+02  0.7561462E-02  0.1284528E+00
          2   -1    0    0  501    0  0.00000000000E+00  0.00000000000E+00  0.15885009159E+03  0.15885009159E+03  0.00000000000E+00 0.  1.
         -2   -1    0    0    0  501 -0.00000000000E+00 -0.00000000000E+00 -0.10316069831E+03  0.10316069831E+03  0.00000000000E+00 0. -1.
         25    2    1    2    0    0 -0.23773949701E+02  0.48845072723E+02 -0.99699278464E+01  0.13673793612E+03  0.12508725714E+03 0.  0.
          5    1    3    3  502    0 -0.48205136126E+02  0.41193355390E+02 -0.55477967521E+02  0.84355823495E+02  0.41800000000E+01 0. -1.
         -5    1    3    3    0  502  0.24431186425E+02  0.76517173331E+01  0.45508039675E+02  0.52382112627E+02  0.41800000000E+01 0. -1.
        -11    1    1    2    0    0  0.56048086278E+02 -0.48726398315E+02  0.48738693143E+02  0.88831920375E+02  0.00000000000E+00 0.  1.
         11    1    1    2    0    0 -0.32274136577E+02 -0.11867440879E+00  0.16920627982E+02  0.36440933395E+02  0.00000000000E+00 0. -1.
</event>
<event>
 7    1  0.2334784E-009  0.8807895E+02  0.7561462E-02  0.1307572E+00
         -2   -1    0    0    0  501 -0.00000000000E+00  0.00000000000E+00  0.83360597002E+02  0.83360597002E+02  0.00000000000E+00 0.  1.
          2   -1    0    0  501    0  0.00000000000E+00 -0.00000000000E+00 -0.15615110883E+03  0.15615110883E+03  0.00000000000E+00 0. -1.
         25    2    1    2    0    0  0.11417807008E+02  0.35333117957E+02 -0.36083454052E+02  0.13538491645E+03  0.12509302300E+03 0.  0.
          5    1    3    3  502    0  0.18101373847E+02  0.73618830724E+02  0.81407574472E+01  0.76361877296E+02  0.41800000000E+01 0.  1.
         -5    1    3    3    0  502 -0.66835668390E+01 -0.38285712767E+02 -0.44224211499E+02  0.59023039150E+02  0.41800000000E+01 0.  1.
        -11    1    1    2    0    0 -0.24450433088E+02 -0.40347948823E+02  0.15831909322E+02  0.49763741873E+02  0.00000000000E+00 0.  1.
         11    1    1    2    0    0  0.13032626080E+02  0.50148308657E+01 -0.52538967101E+02  0.54363047515E+02  0.00000000000E+00 0. -1.
</event>
<event>
 7    1  0.2608863E-009  0.5042466E+02  0.7561462E-02  0.1443064E+00
          1   -1    0    0  501    0  0.00000000000E+00  0.00000000000E+00  0.30764337575E+03  0.30764337575E+03  0.00000000000E+00 0. -1.
         -1   -1    0    0    0  501 -0.00000000000E+00 -0.00000000000E+00 -0.46226457604E+02  0.46226457604E+02  0.00000000000E+00 0.  1.
         25    2    1    2    0    0  0.36097719052E+02 -0.34644312866E+02  0.14436338186E+03  0.19748727269E+03  0.12512858633E+03 0.  0.
          5    1    3    3  502    0  0.21962394272E+02 -0.19784623053E+02  0.16524585484E+03  0.16792094275E+03  0.41800000000E+01 0. -1.
         -5    1    3    3    0  502  0.14135324780E+02 -0.14859689813E+02 -0.20882472986E+02  0.29566329938E+02  0.41800000000E+01 0. -1.
        -11    1    1    2    0    0 -0.17815660955E+02  0.18341785682E+02 -0.96520674657E+01  0.27330958337E+02  0.00000000000E+00 0.  1.
         11    1    1    2    0    0 -0.18282058097E+02  0.16302527184E+02  0.12670560375E+03  0.12905160233E+03  0.00000000000E+00 0. -1.
</event>
<event>
 7    1  0.2334784E-009  0.1434062E+03  0.7561462E-02  0.1208818E+00
         -1   -1    0    0    0  501 -0.00000000000E+00  0.00000000000E+00  0.38390792819E+02  0.38390792819E+02  0.00000000000E+00 0.  1.
          1   -1    0    0  501    0  0.00000000000E+00 -0.00000000000E+00 -0.66167549545E+03  0.66167549545E+03  0.00000000000E+00 0. -1.
         25    2    1    2    0    0 -0.49584541201E+02 -0.99161360024E+02 -0.27420854523E+03  0.32113723348E+03  0.12508874610E+03 0.  0.
          5    1    3    3  502    0 -0.17843492036E+02 -0.11071901874E+03 -0.12453002749E+03  0.16763738087E+03  0.41800000000E+01 0. -1.
         -5    1    3    3    0  502 -0.31741049165E+02  0.11557658715E+02 -0.14967851774E+03  0.15349985261E+03  0.41800000000E+01 0. -1.
        -11    1    1    2    0    0 -0.25009634151E+02  0.24595042490E+02 -0.14531182752E+03  0.14948553486E+03  0.00000000000E+00 0.  1.
         11    1    1    2    0    0  0.74594175352E+02  0.74566317534E+02 -0.20376432988E+03  0.22944351993E+03  0.00000000000E+00 0. -1.
</event>
<event>
 7    1  0.2334784E-009  0.2256345E+03  0.7561462E-02  0.1129751E+00
         -1   -1    0    0    0  501 -0.00000000000E+00  0.00000000000E+00  0.55893925774E+02  0.55893925774E+02  0.00000000000E+00 0.  1.
          1   -1    0    0  501    0  0.00000000000E+00 -0.00000000000E+00 -0.12773312837E+04  0.12773312837E+04  0.00000000000E+00 0. -1.
         25    2    1    2    0    0  0.20731041472E+03  0.87342840937E+02 -0.39395531344E+03  0.47058755571E+03  0.12508188792E+03 0.  0.
          5    1    3    3  502    0  0.49524228541E+02  0.14525567022E+02 -0.15386105825E+02  0.54017089540E+02  0.41800000000E+01 0.  1.
         -5    1    3    3    0  502  0.15778618618E+03  0.72817273915E+02 -0.37856920761E+03  0.41657046617E+03  0.41800000000E+01 0.  1.
        -11    1    1    2    0    0 -0.12892827177E+03 -0.44881728793E+02 -0.32820835437E+03  0.35546813179E+03  0.00000000000E+00 0.  1.
         11    1    1    2    0    0 -0.78382142950E+02 -0.42461112144E+02 -0.49927369008E+03  0.50716952194E+03  0.00000000000E+00 0. -1.
</event>
<event>
 7    1  0.2334784E-009  0.1887021E+03  0.7561462E-02  0.1159637E+00
         -3   -1    0    0    0  501 -0.00000000000E+00  0.00000000000E+00  0.99941279668E+03  0.99941279668E+03  0.00000000000E+00 0.  1.
          3   -1    0    0  501    0  0.00000000000E+00 -0.00000000000E+00 -0.48131858919E+02  0.48131858919E+02  0.00000000000E+00 0. -1.
         25    2    1    2    0    0  0.72490352650E+02 -0.13929208529E+03  0.75060645855E+03  0.77699108947E+03  0.12509181128E+03 0.  0.
          5    1    3    3  502    0  0.99815995035E+02 -0.68981481263E+02  0.38609417072E+03  0.40473183552E+03  0.41800000000E+01 0.  1.
         -5    1    3    3    0  502 -0.27325642386E+02 -0.70310604028E+02  0.36451228783E+03  0.37225925395E+03  0.41800000000E+01 0.  1.
        -11    1    1    2    0    0 -0.73248482803E+02  0.44607923600E+02  0.10969192504E+03  0.13923909472E+03  0.00000000000E+00 0.  1.
         11    1    1    2    0    0  0.75813015365E+00  0.94684161691E+02  0.90982554173E+02  0.13131447140E+03  0.00000000000E+00 0. -1.
</event>
<event>
 7    1  0.2334784E-009  0.1046221E+03  0.7561462E-02  0.1270866E+00
         -1   -1    0    0    0  501 -0.00000000000E+00  0.00000000000E+00  0.79920586398E+02  0.79920586398E+02  0.00000000000E+00 0.  1.
          1   -1    0    0  501    0  0.00000000000E+00 -0.00000000000E+00 -0.15834000984E+03  0.15834000984E+03  0.00000000000E+00 0. -1.
         25    2    1    2    0    0  0.21912333773E+02 -0.14434315348E+02 -0.35397210168E+02  0.13263906360E+03  0.12510659005E+03 0.  0.
          5    1    3    3  502    0  0.74819504289E+01 -0.62808926056E+02  0.10535542185E+02  0.64260491935E+02  0.41800000000E+01 0.  1.
         -5    1    3    3    0  502  0.14430383344E+02  0.48374610708E+02 -0.45932752353E+02  0.68378571668E+02  0.41800000000E+01 0.  1.
        -11    1    1    2    0    0 -0.56870135262E+02  0.18965489562E+02 -0.35180859014E+02  0.69509675010E+02  0.00000000000E+00 0.  1.
         11    1    1    2    0    0  0.34957801489E+02 -0.45311742139E+01 -0.78413542623E+01  0.36111857628E+02  0.00000000000E+00 0. -1.
</event>
<event>
 7    1  0.3318965E-009  0.1570494E+03  0.7561462E-02  0.1192069E+00
         -1   -1    0    0    0  501 -0.00000000000E+00  0.00000000000E+00  0.36412650177E+02  0.36412650177E+02  0.00000000000E+00 0.  1.
          1   -1    0    0  501    0  0.00000000000E+00 -0.00000000000E+00 -0.76192617366E+03  0.76192617366E+03  0.00000000000E+00 0. -1.
         25    2    1    2    0    0 -0.10591421332E+03 -0.50568899799E+02 -0.27771270964E+03  0.32641735919E+03  0.12509559976E+03 0.  0.
          5    1    3    3  502    0 -0.29573444124E+02 -0.82658039742E+02 -0.15789143234E+03  0.18070450171E+03  0.41800000000E+01 0. -1.
         -5    1    3    3    0  502 -0.76340769195E+02  0.32089139944E+02 -0.11982127729E+03  0.14571285748E+03  0.41800000000E+01 0. -1.
        -11    1    1    2    0    0  0.40093512692E+02  0.64565762579E+02 -0.17223206758E+03  0.18825544497E+03  0.00000000000E+00 0.  1.
         11    1    1    2    0    0  0.65820700627E+02 -0.13996862781E+02 -0.27556874627E+03  0.28366601968E+03  0.00000000000E+00 0. -1.
</event>
<event>
 7    1  0.2334784E-009  0.2473359E+03  0.7561462E-02  0.1115000E+00
         -1   -1    0    0    0  501 -0.00000000000E+00  0.00000000000E+00  0.17464760844E+03  0.17464760844E+03  0.00000000000E+00 0.  1.
          1   -1    0    0  501    0  0.00000000000E+00 -0.00000000000E+00 -0.40402886644E+03  0.40402886644E+03  0.00000000000E+00 0. -1.
         25    2    1    2    0    0  0.22969355920E+03 -0.82394391208E+02 -0.90537612129E+02  0.28877582156E+03  0.12508576684E+03 0.  0.
          5    1    3    3  502    0  0.20598531383E+03 -0.82730671680E+02 -0.30515355108E+02  0.22410482558E+03  0.41800000000E+01 0. -1.
         -5    1    3    3    0  502  0.23708245368E+02  0.33628047215E+00 -0.60022257021E+02  0.64670995979E+02  0.41800000000E+01 0. -1.
        -11    1    1    2    0    0 -0.81607811074E+02  0.53829905868E+02 -0.85663754384E+02  0.12998373902E+03  0.00000000000E+00 0. -1.
         11    1    1    2    0    0 -0.14808574813E+03  0.28564485341E+02 -0.53179891491E+02  0.15991691430E+03  0.00000000000E+00 0.  1.
</event>
<event>
 7    1  0.2334784E-009  0.1124690E+03  0.7561462E-02  0.1256065E+00
         -1   -1    0    0    0  501 -0.00000000000E+00  0.00000000000E+00  0.10623492037E+03  0.10623492037E+03  0.00000000000E+00 0.  1.
          1   -1    0    0  501    0  0.00000000000E+00 -0.00000000000E+00 -0.20235223276E+03  0.20235223276E+03  0.00000000000E+00 0. -1.
         25    2    1    2    0    0  0.88888540592E+02  0.40837161172E+02 -0.54210614727E+02  0.16779309161E+03  0.12508750721E+03 0.  0.
          5    1    3    3  502    0  0.41854087985E+02  0.17361927813E+02  0.39504572341E+02  0.60260143165E+02  0.41800000000E+01 0. -1.
         -5    1    3    3    0  502  0.47034452607E+02  0.23475233359E+02 -0.93715187068E+02  0.10753294844E+03  0.41800000000E+01 0. -1.
        -11    1    1    2    0    0 -0.19099338395E+02  0.24523435596E+02  0.91466753065E+01  0.32401316173E+02  0.00000000000E+00 0.  1.
         11    1    1    2    0    0 -0.69789202197E+02 -0.65360596769E+02 -0.51053372973E+02  0.10839274535E+03  0.00000000000E+00 0. -1.
</event>
<event>
 7    1  0.2334784E-009  0.2552872E+03  0.7561462E-02  0.1110008E+00
         -2   -1    0    0    0  501 -0.00000000000E+00  0.00000000000E+00  0.23869836699E+02  0.23869836699E+02  0.00000000000E+00 0. -1.
          2   -1    0    0  501    0  0.00000000000E+00 -0.00000000000E+00 -0.32859764133E+04  0.32859764133E+04  0.00000000000E+00 0.  1.
         25    2    1    2    0    0  0.60727839465E+02 -0.23189563895E+03 -0.22370236358E+04  0.22533055020E+04  0.12508988918E+03 0.  0.
          5    1    3    3  502    0 -0.17362685864E+02 -0.98028904702E+02 -0.12731312349E+04  0.12770245662E+04  0.41800000000E+01 0.  1.
         -5    1    3    3    0  502  0.78090525329E+02 -0.13386673425E+03 -0.96389240084E+03  0.97628093574E+03  0.41800000000E+01 0.  1.
        -11    1    1    2    0    0 -0.32563562242E+02  0.12784766235E+02 -0.13973636587E+03  0.14404890759E+03  0.00000000000E+00 0.  1.
         11    1    1    2    0    0 -0.28164277223E+02  0.21911087271E+03 -0.88534657493E+03  0.91249184040E+03  0.00000000000E+00 0. -1.
</event>
<event>
 7    1  0.2334784E-009  0.7439331E+02  0.7561462E-02  0.1345760E+00
         -2   -1    0    0    0  501 -0.00000000000E+00  0.00000000000E+00  0.36204860144E+02  0.36204860144E+02  0.00000000000E+00 0.  1.
          2   -1    0    0  501    0  0.00000000000E+00 -0.00000000000E+00 -0.43415392383E+03  0.43415392383E+03  0.00000000000E+00 0. -1.
         25    2    1    2    0    0 -0.19013036912E+02  0.37111126308E+02 -0.30541537025E+03  0.33266377333E+03  0.12509159218E+03 0.  0.
          5    1    3    3  502    0 -0.10944226707E+02 -0.98986665304E+01  0.68152542495E+01  0.16783318736E+02  0.41800000000E+01 0.  1.
         -5    1    3    3    0  502 -0.80688102049E+01  0.47009792839E+02 -0.31223062450E+03  0.31588045459E+03  0.41800000000E+01 0.  1.
        -11    1    1    2    0    0 -0.24473845732E+02  0.50614832661E+01 -0.67805719283E+02  0.72264813743E+02  0.00000000000E+00 0. -1.
         11    1    1    2    0    0  0.43486882644E+02 -0.42172609574E+02 -0.24727974152E+02  0.65430196898E+02  0.00000000000E+00 0.  1.
</event>
<event>
 7    1  0.2334784E-009  0.1246308E+03  0.7561462E-02  0.1235647E+00
          3   -1    0    0  501    0  0.00000000000E+00  0.00000000000E+00  0.62181358776E+02  0.62181358776E+02  0.00000000000E+00 0. -1.
         -3   -1    0    0    0  501 -0.00000000000E+00 -0.00000000000E+00 -0.42580750092E+03  0.42580750092E+03  0.00000000000E+00 0.  1.
         25    2    1    2    0    0 -0.42024505201E+02  0.67469866607E+02 -0.59192188201E+02  0.15959173950E+03  0.12509023237E+03 0.  0.
          5    1    3    3  502    0 -0.34776949539E+02  0.97200564510E+02 -0.72233685861E+02  0.12606571197E+03  0.41800000000E+01 0. -1.
         -5    1    3    3    0  502 -0.72475556616E+01 -0.29730697903E+02  0.13041497659E+02  0.33526027532E+02  0.41800000000E+01 0. -1.
        -11    1    1    2    0    0  0.43502466224E+02  0.38952455164E+01 -0.17724665420E+03  0.18254866182E+03  0.00000000000E+00 0.  1.
         11    1    1    2    0    0 -0.14779610232E+01 -0.71365112124E+02 -0.12718729975E+03  0.14584845839E+03  0.00000000000E+00 0. -1.
</event>
<event>
 7    1  0.2743837E-009  0.1077861E+03  0.7561462E-02  0.1264725E+00
         -2   -1    0    0    0  501 -0.00000000000E+00  0.00000000000E+00  0.57413231979E+02  0.57413231979E+02  0.00000000000E+00 0.  1.
          2   -1    0    0  501    0  0.00000000000E+00 -0.00000000000E+00 -0.31174116131E+03  0.31174116131E+03  0.00000000000E+00 0. -1.
         25    2    1    2    0    0  0.64128057531E+02 -0.45002893803E+02 -0.13436976332E+03  0.19958691095E+03  0.12506811550E+03 0.  0.
          5    1    3    3  502    0  0.27456703280E+02 -0.81019930260E+02 -0.45869542034E+02  0.97157536716E+02  0.41800000000E+01 0.  1.
         -5    1    3    3    0  502  0.36671354251E+02  0.36017036457E+02 -0.88500221290E+02  0.10242937423E+03  0.41800000000E+01 0.  1.
        -11    1    1    2    0    0 -0.46255813194E+02  0.31742484045E+02 -0.95106678169E+01  0.56900249120E+02  0.00000000000E+00 0.  1.
         11    1    1    2    0    0 -0.17872244338E+02  0.13260409758E+02 -0.11044749819E+03  0.11266723322E+03  0.00000000000E+00 0. -1.
</event>
<event>
 6    1  0.2334784E-009  0.1327342E+03  0.7561462E-02  0.1223454E+00
         -3   -1    0    0    0  501 -0.00000000000E+00  0.00000000000E+00  0.34061218699E+03  0.34061218699E+03  0.00000000000E+00 0.  1.
          3   -1    0    0  501    0  0.00000000000E+00 -0.00000000000E+00 -0.69249854060E+02  0.69249854060E+02  0.00000000000E+00 0. -1.
          5    1    1    2  502    0 -0.22457529429E+01 -0.34152934670E+02 -0.14800369888E+02  0.37523188853E+02  0.41800000000E+01 0. -1.
         -5    1    1    2    0  502 -0.10031999058E+03  0.23041038248E+02  0.10929956566E+03  0.15019606322E+03  0.41800000000E+01 0. -1.
        -11    1    1    2    0    0  0.58027965224E+02  0.43818207005E+02  0.13305306326E+03  0.15162584759E+03  0.00000000000E+00 0.  1.
         11    1    1    2    0    0  0.44537778299E+02 -0.32706310584E+02  0.43810073887E+02  0.70516941381E+02  0.00000000000E+00 0. -1.
</event>
<event>
 7    1  0.2334784E-009  0.8969819E+02  0.7561462E-02  0.1303584E+00
          2   -1    0    0  501    0  0.00000000000E+00  0.00000000000E+00  0.10675699870E+03  0.10675699870E+03  0.00000000000E+00 0. -1.
         -2   -1    0    0    0  501 -0.00000000000E+00 -0.00000000000E+00 -0.14718924747E+03  0.14718924747E+03  0.00000000000E+00 0.  1.
         25    2    1    2    0    0  0.14639343288E+02  0.48520606917E+02 -0.54557230831E+02  0.14557827187E+03  0.12509189477E+03 0.  0.
          5    1    3    3  502    0  0.42641548701E+02 -0.17892528654E+02  0.11376542145E+02  0.47805254611E+02  0.41800000000E+01 0. -1.
         -5    1    3    3    0  502 -0.28002205413E+02  0.66413135571E+02 -0.65933772976E+02  0.97773017255E+02  0.41800000000E+01 0. -1.
        -11    1    1    2    0    0 -0.25263252430E+02 -0.28365952446E+02 -0.36607886346E+02  0.52754113813E+02  0.00000000000E+00 0.  1.
         11    1    1    2    0    0  0.10623909142E+02 -0.20154654471E+02  0.50732868402E+02  0.55613860490E+02  0.00000000000E+00 0. -1.
</event>
<event>
 7    1  0.2334784E-009  0.9547076E+02  0.7561462E-02  0.1290119E+00
         -1   -1    0    0    0  501 -0.00000000000E+00  0.00000000000E+00  0.40658268757E+02  0.40658268757E+02  0.00000000000E+00 0.  1.
          1   -1    0    0  501    0  0.00000000000E+00 -0.00000000000E+00 -0.34422614311E+03  0.34422614311E+03  0.00000000000E+00 0. -1.
         25    2    1    2    0    0  0.99833216487E+01 -0.17009310828E+02 -0.23863302080E+03  0.27015209701E+03  0.12508978189E+03 0.  0.
          5    1    3    3  502    0  0.27309808001E+02  0.34256408725E+02 -0.19670433203E+03  0.20156734307E+03  0.41800000000E+01 0.  1.
         -5    1    3    3    0  502 -0.17326486352E+02 -0.51265719553E+02 -0.41928688771E+02  0.68584753938E+02  0.41800000000E+01 0.  1.
        -11    1    1    2    0    0  0.36888403212E+02 -0.10442091850E+02 -0.15725451119E+02  0.41437680758E+02  0.00000000000E+00 0.  1.
         11    1    1    2    0    0 -0.46871724861E+02  0.27451402678E+02 -0.49209402425E+02  0.73294634097E+02  0.00000000000E+00 0. -1.
</event>
<event>
 7    1  0.2334784E-009  0.1128826E+03  0.7561462E-02  0.1255323E+00
          2   -1    0    0  501    0  0.00000000000E+00  0.00000000000E+00  0.63448508113E+03  0.63448508113E+03  0.00000000000E+00 0. -1.
         -2   -1    0    0    0  501 -0.00000000000E+00 -0.00000000000E+00 -0.21508346196E+02  0.21508346196E+02  0.00000000000E+00 0.  1.
         25    2    1    2    0    0  0.39174988792E+02  0.15416577625E+02  0.29449122692E+03  0.32271471209E+03  0.12508937627E+03 0.  0.
          5    1    3    3  502    0 -0.44387882082E+02 -0.35994277995E+00  0.13104377571E+03  0.13842094201E+03  0.41800000000E+01 0.  1.
         -5    1    3    3    0  502  0.83562870875E+02  0.15776520405E+02  0.16344745121E+03  0.18429377008E+03  0.41800000000E+01 0.  1.
        -11    1    1    2    0    0 -0.50546711016E+02  0.23319725875E+02  0.14921266237E+03  0.15925827521E+03  0.00000000000E+00 0. -1.
         11    1    1    2    0    0  0.11371722224E+02 -0.38736303500E+02  0.16927284565E+03  0.17402044003E+03  0.00000000000E+00 0.  1.
</event>
<event>
 7    1  0.2334784E-009  0.1922308E+03  0.7561462E-02  0.1156465E+00
         -1   -1    0    0    0  501 -0.00000000000E+00  0.00000000000E+00  0.65801449810E+03  0.65801449810E+03  0.00000000000E+00 0.  1.
          1   -1    0    0  501    0  0.00000000000E+00 -0.00000000000E+00 -0.65888787982E+02  0.65888787982E+02  0.00000000000E+00 0. -1.
         25    2    1    2    0    0  0.12922486671E+03  0.11580635823E+03  0.25181325109E+03  0.33040379320E+03  0.12508626765E+03 0.  0.
          5    1    3    3  502    0  0.11235447697E+02 -0.24547616090E+02  0.54812851497E+02  0.61243300286E+02  0.41800000000E+01 0.  1.
         -5    1    3    3    0  502  0.11798941901E+03  0.14035397432E+03  0.19700039959E+03  0.26916049292E+03  0.41800000000E+01 0.  1.
        -11    1    1    2    0    0 -0.11364314051E+03 -0.97878350332E+02  0.33781796313E+03  0.36961589666E+03  0.00000000000E+00 0.  1.
         11    1    1    2    0    0 -0.15581726196E+02 -0.17928007902E+02  0.24944958971E+01  0.23883596219E+02  0.00000000000E+00 0. -1.
</event>
<event>
 7    1  0.2334784E-009  0.1039518E+03  0.7561462E-02  0.1272199E+00
          2   -1    0    0  501    0  0.00000000000E+00  0.00000000000E+00  0.52127040409E+03  0.52127040409E+03  0.00000000000E+00 0. -1.
         -2   -1    0    0    0  501 -0.00000000000E+00 -0.00000000000E+00 -0.36022071129E+02  0.36022071129E+02  0.00000000000E+00 0.  1.
         25    2    1    2    0    0 -0.54223490993E+02 -0.45537353356E+02  0.35092078332E+03  0.37922444342E+03  0.12510773277E+03 0.  0.
          5    1    3    3  502    0 -0.27817143267E+02 -0.61658242965E+02  0.33915747594E+03  0.34586239788E+03  0.41800000000E+01 0. -1.
         -5    1    3    3    0  502 -0.26406347726E+02  0.16120889609E+02  0.11763307378E+02  0.33362045538E+02  0.41800000000E+01 0. -1.
        -11    1    1    2    0    0  0.90456800444E+00  0.54789427823E+02  0.99863803499E+02  0.11390995959E+03  0.00000000000E+00 0. -1.
         11    1    1    2    0    0  0.53318922989E+02 -0.92520744674E+01  0.34463746141E+02  0.64158072202E+02  0.00000000000E+00 0.  1.
</event>
<event>
 7    1  0.2334784E-009  0.1108753E+03  0.7561462E-02  0.1258958E+00
         -1   -1    0    0    0  501 -0.00000000000E+00  0.00000000000E+00  0.47117773085E+03  0.47117773085E+03  0.00000000000E+00 0.  1.
          1   -1    0    0  501    0  0.00000000000E+00 -0.00000000000E+00 -0.39238329643E+02  0.39238329643E+02  0.00000000000E+00 0. -1.
         25    2    1    2    0    0  0.39977855491E+02 -0.18273445432E+02  0.10889890011E+03  0.17157490066E+03  0.12508728293E+03 0.  0.
          5    1    3    3  502    0  0.21624656176E+02  0.53290535676E+02  0.37748842451E+02  0.68919913332E+02  0.41800000000E+01 0. -1.
         -5    1    3    3    0  502  0.18353199316E+02 -0.71563981108E+02  0.71150057661E+02  0.10265498732E+03  0.41800000000E+01 0. -1.
        -11    1    1    2    0    0 -0.19165374117E+02  0.49206415369E+02  0.26236470770E+03  0.26762627435E+03  0.00000000000E+00 0.  1.
         11    1    1    2    0    0 -0.20812481374E+02 -0.30932969937E+02  0.60675793392E+02  0.71214885479E+02  0.00000000000E+00 0. -1.
</event>
<event>
 7    1  0.2334784E-009  0.7834333E+02  0.7561462E-02  0.1333820E+00
         -1   -1    0    0    0  501 -0.00000000000E+00  0.00000000000E+00  0.36120663159E+03  0.36120663159E+03  0.00000000000E+00 0.  1.
          1   -1    0    0  501    0  0.00000000000E+00 -0.00000000000E+00 -0.44522236492E+02  0.44522236492E+02  0.00000000000E+00 0. -1.
         25    2    1    2    0    0  0.28679697142E+02 -0.72201739127E+01  0.27101186038E+03  0.29994924073E+03  0.12508981817E+03 0.  0.
          5    1    3    3  502    0 -0.26023515269E+02 -0.58521155750E-02  0.22889988094E+03  0.23041235052E+03  0.41800000000E+01 0.  1.
         -5    1    3    3    0  502  0.54703212411E+02 -0.72143217971E+01  0.42111979445E+02  0.69536890208E+02  0.41800000000E+01 0.  1.
        -11    1    1    2    0    0 -0.39661579642E+02  0.29984128778E+02  0.59040825203E+02  0.77187485507E+02  0.00000000000E+00 0.  1.
         11    1    1    2    0    0  0.10981882500E+02 -0.22763954865E+02 -0.13368290490E+02  0.28592141839E+02  0.00000000000E+00 0. -1.
</event>
<event>
 7    1  0.2334784E-009  0.9330342E+02  0.7561462E-02  0.1295044E+00
          2   -1    0    0  501    0  0.00000000000E+00  0.00000000000E+00  0.60246429985E+02  0.60246429985E+02  0.00000000000E+00 0. -1.
         -2   -1    0    0    0  501 -0.00000000000E+00 -0.00000000000E+00 -0.42276660597E+03  0.42276660597E+03  0.00000000000E+00 0.  1.
         25    2    1    2    0    0 -0.11107592365E+02  0.18524033512E+02 -0.35117750368E+03  0.37341525513E+03  0.12508715061E+03 0.  0.
          5    1    3    3  502    0 -0.52541422252E+01 -0.35634553969E+02 -0.28634708133E+03  0.28863393916E+03  0.41800000000E+01 0. -1.
         -5    1    3    3    0  502 -0.58534501395E+01  0.54158587480E+02 -0.64830422350E+02  0.84781315975E+02  0.41800000000E+01 0. -1.
        -11    1    1    2    0    0 -0.36947825905E+02 -0.28461479647E+02 -0.31782768342E+02  0.56438834381E+02  0.00000000000E+00 0. -1.
         11    1    1    2    0    0  0.48055418269E+02  0.99374461357E+01  0.20440096038E+02  0.53158946442E+02  0.00000000000E+00 0.  1.
</event>
<event>
 7    1  0.2334784E-009  0.1369630E+03  0.7561462E-02  0.1217475E+00
          2   -1    0    0  501    0  0.00000000000E+00  0.00000000000E+00  0.59155448360E+03  0.59155448360E+03  0.00000000000E+00 0. -1.
         -2   -1    0    0    0  501 -0.00000000000E+00 -0.00000000000E+00 -0.56624054680E+02  0.56624054680E+02  0.00000000000E+00 0.  1.
         25    2    1    2    0    0 -0.95829379529E+02 -0.13091050346E+02  0.44521596261E+03  0.47246171132E+03  0.12509264455E+03 0.  0.
          5    1    3    3  502    0  0.28889657551E+02 -0.12794373043E+02  0.67073146643E+02  0.74260269967E+02  0.41800000000E+01 0. -1.
         -5    1    3    3    0  502 -0.12471903708E+03 -0.29667730221E+00  0.37814281597E+03  0.39820144135E+03  0.41800000000E+01 0. -1.
        -11    1    1    2    0    0  0.27952216351E+02  0.36043856676E+02 -0.15714675346E+02  0.48243517950E+02  0.00000000000E+00 0.  1.
         11    1    1    2    0    0  0.67877163178E+02 -0.22952806330E+02  0.10542914165E+03  0.12747330901E+03  0.00000000000E+00 0. -1.
</event>
<event>
 7    1  0.2334784E-009  0.5208640E+02  0.7561462E-02  0.1434402E+00
         -2   -1    0    0    0  501 -0.00000000000E+00  0.00000000000E+00  0.16596271455E+03  0.16596271455E+03  0.00000000000E+00 0.  1.
          2   -1    0    0  501    0  0.00000000000E+00 -0.00000000000E+00 -0.12756352167E+03  0.12756352167E+03  0.00000000000E+00 0. -1.
         25    2    1    2    0    0  0.34009760563E+02 -0.24055148908E+02  0.90622326118E+02  0.15998457246E+03  0.12508934180E+03 0.  0.
          5    1    3    3  502    0 -0.23750247489E+00  0.52272623462E+01  0.11039696665E+03  0.11059992462E+03  0.41800000000E+01 0.  1.
         -5    1    3    3    0  502  0.34247263038E+02 -0.29282411254E+02 -0.19774640536E+02  0.49384647845E+02  0.41800000000E+01 0.  1.
        -11    1    1    2    0    0 -0.20880977308E+02  0.30995152588E+02  0.31275564263E+02  0.48732695568E+02  0.00000000000E+00 0.  1.
         11    1    1    2    0    0 -0.13128783255E+02 -0.69400036803E+01 -0.83498697503E+02  0.84808968191E+02  0.00000000000E+00 0. -1.
</event>
<event>
 7    1  0.2334784E-009  0.1290128E+03  0.7561462E-02  0.1228928E+00
         -2   -1    0    0    0  501 -0.00000000000E+00  0.00000000000E+00  0.13373909560E+02  0.13373909560E+02  0.00000000000E+00 0.  1.
          2   -1    0    0  501    0  0.00000000000E+00 -0.00000000000E+00 -0.18086868124E+04  0.18086868124E+04  0.00000000000E+00 0. -1.
         25    2    1    2    0    0  0.27757925716E+01  0.10933424570E+03 -0.10976141417E+04  0.11101194024E+04  0.12508637473E+03 0.  0.
          5    1    3    3  502    0  0.21447765698E+02  0.77666897134E+02 -0.27293023098E+03  0.28460593274E+03  0.41800000000E+01 0.  1.
         -5    1    3    3    0  502 -0.18671973126E+02  0.31667348568E+02 -0.82468391074E+03  0.82551346965E+03  0.41800000000E+01 0.  1.
        -11    1    1    2    0    0 -0.14703258150E+02  0.11658787722E+02 -0.64412101975E+02  0.67089731048E+02  0.00000000000E+00 0.  1.
         11    1    1    2    0    0  0.11927465579E+02 -0.12099303342E+03 -0.63328665915E+03  0.64485158853E+03  0.00000000000E+00 0. -1.
</event>
<event>
 7    1  0.2334784E-009  0.8857601E+02  0.7561462E-02  0.1306337E+00
          1   -1    0    0  501    0  0.00000000000E+00  0.00000000000E+00  0.10000795661E+04  0.10000795661E+04  0.00000000000E+00 0. -1.
         -1   -1    0    0    0  501 -0.00000000000E+00 -0.00000000000E+00 -0.14685507388E+02  0.14685507388E+02  0.00000000000E+00 0.  1.
         25    2    1    2    0    0  0.33788041784E+02 -0.22693270089E+02  0.41328012414E+03  0.43371062445E+03  0.12509128059E+03 0.  0.
          5    1    3    3  502    0  0.51716015324E+02 -0.24018338387E+02  0.41117895746E+03  0.41513495911E+03  0.41800000000E+01 0. -1.
         -5    1    3    3    0  502 -0.17927973539E+02  0.13250682978E+01  0.21011666745E+01  0.18575665334E+02  0.41800000000E+01 0. -1.
        -11    1    1    2    0    0  0.29620202251E+02  0.23964092629E+02  0.21980208634E+03  0.22307978679E+03  0.00000000000E+00 0.  1.
         11    1    1    2    0    0 -0.63408244035E+02 -0.12708225397E+01  0.35231184820E+03  0.35797466221E+03  0.00000000000E+00 0. -1.
</event>
<event>
 7    1  0.2334784E-009  0.1102110E+03  0.7561462E-02  0.1260180E+00
          2   -1    0    0  501    0  0.00000000000E+00  0.00000000000E+00  0.11175914363E+03  0.11175914363E+03  0.00000000000E+00 0. -1.
         -2   -1    0    0    0  501 -0.00000000000E+00 -0.00000000000E+00 -0.13196661365E+03  0.13196661365E+03  0.00000000000E+00 0.  1.
         25    2    1    2    0    0 -0.19050090816E+02  0.28528081025E+02 -0.56356083310E+02  0.14142129309E+03  0.12508883502E+03 0.  0.
          5    1    3    3  502    0 -0.69740598197E+02  0.30570858798E+02 -0.47241391100E+02  0.89708137187E+02  0.41800000000E+01 0. -1.
         -5    1    3    3    0  502  0.50690507381E+02 -0.20427777722E+01 -0.91146922095E+01  0.51713155905E+02  0.41800000000E+01 0. -1.
        -11    1    1    2    0    0  0.39286400347E+02  0.17476690137E+02  0.28200559403E+02  0.51421080317E+02  0.00000000000E+00 0. -1.
         11    1    1    2    0    0 -0.20236309531E+02 -0.46004771162E+02  0.79480538849E+01  0.50883383866E+02  0.00000000000E+00 0.  1.
</event>
<event>
 7    1  0.2334784E-009  0.1092648E+03  0.7561462E-02  0.1261937E+00
         -2   -1    0    0    0  501 -0.00000000000E+00  0.00000000000E+00  0.35202016413E+02  0.35202016413E+02  0.00000000000E+00 0.  1.
          2   -1    0    0  501    0  0.00000000000E+00 -0.00000000000E+00 -0.52360102966E+03  0.52360102966E+03  0.00000000000E+00 0. -1.
         25    2    1    2    0    0 -0.11554821466E+01 -0.78860851253E+02 -0.24587515494E+03  0.28691879310E+03  0.12508969990E+03 0.  0.
          5    1    3    3  502    0 -0.49191619171E+02 -0.74830269368E+02 -0.10553675530E+03  0.13847333220E+03  0.41800000000E+01 0.  1.
         -5    1    3    3    0  502  0.48036137024E+02 -0.40305818847E+01 -0.14033839964E+03  0.14844546091E+03  0.41800000000E+01 0.  1.
        -11    1    1    2    0    0 -0.74213171632E+01  0.41912701392E+02 -0.22690670292E+03  0.23086446742E+03  0.00000000000E+00 0. -1.
         11    1    1    2    0    0  0.85767993098E+01  0.36948149861E+02 -0.15617155395E+02  0.41019785557E+02  0.00000000000E+00 0.  1.
</event>
<event>
 7    1  0.2334784E-009  0.1133911E+03  0.7561462E-02  0.1254416E+00
          2   -1    0    0  501    0  0.00000000000E+00  0.00000000000E+00  0.48407564998E+03  0.48407564998E+03  0.00000000000E+00 0. -1.
         -2   -1    0    0    0  501 -0.00000000000E+00 -0.00000000000E+00 -0.37745051334E+02  0.37745051334E+02  0.00000000000E+00 0.  1.
         25    2    1    2    0    0  0.68915629351E+02 -0.43409696899E+02  0.27221969282E+03  0.31045715847E+03  0.12508525225E+03 0.  0.
          5    1    3    3  502    0  0.47627505488E+02 -0.64185470834E+02  0.70942068144E+02  0.10695047161E+03  0.41800000000E+01 0. -1.
         -5    1    3    3    0  502  0.21288123863E+02  0.20775773935E+02  0.20127762468E+03  0.20350668686E+03  0.41800000000E+01 0. -1.
        -11    1    1    2    0    0 -0.80116943568E+02  0.57568320626E+02  0.12634302935E+03  0.16029783919E+03  0.00000000000E+00 0.  1.
         11    1    1    2    0    0  0.11201314217E+02 -0.14158623727E+02  0.47767876479E+02  0.51065703650E+02  0.00000000000E+00 0. -1.
</event>
<event>
 7    1  0.2334784E-009  0.6154409E+02  0.7561462E-02  0.1391464E+00
         -1   -1    0    0    0  501 -0.00000000000E+00  0.00000000000E+00  0.14139677300E+02  0.14139677300E+02  0.00000000000E+00 0.  1.
          1   -1    0    0  501    0  0.00000000000E+00 -0.00000000000E+00 -0.93262013874E+03  0.93262013874E+03  0.00000000000E+00 0. -1.
         25    2    1    2    0    0 -0.25368636247E+02  0.46664846494E+02 -0.83640755531E+03  0.84737587187E+03  0.12508834492E+03 0.  0.
          5    1    3    3  502    0  0.92750747784E+01  0.22362724391E+02 -0.75614954096E+03  0.75654855703E+03  0.41800000000E+01 0.  1.
         -5    1    3    3    0  502 -0.34643711025E+02  0.24302122103E+02 -0.80258014354E+02  0.90827314836E+02  0.41800000000E+01 0.  1.
        -11    1    1    2    0    0  0.21941792686E+02 -0.21918031374E+02 -0.47532879871E+02  0.56755766530E+02  0.00000000000E+00 0.  1.
         11    1    1    2    0    0  0.34268435611E+01 -0.24746815120E+02 -0.34540026260E+02  0.42628177646E+02  0.00000000000E+00 0. -1.
</event>
<event>
 7    1  0.2334784E-009  0.9571864E+02  0.7561462E-02  0.1289566E+00
         -2   -1    0    0    0  501 -0.00000000000E+00  0.00000000000E+00  0.36792112647E+02  0.36792112647E+02  0.00000000000E+00 0.  1.
          2   -1    0    0  501    0  0.00000000000E+00 -0.00000000000E+00 -0.36300753220E+03  0.36300753220E+03  0.00000000000E+00 0. -1.
         25    2    1    2    0    0 -0.18528967530E+02 -0.13557057427E+02 -0.23041460519E+03  0.26318477430E+03  0.12509284032E+03 0.  0.
          5    1    3    3  502    0  0.32075660508E+02  0.41252872169E+02 -0.91607884616E+02  0.10554678765E+03  0.41800000000E+01 0.  1.
         -5    1    3    3    0  502 -0.50604628038E+02 -0.54809929596E+02 -0.13880672057E+03  0.15763798665E+03  0.41800000000E+01 0.  1.
        -11    1    1    2    0    0 -0.20731099430E+02 -0.42941876259E+01  0.92137385762E+01  0.23089207641E+02  0.00000000000E+00 0.  1.
         11    1    1    2    0    0  0.39260066960E+02  0.17851245053E+02 -0.10501455295E+03  0.11352566291E+03  0.00000000000E+00 0. -1.
</event>
<event>
 7    1  0.2334784E-009  0.1077594E+03  0.7561462E-02  0.1264776E+00
         -2   -1    0    0    0  501 -0.00000000000E+00  0.00000000000E+00  0.15769193239E+02  0.15769193239E+02  0.00000000000E+00 0.  1.
          2   -1    0    0  501    0  0.00000000000E+00 -0.00000000000E+00 -0.12833862644E+04  0.12833862644E+04  0.00000000000E+00 0. -1.
         25    2    1    2    0    0 -0.69396625674E+02  0.17156222553E+02 -0.84237525576E+03  0.85460757135E+03  0.12509117422E+03 0.  0.
          5    1    3    3  502    0 -0.39721706808E+02 -0.20297576628E+02 -0.74208836547E+03  0.74343958744E+03  0.41800000000E+01 0.  1.
         -5    1    3    3    0  502 -0.29674918866E+02  0.37453799180E+02 -0.10028689029E+03  0.11116798391E+03  0.41800000000E+01 0.  1.
        -11    1    1    2    0    0  0.84701550514E+02  0.16028576962E+02 -0.22400463685E+03  0.24001946852E+03  0.00000000000E+00 0.  1.
         11    1    1    2    0    0 -0.15304924841E+02 -0.33184799515E+02 -0.20123717856E+03  0.20452841778E+03  0.00000000000E+00 0. -1.
</event>
<event>
 7    1  0.2334784E-009  0.9100192E+02  0.7561462E-02  0.1300443E+00
          2   -1    0    0  501    0  0.00000000000E+00  0.00000000000E+00  0.29173532339E+03  0.29173532339E+03  0.00000000000E+00 0. -1.
         -2   -1    0    0    0  501 -0.00000000000E+00 -0.00000000000E+00 -0.54504483405E+02  0.54504483405E+02  0.00000000000E+00 0.  1.
         25    2    1    2    0    0 -0.52882772200E+02 -0.70520611545E+01  0.82803411655E+02  0.15922071198E+03  0.12509400857E+03 0.  0.
          5    1    3    3  502    0  0.77444633726E+01  0.10764699258E+02 -0.28189359246E+02  0.31431955678E+02  0.41800000000E+01 0. -1.
         -5    1    3    3    0  502 -0.60627235573E+02 -0.17816760412E+02  0.11099277090E+03  0.12778875630E+03  0.41800000000E+01 0. -1.
        -11    1    1    2    0    0 -0.80490456046E+01 -0.31602851470E+02  0.58578066121E+02  0.67044143567E+02  0.00000000000E+00 0. -1.
         11    1    1    2    0    0  0.60931817805E+02  0.38654912624E+02  0.95849362206E+02  0.11997495125E+03  0.00000000000E+00 0.  1.
</event>
<event>
 7    1  0.2334784E-009  0.1109962E+03  0.7561462E-02  0.1258736E+00
          2   -1    0    0  501    0  0.00000000000E+00  0.00000000000E+00  0.61160698158E+03  0.61160698158E+03  0.00000000000E+00 0. -1.
         -2   -1    0    0    0  501 -0.00000000000E+00 -0.00000000000E+00 -0.34263127905E+02  0.34263127905E+02  0.00000000000E+00 0.  1.
         25    2    1    2    0    0  0.46737827542E+02  0.82263847891E+02  0.26687706518E+03  0.30955061044E+03  0.12508575982E+03 0.  0.
          5    1    3    3  502    0  0.18139652296E+02  0.14652197524E+02  0.22231012827E+03  0.22356878004E+03  0.41800000000E+01 0.  1.
         -5    1    3    3    0  502  0.28598175246E+02  0.67611650367E+02  0.44566936911E+02  0.85981830397E+02  0.41800000000E+01 0.  1.
        -11    1    1    2    0    0 -0.15722403251E+02  0.15577678763E+02  0.27423255439E+02  0.35240501961E+02  0.00000000000E+00 0.  1.
         11    1    1    2    0    0 -0.31015424291E+02 -0.97841526654E+02  0.28304353306E+03  0.30107899709E+03  0.00000000000E+00 0. -1.
</event>
<event>
 7    1  0.2334784E-009  0.1440174E+03  0.7561462E-02  0.1208023E+00
         -2   -1    0    0    0  501 -0.00000000000E+00  0.00000000000E+00  0.10281904018E+03  0.10281904018E+03  0.00000000000E+00 0.  1.
          2   -1    0    0  501    0  0.00000000000E+00 -0.00000000000E+00 -0.29178157478E+03  0.29178157478E+03  0.00000000000E+00 0. -1.
         25    2    1    2    0    0 -0.30957628515E+02  0.10172924795E+03 -0.23724596328E+02  0.16588235563E+03  0.12508750852E+03 0.  0.
          5    1    3    3  502    0 -0.65892467341E+01  0.12729275694E+03 -0.10590142221E+02  0.12797065153E+03  0.41800000000E+01 0. -1.
         -5    1    3    3    0  502 -0.24368381781E+02 -0.25563508994E+02 -0.13134454107E+02  0.37911704095E+02  0.41800000000E+01 0. -1.
        -11    1    1    2    0    0 -0.18668117660E+02 -0.49453967648E+02 -0.14427317209E+03  0.15365201502E+03  0.00000000000E+00 0. -1.
         11    1    1    2    0    0  0.49625746175E+02 -0.52275280298E+02 -0.20964766180E+02  0.75066244309E+02  0.00000000000E+00 0.  1.
</event>
<event>
 7    1  0.2334784E-009  0.1512764E+03  0.7561462E-02  0.1198913E+00
          1   -1    0    0  501    0  0.00000000000E+00  0.00000000000E+00  0.94772494935E+03  0.94772494935E+03  0.00000000000E+00 0.  1.
         -1   -1    0    0    0  501 -0.00000000000E+00 -0.00000000000E+00 -0.28509889730E+02  0.28509889730E+02  0.00000000000E+00 0. -1.
         25    2    1    2    0    0  0.11472631541E+03 -0.29618012826E+01  0.62554598388E+03  0.64817030594E+03  0.12508424297E+03 0.  0.
          5    1    3    3  502    0  0.88375484112E+02  0.56204165107E+02  0.39271300397E+03  0.40646046580E+03  0.41800000000E+01 0.  1.
         -5    1    3    3    0  502  0.26350831295E+02 -0.59165966390E+02  0.23283297991E+03  0.24170984015E+03  0.41800000000E+01 0.  1.
        -11    1    1    2    0    0 -0.80828140023E+02 -0.29359251549E+02  0.24864530333E+03  0.26309625755E+03  0.00000000000E+00 0. -1.
         11    1    1    2    0    0 -0.33898175384E+02  0.32321052832E+02  0.45023772411E+02  0.64968275586E+02  0.00000000000E+00 0.  1.
</event>
<event>
 7    1  0.2334784E-009  0.1054353E+03  0.7561462E-02  0.1269264E+00
         -2   -1    0    0    0  501 -0.00000000000E+00  0.00000000000E+00  0.47099368342E+03  0.47099368342E+03  0.00000000000E+00 0.  1.
          2   -1    0    0  501    0  0.00000000000E+00 -0.00000000000E+00 -0.29084064172E+02  0.29084064172E+02  0.00000000000E+00 0. -1.
         25    2    1    2    0    0 -0.28088897792E+02 -0.37008866584E+02  0.26099011599E+03  0.29312258941E+03  0.12508544838E+03 0.  0.
          5    1    3    3  502    0 -0.68531474076E+02 -0.27972647012E+02  0.87416274959E+02  0.11462159241E+03  0.41800000000E+01 0.  1.
         -5    1    3    3    0  502  0.40442576284E+02 -0.90362195718E+01  0.17357384103E+03  0.17850099700E+03  0.41800000000E+01 0.  1.
        -11    1    1    2    0    0  0.10896467968E+02 -0.26835485508E+02  0.27694443453E+02  0.40073164272E+02  0.00000000000E+00 0.  1.
         11    1    1    2    0    0  0.17192429824E+02  0.63844352091E+02  0.15322505981E+03  0.16688199391E+03  0.00000000000E+00 0. -1.
</event>
<event>
 7    1  0.2334784E-009  0.1024939E+03  0.7561462E-02  0.1275137E+00
         -4   -1    0    0    0  501 -0.00000000000E+00  0.00000000000E+00  0.90656921749E+03  0.90656921749E+03  0.00000000000E+00 0. -1.
          4   -1    0    0  501    0  0.00000000000E+00 -0.00000000000E+00 -0.14502534827E+02  0.14502534827E+02  0.00000000000E+00 0.  1.
         25    2    1    2    0    0  0.17365188888E+02 -0.14263826775E+02  0.39893582437E+03  0.41869107825E+03  0.12508964987E+03 0.  0.
          5    1    3    3  502    0  0.61809355584E+02  0.16121360643E+01  0.32515192273E+03  0.33100489525E+03  0.41800000000E+01 0.  1.
         -5    1    3    3    0  502 -0.44444166696E+02 -0.15875962839E+02  0.73783901632E+02  0.87686183002E+02  0.41800000000E+01 0.  1.
        -11    1    1    2    0    0 -0.26747403919E+02 -0.35807306473E+02  0.21001783939E+03  0.21472093442E+03  0.00000000000E+00 0.  1.
         11    1    1    2    0    0  0.93822150313E+01  0.50071133248E+02  0.28311301890E+03  0.28765973965E+03  0.00000000000E+00 0. -1.
</event>
<event>
 7    1  0.2334784E-009  0.7249850E+02  0.7561462E-02  0.1351797E+00
         -1   -1    0    0    0  501 -0.00000000000E+00  0.00000000000E+00  0.20883881008E+03  0.20883881008E+03  0.00000000000E+00 0.  1.
          1   -1    0    0  501    0  0.00000000000E+00 -0.00000000000E+00 -0.56815834903E+02  0.56815834903E+02  0.00000000000E+00 0. -1.
         25    2    1    2    0    0 -0.87266613203E+01 -0.82880616154E+01  0.74304093298E+02  0.14599158585E+03  0.12509036044E+03 0.  0.
          5    1    3    3  502    0 -0.33129417355E+02 -0.18856039905E+01 -0.26073501189E+02  0.42407707565E+02  0.41800000000E+01 0. -1.
         -5    1    3    3    0  502  0.24402756034E+02 -0.64024576249E+01  0.10037759449E+03  0.10358387829E+03  0.41800000000E+01 0. -1.
        -11    1    1    2    0    0  0.37442742469E+02 -0.22656010800E+02  0.19907247141E+02  0.48078605197E+02  0.00000000000E+00 0. -1.
         11    1    1    2    0    0 -0.28716081149E+02  0.30944072416E+02  0.57811634740E+02  0.71584453938E+02  0.00000000000E+00 0.  1.
</event>
<event>
 7    1  0.2334784E-009  0.1971376E+03  0.7561462E-02  0.1152177E+00
          1   -1    0    0  501    0  0.00000000000E+00  0.00000000000E+00  0.60921342414E+03  0.60921342414E+03  0.00000000000E+00 0. -1.
         -1   -1    0    0    0  501 -0.00000000000E+00 -0.00000000000E+00 -0.85970402675E+02  0.85970402675E+02  0.00000000000E+00 0.  1.
         25    2    1    2    0    0 -0.14681439942E+03 -0.11609425412E+03  0.15901836486E+03  0.27562201248E+03  0.12509320398E+03 0.  0.
          5    1    3    3  502    0  0.59918201030E+01 -0.31623016350E+02  0.75190208427E+02  0.81896012812E+02  0.41800000000E+01 0.  1.
         -5    1    3    3    0  502 -0.15280621952E+03 -0.84471237770E+02  0.83828156433E+02  0.19372599966E+03  0.41800000000E+01 0.  1.
        -11    1    1    2    0    0  0.42092601613E+02  0.33377164189E+02  0.34471091105E+02  0.63828507125E+02  0.00000000000E+00 0.  1.
         11    1    1    2    0    0  0.10472179780E+03  0.82717089931E+02  0.32975356550E+03  0.35573330721E+03  0.00000000000E+00 0. -1.
</event>
<event>
 7    1  0.2334784E-009  0.1245258E+03  0.7561462E-02  0.1235812E+00
          1   -1    0    0  501    0  0.00000000000E+00  0.00000000000E+00  0.36928489453E+03  0.36928489453E+03  0.00000000000E+00 0. -1.
         -1   -1    0    0    0  501 -0.00000000000E+00 -0.00000000000E+00 -0.68354842584E+02  0.68354842584E+02  0.00000000000E+00 0.  1.
         25    2    1    2    0    0  0.89550090401E+02 -0.72808716044E+02  0.16097438884E+03  0.23426588149E+03  0.12508965403E+03 0.  0.
          5    1    3    3  502    0  0.44246108840E+02 -0.12153189475E+02  0.15089985751E+03  0.15777724030E+03  0.41800000000E+01 0. -1.
         -5    1    3    3    0  502  0.45303981562E+02 -0.60655526569E+02  0.10074531331E+02  0.76488641185E+02  0.41800000000E+01 0. -1.
        -11    1    1    2    0    0 -0.28261424265E+02  0.57366896594E+02  0.12187544909E+03  0.13763463960E+03  0.00000000000E+00 0. -1.
         11    1    1    2    0    0 -0.61288666136E+02  0.15441819450E+02  0.18080214012E+02  0.65739216024E+02  0.00000000000E+00 0.  1.
</event>
<event>
 7    1  0.2334784E-009  0.1295025E+03  0.7561462E-02  0.1228196E+00
          1   -1    0    0  501    0  0.00000000000E+00  0.00000000000E+00  0.16423545967E+02  0.16423545967E+02  0.00000000000E+00 0. -1.
         -1   -1    0    0    0  501 -0.00000000000E+00 -0.00000000000E+00 -0.12867225647E+04  0.12867225647E+04  0.00000000000E+00 0.  1.
         25    2    1    2    0    0 -0.85039810615E+02 -0.45825602402E+02 -0.67552445026E+03  0.69377039411E+03  0.12510923872E+03 0.  0.
          5    1    3    3  502    0  0.18716797204E+02 -0.62397539862E+01 -0.18351002186E+02  0.27266916008E+02  0.41800000000E+01 0.  1.
         -5    1    3    3    0  502 -0.10375660782E+03 -0.39585848416E+02 -0.65717344808E+03  0.66650347810E+03  0.41800000000E+01 0.  1.
        -11    1    1    2    0    0  0.59278489180E+02  0.70449082624E+02 -0.49347426554E+03  0.50198990356E+03  0.00000000000E+00 0. -1.
         11    1    1    2    0    0  0.25761321435E+02 -0.24623480222E+02 -0.10130030291E+03  0.10738581298E+03  0.00000000000E+00 0.  1.
</event>
<event>
 7    1  0.2334784E-009  0.1243685E+03  0.7561462E-02  0.1236060E+00
         -3   -1    0    0    0  501 -0.00000000000E+00  0.00000000000E+00  0.98830597075E+02  0.98830597075E+02  0.00000000000E+00 0.  1.
          3   -1    0    0  501    0  0.00000000000E+00 -0.00000000000E+00 -0.19854359563E+03  0.19854359563E+03  0.00000000000E+00 0. -1.
         25    2    1    2    0    0  0.53329864027E+02  0.47425802487E+02  0.33069045661E+00  0.14401142857E+03  0.12508357632E+03 0.  0.
          5    1    3    3  502    0 -0.34270282815E+02  0.30024693079E+01  0.24907284670E+02  0.42676836057E+02  0.41800000000E+01 0. -1.
         -5    1    3    3    0  502  0.87600146843E+02  0.44423333179E+02 -0.24576594213E+02  0.10133459252E+03  0.41800000000E+01 0. -1.
        -11    1    1    2    0    0 -0.58950252518E+02  0.85051253734E+01 -0.58308229289E+02  0.83350579076E+02  0.00000000000E+00 0. -1.
         11    1    1    2    0    0  0.56203884906E+01 -0.55930927860E+02 -0.41735459725E+02  0.70012185057E+02  0.00000000000E+00 0.  1.
</event>
<event>
 7    1  0.2334784E-009  0.2013124E+03  0.7561462E-02  0.1148636E+00
         -2   -1    0    0    0  501 -0.00000000000E+00  0.00000000000E+00  0.65120945489E+03  0.65120945489E+03  0.00000000000E+00 0.  1.
          2   -1    0    0  501    0  0.00000000000E+00 -0.00000000000E+00 -0.17708452849E+03  0.17708452849E+03  0.00000000000E+00 0. -1.
         25    2    1    2    0    0 -0.22718335364E+01  0.19693235866E+03  0.55078394677E+03  0.59816190924E+03  0.12508876263E+03 0.  0.
          5    1    3    3  502    0  0.90079745320E+01  0.32678196848E+02  0.14403975748E+02  0.37066899948E+02  0.41800000000E+01 0.  1.
         -5    1    3    3    0  502 -0.11279808068E+02  0.16425416181E+03  0.53637997102E+03  0.56109500930E+03  0.41800000000E+01 0.  1.
        -11    1    1    2    0    0  0.26588062374E+02 -0.78698916330E+02 -0.71024141135E+02  0.10929260321E+03  0.00000000000E+00 0. -1.
         11    1    1    2    0    0 -0.24316228838E+02 -0.11823344233E+03 -0.56348792430E+01  0.12083947092E+03  0.00000000000E+00 0.  1.
</event>
<event>
 7    1  0.2334784E-009  0.1664509E+03  0.7561462E-02  0.1181600E+00
          3   -1    0    0  501    0  0.00000000000E+00  0.00000000000E+00  0.71814568214E+03  0.71814568214E+03  0.00000000000E+00 0. -1.
         -3   -1    0    0    0  501 -0.00000000000E+00 -0.00000000000E+00 -0.49438631610E+02  0.49438631610E+02  0.00000000000E+00 0.  1.
         25    2    1    2    0    0 -0.11212860416E+03 -0.91171574510E+02  0.24155411444E+03  0.30802739663E+03  0.12508959591E+03 0.  0.
          5    1    3    3  502    0 -0.13022740258E+03 -0.57612810964E+02  0.22486860428E+03  0.26619874898E+03  0.41800000000E+01 0. -1.
         -5    1    3    3    0  502  0.18098798422E+02 -0.33558763546E+02  0.16685510163E+02  0.41828647653E+02  0.41800000000E+01 0. -1.
        -11    1    1    2    0    0  0.42237372847E+02  0.72286241192E+01  0.23191317883E+03  0.23583886700E+03  0.00000000000E+00 0.  1.
         11    1    1    2    0    0  0.69891231308E+02  0.83942950391E+02  0.19523975726E+03  0.22371805012E+03  0.00000000000E+00 0. -1.
</event>
<event>
 7    1  0.2334784E-009  0.2128731E+03  0.7561462E-02  0.1139311E+00
          2   -1    0    0  501    0  0.00000000000E+00  0.00000000000E+00  0.31847566367E+03  0.31847566367E+03  0.00000000000E+00 0. -1.
         -2   -1    0    0    0  501 -0.00000000000E+00 -0.00000000000E+00 -0.16324309117E+03  0.16324309117E+03  0.00000000000E+00 0.  1.
         25    2    1    2    0    0  0.15052660347E+03  0.12218364388E+03  0.13265977123E+03  0.26614514259E+03  0.12509005092E+03 0.  0.
          5    1    3    3  502    0  0.12888087965E+03  0.51236526852E+02  0.13249188240E+03  0.19185159401E+03  0.41800000000E+01 0.  1.
         -5    1    3    3    0  502  0.21645723820E+02  0.70947117023E+02  0.16788882704E+00  0.74293548577E+02  0.41800000000E+01 0.  1.
        -11    1    1    2    0    0 -0.15238994055E+03 -0.83110076793E+02  0.77868070933E+01  0.17375446241E+03  0.00000000000E+00 0.  1.
         11    1    1    2    0    0  0.18633370783E+01 -0.39073567082E+02  0.14785994172E+02  0.41819149838E+02  0.00000000000E+00 0. -1.
</event>
<event>
 7    1  0.2334784E-009  0.2286418E+03  0.7561462E-02  0.1127599E+00
          2   -1    0    0  501    0  0.00000000000E+00  0.00000000000E+00  0.13677147798E+03  0.13677147798E+03  0.00000000000E+00 0. -1.
         -2   -1    0    0    0  501 -0.00000000000E+00 -0.00000000000E+00 -0.43674087166E+03  0.43674087166E+03  0.00000000000E+00 0.  1.
         25    2    1    2    0    0  0.17368574752E+03 -0.13213129939E+03 -0.16266401059E+03  0.29955366425E+03  0.12508956095E+03 0.  0.
          5    1    3    3  502    0  0.12648643031E+03 -0.36622581912E+02 -0.13663215848E+03  0.18980476730E+03  0.41800000000E+01 0.  1.
         -5    1    3    3    0  502  0.47199317209E+02 -0.95508717475E+02 -0.26031852110E+02  0.10974889696E+03  0.41800000000E+01 0.  1.
        -11    1    1    2    0    0 -0.98244462514E+02  0.85422632580E+02 -0.27987330246E+02  0.13316264952E+03  0.00000000000E+00 0. -1.
         11    1    1    2    0    0 -0.75441285004E+02  0.46708666807E+02 -0.10931805284E+03  0.14079603586E+03  0.00000000000E+00 0.  1.
</event>
<event>
 7    1  0.2334784E-009  0.1137325E+03  0.7561462E-02  0.1253810E+00
          2   -1    0    0  501    0  0.00000000000E+00  0.00000000000E+00  0.14887343853E+04  0.14887343853E+04  0.00000000000E+00 0. -1.
         -2   -1    0    0    0  501 -0.00000000000E+00 -0.00000000000E+00 -0.11775987034E+02  0.11775987034E+02  0.00000000000E+00 0.  1.
         25    2    1    2    0    0  0.22159255889E+02  0.49600207199E+02  0.11214153653E+04  0.11296775498E+04  0.12509089433E+03 0.  0.
          5    1    3    3  502    0  0.17754709309E+02  0.86941662207E+02  0.94961219166E+03  0.95375828661E+03  0.41800000000E+01 0. -1.
         -5    1    3    3    0  502  0.44045465808E+01 -0.37341455008E+02  0.17180317367E+03  0.17591926323E+03  0.41800000000E+01 0. -1.
        -11    1    1    2    0    0  0.22603448364E+02 -0.51241984602E+02  0.14206277548E+03  0.15270392608E+03  0.00000000000E+00 0. -1.
         11    1    1    2    0    0 -0.44762704253E+02  0.16417774029E+01  0.21348025746E+03  0.21812889642E+03  0.00000000000E+00 0.  1.
</event>
<event>
 7    1  0.2334784E-009  0.7428051E+02  0.7561462E-02  0.1346114E+00
          2   -1    0    0  501    0  0.00000000000E+00  0.00000000000E+00  0.18135611490E+03  0.18135611490E+03  0.00000000000E+00 0. -1.
         -2   -1    0    0    0  501 -0.00000000000E+00 -0.00000000000E+00 -0.82672274003E+02  0.82672274003E+02  0.00000000000E+00 0.  1.
         25    2    1    2    0    0 -0.77405678219E+01 -0.25692908044E+02  0.11155789375E+03  0.16976112007E+03  0.12511447684E+03 0.  0.
          5    1    3    3  502    0  0.21531526817E+02 -0.38951659683E+02  0.12643413825E+03  0.13410407210E+03  0.41800000000E+01 0.  1.
         -5    1    3    3    0  502 -0.29272094639E+02  0.13258751638E+02 -0.14876244499E+02  0.35657047970E+02  0.41800000000E+01 0.  1.
        -11    1    1    2    0    0  0.37066380035E+02  0.11073446212E+02  0.23536884219E+02  0.45282697122E+02  0.00000000000E+00 0. -1.
         11    1    1    2    0    0 -0.29325812213E+02  0.14619461832E+02 -0.36410937078E+02  0.48984571705E+02  0.00000000000E+00 0.  1.
</event>
<event>
 7    1  0.2334784E-009  0.1116713E+03  0.7561462E-02  0.1257506E+00
          3   -1    0    0  501    0  0.00000000000E+00  0.00000000000E+00  0.27977649032E+03  0.27977649032E+03  0.00000000000E+00 0. -1.
         -3   -1    0    0    0  501 -0.00000000000E+00 -0.00000000000E+00 -0.65065728856E+02  0.65065728856E+02  0.00000000000E+00 0.  1.
         25    2    1    2    0    0  0.68809322661E+02  0.46043834532E+01  0.57054132123E+02  0.15381396328E+03  0.12509051952E+03 0.  0.
          5    1    3    3  502    0  0.15336480018E+02 -0.52914089923E+02  0.50573069559E+02  0.74901377133E+02  0.41800000000E+01 0.  1.
         -5    1    3    3    0  502  0.53472842642E+02  0.57518473376E+02  0.64810625641E+01  0.78912586143E+02  0.41800000000E+01 0.  1.
        -11    1    1    2    0    0 -0.33891041649E+02  0.26235433649E+02  0.23212843248E+02  0.48741530285E+02  0.00000000000E+00 0.  1.
         11    1    1    2    0    0 -0.34918281011E+02 -0.30839817103E+02  0.13444378609E+03  0.14228672561E+03  0.00000000000E+00 0. -1.
</event>
<event>
 7    1  0.2334784E-009  0.1453404E+03  0.7561462E-02  0.1206318E+00
          1   -1    0    0  501    0  0.00000000000E+00  0.00000000000E+00  0.95774224479E+02  0.95774224479E+02  0.00000000000E+00 0. -1.
         -1   -1    0    0    0  501 -0.00000000000E+00 -0.00000000000E+00 -0.31421094284E+03  0.31421094284E+03  0.00000000000E+00 0.  1.
         25    2    1    2    0    0  0.99589543745E+02  0.56577971100E+02 -0.33033703720E+02  0.17279420800E+03  0.12508984251E+03 0.  0.
          5    1    3    3  502    0  0.69141750038E+02  0.82199289262E+02  0.16892969473E+02  0.10881245136E+03  0.41800000000E+01 0. -1.
         -5    1    3    3    0  502  0.30447793707E+02 -0.25621318162E+02 -0.49926673193E+02  0.63981756635E+02  0.41800000000E+01 0. -1.
        -11    1    1    2    0    0 -0.66278629093E+02 -0.78924704049E+02 -0.10386894932E+03  0.14632403841E+03  0.00000000000E+00 0.  1.
         11    1    1    2    0    0 -0.33310914652E+02  0.22346732948E+02 -0.81534065327E+02  0.90866920918E+02  0.00000000000E+00 0. -1.
</event>
<event>
 7    1  0.2334784E-009  0.1543020E+03  0.7561462E-02  0.1195284E+00
          2   -1    0    0  501    0  0.00000000000E+00  0.00000000000E+00  0.27202919255E+03  0.27202919255E+03  0.00000000000E+00 0. -1.
         -2   -1    0    0    0  501 -0.00000000000E+00 -0.00000000000E+00 -0.16709139416E+03  0.16709139416E+03  0.00000000000E+00 0.  1.
         25    2    1    2    0    0  0.10482275133E+03 -0.78576403055E+02 -0.77180599646E+02  0.19688306651E+03  0.12507612324E+03 0.  0.
          5    1    3    3  502    0 -0.45453643190E+01  0.25633231542E+02  0.16808329885E+01  0.26420077510E+02  0.41800000000E+01 0.  1.
         -5    1    3    3    0  502  0.10936811564E+03 -0.10420963460E+03 -0.78861432634E+02  0.17046298900E+03  0.41800000000E+01 0.  1.
        -11    1    1    2    0    0 -0.61287941358E+02  0.42630501587E+02  0.30854219323E+02  0.80780902888E+02  0.00000000000E+00 0.  1.
         11    1    1    2    0    0 -0.43534809968E+02  0.35945901469E+02  0.15126417871E+03  0.16145661731E+03  0.00000000000E+00 0. -1.
</event>
<event>
 7    1  0.2334784E-009  0.1077948E+03  0.7561462E-02  0.1264709E+00
          1   -1    0    0  501    0  0.00000000000E+00  0.00000000000E+00  0.18557188318E+03  0.18557188318E+03  0.00000000000E+00 0. -1.
         -1   -1    0    0    0  501 -0.00000000000E+00 -0.00000000000E+00 -0.69349706206E+02  0.69349706206E+02  0.00000000000E+00 0.  1.
         25    2    1    2    0    0 -0.64952238286E+01 -0.75509567468E+01  0.10321835700E+03  0.16248312043E+03  0.12509008882E+03 0.  0.
          5    1    3    3  502    0  0.58880719827E+02  0.13560988404E+01  0.54582658104E+02  0.80408439464E+02  0.41800000000E+01 0.  1.
         -5    1    3    3    0  502 -0.65375943655E+02 -0.89070555872E+01  0.48635698894E+02  0.82074680962E+02  0.41800000000E+01 0.  1.
        -11    1    1    2    0    0  0.40409023276E+02  0.29504140234E+02  0.11761771431E+00  0.50033961336E+02  0.00000000000E+00 0.  1.
         11    1    1    2    0    0 -0.33913799447E+02 -0.21953183487E+02  0.12886202261E+02  0.42404507625E+02  0.00000000000E+00 0. -1.
</event>
<event>
 7    1  0.2334784E-009  0.1267779E+03  0.7561462E-02  0.1232317E+00
          2   -1    0    0  501    0  0.00000000000E+00  0.00000000000E+00  0.13729782260E+04  0.13729782260E+04  0.00000000000E+00 0. -1.
         -2   -1    0    0    0  501 -0.00000000000E+00 -0.00000000000E+00 -0.13218453913E+02  0.13218453913E+02  0.00000000000E+00 0.  1.
         25    2    1    2    0    0 -0.68963238887E+02  0.35501181177E+02  0.66292502773E+03  0.67906744947E+03  0.12508695516E+03 0.  0.
          5    1    3    3  502    0 -0.94933511975E+02  0.80675326780E+01  0.58075560466E+03  0.58853377262E+03  0.41800000000E+01 0. -1.
         -5    1    3    3    0  502  0.25970273087E+02  0.27433648499E+02  0.82169423075E+02  0.90533676842E+02  0.41800000000E+01 0. -1.
        -11    1    1    2    0    0  0.88252181421E+02 -0.10904179228E+02  0.52343692415E+03  0.53093649547E+03  0.00000000000E+00 0.  1.
         11    1    1    2    0    0 -0.19288942534E+02 -0.24597001949E+02  0.17339782017E+03  0.17619273495E+03  0.00000000000E+00 0. -1.
</event>
<event>
 7    1  0.2334784E-009  0.1103208E+03  0.7561462E-02  0.1259977E+00
         -1   -1    0    0    0  501 -0.00000000000E+00  0.00000000000E+00  0.50628480243E+03  0.50628480243E+03  0.00000000000E+00 0.  1.
          1   -1    0    0  501    0  0.00000000000E+00 -0.00000000000E+00 -0.35530432477E+02  0.35530432477E+02  0.00000000000E+00 0. -1.
         25    2    1    2    0    0  0.35229808069E+02  0.68872616094E+02  0.23477113632E+03  0.27703676939E+03  0.12508920224E+03 0.  0.
          5    1    3    3  502    0 -0.14176778950E+02  0.84203239764E+02  0.94294181468E+02  0.12727934517E+03  0.41800000000E+01 0.  1.
         -5    1    3    3    0  502  0.49406587019E+02 -0.15330623670E+02  0.14047695486E+03  0.14975742422E+03  0.41800000000E+01 0.  1.
        -11    1    1    2    0    0  0.44827000192E+01 -0.18884197863E+02 -0.91282739511E+00  0.19430408700E+02  0.00000000000E+00 0. -1.
         11    1    1    2    0    0 -0.39712508089E+02 -0.49988418231E+02  0.23689606102E+03  0.24534805681E+03  0.00000000000E+00 0.  1.
</event>
<event>
 7    1  0.2334784E-009  0.1773504E+03  0.7561462E-02  0.1170392E+00
         -2   -1    0    0    0  501 -0.00000000000E+00  0.00000000000E+00  0.63960529543E+02  0.63960529543E+02  0.00000000000E+00 0.  1.
          2   -1    0    0  501    0  0.00000000000E+00 -0.00000000000E+00 -0.54011063751E+03  0.54011063751E+03  0.00000000000E+00 0. -1.
         25    2    1    2    0    0 -0.28503057675E+02  0.15400784211E+03 -0.25811180384E+03  0.32680260594E+03  0.12508956886E+03 0.  0.
          5    1    3    3  502    0  0.66619895589E+01  0.14729788093E+03 -0.24934464839E+03  0.28970894690E+03  0.41800000000E+01 0.  1.
         -5    1    3    3    0  502 -0.35165047234E+02  0.67099611801E+01 -0.87671554432E+01  0.37093659035E+02  0.41800000000E+01 0.  1.
        -11    1    1    2    0    0  0.37242019390E+02 -0.32796035976E+02 -0.68198162560E+02  0.84341788934E+02  0.00000000000E+00 0.  1.
         11    1    1    2    0    0 -0.87389617151E+01 -0.12121180614E+03 -0.14984014157E+03  0.19292677218E+03  0.00000000000E+00 0. -1.
</event>
<event>
 7    1  0.2334784E-009  0.1493399E+03  0.7561462E-02  0.1201286E+00
          4   -1    0    0  501    0  0.00000000000E+00  0.00000000000E+00  0.21826785381E+02  0.21826785381E+02  0.00000000000E+00 0. -1.
         -4   -1    0    0    0  501 -0.00000000000E+00 -0.00000000000E+00 -0.12897471960E+04  0.12897471960E+04  0.00000000000E+00 0.  1.
         25    2    1    2    0    0 -0.79652216900E+01 -0.12254030100E+03 -0.81076915067E+03  0.82950202352E+03  0.12508965277E+03 0.  0.
          5    1    3    3  502    0  0.35567249834E+02 -0.34899815909E+02 -0.52575638172E+03  0.52812902943E+03  0.41800000000E+01 0. -1.
         -5    1    3    3    0  502 -0.43532471524E+02 -0.87640485095E+02 -0.28501276895E+03  0.30137299410E+03  0.41800000000E+01 0. -1.
        -11    1    1    2    0    0  0.43676200519E+02  0.34294370223E+02 -0.21006672620E+03  0.21728263570E+03  0.00000000000E+00 0.  1.
         11    1    1    2    0    0 -0.35710978829E+02  0.88245930780E+02 -0.24708453376E+03  0.26478932216E+03  0.00000000000E+00 0. -1.
</event>
<event>
 7    1  0.2334784E-009  0.1482321E+03  0.7561462E-02  0.1202662E+00
         -1   -1    0    0    0  501 -0.00000000000E+00  0.00000000000E+00  0.93378679098E+02  0.93378679098E+02  0.00000000000E+00 0.  1.
          1   -1    0    0  501    0  0.00000000000E+00 -0.00000000000E+00 -0.26763738478E+03  0.26763738478E+03  0.00000000000E+00 0. -1.
         25    2    1    2    0    0  0.11366974700E+01  0.10379715900E+03 -0.38509355279E+02  0.16705036343E+03  0.12509081173E+03 0.  0.
          5    1    3    3  502    0 -0.58637869543E+02  0.57713983627E+02 -0.39700918415E+02  0.91449105920E+02  0.41800000000E+01 0. -1.
         -5    1    3    3    0  502  0.59774567013E+02  0.46083175374E+02  0.11915631361E+01  0.75601257508E+02  0.41800000000E+01 0. -1.
        -11    1    1    2    0    0 -0.21363462306E+02  0.95154610441E+01 -0.20915191977E+02  0.31374938662E+02  0.00000000000E+00 0.  1.
         11    1    1    2    0    0  0.20226764836E+02 -0.11331262005E+03 -0.11483415843E+03  0.16259076179E+03  0.00000000000E+00 0. -1.
</event>
<event>
 7    1  0.2334784E-009  0.1407564E+03  0.7561462E-02  0.1212315E+00
         -1   -1    0    0    0  501 -0.00000000000E+00  0.00000000000E+00  0.11353813838E+03  0.11353813838E+03  0.00000000000E+00 0.  1.
          1   -1    0    0  501    0  0.00000000000E+00 -0.00000000000E+00 -0.21633176677E+03  0.21633176677E+03  0.00000000000E+00 0. -1.
         25    2    1    2    0    0 -0.39286927465E+02 -0.93861714884E+02 -0.10781066418E+03  0.19396807834E+03  0.12508793672E+03 0.  0.
          5    1    3    3  502    0 -0.61895930913E+02 -0.11434575868E+03 -0.92148537229E+02  0.15942046326E+03  0.41800000000E+01 0.  1.
         -5    1    3    3    0  502  0.22609003447E+02  0.20484043799E+02 -0.15662126954E+02  0.34547615083E+02  0.41800000000E+01 0.  1.
        -11    1    1    2    0    0  0.54444095661E+02  0.48897487452E+02  0.33582753982E+02  0.80516614413E+02  0.00000000000E+00 0.  1.
         11    1    1    2    0    0 -0.15157168196E+02  0.44964227432E+02 -0.28565718195E+02  0.55385212397E+02  0.00000000000E+00 0. -1.
</event>
<event>
 7    1  0.2837441E-009  0.1054087E+03  0.7561462E-02  0.1269316E+00
          2   -1    0    0  501    0  0.00000000000E+00  0.00000000000E+00  0.28774164447E+03  0.28774164447E+03  0.00000000000E+00 0. -1.
         -2   -1    0    0    0  501 -0.00000000000E+00 -0.00000000000E+00 -0.11437377205E+03  0.11437377205E+03  0.00000000000E+00 0.  1.
         25    2    1    2    0    0 -0.83131274198E+02 -0.41001238803E+01 -0.39918441764E+02  0.15546322969E+03  0.12509082311E+03 0.  0.
          5    1    3    3  502    0  0.29434258927E+01  0.17862488800E+01  0.38452168154E+02  0.38831637576E+02  0.41800000000E+01 0. -1.
         -5    1    3    3    0  502 -0.86074700091E+02 -0.58863727604E+01 -0.78370609918E+02  0.11663159211E+03  0.41800000000E+01 0. -1.
        -11    1    1    2    0    0  0.17052847419E+02  0.40243746272E+02  0.47442681852E+02  0.64507106434E+02  0.00000000000E+00 0.  1.
         11    1    1    2    0    0  0.66078426779E+02 -0.36143622392E+02  0.16584363234E+03  0.18214508040E+03  0.00000000000E+00 0. -1.
</event>
<event>
 7    1  0.2334784E-009  0.1214823E+03  0.7561462E-02  0.1240671E+00
          3   -1    0    0  501    0  0.00000000000E+00  0.00000000000E+00  0.15702514230E+03  0.15702514230E+03  0.00000000000E+00 0. -1.
         -3   -1    0    0    0  501 -0.00000000000E+00 -0.00000000000E+00 -0.12257355059E+03  0.12257355059E+03  0.00000000000E+00 0.  1.
         25    2    1    2    0    0  0.85220409661E+02  0.83543912981E+01  0.14411824754E+02  0.15227163332E+03  0.12508651225E+03 0.  0.
          5    1    3    3  502    0 -0.24860241288E+02 -0.25976264474E+02  0.29184119818E+01  0.36315113127E+02  0.41800000000E+01 0.  1.
         -5    1    3    3    0  502  0.11008065095E+03  0.34330655772E+02  0.11493412773E+02  0.11595652020E+03  0.41800000000E+01 0.  1.
        -11    1    1    2    0    0 -0.46358739778E+02 -0.20467287517E+02  0.54190274431E+02  0.74193183346E+02  0.00000000000E+00 0. -1.
         11    1    1    2    0    0 -0.38861669883E+02  0.12112896219E+02 -0.34150507474E+02  0.53133876215E+02  0.00000000000E+00 0.  1.
</event>
<event>
 7    1  0.2334784E-009  0.1313476E+03  0.7561462E-02  0.1225470E+00
         -1   -1    0    0    0  501 -0.00000000000E+00  0.00000000000E+00  0.17021553255E+03  0.17021553255E+03  0.00000000000E+00 0.  1.
          1   -1    0    0  501    0  0.00000000000E+00 -0.00000000000E+00 -0.17385667252E+03  0.17385667252E+03  0.00000000000E+00 0. -1.
         25    2    1    2    0    0 -0.62423308739E+02  0.96030716549E+02  0.69815085716E+02  0.18341780797E+03  0.12509747436E+03 0.  0.
          5    1    3    3  502    0  0.58672829452E+01  0.75389822505E+02  0.81218701587E+02  0.11104953955E+03  0.41800000000E+01 0.  1.
         -5    1    3    3    0  502 -0.68290591684E+02  0.20640894044E+02 -0.11403615871E+02  0.72368268422E+02  0.41800000000E+01 0.  1.
        -11    1    1    2    0    0  0.58439561595E+02 -0.80572660234E+02 -0.15740166966E+02  0.10077146815E+03  0.00000000000E+00 0.  1.
         11    1    1    2    0    0  0.39837471440E+01 -0.15458056316E+02 -0.57716058713E+02  0.59882928951E+02  0.00000000000E+00 0. -1.
</event>
<event>
 7    1  0.2719640E-009  0.1144020E+03  0.7561462E-02  0.1252629E+00
          2   -1    0    0  501    0  0.00000000000E+00  0.00000000000E+00  0.73491898128E+02  0.73491898128E+02  0.00000000000E+00 0.  1.
         -2   -1    0    0    0  501 -0.00000000000E+00 -0.00000000000E+00 -0.31289047642E+03  0.31289047642E+03  0.00000000000E+00 0. -1.
         25    2    1    2    0    0  0.10006111764E+03 -0.32723187314E+02 -0.14487476492E+03  0.21844456894E+03  0.12508516273E+03 0.  0.
          5    1    3    3  502    0  0.37948522207E+02 -0.30490682907E+02 -0.14821630611E+03  0.15606190400E+03  0.41800000000E+01 0.  1.
         -5    1    3    3    0  502  0.62112595433E+02 -0.22325044067E+01  0.33415411882E+01  0.62382664939E+02  0.41800000000E+01 0.  1.
        -11    1    1    2    0    0 -0.70244061010E+02  0.47075841870E+02 -0.20729715404E+02  0.87063678395E+02  0.00000000000E+00 0.  1.
         11    1    1    2    0    0 -0.29817056630E+02 -0.14352654556E+02 -0.73794097966E+02  0.80874127220E+02  0.00000000000E+00 0. -1.
</event>
<event>
 7    1  0.2334784E-009  0.2386309E+03  0.7561462E-02  0.1120708E+00
         -2   -1    0    0    0  501 -0.00000000000E+00  0.00000000000E+00  0.34525412137E+03  0.34525412137E+03  0.00000000000E+00 0.  1.
          2   -1    0    0  501    0  0.00000000000E+00 -0.00000000000E+00 -0.20727279132E+03  0.20727279132E+03  0.00000000000E+00 0. -1.
         25    2    1    2    0    0 -0.17409230177E+03  0.14743391587E+03 -0.19403095099E+02  0.26089891574E+03  0.12508746961E+03 0.  0.
          5    1    3    3  502    0 -0.43083623208E+02  0.81426720374E+02  0.42600202399E+02  0.10158129269E+03  0.41800000000E+01 0. -1.
         -5    1    3    3    0  502 -0.13100867856E+03  0.66007195495E+02 -0.62003297498E+02  0.15931762305E+03  0.41800000000E+01 0. -1.
        -11    1    1    2    0    0  0.16620043050E+03 -0.15506806827E+03  0.16259512279E+03  0.27947426152E+03  0.00000000000E+00 0.  1.
         11    1    1    2    0    0  0.78918712623E+01  0.76341524062E+01 -0.52106976417E+01  0.12153735430E+02  0.00000000000E+00 0. -1.
</event>
<event>
 7    1  0.2334784E-009  0.2350470E+03  0.7561462E-02  0.1123137E+00
          2   -1    0    0  501    0  0.00000000000E+00  0.00000000000E+00  0.29525393629E+04  0.29525393629E+04  0.00000000000E+00 0. -1.
         -2   -1    0    0    0  501 -0.00000000000E+00 -0.00000000000E+00 -0.19348680884E+02  0.19348680884E+02  0.00000000000E+00 0.  1.
         25    2    1    2    0    0  0.16524659204E+03  0.13220755839E+03  0.16302624636E+04  0.16486930558E+04  0.12509123592E+03 0.  0.
          5    1    3    3  502    0  0.63888489760E+02 -0.10030496770E+02  0.62618814836E+03  0.62953269934E+03  0.41800000000E+01 0.  1.
         -5    1    3    3    0  502  0.10135810228E+03  0.14223805516E+03  0.10040743152E+04  0.10191603564E+04  0.41800000000E+01 0.  1.
        -11    1    1    2    0    0 -0.92343651316E+02 -0.12763104696E+03  0.90981522623E+03  0.92335300940E+03  0.00000000000E+00 0. -1.
         11    1    1    2    0    0 -0.72902940723E+02 -0.45765114352E+01  0.39311299214E+03  0.39984197855E+03  0.00000000000E+00 0.  1.
</event>
<event>
 7    1  0.2334784E-009  0.9183476E+02  0.7561462E-02  0.1298468E+00
         -3   -1    0    0    0  501 -0.00000000000E+00  0.00000000000E+00  0.70282660401E+02  0.70282660401E+02  0.00000000000E+00 0.  1.
          3   -1    0    0  501    0  0.00000000000E+00 -0.00000000000E+00 -0.25471556507E+03  0.25471556507E+03  0.00000000000E+00 0. -1.
         25    2    1    2    0    0 -0.10405569729E+01  0.27433205391E+02 -0.96183695692E+01  0.12842404332E+03  0.12508620369E+03 0.  0.
          5    1    3    3  502    0 -0.46225824871E+02  0.28281993682E+02 -0.45249338479E+02  0.70722507623E+02  0.41800000000E+01 0. -1.
         -5    1    3    3    0  502  0.45185267898E+02 -0.84878829095E+00  0.35630968910E+02  0.57701535700E+02  0.41800000000E+01 0. -1.
        -11    1    1    2    0    0  0.49183081670E+01  0.27966579263E+02 -0.29206757155E+02  0.40735168766E+02  0.00000000000E+00 0.  1.
         11    1    1    2    0    0 -0.38777511940E+01 -0.55399784654E+02 -0.14560777794E+03  0.15583901338E+03  0.00000000000E+00 0. -1.
</event>
<event>
 7    1  0.2334784E-009  0.1088813E+03  0.7561462E-02  0.1262656E+00
         -2   -1    0    0    0  501 -0.00000000000E+00  0.00000000000E+00  0.67656779373E+02  0.67656779373E+02  0.00000000000E+00 0.  1.
          2   -1    0    0  501    0  0.00000000000E+00 -0.00000000000E+00 -0.26722701141E+03  0.26722701141E+03  0.00000000000E+00 0. -1.
         25    2    1    2    0    0  0.62843857491E+02  0.33479274113E+02 -0.14709685068E+03  0.20580394575E+03  0.12509024098E+03 0.  0.
          5    1    3    3  502    0  0.15555410787E+02 -0.45037769218E+02 -0.27868301957E+02  0.55357800849E+02  0.41800000000E+01 0. -1.
         -5    1    3    3    0  502  0.47288446704E+02  0.78517043332E+02 -0.11922854872E+03  0.15044614490E+03  0.41800000000E+01 0. -1.
        -11    1    1    2    0    0 -0.55198038530E+02 -0.39969054186E+02  0.72374420941E+01  0.68532687953E+02  0.00000000000E+00 0. -1.
         11    1    1    2    0    0 -0.76458189612E+01  0.64897800726E+01 -0.59710823446E+02  0.60547157072E+02  0.00000000000E+00 0.  1.
</event>
<event>
 7    1  0.2334784E-009  0.1045963E+03  0.7561462E-02  0.1270917E+00
         -2   -1    0    0    0  501 -0.00000000000E+00  0.00000000000E+00  0.13416211153E+03  0.13416211153E+03  0.00000000000E+00 0.  1.
          2   -1    0    0  501    0  0.00000000000E+00 -0.00000000000E+00 -0.95937733151E+02  0.95937733151E+02  0.00000000000E+00 0. -1.
         25    2    1    2    0    0  0.35041586533E+02 -0.13296016919E+02  0.62229118735E+01  0.13073590927E+03  0.12509379077E+03 0.  0.
          5    1    3    3  502    0 -0.46204056812E+02 -0.13939644337E+02 -0.46171109361E+01  0.48661264509E+02  0.41800000000E+01 0.  1.
         -5    1    3    3    0  502  0.81245643345E+02  0.64362741821E+00  0.10840022810E+02  0.82074644765E+02  0.41800000000E+01 0.  1.
        -11    1    1    2    0    0  0.13942186601E+02  0.25367129535E+02 -0.13026934382E+02  0.31742351007E+02  0.00000000000E+00 0.  1.
         11    1    1    2    0    0 -0.48983773134E+02 -0.12071112616E+02  0.45028400882E+02  0.67621584396E+02  0.00000000000E+00 0. -1.
</event>
<event>
 7    1  0.2334784E-009  0.1064610E+03  0.7561462E-02  0.1267267E+00
         -2   -1    0    0    0  501 -0.00000000000E+00  0.00000000000E+00  0.34418158488E+02  0.34418158488E+02  0.00000000000E+00 0.  1.
          2   -1    0    0  501    0  0.00000000000E+00 -0.00000000000E+00 -0.42512450976E+03  0.42512450976E+03  0.00000000000E+00 0. -1.
         25    2    1    2    0    0 -0.39475862580E+01 -0.37400052749E+02 -0.18092640817E+03  0.22315199146E+03  0.12509236082E+03 0.  0.
          5    1    3    3  502    0 -0.64077973794E+02 -0.25592588690E+02 -0.91999008997E+02  0.11507500762E+03  0.41800000000E+01 0. -1.
         -5    1    3    3    0  502  0.60130387536E+02 -0.11807464059E+02 -0.88927399176E+02  0.10807698384E+03  0.41800000000E+01 0. -1.
        -11    1    1    2    0    0  0.37973777829E+02  0.27667314169E+02 -0.36396840438E+02  0.59432466463E+02  0.00000000000E+00 0.  1.
         11    1    1    2    0    0 -0.34026191571E+02  0.97327385793E+01 -0.17338310266E+03  0.17695821033E+03  0.00000000000E+00 0. -1.
</event>
<event>
 7    1  0.2334784E-009  0.9896360E+02  0.7561462E-02  0.1282491E+00
          2   -1    0    0  501    0  0.00000000000E+00  0.00000000000E+00  0.60020683709E+03  0.60020683709E+03  0.00000000000E+00 0. -1.
         -2   -1    0    0    0  501 -0.00000000000E+00 -0.00000000000E+00 -0.24708919834E+02  0.24708919834E+02  0.00000000000E+00 0.  1.
         25    2    1    2    0    0  0.92035896790E+01  0.89747880006E+01  0.46752127661E+03  0.48414069083E+03  0.12510320360E+03 0.  0.
          5    1    3    3  502    0  0.16427934228E+02  0.56903077127E+02  0.37438416269E+03  0.37906306979E+03  0.41800000000E+01 0. -1.
         -5    1    3    3    0  502 -0.72243445490E+01 -0.47928289126E+02  0.93137113929E+02  0.10507762104E+03  0.41800000000E+01 0. -1.
        -11    1    1    2    0    0 -0.47467984829E+02  0.78333682713E+01  0.64526065925E+02  0.80487169325E+02  0.00000000000E+00 0. -1.
         11    1    1    2    0    0  0.38264395150E+02 -0.16808156272E+02  0.43450574719E+02  0.60287896770E+02  0.00000000000E+00 0.  1.
</event>
<event>
 7    1  0.2334784E-009  0.9901625E+02  0.7561462E-02  0.1282378E+00
         -1   -1    0    0    0  501 -0.00000000000E+00  0.00000000000E+00  0.19204037632E+03  0.19204037632E+03  0.00000000000E+00 0.  1.
          1   -1    0    0  501    0  0.00000000000E+00 -0.00000000000E+00 -0.79639539357E+02  0.79639539357E+02  0.00000000000E+00 0. -1.
         25    2    1    2    0    0  0.45889771618E+02 -0.39177130609E+01  0.20151347224E+02  0.13481098360E+03  0.12508678943E+03 0.  0.
          5    1    3    3  502    0 -0.36507785120E+02  0.20377924950E+02  0.24599324962E+02  0.48689602466E+02  0.41800000000E+01 0.  1.
         -5    1    3    3    0  502  0.82397556738E+02 -0.24295638011E+02 -0.44479777383E+01  0.86121381136E+02  0.41800000000E+01 0.  1.
        -11    1    1    2    0    0  0.99787169767E+01 -0.81104266644E+01  0.76523069742E+02  0.77595966492E+02  0.00000000000E+00 0.  1.
         11    1    1    2    0    0 -0.55868488594E+02  0.12028139725E+02  0.15726419997E+02  0.59272965583E+02  0.00000000000E+00 0. -1.
</event>
<event>
 7    1  0.2334784E-009  0.1060119E+03  0.7561462E-02  0.1268139E+00
          2   -1    0    0  501    0  0.00000000000E+00  0.00000000000E+00  0.15002067259E+03  0.15002067259E+03  0.00000000000E+00 0.  1.
         -2   -1    0    0    0  501 -0.00000000000E+00 -0.00000000000E+00 -0.90801493235E+02  0.90801493235E+02  0.00000000000E+00 0. -1.
         25    2    1    2    0    0 -0.30298483248E+02 -0.41454893899E+02  0.24698696729E+02  0.13745478660E+03  0.12508911393E+03 0.  0.
          5    1    3    3  502    0 -0.50612526573E+02  0.23231665101E+02 -0.16218223819E+02  0.58153600863E+02  0.41800000000E+01 0.  1.
         -5    1    3    3    0  502  0.20314043326E+02 -0.64686559000E+02  0.40916920548E+02  0.79301185732E+02  0.41800000000E+01 0.  1.
        -11    1    1    2    0    0 -0.19129173357E+02  0.32940137980E+02  0.37062862723E+02  0.53147283625E+02  0.00000000000E+00 0.  1.
         11    1    1    2    0    0  0.49427656605E+02  0.85147559183E+01 -0.25423800989E+01  0.50220095603E+02  0.00000000000E+00 0. -1.
</event>
<event>
 7    1  0.2334784E-009  0.1265428E+03  0.7561462E-02  0.1232678E+00
         -1   -1    0    0    0  501 -0.00000000000E+00  0.00000000000E+00  0.82676482243E+03  0.82676482243E+03  0.00000000000E+00 0.  1.
          1   -1    0    0  501    0  0.00000000000E+00 -0.00000000000E+00 -0.38218253046E+02  0.38218253046E+02  0.00000000000E+00 0. -1.
         25    2    1    2    0    0 -0.84652496539E+02  0.68307062831E+02  0.20039811093E+03  0.26007382709E+03  0.12508833946E+03 0.  0.
          5    1    3    3  502    0 -0.38125454636E+01  0.12048244014E+02 -0.16869749895E+02  0.21488521314E+02  0.41800000000E+01 0.  1.
         -5    1    3    3    0  502 -0.80839951075E+02  0.56258818816E+02  0.21726786082E+03  0.23858530577E+03  0.41800000000E+01 0.  1.
        -11    1    1    2    0    0  0.61046751738E+02 -0.90256808333E+02  0.46731206528E+03  0.47984743794E+03  0.00000000000E+00 0.  1.
         11    1    1    2    0    0  0.23605744801E+02  0.21949745502E+02  0.12083639318E+03  0.12506181045E+03  0.00000000000E+00 0. -1.
</event>
<event>
 7    1  0.2334784E-009  0.1098108E+03  0.7561462E-02  0.1260921E+00
          1   -1    0    0  501    0  0.00000000000E+00  0.00000000000E+00  0.23802630691E+03  0.23802630691E+03  0.00000000000E+00 0. -1.
         -1   -1    0    0    0  501 -0.00000000000E+00 -0.00000000000E+00 -0.90148684190E+02  0.90148684190E+02  0.00000000000E+00 0.  1.
         25    2    1    2    0    0  0.11757386024E+02 -0.71825877214E+02  0.15457307011E+03  0.21174914889E+03  0.12509066828E+03 0.  0.
          5    1    3    3  502    0  0.60179051465E+02 -0.46824131964E+02  0.43320441133E+02  0.87796073884E+02  0.41800000000E+01 0.  1.
         -5    1    3    3    0  502 -0.48421665441E+02 -0.25001745250E+02  0.11125262898E+03  0.12395307501E+03  0.41800000000E+01 0.  1.
        -11    1    1    2    0    0  0.20043190625E+02  0.29351004092E+02  0.34284803968E+02  0.49382777512E+02  0.00000000000E+00 0. -1.
         11    1    1    2    0    0 -0.31800576649E+02  0.42474873123E+02 -0.40980251361E+02  0.67043064694E+02  0.00000000000E+00 0.  1.
</event>
<event>
 7    1  0.2334784E-009  0.1169000E+03  0.7561462E-02  0.1248300E+00
         -2   -1    0    0    0  501 -0.00000000000E+00  0.00000000000E+00  0.33080427273E+02  0.33080427273E+02  0.00000000000E+00 0. -1.
          2   -1    0    0  501    0  0.00000000000E+00 -0.00000000000E+00 -0.48449362968E+03  0.48449362968E+03  0.00000000000E+00 0.  1.
         25    2    1    2    0    0  0.27510800036E+02 -0.56093732351E+02 -0.29928456153E+03  0.33033116594E+03  0.12507629469E+03 0.  0.
          5    1    3    3  502    0 -0.46357729517E+02  0.66699768875E+00 -0.97780616981E+02  0.10829591603E+03  0.41800000000E+01 0. -1.
         -5    1    3    3    0  502  0.73868529553E+02 -0.56760730040E+02 -0.20150394455E+03  0.22203524991E+03  0.41800000000E+01 0. -1.
        -11    1    1    2    0    0  0.20470866640E+02  0.37141167116E+02 -0.11799251995E+03  0.12538244470E+03  0.00000000000E+00 0.  1.
         11    1    1    2    0    0 -0.47981666676E+02  0.18952565235E+02 -0.34136120933E+02  0.61860446316E+02  0.00000000000E+00 0. -1.
</event>
<event>
 7    1  0.3547821E-009  0.1485750E+03  0.7561462E-02  0.1202235E+00
         -2   -1    0    0    0  501 -0.00000000000E+00  0.00000000000E+00  0.28552810404E+02  0.28552810404E+02  0.00000000000E+00 0.  1.
          2   -1    0    0  501    0  0.00000000000E+00 -0.00000000000E+00 -0.96361777153E+03  0.96361777153E+03  0.00000000000E+00 0. -1.
         25    2    1    2    0    0 -0.12145111635E+03 -0.23487122759E+02 -0.55029703346E+03  0.57773407988E+03  0.12509126037E+03 0.  0.
          5    1    3    3  502    0 -0.62877082253E+02 -0.72942424548E+02 -0.35599157000E+03  0.36881105608E+03  0.41800000000E+01 0.  1.
         -5    1    3    3    0  502 -0.58574034097E+02  0.49455301789E+02 -0.19430546346E+03  0.20892302380E+03  0.41800000000E+01 0.  1.
        -11    1    1    2    0    0  0.55968290837E+02  0.65855969441E+01 -0.30360305890E+03  0.30878898465E+03  0.00000000000E+00 0. -1.
         11    1    1    2    0    0  0.65482825513E+02  0.16901525815E+02 -0.81164868761E+02  0.10564751740E+03  0.00000000000E+00 0.  1.
</event>
<event>
 7    1  0.2789566E-009  0.1094442E+03  0.7561462E-02  0.1261603E+00
          1   -1    0    0  501    0  0.00000000000E+00  0.00000000000E+00  0.29127615264E+03  0.29127615264E+03  0.00000000000E+00 0. -1.
         -1   -1    0    0    0  501 -0.00000000000E+00 -0.00000000000E+00 -0.69257121185E+02  0.69257121185E+02  0.00000000000E+00 0.  1.
         25    2    1    2    0    0 -0.58168755204E+02  0.64603771084E+02  0.84587145700E+02  0.17424346638E+03  0.12509416068E+03 0.  0.
          5    1    3    3  502    0 -0.48535782599E+02  0.68382233223E+02  0.11469050211E+03  0.14213808669E+03  0.41800000000E+01 0. -1.
         -5    1    3    3    0  502 -0.96329726052E+01 -0.37784621393E+01 -0.30103356414E+02  0.32105379685E+02  0.41800000000E+01 0. -1.
        -11    1    1    2    0    0  0.14388957670E+02 -0.76947746796E+02  0.10230318628E+03  0.12881746684E+03  0.00000000000E+00 0. -1.
         11    1    1    2    0    0  0.43779797534E+02  0.12343975712E+02  0.35128699476E+02  0.57472340611E+02  0.00000000000E+00 0.  1.
</event>
<event>
 7    1  0.2334784E-009  0.1019097E+03  0.7561462E-02  0.1276331E+00
         -1   -1    0    0    0  501 -0.00000000000E+00  0.00000000000E+00  0.40166649982E+02  0.40166649982E+02  0.00000000000E+00 0.  1.
          1   -1    0    0  501    0  0.00000000000E+00 -0.00000000000E+00 -0.43997308247E+03  0.43997308247E+03  0.00000000000E+00 0. -1.
         25    2    1    2    0    0  0.39220284051E+02  0.64254363183E+02 -0.23136566724E+03  0.27357661955E+03  0.12508893204E+03 0.  0.
          5    1    3    3  502    0  0.47764037564E+02  0.72571401092E+02 -0.69816134666E+02  0.11153374647E+03  0.41800000000E+01 0. -1.
         -5    1    3    3    0  502 -0.85437535131E+01 -0.83170379086E+01 -0.16154953257E+03  0.16204287309E+03  0.41800000000E+01 0. -1.
        -11    1    1    2    0    0  0.13957605680E+02 -0.45857451759E+02 -0.28582195962E+02  0.55809162009E+02  0.00000000000E+00 0.  1.
         11    1    1    2    0    0 -0.53177889731E+02 -0.18396911424E+02 -0.13985856929E+03  0.15075395090E+03  0.00000000000E+00 0. -1.
</event>
<event>
 7    1  0.2334784E-009  0.1450741E+03  0.7561462E-02  0.1206660E+00
          2   -1    0    0  501    0  0.00000000000E+00  0.00000000000E+00  0.55386006763E+03  0.55386006763E+03  0.00000000000E+00 0.  1.
         -2   -1    0    0    0  501 -0.00000000000E+00 -0.00000000000E+00 -0.49970067018E+02  0.49970067018E+02  0.00000000000E+00 0. -1.
         25    2    1    2    0    0  0.32372603875E+02 -0.12000966374E+03  0.30455580338E+03  0.35192934562E+03  0.12509884917E+03 0.  0.
          5    1    3    3  502    0  0.56882084068E+02 -0.11768521681E+03  0.29899671729E+03  0.32634627483E+03  0.41800000000E+01 0.  1.
         -5    1    3    3    0  502 -0.24509480193E+02 -0.23244469279E+01  0.55590860888E+01  0.25583070789E+02  0.41800000000E+01 0.  1.
        -11    1    1    2    0    0  0.85966131467E+01  0.66259271797E+02  0.16074019057E+03  0.17407355262E+03  0.00000000000E+00 0.  1.
         11    1    1    2    0    0 -0.40969217021E+02  0.53750391944E+02  0.38594006668E+02  0.77827236416E+02  0.00000000000E+00 0. -1.
</event>
<event>
 7    1  0.2334784E-009  0.7884811E+02  0.7561462E-02  0.1332352E+00
          1   -1    0    0  501    0  0.00000000000E+00  0.00000000000E+00  0.48350522427E+03  0.48350522427E+03  0.00000000000E+00 0. -1.
         -1   -1    0    0    0  501 -0.00000000000E+00 -0.00000000000E+00 -0.32959101263E+02  0.32959101263E+02  0.00000000000E+00 0.  1.
         25    2    1    2    0    0 -0.31142894997E+02 -0.32997655095E+02  0.32106311247E+03  0.34754738706E+03  0.12509571901E+03 0.  0.
          5    1    3    3  502    0 -0.66614170332E+01  0.10373873369E+02 -0.76213875882E+01  0.15084749727E+02  0.41800000000E+01 0.  1.
         -5    1    3    3    0  502 -0.24481477964E+02 -0.43371528464E+02  0.32868450006E+03  0.33246263734E+03  0.41800000000E+01 0.  1.
        -11    1    1    2    0    0 -0.21349834256E+02 -0.12922342620E+02  0.78923740972E+02  0.82775354125E+02  0.00000000000E+00 0. -1.
         11    1    1    2    0    0  0.52492729253E+02  0.45919997715E+02  0.50559269560E+02  0.86141584343E+02  0.00000000000E+00 0.  1.
</event>
<event>
 7    1  0.2334784E-009  0.2165853E+03  0.7561462E-02  0.1136455E+00
         -1   -1    0    0    0  501 -0.00000000000E+00  0.00000000000E+00  0.32948573498E+03  0.32948573498E+03  0.00000000000E+00 0.  1.
          1   -1    0    0  501    0  0.00000000000E+00 -0.00000000000E+00 -0.18536469520E+03  0.18536469520E+03  0.00000000000E+00 0. -1.
         25    2    1    2    0    0 -0.13999226393E+03 -0.15326885829E+03 -0.61552523722E+01  0.24243446852E+03  0.12508959794E+03 0.  0.
          5    1    3    3  502    0 -0.23240893092E+02 -0.10924125858E+01  0.38758245966E+02  0.45398309520E+02  0.41800000000E+01 0. -1.
         -5    1    3    3    0  502 -0.11675137083E+03 -0.15217644571E+03 -0.44913498338E+02  0.19703615900E+03  0.41800000000E+01 0. -1.
        -11    1    1    2    0    0  0.57120589148E-01  0.33474948631E+02  0.56598661758E+02  0.65757006938E+02  0.00000000000E+00 0.  1.
         11    1    1    2    0    0  0.13993514334E+03  0.11979390966E+03  0.93677630390E+02  0.20665895473E+03  0.00000000000E+00 0. -1.
</event>
<event>
 7    1  0.2334784E-009  0.1283016E+03  0.7561462E-02  0.1229998E+00
         -2   -1    0    0    0  501 -0.00000000000E+00  0.00000000000E+00  0.30112754339E+02  0.30112754339E+02  0.00000000000E+00 0.  1.
          2   -1    0    0  501    0  0.00000000000E+00 -0.00000000000E+00 -0.10456925125E+04  0.10456925125E+04  0.00000000000E+00 0. -1.
         25    2    1    2    0    0  0.43490497858E+02  0.11701816407E+03 -0.34062768134E+03  0.38374338226E+03  0.12508833680E+03 0.  0.
          5    1    3    3  502    0  0.23742565518E+02  0.57601135809E+02 -0.34680379564E+02  0.71426895428E+02  0.41800000000E+01 0. -1.
         -5    1    3    3    0  502  0.19747932340E+02  0.59417028266E+02 -0.30594730178E+03  0.31231648683E+03  0.41800000000E+01 0. -1.
        -11    1    1    2    0    0 -0.19293541672E+02 -0.10082320493E+02 -0.25985370673E+02  0.33898870568E+02  0.00000000000E+00 0.  1.
         11    1    1    2    0    0 -0.24196956186E+02 -0.10693584358E+03 -0.64896670618E+03  0.65816301405E+03  0.00000000000E+00 0. -1.
</event>
<event>
 7    1  0.2334784E-009  0.1184749E+03  0.7561462E-02  0.1245634E+00
         -1   -1    0    0    0  501 -0.00000000000E+00  0.00000000000E+00  0.14125498164E+03  0.14125498164E+03  0.00000000000E+00 0.  1.
          1   -1    0    0  501    0  0.00000000000E+00 -0.00000000000E+00 -0.12732234990E+03  0.12732234990E+03  0.00000000000E+00 0. -1.
         25    2    1    2    0    0 -0.51165393303E+01  0.76585145252E+02 -0.45342678156E+02  0.15360727606E+03  0.12509106022E+03 0.  0.
          5    1    3    3  502    0 -0.34284624829E+02  0.99727830251E+02 -0.17623681587E+02  0.10700066439E+03  0.41800000000E+01 0.  1.
         -5    1    3    3    0  502  0.29168085499E+02 -0.23142684999E+02 -0.27718996569E+02  0.46606611671E+02  0.41800000000E+01 0.  1.
        -11    1    1    2    0    0  0.29714184658E+02 -0.44629572313E+02  0.50596173894E+02  0.73720447010E+02  0.00000000000E+00 0.  1.
         11    1    1    2    0    0 -0.24597645327E+02 -0.31955572939E+02  0.86791359981E+01  0.41249608473E+02  0.00000000000E+00 0. -1.
</event>
<event>
 7    1  0.2334784E-009  0.7477751E+02  0.7561462E-02  0.1344561E+00
         -4   -1    0    0    0  501 -0.00000000000E+00  0.00000000000E+00  0.27355829162E+02  0.27355829162E+02  0.00000000000E+00 0. -1.
          4   -1    0    0  501    0  0.00000000000E+00 -0.00000000000E+00 -0.50207505323E+03  0.50207505323E+03  0.00000000000E+00 0.  1.
         25    2    1    2    0    0  0.22467131068E+01 -0.42581957940E+02 -0.22948035925E+03  0.26481426444E+03  0.12508832283E+03 0.  0.
          5    1    3    3  502    0 -0.14635167503E+02 -0.37508330569E+02 -0.63787930103E+01  0.40978340501E+02  0.41800000000E+01 0.  1.
         -5    1    3    3    0  502  0.16881880610E+02 -0.50736273711E+01 -0.22310156624E+03  0.22383592394E+03  0.41800000000E+01 0.  1.
        -11    1    1    2    0    0  0.38130004496E+02  0.10960259903E+02 -0.56528903237E+02  0.69061866765E+02  0.00000000000E+00 0. -1.
         11    1    1    2    0    0 -0.40376717602E+02  0.31621698038E+02 -0.18870996158E+03  0.19555475119E+03  0.00000000000E+00 0.  1.
</event>
<event>
 7    1  0.2334784E-009  0.1865778E+03  0.7561462E-02  0.1161585E+00
          1   -1    0    0  501    0  0.00000000000E+00  0.00000000000E+00  0.49961676882E+03  0.49961676882E+03  0.00000000000E+00 0. -1.
         -1   -1    0    0    0  501 -0.00000000000E+00 -0.00000000000E+00 -0.90195718537E+02  0.90195718537E+02  0.00000000000E+00 0.  1.
         25    2    1    2    0    0  0.12051871102E+02 -0.16225027208E+03  0.32649367652E+03  0.38563693948E+03  0.12508928770E+03 0.  0.
          5    1    3    3  502    0  0.64021808752E+02 -0.65881040368E+02  0.11319041769E+03  0.14583774043E+03  0.41800000000E+01 0. -1.
         -5    1    3    3    0  502 -0.51969937651E+02 -0.96369231715E+02  0.21330325883E+03  0.23979919906E+03  0.41800000000E+01 0. -1.
        -11    1    1    2    0    0 -0.17330077655E+02  0.11532155292E+02  0.43611062080E+02  0.48324392732E+02  0.00000000000E+00 0. -1.
         11    1    1    2    0    0  0.52782065534E+01  0.15071811679E+03  0.39316311678E+02  0.15585115514E+03  0.00000000000E+00 0.  1.
</event>
<event>
 7    1  0.2334784E-009  0.8336292E+02  0.7561462E-02  0.1319770E+00
          1   -1    0    0  501    0  0.00000000000E+00  0.00000000000E+00  0.53633180184E+03  0.53633180184E+03  0.00000000000E+00 0. -1.
         -1   -1    0    0    0  501 -0.00000000000E+00 -0.00000000000E+00 -0.24544625393E+02  0.24544625393E+02  0.00000000000E+00 0.  1.
         25    2    1    2    0    0 -0.18564553845E+01  0.87854332832E+01  0.39177170877E+03  0.41135596362E+03  0.12509207309E+03 0.  0.
          5    1    3    3  502    0  0.48770416384E+02 -0.30209660970E+02  0.23653580544E+03  0.24342932606E+03  0.41800000000E+01 0. -1.
         -5    1    3    3    0  502 -0.50626871768E+02  0.38995094253E+02  0.15523590332E+03  0.16792663756E+03  0.41800000000E+01 0. -1.
        -11    1    1    2    0    0 -0.19996595875E+02  0.31836641662E+01 -0.59578068753E+01  0.21106753111E+02  0.00000000000E+00 0.  1.
         11    1    1    2    0    0  0.21853051259E+02 -0.11969097449E+02  0.12597327455E+03  0.12841371050E+03  0.00000000000E+00 0. -1.
</event>
<event>
 7    1  0.2334784E-009  0.1111495E+03  0.7561462E-02  0.1258456E+00
         -1   -1    0    0    0  501 -0.00000000000E+00  0.00000000000E+00  0.56781436243E+02  0.56781436243E+02  0.00000000000E+00 0.  1.
          1   -1    0    0  501    0  0.00000000000E+00 -0.00000000000E+00 -0.39811330158E+03  0.39811330158E+03  0.00000000000E+00 0. -1.
         25    2    1    2    0    0 -0.68324230733E+02 -0.70050094997E+02 -0.13226519841E+03  0.20667739822E+03  0.12508496276E+03 0.  0.
          5    1    3    3  502    0  0.65372495160E+01 -0.22889382189E+02 -0.11361661728E+03  0.11615880324E+03  0.41800000000E+01 0.  1.
         -5    1    3    3    0  502 -0.74861480249E+02 -0.47160712808E+02 -0.18648581131E+02  0.90518594973E+02  0.41800000000E+01 0.  1.
        -11    1    1    2    0    0 -0.58349092533E+01  0.18076445583E+02  0.14489372416E+01  0.19050025460E+02  0.00000000000E+00 0.  1.
         11    1    1    2    0    0  0.74159139986E+02  0.51973649414E+02 -0.21051560417E+03  0.22916731415E+03  0.00000000000E+00 0. -1.
</event>
<event>
 7    1  0.2334784E-009  0.9392903E+02  0.7561462E-02  0.1293607E+00
         -1   -1    0    0    0  501 -0.00000000000E+00  0.00000000000E+00  0.39383508792E+02  0.39383508792E+02  0.00000000000E+00 0.  1.
          1   -1    0    0  501    0  0.00000000000E+00 -0.00000000000E+00 -0.39585598664E+03  0.39585598664E+03  0.00000000000E+00 0. -1.
         25    2    1    2    0    0  0.12213146301E+02 -0.14086996767E+02 -0.94503718033E+02  0.15788012318E+03  0.12509027201E+03 0.  0.
          5    1    3    3  502    0  0.40188689163E+02 -0.54375605354E+02 -0.83345166475E+02  0.10740449883E+03  0.41800000000E+01 0. -1.
         -5    1    3    3    0  502 -0.27975542862E+02  0.40288608587E+02 -0.11158551558E+02  0.50475624347E+02  0.41800000000E+01 0. -1.
        -11    1    1    2    0    0 -0.37903878157E+02 -0.58695619189E+01 -0.22443924347E+03  0.22769306038E+03  0.00000000000E+00 0. -1.
         11    1    1    2    0    0  0.25690731856E+02  0.19956558686E+02 -0.37529516341E+02  0.49666311869E+02  0.00000000000E+00 0.  1.
</event>
<event>
 7    1  0.2334784E-009  0.1210261E+03  0.7561462E-02  0.1241414E+00
         -1   -1    0    0    0  501 -0.00000000000E+00  0.00000000000E+00  0.12604775547E+03  0.12604775547E+03  0.00000000000E+00 0.  1.
          1   -1    0    0  501    0  0.00000000000E+00 -0.00000000000E+00 -0.16816873064E+03  0.16816873064E+03  0.00000000000E+00 0. -1.
         25    2    1    2    0    0  0.89115300012E+02  0.20875076958E+02  0.12780632838E+02  0.15552482122E+03  0.12508924777E+03 0.  0.
          5    1    3    3  502    0 -0.53616204393E+01 -0.37911826978E+02  0.21000889304E+02  0.43869845568E+02  0.41800000000E+01 0.  1.
         -5    1    3    3    0  502  0.94476920451E+02  0.58786903936E+02 -0.82202564667E+01  0.11165497566E+03  0.41800000000E+01 0.  1.
        -11    1    1    2    0    0 -0.27596721922E+02 -0.13062900698E+01 -0.67484530739E+02  0.72920829286E+02  0.00000000000E+00 0. -1.
         11    1    1    2    0    0 -0.61518578089E+02 -0.19568786888E+02  0.12582922731E+02  0.65770835595E+02  0.00000000000E+00 0.  1.
</event>
<event>
 7    1  0.2334784E-009  0.5330144E+03  0.7561462E-02  0.1005504E+00
         -1   -1    0    0    0  501 -0.00000000000E+00  0.00000000000E+00  0.66320813457E+03  0.66320813457E+03  0.00000000000E+00 0.  1.
          1   -1    0    0  501    0  0.00000000000E+00 -0.00000000000E+00 -0.45576415752E+03  0.45576415752E+03  0.00000000000E+00 0. -1.
         25    2    1    2    0    0  0.87436767392E+02  0.52119568596E+03  0.20622159082E+03  0.58091823759E+03  0.12509405616E+03 0.  0.
          5    1    3    3  502    0  0.90732448324E+02  0.29941045711E+03  0.70110927791E+02  0.32064312499E+03  0.41800000000E+01 0. -1.
         -5    1    3    3    0  502 -0.32956809319E+01  0.22178522885E+03  0.13611066303E+03  0.26027511260E+03  0.41800000000E+01 0. -1.
        -11    1    1    2    0    0 -0.92907595899E+02 -0.42935520534E+03  0.33463782627E+02  0.44056502185E+03  0.00000000000E+00 0.  1.
         11    1    1    2    0    0  0.54708285069E+01 -0.91840480624E+02 -0.32241396400E+02  0.97489032653E+02  0.00000000000E+00 0. -1.
</event>
<event>
 7    1  0.2334784E-009  0.1348707E+03  0.7561462E-02  0.1220402E+00
         -1   -1    0    0    0  501 -0.00000000000E+00  0.00000000000E+00  0.20220240256E+02  0.20220240256E+02  0.00000000000E+00 0.  1.
          1   -1    0    0  501    0  0.00000000000E+00 -0.00000000000E+00 -0.11658357175E+04  0.11658357175E+04  0.00000000000E+00 0. -1.
         25    2    1    2    0    0 -0.76879210491E+02 -0.69823816823E+02 -0.73594833778E+03  0.75369323099E+03  0.12509097555E+03 0.  0.
          5    1    3    3  502    0 -0.25014185002E+02 -0.85209334035E+02 -0.26251138371E+03  0.27715706564E+03  0.41800000000E+01 0.  1.
         -5    1    3    3    0  502 -0.51865025490E+02  0.15385517212E+02 -0.47343695407E+03  0.47653616535E+03  0.41800000000E+01 0.  1.
        -11    1    1    2    0    0  0.83475559667E+02  0.79229873421E+02 -0.40293046751E+03  0.41904475125E+03  0.00000000000E+00 0.  1.
         11    1    1    2    0    0 -0.65963491758E+01 -0.94060565986E+01 -0.67366719943E+01  0.13317975550E+02  0.00000000000E+00 0. -1.
</event>
<event>
 7    1  0.2334784E-009  0.1447641E+03  0.7561462E-02  0.1207059E+00
         -2   -1    0    0    0  501 -0.00000000000E+00  0.00000000000E+00  0.59121673548E+02  0.59121673548E+02  0.00000000000E+00 0.  1.
          2   -1    0    0  501    0  0.00000000000E+00 -0.00000000000E+00 -0.44729438281E+03  0.44729438281E+03  0.00000000000E+00 0. -1.
         25    2    1    2    0    0 -0.53143277862E+02 -0.10884359101E+03 -0.22035939137E+03  0.28084976252E+03  0.12508873833E+03 0.  0.
          5    1    3    3  502    0  0.15501485881E+02 -0.62808916008E+02 -0.17468177752E+03  0.18632351379E+03  0.41800000000E+01 0.  1.
         -5    1    3    3    0  502 -0.68644763743E+02 -0.46034675005E+02 -0.45677613852E+02  0.94526248733E+02  0.41800000000E+01 0.  1.
        -11    1    1    2    0    0  0.56713653038E+02  0.32202732947E+02 -0.40044143265E+02  0.76530960140E+02  0.00000000000E+00 0.  1.
         11    1    1    2    0    0 -0.35703751752E+01  0.76640858066E+02 -0.12776917462E+03  0.14903533369E+03  0.00000000000E+00 0. -1.
</event>
<event>
 7    1  0.2334784E-009  0.1781014E+03  0.7561462E-02  0.1169653E+00
          2   -1    0    0  501    0  0.00000000000E+00  0.00000000000E+00  0.54950337187E+03  0.54950337187E+03  0.00000000000E+00 0. -1.
         -2   -1    0    0    0  501 -0.00000000000E+00 -0.00000000000E+00 -0.84679301952E+02  0.84679301952E+02  0.00000000000E+00 0.  1.
         25    2    1    2    0    0 -0.16807813703E+03  0.29959730023E+02  0.12933356090E+03  0.24803855874E+03  0.12509241015E+03 0.  0.
          5    1    3    3  502    0 -0.12165725317E+03  0.76123119534E+00  0.16933113338E+02  0.12290349649E+03  0.41800000000E+01 0. -1.
         -5    1    3    3    0  502 -0.46420883856E+02  0.29198498828E+02  0.11240044756E+03  0.12513506225E+03  0.41800000000E+01 0. -1.
        -11    1    1    2    0    0  0.12921565305E+03  0.18841623063E+01  0.17219248357E+03  0.21529163119E+03  0.00000000000E+00 0. -1.
         11    1    1    2    0    0  0.38862483973E+02 -0.31843892330E+02  0.16329802544E+03  0.17085248389E+03  0.00000000000E+00 0.  1.
</event>
<event>
 7    1  0.2334784E-009  0.8268420E+02  0.7561462E-02  0.1321602E+00
          1   -1    0    0  501    0  0.00000000000E+00  0.00000000000E+00  0.17814873554E+03  0.17814873554E+03  0.00000000000E+00 0. -1.
         -1   -1    0    0    0  501 -0.00000000000E+00 -0.00000000000E+00 -0.90382149306E+02  0.90382149306E+02  0.00000000000E+00 0.  1.
         25    2    1    2    0    0 -0.52560860081E+02  0.45746307338E+02  0.74995999828E+02  0.16164283211E+03  0.12509451041E+03 0.  0.
          5    1    3    3  502    0  0.12301512819E+02  0.87697252056E+01 -0.29347043211E+02  0.33270957952E+02  0.41800000000E+01 0. -1.
         -5    1    3    3    0  502 -0.64862372899E+02  0.36976582133E+02  0.10434304304E+03  0.12837187416E+03  0.41800000000E+01 0. -1.
        -11    1    1    2    0    0  0.18539979672E+02 -0.81700151737E+00 -0.30591320262E+02  0.35780262899E+02  0.00000000000E+00 0.  1.
         11    1    1    2    0    0  0.34020880409E+02 -0.44929305821E+02  0.43361906668E+02  0.71107789835E+02  0.00000000000E+00 0. -1.
</event>
<event>
 7    1  0.2334784E-009  0.1652475E+03  0.7561462E-02  0.1182897E+00
          2   -1    0    0  501    0  0.00000000000E+00  0.00000000000E+00  0.14851568727E+03  0.14851568727E+03  0.00000000000E+00 0. -1.
         -2   -1    0    0    0  501 -0.00000000000E+00 -0.00000000000E+00 -0.22109389399E+03  0.22109389399E+03  0.00000000000E+00 0.  1.
         25    2    1    2    0    0 -0.78748613682E+02  0.12074875546E+03 -0.22846251215E+02  0.19222818981E+03  0.12509244446E+03 0.  0.
          5    1    3    3  502    0 -0.32779625035E+02 -0.19298983742E+02  0.13106563863E+02  0.40450080435E+02  0.41800000000E+01 0.  1.
         -5    1    3    3    0  502 -0.45968988647E+02  0.14004773921E+03 -0.35952815078E+02  0.15177810938E+03  0.41800000000E+01 0.  1.
        -11    1    1    2    0    0  0.56828223081E+02 -0.97224375565E+02  0.62873571831E+01  0.11278987988E+03  0.00000000000E+00 0. -1.
         11    1    1    2    0    0  0.21920390601E+02 -0.23524379899E+02 -0.56019312688E+02  0.64591511577E+02  0.00000000000E+00 0.  1.
</event>
<event>
 7    1  0.2334784E-009  0.7708672E+02  0.7561462E-02  0.1337528E+00
          2   -1    0    0  501    0  0.00000000000E+00  0.00000000000E+00  0.93627157421E+02  0.93627157421E+02  0.00000000000E+00 0. -1.
         -2   -1    0    0    0  501 -0.00000000000E+00 -0.00000000000E+00 -0.13110096125E+03  0.13110096125E+03  0.00000000000E+00 0.  1.
         25    2    1    2    0    0  0.17412269481E+02 -0.12633177160E+02 -0.14004713304E+02  0.12769683313E+03  0.12509022705E+03 0.  0.
          5    1    3    3  502    0  0.25059483085E+02  0.20932145746E+02 -0.60986115286E+02  0.69303037998E+02  0.41800000000E+01 0. -1.
         -5    1    3    3    0  502 -0.76472136049E+01 -0.33565322906E+02  0.46981401983E+02  0.58393795133E+02  0.41800000000E+01 0. -1.
        -11    1    1    2    0    0 -0.17768459399E+02  0.48013005204E+02 -0.32340119716E+02  0.60554522221E+02  0.00000000000E+00 0.  1.
         11    1    1    2    0    0  0.35618991860E+00 -0.35379828045E+02  0.88710291863E+01  0.36476763324E+02  0.00000000000E+00 0. -1.
</event>
<event>
 7    1  0.2867845E-009  0.1066780E+03  0.7561462E-02  0.1266848E+00
          1   -1    0    0  501    0  0.00000000000E+00  0.00000000000E+00  0.77450168775E+03  0.77450168775E+03  0.00000000000E+00 0. -1.
         -1   -1    0    0    0  501 -0.00000000000E+00 -0.00000000000E+00 -0.20129865187E+02  0.20129865187E+02  0.00000000000E+00 0.  1.
         25    2    1    2    0    0  0.59892692808E+02  0.10272934561E+02  0.38391825727E+03  0.40832941248E+03  0.12508802100E+03 0.  0.
          5    1    3    3  502    0  0.11519163254E+02  0.44019291668E+02  0.31151992654E+03  0.31485318196E+03  0.41800000000E+01 0.  1.
         -5    1    3    3    0  502  0.48373529554E+02 -0.33746357107E+02  0.72398330730E+02  0.93476230519E+02  0.41800000000E+01 0.  1.
        -11    1    1    2    0    0 -0.66344907461E+02  0.26320729749E+02  0.21807184538E+03  0.22945534927E+03  0.00000000000E+00 0.  1.
         11    1    1    2    0    0  0.64522146522E+01 -0.36593664309E+02  0.15238171991E+03  0.15684679118E+03  0.00000000000E+00 0. -1.
</event>
<event>
 7    1  0.2334784E-009  0.1218909E+03  0.7561462E-02  0.1240010E+00
         -1   -1    0    0    0  501 -0.00000000000E+00  0.00000000000E+00  0.11481910705E+03  0.11481910705E+03  0.00000000000E+00 0.  1.
          1   -1    0    0  501    0  0.00000000000E+00 -0.00000000000E+00 -0.13948940958E+03  0.13948940958E+03  0.00000000000E+00 0. -1.
         25    2    1    2    0    0 -0.53035984035E+02  0.35147544514E+02 -0.27967414289E+02  0.14310617720E+03  0.12509610786E+03 0.  0.
          5    1    3    3  502    0  0.38631244549E+02 -0.77618392619E+00  0.50209276639E+01  0.39187467786E+02  0.41800000000E+01 0.  1.
         -5    1    3    3    0  502 -0.91667228584E+02  0.35923728440E+02 -0.32988341953E+02  0.10391870941E+03  0.41800000000E+01 0.  1.
        -11    1    1    2    0    0  0.47368444606E+02  0.19650966608E+02  0.17714585834E+02  0.54256212403E+02  0.00000000000E+00 0.  1.
         11    1    1    2    0    0  0.56675394288E+01 -0.54798511122E+02 -0.14417474077E+02  0.56946127025E+02  0.00000000000E+00 0. -1.
</event>
<event>
 7    1  0.2334784E-009  0.8355144E+02  0.7561462E-02  0.1319265E+00
         -3   -1    0    0    0  501 -0.00000000000E+00  0.00000000000E+00  0.14675049943E+03  0.14675049943E+03  0.00000000000E+00 0.  1.
          3   -1    0    0  501    0  0.00000000000E+00 -0.00000000000E+00 -0.10973755553E+03  0.10973755553E+03  0.00000000000E+00 0. -1.
         25    2    1    2    0    0  0.13330948744E+02  0.12341049931E+02  0.85542700189E+02  0.15262824999E+03  0.12509122044E+03 0.  0.
          5    1    3    3  502    0  0.39784321820E+02  0.25830939458E+02 -0.13215169091E+02  0.49418041139E+02  0.41800000000E+01 0. -1.
         -5    1    3    3    0  502 -0.26453373075E+02 -0.13489889527E+02  0.98757869281E+02  0.10321020885E+03  0.41800000000E+01 0. -1.
        -11    1    1    2    0    0  0.36087536215E+02  0.63886551550E+01 -0.86579642903E+01  0.37657476421E+02  0.00000000000E+00 0. -1.
         11    1    1    2    0    0 -0.49418484960E+02 -0.18729705086E+02 -0.39871791996E+02  0.66202328549E+02  0.00000000000E+00 0.  1.
</event>
<event>
 7    1  0.2334784E-009  0.1072791E+03  0.7561462E-02  0.1265693E+00
          3   -1    0    0  501    0  0.00000000000E+00  0.00000000000E+00  0.39494857547E+03  0.39494857547E+03  0.00000000000E+00 0. -1.
         -3   -1    0    0    0  501 -0.00000000000E+00 -0.00000000000E+00 -0.61420042681E+02  0.61420042681E+02  0.00000000000E+00 0.  1.
         25    2    1    2    0    0 -0.58862095463E+02  0.85688134289E+02  0.23970342326E+03  0.28967612551E+03  0.12508926385E+03 0.  0.
          5    1    3    3  502    0 -0.26568640827E+02  0.28701314549E+02  0.21652638548E+03  0.22007000282E+03  0.41800000000E+01 0.  1.
         -5    1    3    3    0  502 -0.32293454636E+02  0.56986819740E+02  0.23177037781E+02  0.69606122695E+02  0.41800000000E+01 0.  1.
        -11    1    1    2    0    0  0.57621920480E+02 -0.57597072083E+02  0.14788943162E+02  0.82803510023E+02  0.00000000000E+00 0.  1.
         11    1    1    2    0    0  0.12401749836E+01 -0.28091062205E+02  0.79036166364E+02  0.83888982610E+02  0.00000000000E+00 0. -1.
</event>
<event>
 7    1  0.2334784E-009  0.1582796E+03  0.7561462E-02  0.1190653E+00
         -4   -1    0    0    0  501 -0.00000000000E+00  0.00000000000E+00  0.19060529554E+02  0.19060529554E+02  0.00000000000E+00 0.  1.
          4   -1    0    0  501    0  0.00000000000E+00 -0.00000000000E+00 -0.17973947948E+04  0.17973947948E+04  0.00000000000E+00 0. -1.
         25    2    1    2    0    0 -0.10975962753E+03  0.96373032165E+02 -0.11160916208E+04  0.11325387334E+04  0.12509412260E+03 0.  0.
          5    1    3    3  502    0 -0.63973053068E+02  0.62070014576E+02 -0.98998237440E+03  0.99399588140E+03  0.41800000000E+01 0.  1.
         -5    1    3    3    0  502 -0.45786574457E+02  0.34303017589E+02 -0.12610924640E+03  0.13854285201E+03  0.41800000000E+01 0.  1.
        -11    1    1    2    0    0  0.59124672441E+02  0.21767991598E+01 -0.19905405401E+03  0.20766073717E+03  0.00000000000E+00 0.  1.
         11    1    1    2    0    0  0.50634955084E+02 -0.98549831325E+02 -0.46318859040E+03  0.47625585373E+03  0.00000000000E+00 0. -1.
</event>
<event>
 6    1  0.2334784E-009  0.1142944E+03  0.7561462E-02  0.1252818E+00
          1   -1    0    0  501    0  0.00000000000E+00  0.00000000000E+00  0.33529369715E+03  0.33529369715E+03  0.00000000000E+00 0. -1.
         -1   -1    0    0    0  501 -0.00000000000E+00 -0.00000000000E+00 -0.90234675571E+02  0.90234675571E+02  0.00000000000E+00 0.  1.
          5    1    1    2  502    0  0.59092654348E+02  0.15528294177E+01  0.13289580541E+02  0.60732515410E+02  0.41800000000E+01 0.  1.
         -5    1    1    2    0  502 -0.36780051574E+02 -0.76736663576E+02 -0.17797934573E+02  0.87037501146E+02  0.41800000000E+01 0.  1.
        -11    1    1    2    0    0  0.20198397623E+01  0.46380394811E+02  0.23120413679E+03  0.23581894251E+03  0.00000000000E+00 0. -1.
         11    1    1    2    0    0 -0.24332442537E+02  0.28803439348E+02  0.18363238818E+02  0.41939413658E+02  0.00000000000E+00 0.  1.
</event>
<event>
 7    1  0.2334784E-009  0.1695342E+03  0.7561462E-02  0.1178335E+00
          2   -1    0    0  501    0  0.00000000000E+00  0.00000000000E+00  0.72705723386E+02  0.72705723386E+02  0.00000000000E+00 0. -1.
         -2   -1    0    0    0  501 -0.00000000000E+00 -0.00000000000E+00 -0.74929763705E+03  0.74929763705E+03  0.00000000000E+00 0.  1.
         25    2    1    2    0    0  0.88133857897E+02 -0.11318926791E+03 -0.88608884978E+02  0.20994749356E+03  0.12508808207E+03 0.  0.
          5    1    3    3  502    0  0.10768431962E+03 -0.94877355459E+02 -0.31884593720E+02  0.14707727557E+03  0.41800000000E+01 0. -1.
         -5    1    3    3    0  502 -0.19550461726E+02 -0.18311912450E+02 -0.56724291257E+02  0.62870217989E+02  0.41800000000E+01 0. -1.
        -11    1    1    2    0    0 -0.10549877242E+03  0.85971906205E+02 -0.43882175648E+03  0.45944063121E+03  0.00000000000E+00 0.  1.
         11    1    1    2    0    0  0.17364914524E+02  0.27217361705E+02 -0.14916127221E+03  0.15261523568E+03  0.00000000000E+00 0. -1.
</event>
<event>
 7    1  0.2334784E-009  0.7638645E+02  0.7561462E-02  0.1339631E+00
         -2   -1    0    0    0  501 -0.00000000000E+00  0.00000000000E+00  0.21317576155E+02  0.21317576155E+02  0.00000000000E+00 0.  1.
          2   -1    0    0  501    0  0.00000000000E+00 -0.00000000000E+00 -0.72378211237E+03  0.72378211237E+03  0.00000000000E+00 0. -1.
         25    2    1    2    0    0  0.24463530931E+02 -0.42975461997E+02 -0.56477204347E+03  0.58056438856E+03  0.12506875506E+03 0.  0.
          5    1    3    3  502    0  0.39386989663E+02 -0.66802781212E+01 -0.49336403333E+02  0.63620076739E+02  0.41800000000E+01 0.  1.
         -5    1    3    3    0  502 -0.14923458732E+02 -0.36295183876E+02 -0.51543564014E+03  0.51694431182E+03  0.41800000000E+01 0.  1.
        -11    1    1    2    0    0 -0.36511535415E+02  0.97404174084E+01 -0.11835378857E+03  0.12424003871E+03  0.00000000000E+00 0. -1.
         11    1    1    2    0    0  0.12048004484E+02  0.33235044588E+02 -0.19338704170E+02  0.40295261258E+02  0.00000000000E+00 0.  1.
</event>
<event>
 7    1  0.2883560E-009  0.9940472E+02  0.7561462E-02  0.1281553E+00
         -1   -1    0    0    0  501 -0.00000000000E+00  0.00000000000E+00  0.23289986399E+02  0.23289986399E+02  0.00000000000E+00 0.  1.
          1   -1    0    0  501    0  0.00000000000E+00 -0.00000000000E+00 -0.66825087883E+03  0.66825087883E+03  0.00000000000E+00 0. -1.
         25    2    1    2    0    0  0.37733019626E+02  0.13902309531E+02 -0.48940030330E+03  0.50673288614E+03  0.12509398885E+03 0.  0.
          5    1    3    3  502    0  0.56040604740E+02  0.46735394843E+02 -0.43100187266E+03  0.43715538787E+03  0.41800000000E+01 0.  1.
         -5    1    3    3    0  502 -0.18307585114E+02 -0.32833085312E+02 -0.58398430643E+02  0.69577498269E+02  0.41800000000E+01 0.  1.
        -11    1    1    2    0    0  0.28123343460E+01 -0.39725288057E+02 -0.28538935213E+02  0.48994678883E+02  0.00000000000E+00 0.  1.
         11    1    1    2    0    0 -0.40545353972E+02  0.25822978527E+02 -0.12702165392E+03  0.13581330021E+03  0.00000000000E+00 0. -1.
</event>
<event>
 7    1  0.2334784E-009  0.1027852E+03  0.7561462E-02  0.1274546E+00
          2   -1    0    0  501    0  0.00000000000E+00  0.00000000000E+00  0.81557177865E+03  0.81557177865E+03  0.00000000000E+00 0. -1.
         -2   -1    0    0    0  501 -0.00000000000E+00 -0.00000000000E+00 -0.16261250132E+02  0.16261250132E+02  0.00000000000E+00 0.  1.
         25    2    1    2    0    0 -0.31185581654E+02  0.11075179644E+02  0.54040836404E+03  0.55568317914E+03  0.12508955011E+03 0.  0.
          5    1    3    3  502    0 -0.36980270754E+02  0.54885691136E+02  0.45113694620E+03  0.45598464463E+03  0.41800000000E+01 0. -1.
         -5    1    3    3    0  502  0.57946891005E+01 -0.43810511492E+02  0.89271417845E+02  0.99698534508E+02  0.41800000000E+01 0. -1.
        -11    1    1    2    0    0  0.29062358438E+01  0.38062669113E+02  0.12612377741E+03  0.13177412574E+03  0.00000000000E+00 0.  1.
         11    1    1    2    0    0  0.28279345810E+02 -0.49137848756E+02  0.13277838707E+03  0.14437572390E+03  0.00000000000E+00 0. -1.
</event>
<event>
 7    1  0.2334784E-009  0.9881413E+02  0.7561462E-02  0.1282810E+00
          4   -1    0    0  501    0  0.00000000000E+00  0.00000000000E+00  0.21174248833E+02  0.21174248833E+02  0.00000000000E+00 0. -1.
         -4   -1    0    0    0  501 -0.00000000000E+00 -0.00000000000E+00 -0.58764976257E+03  0.58764976257E+03  0.00000000000E+00 0.  1.
         25    2    1    2    0    0  0.18256798568E+02 -0.16811806222E+02 -0.36062465805E+03  0.38250885873E+03  0.12508771117E+03 0.  0.
          5    1    3    3  502    0 -0.30379218370E+02  0.29613414314E+02 -0.55210537704E+02  0.69753330313E+02  0.41800000000E+01 0. -1.
         -5    1    3    3    0  502  0.48636016938E+02 -0.46425220536E+02 -0.30541412035E+03  0.31275552841E+03  0.41800000000E+01 0. -1.
        -11    1    1    2    0    0 -0.60003300838E+01  0.50979949325E+02 -0.15879143926E+03  0.16688223505E+03  0.00000000000E+00 0.  1.
         11    1    1    2    0    0 -0.12256468484E+02 -0.34168143103E+02 -0.47059416424E+02  0.59432917621E+02  0.00000000000E+00 0. -1.
</event>
<event>
 7    1  0.2334784E-009  0.1665968E+03  0.7561462E-02  0.1181444E+00
         -3   -1    0    0    0  501 -0.00000000000E+00  0.00000000000E+00  0.34854571655E+03  0.34854571655E+03  0.00000000000E+00 0.  1.
          3   -1    0    0  501    0  0.00000000000E+00 -0.00000000000E+00 -0.84967869240E+02  0.84967869240E+02  0.00000000000E+00 0. -1.
         25    2    1    2    0    0 -0.13211454820E+03 -0.25558963672E+02  0.13396444042E+03  0.22737736755E+03  0.12508589652E+03 0.  0.
          5    1    3    3  502    0 -0.12777121621E+03  0.25371137938E+02  0.79983618917E+02  0.15291837701E+03  0.41800000000E+01 0. -1.
         -5    1    3    3    0  502 -0.43433319919E+01 -0.50930101610E+02  0.53980821500E+02  0.74458990543E+02  0.41800000000E+01 0. -1.
        -11    1    1    2    0    0  0.12480023908E+03  0.43529019912E+02  0.13174372119E+03  0.18661801447E+03  0.00000000000E+00 0.  1.
         11    1    1    2    0    0  0.73143091220E+01 -0.17970056240E+02 -0.21303143040E+01  0.19518203766E+02  0.00000000000E+00 0. -1.
</event>
<event>
 7    1  0.2334784E-009  0.2388212E+03  0.7561462E-02  0.1120581E+00
          3   -1    0    0  501    0  0.00000000000E+00  0.00000000000E+00  0.57839924337E+02  0.57839924337E+02  0.00000000000E+00 0. -1.
         -3   -1    0    0    0  501 -0.00000000000E+00 -0.00000000000E+00 -0.10819558138E+04  0.10819558138E+04  0.00000000000E+00 0.  1.
         25    2    1    2    0    0  0.19037045921E+03 -0.11982927158E+03 -0.54717121134E+03  0.60468537013E+03  0.12509235092E+03 0.  0.
          5    1    3    3  502    0  0.15928183540E+03 -0.51314006097E+02 -0.27199833566E+03  0.31938127264E+03  0.41800000000E+01 0. -1.
         -5    1    3    3    0  502  0.31088623814E+02 -0.68515265479E+02 -0.27517287568E+03  0.28530409749E+03  0.41800000000E+01 0. -1.
        -11    1    1    2    0    0 -0.45630668452E+02  0.66480047740E+02 -0.23226409311E+03  0.24586248920E+03  0.00000000000E+00 0. -1.
         11    1    1    2    0    0 -0.14473979076E+03  0.53349223836E+02 -0.24468058504E+03  0.28924787883E+03  0.00000000000E+00 0.  1.
</event>
<event>
 7    1  0.2334784E-009  0.1199170E+03  0.7561462E-02  0.1243234E+00
          1   -1    0    0  501    0  0.00000000000E+00  0.00000000000E+00  0.68570833490E+03  0.68570833490E+03  0.00000000000E+00 0. -1.
         -1   -1    0    0    0  501 -0.00000000000E+00 -0.00000000000E+00 -0.23311492263E+02  0.23311492263E+02  0.00000000000E+00 0.  1.
         25    2    1    2    0    0  0.29787016634E+02  0.55449298408E+02  0.41377430392E+03  0.43682805421E+03  0.12509070032E+03 0.  0.
          5    1    3    3  502    0 -0.46933244454E+02  0.34660679313E+02  0.14029585590E+03  0.15200161745E+03  0.41800000000E+01 0.  1.
         -5    1    3    3    0  502  0.76720261088E+02  0.20788619095E+02  0.27347844802E+03  0.28482643676E+03  0.41800000000E+01 0.  1.
        -11    1    1    2    0    0 -0.57178205585E+02 -0.43570830146E+02  0.11777137472E+03  0.13797775595E+03  0.00000000000E+00 0.  1.
         11    1    1    2    0    0  0.27391188951E+02 -0.11878468262E+02  0.13085116400E+03  0.13421401700E+03  0.00000000000E+00 0. -1.
</event>
<event>
 7    1  0.2334784E-009  0.1294613E+03  0.7561462E-02  0.1228257E+00
          2   -1    0    0  501    0  0.00000000000E+00  0.00000000000E+00  0.29632925839E+02  0.29632925839E+02  0.00000000000E+00 0.  1.
         -2   -1    0    0    0  501 -0.00000000000E+00 -0.00000000000E+00 -0.79864938168E+03  0.79864938168E+03  0.00000000000E+00 0. -1.
         25    2    1    2    0    0  0.46245802682E+02 -0.89523305718E+02 -0.30951752813E+03  0.34871241074E+03  0.12508456600E+03 0.  0.
          5    1    3    3  502    0 -0.14939980176E+01  0.14621750040E+02 -0.15787044460E+03  0.15860825099E+03  0.41800000000E+01 0.  1.
         -5    1    3    3    0  502  0.47739800700E+02 -0.10414505576E+03 -0.15164708353E+03  0.19010415975E+03  0.41800000000E+01 0.  1.
        -11    1    1    2    0    0  0.14340114406E+02  0.59838153915E+02 -0.13844075383E+03  0.15149945830E+03  0.00000000000E+00 0.  1.
         11    1    1    2    0    0 -0.60585917089E+02  0.29685151803E+02 -0.32105817388E+03  0.32807043848E+03  0.00000000000E+00 0. -1.
</event>
<event>
 7    1  0.2334784E-009  0.1493433E+03  0.7561462E-02  0.1201282E+00
          2   -1    0    0  501    0  0.00000000000E+00  0.00000000000E+00  0.57749602347E+03  0.57749602347E+03  0.00000000000E+00 0. -1.
         -2   -1    0    0    0  501 -0.00000000000E+00 -0.00000000000E+00 -0.54604526170E+02  0.54604526170E+02  0.00000000000E+00 0.  1.
         25    2    1    2    0    0 -0.12157808944E+03  0.36093804117E+02  0.17625285533E+03  0.25059298878E+03  0.12509109675E+03 0.  0.
          5    1    3    3  502    0 -0.43686694334E+02  0.48417636256E+02  0.15589967702E+03  0.16904134541E+03  0.41800000000E+01 0. -1.
         -5    1    3    3    0  502 -0.77891395103E+02 -0.12323832138E+02  0.20353178316E+02  0.81551643376E+02  0.41800000000E+01 0. -1.
        -11    1    1    2    0    0  0.12649272039E+03 -0.89783046187E+01  0.24091921724E+03  0.27225555550E+03  0.00000000000E+00 0.  1.
         11    1    1    2    0    0 -0.49146309497E+01 -0.27115499499E+02  0.10571942473E+03  0.10925200536E+03  0.00000000000E+00 0. -1.
</event>
<event>
 7    1  0.2334784E-009  0.1535551E+03  0.7561462E-02  0.1196171E+00
          2   -1    0    0  501    0  0.00000000000E+00  0.00000000000E+00  0.84389171520E+03  0.84389171520E+03  0.00000000000E+00 0. -1.
         -2   -1    0    0    0  501 -0.00000000000E+00 -0.00000000000E+00 -0.40306946704E+02  0.40306946704E+02  0.00000000000E+00 0.  1.
         25    2    1    2    0    0 -0.14374654565E+03  0.10347097264E+02  0.27766358940E+03  0.33691886395E+03  0.12508844951E+03 0.  0.
          5    1    3    3  502    0 -0.13270019552E+03 -0.16275620632E+02  0.13040547164E+03  0.18680818277E+03  0.41800000000E+01 0. -1.
         -5    1    3    3    0  502 -0.11046350139E+02  0.26622717896E+02  0.14725811775E+03  0.15011068118E+03  0.41800000000E+01 0. -1.
        -11    1    1    2    0    0  0.28611248235E+02  0.15909200343E+00  0.50887659773E+02  0.58379643310E+02  0.00000000000E+00 0.  1.
         11    1    1    2    0    0  0.11513529742E+03 -0.10506189267E+02  0.47503351933E+03  0.48890015464E+03  0.00000000000E+00 0. -1.
</event>
<event>
 7    1  0.2334784E-009  0.8758031E+02  0.7561462E-02  0.1308819E+00
          1   -1    0    0  501    0  0.00000000000E+00  0.00000000000E+00  0.31751393511E+03  0.31751393511E+03  0.00000000000E+00 0.  1.
         -1   -1    0    0    0  501 -0.00000000000E+00 -0.00000000000E+00 -0.47982629493E+02  0.47982629493E+02  0.00000000000E+00 0. -1.
         25    2    1    2    0    0 -0.49567937646E+02  0.51275865153E+01  0.20223346160E+03  0.24295983434E+03  0.12509130876E+03 0.  0.
          5    1    3    3  502    0 -0.11411518960E+02  0.43881063953E+02  0.17717745777E+03  0.18293467272E+03  0.41800000000E+01 0. -1.
         -5    1    3    3    0  502 -0.38156418686E+02 -0.38753477438E+02  0.25056003823E+02  0.60025161625E+02  0.41800000000E+01 0. -1.
        -11    1    1    2    0    0  0.25523471778E+02 -0.30738035450E+02 -0.68052279818E+01  0.40528823852E+02  0.00000000000E+00 0. -1.
         11    1    1    2    0    0  0.24044465868E+02  0.25610448935E+02  0.74103071998E+02  0.82007906405E+02  0.00000000000E+00 0.  1.
</event>
<event>
 7    1  0.2334784E-009  0.1074263E+03  0.7561462E-02  0.1265412E+00
         -2   -1    0    0    0  501 -0.00000000000E+00  0.00000000000E+00  0.11377364516E+03  0.11377364516E+03  0.00000000000E+00 0. -1.
          2   -1    0    0  501    0  0.00000000000E+00 -0.00000000000E+00 -0.15853029294E+03  0.15853029294E+03  0.00000000000E+00 0.  1.
         25    2    1    2    0    0 -0.53685515037E+02  0.36522843933E+02 -0.67524015613E+02  0.15628188581E+03  0.12509389471E+03 0.  0.
          5    1    3    3  502    0 -0.92068966851E+02  0.25028355524E+02 -0.27239272309E+02  0.99310440504E+02  0.41800000000E+01 0. -1.
         -5    1    3    3    0  502  0.38383451813E+02  0.11494488409E+02 -0.40284743304E+02  0.56971445304E+02  0.41800000000E+01 0. -1.
        -11    1    1    2    0    0  0.15583987575E+02 -0.37858800482E+02  0.53278109257E+02  0.67191564714E+02  0.00000000000E+00 0. -1.
         11    1    1    2    0    0  0.38101527462E+02  0.13359565488E+01 -0.30510741421E+02  0.48830487576E+02  0.00000000000E+00 0.  1.
</event>
<event>
 7    1  0.2334784E-009  0.1107314E+03  0.7561462E-02  0.1259221E+00
         -1   -1    0    0    0  501 -0.00000000000E+00  0.00000000000E+00  0.67929652276E+02  0.67929652276E+02  0.00000000000E+00 0.  1.
          1   -1    0    0  501    0  0.00000000000E+00 -0.00000000000E+00 -0.26659070067E+03  0.26659070067E+03  0.00000000000E+00 0. -1.
         25    2    1    2    0    0 -0.45158900392E+02  0.53074995841E+02 -0.61176984513E+02  0.15571282312E+03  0.12509028092E+03 0.  0.
          5    1    3    3  502    0 -0.76990278015E+02  0.54624208003E+01 -0.60706197493E+02  0.98285582686E+02  0.41800000000E+01 0.  1.
         -5    1    3    3    0  502  0.31831377622E+02  0.47612575040E+02 -0.47078701951E+00  0.57427240433E+02  0.41800000000E+01 0.  1.
        -11    1    1    2    0    0 -0.58604867582E+01 -0.30312345392E+02 -0.11417055375E+03  0.11827129377E+03  0.00000000000E+00 0. -1.
         11    1    1    2    0    0  0.51019387150E+02 -0.22762650448E+02 -0.23313510134E+02  0.60536236052E+02  0.00000000000E+00 0.  1.
</event>
<event>
 7    1  0.2334784E-009  0.1257034E+03  0.7561462E-02  0.1233974E+00
         -2   -1    0    0    0  501 -0.00000000000E+00  0.00000000000E+00  0.35799777123E+03  0.35799777123E+03  0.00000000000E+00 0.  1.
          2   -1    0    0  501    0  0.00000000000E+00 -0.00000000000E+00 -0.50147874672E+02  0.50147874672E+02  0.00000000000E+00 0. -1.
         25    2    1    2    0    0  0.63705196921E+02 -0.39514270871E+02  0.20570557679E+03  0.25215384708E+03  0.12508816315E+03 0.  0.
          5    1    3    3  502    0 -0.26836050101E+02 -0.34507238176E+02  0.26556695530E+02  0.51319134337E+02  0.41800000000E+01 0. -1.
         -5    1    3    3    0  502  0.90541247022E+02 -0.50070326945E+01  0.17914888126E+03  0.20083471275E+03  0.41800000000E+01 0. -1.
        -11    1    1    2    0    0 -0.43925488859E+02  0.68651132565E+02  0.81048093072E+02  0.11494007119E+03  0.00000000000E+00 0.  1.
         11    1    1    2    0    0 -0.19779708062E+02 -0.29136861694E+02  0.21096226696E+02  0.41051727628E+02  0.00000000000E+00 0. -1.
</event>
<event>
 7    1  0.2334784E-009  0.1086619E+03  0.7561462E-02  0.1263068E+00
         -2   -1    0    0    0  501 -0.00000000000E+00  0.00000000000E+00  0.25436600119E+02  0.25436600119E+02  0.00000000000E+00 0.  1.
          2   -1    0    0  501    0  0.00000000000E+00 -0.00000000000E+00 -0.64858181936E+03  0.64858181936E+03  0.00000000000E+00 0. -1.
         25    2    1    2    0    0  0.47047383978E+01  0.63757990544E+02 -0.26192861282E+03  0.29722536886E+03  0.12509638587E+03 0.  0.
          5    1    3    3  502    0  0.42595735671E+02  0.57203403222E+02 -0.65173167731E+02  0.96703879083E+02  0.41800000000E+01 0. -1.
         -5    1    3    3    0  502 -0.37890997273E+02  0.65545873220E+01 -0.19675544509E+03  0.20052148977E+03  0.41800000000E+01 0. -1.
        -11    1    1    2    0    0 -0.33041197885E+02 -0.70688060602E+02 -0.25992588490E+03  0.27138531336E+03  0.00000000000E+00 0.  1.
         11    1    1    2    0    0  0.28336459487E+02  0.69300700581E+01 -0.10129072153E+03  0.10540773726E+03  0.00000000000E+00 0. -1.
</event>
<event>
 7    1  0.2334784E-009  0.8943118E+02  0.7561462E-02  0.1304235E+00
         -2   -1    0    0    0  501 -0.00000000000E+00  0.00000000000E+00  0.14187597930E+03  0.14187597930E+03  0.00000000000E+00 0.  1.
          2   -1    0    0  501    0  0.00000000000E+00 -0.00000000000E+00 -0.14284492347E+03  0.14284492347E+03  0.00000000000E+00 0. -1.
         25    2    1    2    0    0 -0.14600781192E+02 -0.16158434816E+00  0.89189743666E+02  0.15431637105E+03  0.12508206537E+03 0.  0.
          5    1    3    3  502    0  0.38965533632E+02  0.42011205616E+02  0.44820407177E+02  0.72866971311E+02  0.41800000000E+01 0.  1.
         -5    1    3    3    0  502 -0.53566314824E+02 -0.42172789964E+02  0.44369336489E+02  0.81449399738E+02  0.41800000000E+01 0.  1.
        -11    1    1    2    0    0  0.25724339389E+02 -0.18288651253E+02 -0.10133315215E+03  0.10613493358E+03  0.00000000000E+00 0. -1.
         11    1    1    2    0    0 -0.11123558197E+02  0.18450235601E+02  0.11174464316E+02  0.24269598132E+02  0.00000000000E+00 0.  1.
</event>
<event>
 7    1  0.2642102E-009  0.1249271E+03  0.7561462E-02  0.1235183E+00
          1   -1    0    0  501    0  0.00000000000E+00  0.00000000000E+00  0.57348764087E+03  0.57348764087E+03  0.00000000000E+00 0. -1.
         -1   -1    0    0    0  501 -0.00000000000E+00 -0.00000000000E+00 -0.29758273273E+02  0.29758273273E+02  0.00000000000E+00 0.  1.
         25    2    1    2    0    0  0.87763747079E+01 -0.72399014996E+02  0.29936239727E+03  0.33254218070E+03  0.12509122638E+03 0.  0.
          5    1    3    3  502    0  0.16028489413E+02 -0.10284379724E+03  0.16995715819E+03  0.19934058072E+03  0.41800000000E+01 0.  1.
         -5    1    3    3    0  502 -0.72521147050E+01  0.30444782242E+02  0.12940523908E+03  0.13320159997E+03  0.41800000000E+01 0.  1.
        -11    1    1    2    0    0  0.39402402316E+02  0.25899749324E+02  0.75114252338E+02  0.88687638528E+02  0.00000000000E+00 0.  1.
         11    1    1    2    0    0 -0.48178777024E+02  0.46499265672E+02  0.16925271798E+03  0.18201609491E+03  0.00000000000E+00 0. -1.
</event>
<event>
 7    1  0.2334784E-009  0.2088341E+03  0.7561462E-02  0.1142493E+00
         -2   -1    0    0    0  501 -0.00000000000E+00  0.00000000000E+00  0.49768079281E+02  0.49768079281E+02  0.00000000000E+00 0.  1.
          2   -1    0    0  501    0  0.00000000000E+00 -0.00000000000E+00 -0.94175744313E+03  0.94175744313E+03  0.00000000000E+00 0. -1.
         25    2    1    2    0    0  0.14064013536E+03  0.11779750156E+03 -0.53368161843E+03  0.57802960385E+03  0.12508498724E+03 0.  0.
          5    1    3    3  502    0  0.15154750723E+03  0.66090447215E+02 -0.44465908265E+03  0.47441939921E+03  0.41800000000E+01 0.  1.
         -5    1    3    3    0  502 -0.10907371869E+02  0.51707054345E+02 -0.89022535772E+02  0.10361020464E+03  0.41800000000E+01 0.  1.
        -11    1    1    2    0    0 -0.84749929145E+01 -0.50038741724E+02 -0.14458829382E+03  0.15323666626E+03  0.00000000000E+00 0. -1.
         11    1    1    2    0    0 -0.13216514245E+03 -0.67758759837E+02 -0.21371945161E+03  0.26025925230E+03  0.00000000000E+00 0.  1.
</event>
<event>
 7    1  0.2334784E-009  0.9819455E+02  0.7561462E-02  0.1284139E+00
          1   -1    0    0  501    0  0.00000000000E+00  0.00000000000E+00  0.12288040927E+03  0.12288040927E+03  0.00000000000E+00 0. -1.
         -1   -1    0    0    0  501 -0.00000000000E+00 -0.00000000000E+00 -0.11343543925E+03  0.11343543925E+03  0.00000000000E+00 0.  1.
         25    2    1    2    0    0  0.20095442125E+02 -0.39444572766E+02  0.15480699093E+02  0.13359013925E+03  0.12508785771E+03 0.  0.
          5    1    3    3  502    0 -0.47874953499E+02  0.47630657299E+01  0.20010539866E+02  0.52274200839E+02  0.41800000000E+01 0. -1.
         -5    1    3    3    0  502  0.67970395623E+02 -0.44207638496E+02 -0.45298407735E+01  0.81315938413E+02  0.41800000000E+01 0. -1.
        -11    1    1    2    0    0 -0.25980931261E+02 -0.10351393583E+01  0.35779732324E+02  0.44229736014E+02  0.00000000000E+00 0. -1.
         11    1    1    2    0    0  0.58854891362E+01  0.40479712125E+02 -0.41815461393E+02  0.58495973260E+02  0.00000000000E+00 0.  1.
</event>
<event>
 7    1  0.2334784E-009  0.1185090E+03  0.7561462E-02  0.1245577E+00
         -2   -1    0    0    0  501 -0.00000000000E+00  0.00000000000E+00  0.60188557905E+02  0.60188557905E+02  0.00000000000E+00 0.  1.
          2   -1    0    0  501    0  0.00000000000E+00 -0.00000000000E+00 -0.34285854112E+03  0.34285854112E+03  0.00000000000E+00 0. -1.
         25    2    1    2    0    0 -0.32195179223E+02  0.84502850637E+02 -0.11741003907E+03  0.19394402217E+03  0.12510757422E+03 0.  0.
          5    1    3    3  502    0  0.32537285847E+02  0.41634153876E+02  0.14085261746E+00  0.53005376885E+02  0.41800000000E+01 0.  1.
         -5    1    3    3    0  502 -0.64732465071E+02  0.42868696761E+02 -0.11755089169E+03  0.14093864528E+03  0.41800000000E+01 0.  1.
        -11    1    1    2    0    0 -0.15528597132E+02 -0.30258513675E+02 -0.11791722762E+03  0.12272403004E+03  0.00000000000E+00 0. -1.
         11    1    1    2    0    0  0.47723776355E+02 -0.54244336962E+02 -0.47342716516E+02  0.86379046818E+02  0.00000000000E+00 0.  1.
</event>
<event>
 7    1  0.2334784E-009  0.1349706E+03  0.7561462E-02  0.1220261E+00
          2   -1    0    0  501    0  0.00000000000E+00  0.00000000000E+00  0.63753027242E+02  0.63753027242E+02  0.00000000000E+00 0. -1.
         -2   -1    0    0    0  501 -0.00000000000E+00 -0.00000000000E+00 -0.47730179966E+03  0.47730179966E+03  0.00000000000E+00 0.  1.
         25    2    1    2    0    0 -0.19213643480E+02 -0.11901110333E+03 -0.12199428479E+03  0.21228118310E+03  0.12509151996E+03 0.  0.
          5    1    3    3  502    0  0.26713408246E+02 -0.43675401596E+02  0.11090212113E+02  0.52551042705E+02  0.41800000000E+01 0.  1.
         -5    1    3    3    0  502 -0.45927051727E+02 -0.75335701736E+02 -0.13308449690E+03  0.15973014040E+03  0.41800000000E+01 0.  1.
        -11    1    1    2    0    0  0.35366463336E+02  0.94374923905E+02 -0.27919130557E+03  0.29682519788E+03  0.00000000000E+00 0.  1.
         11    1    1    2    0    0 -0.16152819855E+02  0.24636179427E+02 -0.12363182065E+02  0.31948445922E+02  0.00000000000E+00 0. -1.
</event>
<event>
 7    1  0.2334784E-009  0.1281524E+03  0.7561462E-02  0.1230223E+00
          1   -1    0    0  501    0  0.00000000000E+00  0.00000000000E+00  0.32571851193E+03  0.32571851193E+03  0.00000000000E+00 0. -1.
         -1   -1    0    0    0  501 -0.00000000000E+00 -0.00000000000E+00 -0.69557682532E+02  0.69557682532E+02  0.00000000000E+00 0.  1.
         25    2    1    2    0    0  0.99652134729E+02 -0.71948830107E+01  0.17658206554E+03  0.23835328534E+03  0.12509495779E+03 0.  0.
          5    1    3    3  502    0  0.11259085314E+03  0.20823991539E+02  0.88044638609E+02  0.14449799176E+03  0.41800000000E+01 0. -1.
         -5    1    3    3    0  502 -0.12938718412E+02 -0.28018874549E+02  0.88537426931E+02  0.93855293578E+02  0.41800000000E+01 0. -1.
        -11    1    1    2    0    0 -0.61894914243E+01 -0.13505954423E+02 -0.15871219530E+02  0.21739738230E+02  0.00000000000E+00 0.  1.
         11    1    1    2    0    0 -0.93462643305E+02  0.20700837433E+02  0.95449983383E+02  0.13518317089E+03  0.00000000000E+00 0. -1.
</event>
<event>
 7    1  0.2334784E-009  0.1772181E+03  0.7561462E-02  0.1170523E+00
         -1   -1    0    0    0  501 -0.00000000000E+00  0.00000000000E+00  0.41156891911E+02  0.41156891911E+02  0.00000000000E+00 0.  1.
          1   -1    0    0  501    0  0.00000000000E+00 -0.00000000000E+00 -0.98699996567E+03  0.98699996567E+03  0.00000000000E+00 0. -1.
         25    2    1    2    0    0 -0.71794230851E+01  0.14075174328E+03 -0.25388946570E+03  0.31618095923E+03  0.12509172967E+03 0.  0.
          5    1    3    3  502    0 -0.85540585994E+01 -0.22191728110E+02 -0.21553424208E+02  0.32367687747E+02  0.41800000000E+01 0.  1.
         -5    1    3    3    0  502  0.13746355143E+01  0.16294347139E+03 -0.23233604150E+03  0.28381327148E+03  0.41800000000E+01 0.  1.
        -11    1    1    2    0    0  0.33365677804E+02 -0.11323618468E+02 -0.16605553622E+03  0.16975256670E+03  0.00000000000E+00 0.  1.
         11    1    1    2    0    0 -0.26186254719E+02 -0.12942812482E+03 -0.52589807183E+03  0.54222333165E+03  0.00000000000E+00 0. -1.
</event>
<event>
 6    1  0.2334784E-009  0.1331853E+03  0.7561462E-02  0.1222804E+00
         -2   -1    0    0    0  501 -0.00000000000E+00  0.00000000000E+00  0.19649395932E+02  0.19649395932E+02  0.00000000000E+00 0.  1.
          2   -1    0    0  501    0  0.00000000000E+00 -0.00000000000E+00 -0.16799179143E+04  0.16799179143E+04  0.00000000000E+00 0. -1.
          5    1    1    2  502    0  0.26497462991E+02 -0.54230223386E+02 -0.10245481414E+04  0.10263329865E+04  0.41800000000E+01 0.  1.
         -5    1    1    2    0  502 -0.62101855886E+02 -0.39809119672E+02 -0.35891401121E+03  0.36643982637E+03  0.41800000000E+01 0.  1.
        -11    1    1    2    0    0  0.81831351903E+01 -0.16326713279E+02 -0.46003329918E+02  0.49495773876E+02  0.00000000000E+00 0. -1.
         11    1    1    2    0    0  0.27421257704E+02  0.11036605634E+03 -0.23080303587E+03  0.25729872353E+03  0.00000000000E+00 0.  1.
</event>
<event>
 7    1  0.2334784E-009  0.1040695E+03  0.7561462E-02  0.1271964E+00
          1   -1    0    0  501    0  0.00000000000E+00  0.00000000000E+00  0.25856561497E+03  0.25856561497E+03  0.00000000000E+00 0. -1.
         -1   -1    0    0    0  501 -0.00000000000E+00 -0.00000000000E+00 -0.64103236737E+02  0.64103236737E+02  0.00000000000E+00 0.  1.
         25    2    1    2    0    0 -0.63759739057E+02 -0.16471672437E+02  0.84809717597E+02  0.16485438945E+03  0.12509061198E+03 0.  0.
          5    1    3    3  502    0 -0.48917152871E+02 -0.50819407695E+02 -0.15141116334E+01  0.70677188523E+02  0.41800000000E+01 0. -1.
         -5    1    3    3    0  502 -0.14842586185E+02  0.34347735258E+02  0.86323829231E+02  0.94177200930E+02  0.41800000000E+01 0. -1.
        -11    1    1    2    0    0 -0.51536660251E+01  0.29283509942E+02  0.72767123636E+02  0.78607496527E+02  0.00000000000E+00 0.  1.
         11    1    1    2    0    0  0.68913405082E+02 -0.12811837505E+02  0.36885537004E+02  0.79206965731E+02  0.00000000000E+00 0. -1.
</event>
<event>
 7    1  0.2334784E-009  0.1135018E+03  0.7561462E-02  0.1254219E+00
          3   -1    0    0  501    0  0.00000000000E+00  0.00000000000E+00  0.62999053624E+03  0.62999053624E+03  0.00000000000E+00 0. -1.
         -3   -1    0    0    0  501 -0.00000000000E+00 -0.00000000000E+00 -0.27019320992E+02  0.27019320992E+02  0.00000000000E+00 0.  1.
         25    2    1    2    0    0  0.26451207962E+01  0.63375411915E+02  0.44969099429E+03  0.47105446869E+03  0.12508749989E+03 0.  0.
          5    1    3    3  502    0 -0.47328664195E+02  0.92197836896E+01  0.30300287821E+03  0.30684397252E+03  0.41800000000E+01 0.  1.
         -5    1    3    3    0  502  0.49973784991E+02  0.54155628225E+02  0.14668811608E+03  0.16421049618E+03  0.41800000000E+01 0.  1.
        -11    1    1    2    0    0 -0.42136295599E+02 -0.21752579223E+02  0.78322443049E+02  0.91558982055E+02  0.00000000000E+00 0. -1.
         11    1    1    2    0    0  0.39491174802E+02 -0.41622832692E+02  0.74957777909E+02  0.94396406486E+02  0.00000000000E+00 0.  1.
</event>
<event>
 7    1  0.2334784E-009  0.9276754E+02  0.7561462E-02  0.1296285E+00
         -3   -1    0    0    0  501 -0.00000000000E+00  0.00000000000E+00  0.21566280607E+03  0.21566280607E+03  0.00000000000E+00 0.  1.
          3   -1    0    0  501    0  0.00000000000E+00 -0.00000000000E+00 -0.59496077073E+02  0.59496077073E+02  0.00000000000E+00 0. -1.
         25    2    1    2    0    0  0.83555504412E+01 -0.78474321428E+01  0.12649547251E+03  0.17826578326E+03  0.12508472129E+03 0.  0.
          5    1    3    3  502    0 -0.27473065445E+02  0.30778360749E+02  0.31966846765E+00  0.41468679787E+02  0.41800000000E+01 0. -1.
         -5    1    3    3    0  502  0.35828615886E+02 -0.38625792892E+02  0.12617580404E+03  0.13679710347E+03  0.41800000000E+01 0. -1.
        -11    1    1    2    0    0 -0.27707375865E+02  0.42963165642E+02  0.23724834521E+02  0.56359560434E+02  0.00000000000E+00 0. -1.
         11    1    1    2    0    0  0.19351825424E+02 -0.35115733500E+02  0.59464219739E+01  0.40533539455E+02  0.00000000000E+00 0.  1.
</event>
<event>
 7    1  0.2334784E-009  0.1001601E+03  0.7561462E-02  0.1279960E+00
         -4   -1    0    0    0  501 -0.00000000000E+00  0.00000000000E+00  0.47608249325E+03  0.47608249325E+03  0.00000000000E+00 0.  1.
          4   -1    0    0  501    0  0.00000000000E+00 -0.00000000000E+00 -0.28036348505E+02  0.28036348505E+02  0.00000000000E+00 0. -1.
         25    2    1    2    0    0 -0.20303843221E+01 -0.31035022884E+02  0.19992476807E+03  0.23787584893E+03  0.12509081306E+03 0.  0.
          5    1    3    3  502    0  0.39816555307E+02  0.14384393826E+02  0.15671526170E+03  0.16238662049E+03  0.41800000000E+01 0.  1.
         -5    1    3    3    0  502 -0.41846939629E+02 -0.45419416710E+02  0.43209506364E+02  0.75489228443E+02  0.41800000000E+01 0.  1.
        -11    1    1    2    0    0 -0.26538635032E+02  0.53377922745E+02  0.16899865270E+03  0.17920392407E+03  0.00000000000E+00 0.  1.
         11    1    1    2    0    0  0.28569019355E+02 -0.22342899861E+02  0.79122723974E+02  0.87039068757E+02  0.00000000000E+00 0. -1.
</event>
<event>
 7    1  0.2334784E-009  0.8892410E+02  0.7561462E-02  0.1305478E+00
          1   -1    0    0  501    0  0.00000000000E+00  0.00000000000E+00  0.19821522011E+03  0.19821522011E+03  0.00000000000E+00 0. -1.
         -1   -1    0    0    0  501 -0.00000000000E+00 -0.00000000000E+00 -0.69464083288E+02  0.69464083288E+02  0.00000000000E+00 0.  1.
         25    2    1    2    0    0  0.10735611748E+02 -0.34455186227E+01  0.12215185150E+03  0.17520419366E+03  0.12509320402E+03 0.  0.
          5    1    3    3  502    0  0.86108477144E+01 -0.49660435674E+02  0.70261670254E+01  0.51060209486E+02  0.41800000000E+01 0. -1.
         -5    1    3    3    0  502  0.21247640334E+01  0.46214917051E+02  0.11512568447E+03  0.12414398417E+03  0.41800000000E+01 0. -1.
        -11    1    1    2    0    0 -0.32235826912E+02 -0.28020346658E+02  0.25698922932E+02  0.49846995932E+02  0.00000000000E+00 0. -1.
         11    1    1    2    0    0  0.21500215164E+02  0.31465865281E+02 -0.19099637611E+02  0.42628113808E+02  0.00000000000E+00 0.  1.
</event>
<event>
 7    1  0.2334784E-009  0.1352619E+03  0.7561462E-02  0.1219850E+00
         -2   -1    0    0    0  501 -0.00000000000E+00  0.00000000000E+00  0.20621100380E+02  0.20621100380E+02  0.00000000000E+00 0.  1.
          2   -1    0    0  501    0  0.00000000000E+00 -0.00000000000E+00 -0.10762230252E+04  0.10762230252E+04  0.00000000000E+00 0. -1.
         25    2    1    2    0    0 -0.32845465513E+02  0.81874271457E+02 -0.75737578932E+03  0.77268869103E+03  0.12508999184E+03 0.  0.
          5    1    3    3  502    0 -0.76135753315E+02  0.75800545407E+02 -0.58561938174E+03  0.59540734652E+03  0.41800000000E+01 0.  1.
         -5    1    3    3    0  502  0.43290287801E+02  0.60737260498E+01 -0.17175640758E+03  0.17728134451E+03  0.41800000000E+01 0.  1.
        -11    1    1    2    0    0  0.52053652561E+01 -0.90103957504E+02 -0.16731741328E+03  0.19010769520E+03  0.00000000000E+00 0.  1.
         11    1    1    2    0    0  0.27640100257E+02  0.82296860470E+01 -0.13090872222E+03  0.13404773936E+03  0.00000000000E+00 0. -1.
</event>
<event>
 7    1  0.2334784E-009  0.1496322E+03  0.7561462E-02  0.1200926E+00
          1   -1    0    0  501    0  0.00000000000E+00  0.00000000000E+00  0.37483785885E+03  0.37483785885E+03  0.00000000000E+00 0. -1.
         -1   -1    0    0    0  501 -0.00000000000E+00 -0.00000000000E+00 -0.83080763057E+02  0.83080763057E+02  0.00000000000E+00 0.  1.
         25    2    1    2    0    0  0.11465282328E+03  0.65962336632E+02  0.20786112940E+03  0.27631530414E+03  0.12509036112E+03 0.  0.
          5    1    3    3  502    0  0.67206823862E+01  0.36347702036E+02 -0.32433463104E+01  0.37340523701E+02  0.41800000000E+01 0. -1.
         -5    1    3    3    0  502  0.10793214090E+03  0.29614634596E+02  0.21110447571E+03  0.23897478044E+03  0.41800000000E+01 0. -1.
        -11    1    1    2    0    0 -0.41876303146E+02 -0.64953090142E+02  0.10075675900E+02  0.77936178563E+02  0.00000000000E+00 0.  1.
         11    1    1    2    0    0 -0.72776520137E+02 -0.10092464896E+01  0.73820290486E+02  0.10366713920E+03  0.00000000000E+00 0. -1.
</event>
<event>
 7    1  0.2334784E-009  0.1565147E+03  0.7561462E-02  0.1192689E+00
         -3   -1    0    0    0  501 -0.00000000000E+00  0.00000000000E+00  0.72956261377E+02  0.72956261377E+02  0.00000000000E+00 0.  1.
          3   -1    0    0  501    0  0.00000000000E+00 -0.00000000000E+00 -0.36572278830E+03  0.36572278830E+03  0.00000000000E+00 0. -1.
         25    2    1    2    0    0 -0.89242616574E+02 -0.82490802636E+02 -0.15532517475E+03  0.23354236076E+03  0.12508855754E+03 0.  0.
          5    1    3    3  502    0 -0.10508268397E+03 -0.93758977165E+02 -0.15992358784E+03  0.21313409539E+03  0.41800000000E+01 0. -1.
         -5    1    3    3    0  502  0.15840067399E+02  0.11268174528E+02  0.45984130975E+01  0.20408265370E+02  0.41800000000E+01 0. -1.
        -11    1    1    2    0    0  0.44585200423E+02 -0.13332032768E+02 -0.40086748464E+02  0.61420929633E+02  0.00000000000E+00 0. -1.
         11    1    1    2    0    0  0.44657416151E+02  0.95822835405E+02 -0.97354603715E+02  0.14371575928E+03  0.00000000000E+00 0.  1.
</event>
<event>
 7    1  0.2334784E-009  0.8967097E+02  0.7561462E-02  0.1303650E+00
         -2   -1    0    0    0  501 -0.00000000000E+00  0.00000000000E+00  0.74650428860E+03  0.74650428860E+03  0.00000000000E+00 0.  1.
          2   -1    0    0  501    0  0.00000000000E+00 -0.00000000000E+00 -0.15994463700E+02  0.15994463700E+02  0.00000000000E+00 0. -1.
         25    2    1    2    0    0  0.36130621225E+01  0.13807143074E+02  0.43308799799E+03  0.45101780800E+03  0.12509259655E+03 0.  0.
          5    1    3    3  502    0 -0.10482406591E+02  0.48463578648E+02  0.69450246170E+02  0.85436575284E+02  0.41800000000E+01 0.  1.
         -5    1    3    3    0  502  0.14095468713E+02 -0.34656435574E+02  0.36363775182E+03  0.36558123271E+03  0.41800000000E+01 0.  1.
        -11    1    1    2    0    0 -0.28964094355E+02  0.29761072529E+02  0.15198017721E+03  0.15755194212E+03  0.00000000000E+00 0.  1.
         11    1    1    2    0    0  0.25351032232E+02 -0.43568215603E+02  0.14544164970E+03  0.15392900219E+03  0.00000000000E+00 0. -1.
</event>
<event>
 7    1  0.2334784E-009  0.8476534E+02  0.7561462E-02  0.1316047E+00
          1   -1    0    0  501    0  0.00000000000E+00  0.00000000000E+00  0.59133861296E+02  0.59133861296E+02  0.00000000000E+00 0. -1.
         -1   -1    0    0    0  501 -0.00000000000E+00 -0.00000000000E+00 -0.20059094903E+03  0.20059094903E+03  0.00000000000E+00 0.  1.
         25    2    1    2    0    0  0.41417397113E+01 -0.20801937241E+02 -0.87131717507E+02  0.15391587650E+03  0.12509311029E+03 0.  0.
          5    1    3    3  502    0 -0.25535037094E+02  0.23684600388E+02 -0.93533939287E+02  0.99895288245E+02  0.41800000000E+01 0. -1.
         -5    1    3    3    0  502  0.29676776806E+02 -0.44486537629E+02  0.64022217804E+01  0.54020588256E+02  0.41800000000E+01 0. -1.
        -11    1    1    2    0    0  0.33636267610E+02 -0.64267467426E+01 -0.47777891274E+02  0.58782892639E+02  0.00000000000E+00 0.  1.
         11    1    1    2    0    0 -0.37778007321E+02  0.27228683983E+02 -0.65474789499E+01  0.47026041182E+02  0.00000000000E+00 0. -1.
</event>
<event>
 7    1  0.2334784E-009  0.1427026E+03  0.7561462E-02  0.1209738E+00
          1   -1    0    0  501    0  0.00000000000E+00  0.00000000000E+00  0.12593827474E+03  0.12593827474E+03  0.00000000000E+00 0. -1.
         -1   -1    0    0    0  501 -0.00000000000E+00 -0.00000000000E+00 -0.25538750878E+03  0.25538750878E+03  0.00000000000E+00 0.  1.
         25    2    1    2    0    0 -0.46095934873E+02  0.95671455246E+02 -0.16837185727E+03  0.23510487904E+03  0.12508940509E+03 0.  0.
          5    1    3    3  502    0 -0.71772149720E+02  0.95696915606E+02 -0.17124836101E+03  0.20893208150E+03  0.41800000000E+01 0.  1.
         -5    1    3    3    0  502  0.25676214847E+02 -0.25460359676E-01  0.28765037403E+01  0.26172797536E+02  0.41800000000E+01 0.  1.
        -11    1    1    2    0    0 -0.27616959962E+02 -0.20324927596E+02  0.18110291618E+02  0.38778625837E+02  0.00000000000E+00 0. -1.
         11    1    1    2    0    0  0.73712894835E+02 -0.75346527650E+02  0.20812331618E+02  0.10744227865E+03  0.00000000000E+00 0.  1.
</event>
<event>
 7    1  0.2334784E-009  0.8123445E+02  0.7561462E-02  0.1325584E+00
          2   -1    0    0  501    0  0.00000000000E+00  0.00000000000E+00  0.13123943149E+03  0.13123943149E+03  0.00000000000E+00 0.  1.
         -2   -1    0    0    0  501 -0.00000000000E+00 -0.00000000000E+00 -0.10438324712E+03  0.10438324712E+03  0.00000000000E+00 0. -1.
         25    2    1    2    0    0  0.43718569623E+01 -0.17558511093E+02 -0.26055864342E+02  0.12904721879E+03  0.12508741809E+03 0.  0.
          5    1    3    3  502    0  0.44513731199E+02  0.34810877058E+02  0.31857844196E+01  0.56752894633E+02  0.41800000000E+01 0. -1.
         -5    1    3    3    0  502 -0.40141874237E+02 -0.52369388151E+02 -0.29241648762E+02  0.72294324154E+02  0.41800000000E+01 0. -1.
        -11    1    1    2    0    0 -0.16348618465E+02  0.21563477395E+02 -0.19318946825E+02  0.33248798316E+02  0.00000000000E+00 0. -1.
         11    1    1    2    0    0  0.11976761503E+02 -0.40049663018E+01  0.72230995535E+02  0.73326661502E+02  0.00000000000E+00 0.  1.
</event>
<event>
 7    1  0.2334784E-009  0.1041398E+03  0.7561462E-02  0.1271824E+00
         -1   -1    0    0    0  501 -0.00000000000E+00  0.00000000000E+00  0.52279748545E+02  0.52279748545E+02  0.00000000000E+00 0.  1.
          1   -1    0    0  501    0  0.00000000000E+00 -0.00000000000E+00 -0.28200645316E+03  0.28200645316E+03  0.00000000000E+00 0. -1.
         25    2    1    2    0    0  0.29305902649E+01 -0.50843630302E+02 -0.15555668803E+03  0.20601094852E+03  0.12509582175E+03 0.  0.
          5    1    3    3  502    0 -0.56672830691E+02 -0.19032727521E+02 -0.10722739113E+03  0.12283826873E+03  0.41800000000E+01 0. -1.
         -5    1    3    3    0  502  0.59603420956E+02 -0.31810902781E+02 -0.48329296900E+02  0.83172679795E+02  0.41800000000E+01 0. -1.
        -11    1    1    2    0    0  0.19700160273E+02  0.54303302594E+02 -0.80754186234E+01  0.58328015339E+02  0.00000000000E+00 0.  1.
         11    1    1    2    0    0 -0.22630750538E+02 -0.34596722922E+01 -0.66094597964E+02  0.69947237846E+02  0.00000000000E+00 0. -1.
</event>
<event>
 7    1  0.2334784E-009  0.1696986E+03  0.7561462E-02  0.1178163E+00
          2   -1    0    0  501    0  0.00000000000E+00  0.00000000000E+00  0.16100917715E+03  0.16100917715E+03  0.00000000000E+00 0. -1.
         -2   -1    0    0    0  501 -0.00000000000E+00 -0.00000000000E+00 -0.39314428466E+03  0.39314428466E+03  0.00000000000E+00 0.  1.
         25    2    1    2    0    0 -0.14973252698E+03 -0.32753240967E+02  0.64518909816E+02  0.20809391721E+03  0.12509110371E+03 0.  0.
          5    1    3    3  502    0 -0.29273897588E+02 -0.55770273971E+02  0.57168980327E+02  0.85164835762E+02  0.41800000000E+01 0.  1.
         -5    1    3    3    0  502 -0.12045862939E+03  0.23017033004E+02  0.73499294895E+01  0.12292908145E+03  0.41800000000E+01 0.  1.
        -11    1    1    2    0    0  0.10210494819E+03  0.26810708001E+02 -0.10655147593E+03  0.14999150486E+03  0.00000000000E+00 0.  1.
         11    1    1    2    0    0  0.47627578788E+02  0.59425329661E+01 -0.19010254140E+03  0.19606803973E+03  0.00000000000E+00 0. -1.
</event>
<event>
 7    1  0.2334784E-009  0.5479744E+02  0.7561462E-02  0.1421059E+00
          1   -1    0    0  501    0  0.00000000000E+00  0.00000000000E+00  0.40698264027E+03  0.40698264027E+03  0.00000000000E+00 0. -1.
         -1   -1    0    0    0  501 -0.00000000000E+00 -0.00000000000E+00 -0.32478731961E+02  0.32478731961E+02  0.00000000000E+00 0.  1.
         25    2    1    2    0    0  0.15021871289E+01 -0.30371775477E+02  0.15825470516E+03  0.20400095598E+03  0.12508851675E+03 0.  0.
          5    1    3    3  502    0  0.48494130245E+01 -0.14939533711E+02 -0.19563286597E+02  0.25434249677E+02  0.41800000000E+01 0. -1.
         -5    1    3    3    0  502 -0.33472258956E+01 -0.15432241766E+02  0.17781799175E+03  0.17856670630E+03  0.41800000000E+01 0. -1.
        -11    1    1    2    0    0  0.30173002386E+02  0.33609104254E+02  0.55342546946E+02  0.71433741777E+02  0.00000000000E+00 0.  1.
         11    1    1    2    0    0 -0.31675189515E+02 -0.32373287771E+01  0.16090665620E+03  0.16402667447E+03  0.00000000000E+00 0. -1.
</event>
<event>
 7    1  0.2334784E-009  0.7978001E+02  0.7561462E-02  0.1329677E+00
          1   -1    0    0  501    0  0.00000000000E+00  0.00000000000E+00  0.53089366658E+02  0.53089366658E+02  0.00000000000E+00 0. -1.
         -1   -1    0    0    0  501 -0.00000000000E+00 -0.00000000000E+00 -0.36301489201E+03  0.36301489201E+03  0.00000000000E+00 0.  1.
         25    2    1    2    0    0 -0.48609295708E+00  0.59174677969E+02 -0.76551795968E+02  0.15813549496E+03  0.12507908899E+03 0.  0.
          5    1    3    3  502    0  0.95015026326E+01  0.54625245208E+02 -0.10968995308E+03  0.12297786050E+03  0.41800000000E+01 0. -1.
         -5    1    3    3    0  502 -0.99875955897E+01  0.45494327610E+01  0.33138157113E+02  0.35157634462E+02  0.41800000000E+01 0. -1.
        -11    1    1    2    0    0 -0.23799268029E+02  0.43599888233E+01 -0.14206389631E+03  0.14410956004E+03  0.00000000000E+00 0.  1.
         11    1    1    2    0    0  0.24285360986E+02 -0.63534666792E+02 -0.91309833080E+02  0.11385920367E+03  0.00000000000E+00 0. -1.
</event>
<event>
 7    1  0.2334784E-009  0.2369177E+03  0.7561462E-02  0.1121863E+00
         -2   -1    0    0    0  501 -0.00000000000E+00  0.00000000000E+00  0.15951918816E+03  0.15951918816E+03  0.00000000000E+00 0.  1.
          2   -1    0    0  501    0  0.00000000000E+00 -0.00000000000E+00 -0.42723302314E+03  0.42723302314E+03  0.00000000000E+00 0. -1.
         25    2    1    2    0    0  0.18488438953E+03  0.13303702880E+03 -0.21306982292E+03  0.33604616941E+03  0.12508872854E+03 0.  0.
          5    1    3    3  502    0  0.54989147004E+02  0.69432571507E+01 -0.12044526209E+03  0.13265198328E+03  0.41800000000E+01 0. -1.
         -5    1    3    3    0  502  0.12989524253E+03  0.12609377165E+03 -0.92624560832E+02  0.20339418613E+03  0.41800000000E+01 0. -1.
        -11    1    1    2    0    0 -0.87160089732E+01  0.77466937276E+01 -0.19146447953E+02  0.22417996015E+02  0.00000000000E+00 0.  1.
         11    1    1    2    0    0 -0.17616838056E+03 -0.14078372253E+03 -0.35497564103E+02  0.22828804589E+03  0.00000000000E+00 0. -1.
</event>
<event>
 7    1  0.2334784E-009  0.2156957E+03  0.7561462E-02  0.1137133E+00
         -1   -1    0    0    0  501 -0.00000000000E+00  0.00000000000E+00  0.35049292558E+03  0.35049292558E+03  0.00000000000E+00 0.  1.
          1   -1    0    0  501    0  0.00000000000E+00 -0.00000000000E+00 -0.16520634193E+03  0.16520634193E+03  0.00000000000E+00 0. -1.
         25    2    1    2    0    0  0.14237977924E+03  0.14058056916E+03  0.13006716252E+02  0.23632944182E+03  0.12509009729E+03 0.  0.
          5    1    3    3  502    0  0.77379643749E+02  0.25013019861E+02 -0.43288004631E+02  0.92220302397E+02  0.41800000000E+01 0.  1.
         -5    1    3    3    0  502  0.65000135492E+02  0.11556754930E+03  0.56294720883E+02  0.14410913942E+03  0.41800000000E+01 0.  1.
        -11    1    1    2    0    0 -0.93135839157E+01 -0.62148130632E+02  0.70232896036E+02  0.94243263272E+02  0.00000000000E+00 0.  1.
         11    1    1    2    0    0 -0.13306619533E+03 -0.78432438528E+02  0.10204697136E+03  0.18512656243E+03  0.00000000000E+00 0. -1.
</event>
<event>
 7    1  0.2334784E-009  0.1032739E+03  0.7561462E-02  0.1273558E+00
         -1   -1    0    0    0  501 -0.00000000000E+00  0.00000000000E+00  0.12123731915E+02  0.12123731915E+02  0.00000000000E+00 0.  1.
          1   -1    0    0  501    0  0.00000000000E+00 -0.00000000000E+00 -0.12304823722E+04  0.12304823722E+04  0.00000000000E+00 0. -1.
         25    2    1    2    0    0 -0.30552016539E+02  0.45305379318E+02 -0.71988332541E+03  0.73271063734E+03  0.12508746044E+03 0.  0.
          5    1    3    3  502    0 -0.16363575441E+00  0.66113700107E+02 -0.18426712711E+03  0.19581341795E+03  0.41800000000E+01 0. -1.
         -5    1    3    3    0  502 -0.30388380785E+02 -0.20808320789E+02 -0.53561619830E+03  0.53689721938E+03  0.41800000000E+01 0. -1.
        -11    1    1    2    0    0  0.18983124750E+02  0.25332946561E+02 -0.95434576351E+02  0.10054787700E+03  0.00000000000E+00 0.  1.
         11    1    1    2    0    0  0.11568891789E+02 -0.70638325879E+02 -0.40304073854E+03  0.40934758979E+03  0.00000000000E+00 0. -1.
</event>
<event>
 7    1  0.2334784E-009  0.1355004E+03  0.7561462E-02  0.1219515E+00
          2   -1    0    0  501    0  0.00000000000E+00  0.00000000000E+00  0.43558165521E+03  0.43558165521E+03  0.00000000000E+00 0. -1.
         -2   -1    0    0    0  501 -0.00000000000E+00 -0.00000000000E+00 -0.47620479124E+02  0.47620479124E+02  0.00000000000E+00 0.  1.
         25    2    1    2    0    0 -0.53563888256E+02  0.77809640453E+02  0.22675835947E+03  0.27566090785E+03  0.12508458039E+03 0.  0.
          5    1    3    3  502    0  0.33439243955E+02  0.10150076268E+02  0.10798032345E+03  0.11357125401E+03  0.41800000000E+01 0.  1.
         -5    1    3    3    0  502 -0.87003132212E+02  0.67659564185E+02  0.11877803602E+03  0.16208965384E+03  0.41800000000E+01 0.  1.
        -11    1    1    2    0    0 -0.22014322501E+02 -0.10871996475E+02  0.11840286250E+02  0.27258449718E+02  0.00000000000E+00 0.  1.
         11    1    1    2    0    0  0.75578210757E+02 -0.66937643979E+02  0.14936253036E+03  0.18028277677E+03  0.00000000000E+00 0. -1.
</event>
<event>
 7    1  0.2334784E-009  0.1007437E+03  0.7561462E-02  0.1278740E+00
          2   -1    0    0  501    0  0.00000000000E+00  0.00000000000E+00  0.18139698083E+03  0.18139698083E+03  0.00000000000E+00 0.  1.
         -2   -1    0    0    0  501 -0.00000000000E+00 -0.00000000000E+00 -0.17030034474E+03  0.17030034474E+03  0.00000000000E+00 0. -1.
         25    2    1    2    0    0 -0.56556455129E+02  0.60110516436E+02 -0.10485525001E+03  0.18290772326E+03  0.12509478394E+03 0.  0.
          5    1    3    3  502    0  0.28635643848E+01  0.33068233259E+02  0.22096130575E+02  0.40092635711E+02  0.41800000000E+01 0. -1.
         -5    1    3    3    0  502 -0.59420019514E+02  0.27042283177E+02 -0.12695138059E+03  0.14281508755E+03  0.41800000000E+01 0. -1.
        -11    1    1    2    0    0  0.32524211926E+02  0.52787456492E+01  0.87570924796E+02  0.93564717638E+02  0.00000000000E+00 0.  1.
         11    1    1    2    0    0  0.24032243204E+02 -0.65389262086E+02  0.28380961313E+02  0.75224884676E+02  0.00000000000E+00 0. -1.
</event>
<event>
 7    1  0.2334784E-009  0.1068483E+03  0.7561462E-02  0.1266520E+00
         -1   -1    0    0    0  501 -0.00000000000E+00  0.00000000000E+00  0.65206558177E+02  0.65206558177E+02  0.00000000000E+00 0.  1.
          1   -1    0    0  501    0  0.00000000000E+00 -0.00000000000E+00 -0.31276657140E+03  0.31276657140E+03  0.00000000000E+00 0. -1.
         25    2    1    2    0    0  0.43788697596E+01  0.80730310634E+02 -0.19562134552E+03  0.24586990691E+03  0.12509093790E+03 0.  0.
          5    1    3    3  502    0  0.56731729320E+00 -0.21067064518E+02  0.38740359910E+01  0.21831711137E+02  0.41800000000E+01 0.  1.
         -5    1    3    3    0  502  0.38115524664E+01  0.10179737515E+03 -0.19949538151E+03  0.22403819577E+03  0.41800000000E+01 0.  1.
        -11    1    1    2    0    0 -0.18218124546E+02 -0.16587766189E+02  0.22151922171E+02  0.33132487154E+02  0.00000000000E+00 0.  1.
         11    1    1    2    0    0  0.13839254786E+02 -0.64142544445E+02 -0.74090589878E+02  0.98970735520E+02  0.00000000000E+00 0. -1.
</event>
<event>
 7    1  0.2334784E-009  0.1246324E+03  0.7561462E-02  0.1235645E+00
         -1   -1    0    0    0  501 -0.00000000000E+00  0.00000000000E+00  0.38719263206E+02  0.38719263206E+02  0.00000000000E+00 0. -1.
          1   -1    0    0  501    0  0.00000000000E+00 -0.00000000000E+00 -0.42795489581E+03  0.42795489581E+03  0.00000000000E+00 0.  1.
         25    2    1    2    0    0  0.58340904934E+02 -0.20716047929E+02 -0.24809954411E+03  0.28465904285E+03  0.12507825975E+03 0.  0.
          5    1    3    3  502    0  0.22351001564E+02  0.52620958632E+02 -0.11346627759E+03  0.12712435293E+03  0.41800000000E+01 0.  1.
         -5    1    3    3    0  502  0.35989903370E+02 -0.73337006561E+02 -0.13463326651E+03  0.15753468992E+03  0.41800000000E+01 0.  1.
        -11    1    1    2    0    0 -0.22118868697E+01 -0.32631033517E+02 -0.68206692426E+02  0.75642776810E+02  0.00000000000E+00 0.  1.
         11    1    1    2    0    0 -0.56129018064E+02  0.53347081446E+02 -0.72929396070E+02  0.10637233935E+03  0.00000000000E+00 0. -1.
</event>
<event>
 7    1  0.2334784E-009  0.9648391E+02  0.7561462E-02  0.1287868E+00
          2   -1    0    0  501    0  0.00000000000E+00  0.00000000000E+00  0.10709570536E+03  0.10709570536E+03  0.00000000000E+00 0. -1.
         -2   -1    0    0    0  501 -0.00000000000E+00 -0.00000000000E+00 -0.17323055348E+03  0.17323055348E+03  0.00000000000E+00 0.  1.
         25    2    1    2    0    0  0.19613312299E+02 -0.31290207825E+02  0.40614896337E+02  0.13659952422E+03  0.12508437587E+03 0.  0.
          5    1    3    3  502    0  0.36107383003E+02  0.21034650355E+02 -0.26618777697E+02  0.49721538079E+02  0.41800000000E+01 0.  1.
         -5    1    3    3    0  502 -0.16494070704E+02 -0.52324858180E+02  0.67233674035E+02  0.86877986142E+02  0.41800000000E+01 0.  1.
        -11    1    1    2    0    0 -0.66872138010E+01 -0.31316530669E+02 -0.40982167851E+02  0.52009441483E+02  0.00000000000E+00 0. -1.
         11    1    1    2    0    0 -0.12926098498E+02  0.62606738495E+02 -0.65767576608E+02  0.91717293136E+02  0.00000000000E+00 0.  1.
</event>
<event>
 7    1  0.2334784E-009  0.1210314E+03  0.7561462E-02  0.1241405E+00
         -2   -1    0    0    0  501 -0.00000000000E+00  0.00000000000E+00  0.15159414830E+02  0.15159414830E+02  0.00000000000E+00 0.  1.
          2   -1    0    0  501    0  0.00000000000E+00 -0.00000000000E+00 -0.12968736740E+04  0.12968736740E+04  0.00000000000E+00 0. -1.
         25    2    1    2    0    0 -0.14575421981E+02  0.21138984607E+02 -0.94047860602E+03  0.94910794780E+03  0.12508632461E+03 0.  0.
          5    1    3    3  502    0 -0.63813483535E+02  0.37920369587E+02 -0.61395333819E+03  0.61843858950E+03  0.41800000000E+01 0.  1.
         -5    1    3    3    0  502  0.49238061555E+02 -0.16781384980E+02 -0.32652526783E+03  0.33066935830E+03  0.41800000000E+01 0.  1.
        -11    1    1    2    0    0 -0.20613831526E+02 -0.59798394481E+02 -0.24896962865E+03  0.25687867569E+03  0.00000000000E+00 0. -1.
         11    1    1    2    0    0  0.35189253507E+02  0.38659409874E+02 -0.92266024503E+02  0.10604646534E+03  0.00000000000E+00 0.  1.
</event>
<event>
 7    1  0.2334784E-009  0.1152424E+03  0.7561462E-02  0.1251159E+00
          1   -1    0    0  501    0  0.00000000000E+00  0.00000000000E+00  0.11582439974E+03  0.11582439974E+03  0.00000000000E+00 0. -1.
         -1   -1    0    0    0  501 -0.00000000000E+00 -0.00000000000E+00 -0.20058833768E+03  0.20058833768E+03  0.00000000000E+00 0.  1.
         25    2    1    2    0    0 -0.62227139378E+02  0.64182500627E+02 -0.10718506335E+03  0.18742279826E+03  0.12508819785E+03 0.  0.
          5    1    3    3  502    0 -0.57148140801E+02  0.77834524583E+02 -0.12879609716E+03  0.16102804183E+03  0.41800000000E+01 0.  1.
         -5    1    3    3    0  502 -0.50789985773E+01 -0.13652023956E+02  0.21611033807E+02  0.26394756427E+02  0.41800000000E+01 0.  1.
        -11    1    1    2    0    0  0.34546671353E+02  0.12822761332E+02  0.29006174000E+02  0.46896202830E+02  0.00000000000E+00 0. -1.
         11    1    1    2    0    0  0.27680468025E+02 -0.77005261959E+02 -0.65850485939E+01  0.82093736329E+02  0.00000000000E+00 0.  1.
</event>
<event>
 7    1  0.2334784E-009  0.1368086E+03  0.7561462E-02  0.1217689E+00
         -2   -1    0    0    0  501 -0.00000000000E+00  0.00000000000E+00  0.37391642971E+03  0.37391642971E+03  0.00000000000E+00 0.  1.
          2   -1    0    0  501    0  0.00000000000E+00 -0.00000000000E+00 -0.81006118054E+02  0.81006118054E+02  0.00000000000E+00 0. -1.
         25    2    1    2    0    0 -0.30281540173E+02 -0.92922756489E+02  0.27661672299E+03  0.31892874863E+03  0.12508846837E+03 0.  0.
          5    1    3    3  502    0 -0.46408132202E+02  0.85987762049E+00  0.32305142697E+02  0.56705808950E+02  0.41800000000E+01 0.  1.
         -5    1    3    3    0  502  0.16126592029E+02 -0.93782634110E+02  0.24431158029E+03  0.26222293968E+03  0.41800000000E+01 0.  1.
        -11    1    1    2    0    0  0.45501206177E+02  0.88888519992E+01 -0.83521660077E+01  0.47107644076E+02  0.00000000000E+00 0.  1.
         11    1    1    2    0    0 -0.15219666003E+02  0.84033904490E+02  0.24645754677E+02  0.88886155057E+02  0.00000000000E+00 0. -1.
</event>
<event>
 7    1  0.2334784E-009  0.8459665E+02  0.7561462E-02  0.1316491E+00
         -2   -1    0    0    0  501 -0.00000000000E+00  0.00000000000E+00  0.16225668530E+02  0.16225668530E+02  0.00000000000E+00 0.  1.
          2   -1    0    0  501    0  0.00000000000E+00 -0.00000000000E+00 -0.80168454171E+03  0.80168454171E+03  0.00000000000E+00 0. -1.
         25    2    1    2    0    0 -0.23601085172E+02 -0.28747723376E+02 -0.44881288092E+03  0.46740140202E+03  0.12509047009E+03 0.  0.
          5    1    3    3  502    0  0.29503014688E+02 -0.68484029039E+01 -0.36158193256E+03  0.36287228449E+03  0.41800000000E+01 0. -1.
         -5    1    3    3    0  502 -0.53104099861E+02 -0.21899320472E+02 -0.87230948363E+02  0.10452911753E+03  0.41800000000E+01 0. -1.
        -11    1    1    2    0    0  0.46817340889E+01  0.51342084252E+02 -0.29511665964E+03  0.29958599942E+03  0.00000000000E+00 0. -1.
         11    1    1    2    0    0  0.18919351083E+02 -0.22594360876E+02 -0.41529332617E+02  0.50922808803E+02  0.00000000000E+00 0.  1.
</event>
<event>
 7    1  0.2334784E-009  0.1278826E+03  0.7561462E-02  0.1230632E+00
         -1   -1    0    0    0  501 -0.00000000000E+00  0.00000000000E+00  0.25528696042E+03  0.25528696042E+03  0.00000000000E+00 0.  1.
          1   -1    0    0  501    0  0.00000000000E+00 -0.00000000000E+00 -0.12349892635E+03  0.12349892635E+03  0.00000000000E+00 0. -1.
         25    2    1    2    0    0 -0.10458524695E+03  0.59013046391E+02 -0.75199397840E+01  0.17356844881E+03  0.12509533726E+03 0.  0.
          5    1    3    3  502    0 -0.85105786220E+02  0.32618414719E+02  0.52337191081E+02  0.10518369549E+03  0.41800000000E+01 0. -1.
         -5    1    3    3    0  502 -0.19479460726E+02  0.26394631672E+02 -0.59857130865E+02  0.68384753320E+02  0.41800000000E+01 0. -1.
        -11    1    1    2    0    0  0.56509235841E+02 -0.61241754122E+02  0.13262093945E+03  0.15662745534E+03  0.00000000000E+00 0.  1.
         11    1    1    2    0    0  0.48076011105E+02  0.22287077312E+01  0.66870343944E+01  0.48589982619E+02  0.00000000000E+00 0. -1.
</event>
<event>
 7    1  0.2334784E-009  0.1053122E+03  0.7561462E-02  0.1269506E+00
         -1   -1    0    0    0  501 -0.00000000000E+00  0.00000000000E+00  0.21417343707E+03  0.21417343707E+03  0.00000000000E+00 0.  1.
          1   -1    0    0  501    0  0.00000000000E+00 -0.00000000000E+00 -0.10486217674E+03  0.10486217674E+03  0.00000000000E+00 0. -1.
         25    2    1    2    0    0 -0.27241927544E+02 -0.40100399290E+02  0.15459271351E+03  0.20468640968E+03  0.12508978615E+03 0.  0.
          5    1    3    3  502    0 -0.63958713450E+02 -0.60315928170E+02  0.79576763374E+02  0.11865353718E+03  0.41800000000E+01 0.  1.
         -5    1    3    3    0  502  0.36716785907E+02  0.20215528880E+02  0.75015950136E+02  0.86032872496E+02  0.41800000000E+01 0.  1.
        -11    1    1    2    0    0  0.45977724762E+02  0.13434867086E+02  0.11152156460E+02  0.49181474374E+02  0.00000000000E+00 0.  1.
         11    1    1    2    0    0 -0.18735797219E+02  0.26665532204E+02 -0.56433609639E+02  0.65167729759E+02  0.00000000000E+00 0. -1.
</event>
<event>
 7    1  0.2334784E-009  0.1595861E+03  0.7561462E-02  0.1189165E+00
         -1   -1    0    0    0  501 -0.00000000000E+00  0.00000000000E+00  0.26093958256E+02  0.26093958256E+02  0.00000000000E+00 0.  1.
          1   -1    0    0  501    0  0.00000000000E+00 -0.00000000000E+00 -0.12546365821E+04  0.12546365821E+04  0.00000000000E+00 0. -1.
         25    2    1    2    0    0 -0.10005435628E+03  0.10379881806E+03 -0.63722599449E+03  0.66519904889E+03  0.12509091793E+03 0.  0.
          5    1    3    3  502    0 -0.10646582125E+02  0.81979490635E+02 -0.43734101523E+03  0.44510518150E+03  0.41800000000E+01 0. -1.
         -5    1    3    3    0  502 -0.89407774159E+02  0.21819327424E+02 -0.19988497926E+03  0.22009386739E+03  0.41800000000E+01 0. -1.
        -11    1    1    2    0    0  0.13027986967E+02 -0.16257187811E+02 -0.13844800403E+02  0.25014058011E+02  0.00000000000E+00 0.  1.
         11    1    1    2    0    0  0.87026369316E+02 -0.87541630248E+02 -0.57747182899E+03  0.59051743349E+03  0.00000000000E+00 0. -1.
</event>
<event>
 6    1  0.2334784E-009  0.1030641E+03  0.7561462E-02  0.1273981E+00
         -2   -1    0    0    0  501 -0.00000000000E+00  0.00000000000E+00  0.22923075295E+03  0.22923075295E+03  0.00000000000E+00 0.  1.
          2   -1    0    0  501    0  0.00000000000E+00 -0.00000000000E+00 -0.70034797259E+02  0.70034797259E+02  0.00000000000E+00 0. -1.
          5    1    1    2  502    0  0.23736898719E+02 -0.26027590743E+02  0.10036919258E+03  0.10645338445E+03  0.41800000000E+01 0.  1.
         -5    1    1    2    0  502 -0.49945919275E+02 -0.38116690985E+02 -0.83114831036E+01  0.63514015266E+02  0.41800000000E+01 0.  1.
        -11    1    1    2    0    0 -0.16687620478E+02  0.62574953800E+02  0.25823552399E+02  0.69720566397E+02  0.00000000000E+00 0. -1.
         11    1    1    2    0    0  0.42896641034E+02  0.15693279280E+01  0.41314693816E+02  0.59577584100E+02  0.00000000000E+00 0.  1.
</event>
<event>
 7    1  0.2334784E-009  0.9918587E+02  0.7561462E-02  0.1282017E+00
          2   -1    0    0  501    0  0.00000000000E+00  0.00000000000E+00  0.47037326306E+03  0.47037326306E+03  0.00000000000E+00 0. -1.
         -2   -1    0    0    0  501 -0.00000000000E+00 -0.00000000000E+00 -0.35001491579E+02  0.35001491579E+02  0.00000000000E+00 0.  1.
         25    2    1    2    0    0  0.29893257987E+02  0.13992222775E+02  0.35972764887E+03  0.38228359736E+03  0.12508948109E+03 0.  0.
          5    1    3    3  502    0  0.74320455258E+02  0.21053341259E+02  0.28161559556E+03  0.29204723815E+03  0.41800000000E+01 0. -1.
         -5    1    3    3    0  502 -0.44427197271E+02 -0.70611184835E+01  0.78112053303E+02  0.90236359207E+02  0.41800000000E+01 0. -1.
        -11    1    1    2    0    0  0.21305728173E+02  0.37818455382E+01 -0.82965406003E+01  0.23174749073E+02  0.00000000000E+00 0.  1.
         11    1    1    2    0    0 -0.51198986160E+02 -0.17774068314E+02  0.83940663213E+02  0.99916408206E+02  0.00000000000E+00 0. -1.
</event>
<event>
 7    1  0.2334784E-009  0.1115654E+03  0.7561462E-02  0.1257698E+00
          2   -1    0    0  501    0  0.00000000000E+00  0.00000000000E+00  0.10746050720E+03  0.10746050720E+03  0.00000000000E+00 0. -1.
         -2   -1    0    0    0  501 -0.00000000000E+00 -0.00000000000E+00 -0.14234500383E+03  0.14234500383E+03  0.00000000000E+00 0.  1.
         25    2    1    2    0    0 -0.36434731841E+01  0.39772058847E+02 -0.51715471220E+02  0.14112735946E+03  0.12508936830E+03 0.  0.
          5    1    3    3  502    0  0.42910204478E+02 -0.25695431510E+02 -0.26910517095E+02  0.56949005076E+02  0.41800000000E+01 0. -1.
         -5    1    3    3    0  502 -0.46553677662E+02  0.65467490356E+02 -0.24804954125E+02  0.84178354382E+02  0.41800000000E+01 0. -1.
        -11    1    1    2    0    0  0.67279065490E+01  0.25898106317E+02 -0.19922117327E+02  0.33359667206E+02  0.00000000000E+00 0.  1.
         11    1    1    2    0    0 -0.30844333649E+01 -0.65670165163E+02  0.36753091914E+02  0.75318484365E+02  0.00000000000E+00 0. -1.
</event>
<event>
 7    1  0.2334784E-009  0.1247538E+03  0.7561462E-02  0.1235455E+00
         -1   -1    0    0    0  501 -0.00000000000E+00  0.00000000000E+00  0.44378888768E+03  0.44378888768E+03  0.00000000000E+00 0.  1.
          1   -1    0    0  501    0  0.00000000000E+00 -0.00000000000E+00 -0.45830225481E+02  0.45830225481E+02  0.00000000000E+00 0. -1.
         25    2    1    2    0    0 -0.42331875981E+02  0.75908211224E+02  0.16370176729E+03  0.22360685200E+03  0.12509081257E+03 0.  0.
          5    1    3    3  502    0  0.26119995249E+02  0.57921692354E+02  0.13073633442E+03  0.14541883693E+03  0.41800000000E+01 0.  1.
         -5    1    3    3    0  502 -0.68451871229E+02  0.17986518870E+02  0.32965432876E+02  0.78188015070E+02  0.41800000000E+01 0.  1.
        -11    1    1    2    0    0 -0.39826208347E+01  0.13589626712E+02  0.83399731317E+02  0.84593465508E+02  0.00000000000E+00 0.  1.
         11    1    1    2    0    0  0.46314496815E+02 -0.89497837936E+02  0.15085716359E+03  0.18141879565E+03  0.00000000000E+00 0. -1.
</event>
<event>
 7    1  0.2334784E-009  0.1186531E+03  0.7561462E-02  0.1245336E+00
         -1   -1    0    0    0  501 -0.00000000000E+00  0.00000000000E+00  0.30770768511E+02  0.30770768511E+02  0.00000000000E+00 0.  1.
          1   -1    0    0  501    0  0.00000000000E+00 -0.00000000000E+00 -0.48094425910E+03  0.48094425910E+03  0.00000000000E+00 0. -1.
         25    2    1    2    0    0  0.21578142840E+02  0.46060142015E+02 -0.20996844447E+03  0.24964121274E+03  0.12508730748E+03 0.  0.
          5    1    3    3  502    0  0.30280968457E+02  0.86651290913E+02 -0.16036192853E+03  0.18482100473E+03  0.41800000000E+01 0. -1.
         -5    1    3    3    0  502 -0.87028256170E+01 -0.40591148898E+02 -0.49606515939E+02  0.64820208008E+02  0.41800000000E+01 0. -1.
        -11    1    1    2    0    0  0.17569511801E+02  0.20178506473E+02 -0.79881302055E+02  0.84242995474E+02  0.00000000000E+00 0.  1.
         11    1    1    2    0    0 -0.39147654641E+02 -0.66238648488E+02 -0.16032374407E+03  0.17783081940E+03  0.00000000000E+00 0. -1.
</event>
<event>
 7    1  0.2334784E-009  0.9364725E+02  0.7561462E-02  0.1294252E+00
         -1   -1    0    0    0  501 -0.00000000000E+00  0.00000000000E+00  0.17920536549E+02  0.17920536549E+02  0.00000000000E+00 0.  1.
          1   -1    0    0  501    0  0.00000000000E+00 -0.00000000000E+00 -0.82531192182E+03  0.82531192182E+03  0.00000000000E+00 0. -1.
         25    2    1    2    0    0 -0.35453658859E+02 -0.84552501914E+01 -0.59705402965E+03  0.61110941963E+03  0.12511097174E+03 0.  0.
          5    1    3    3  502    0  0.14205751600E+02 -0.53517924140E+02 -0.37575732944E+03  0.37983814265E+03  0.41800000000E+01 0.  1.
         -5    1    3    3    0  502 -0.49659410460E+02  0.45062673948E+02 -0.22129670021E+03  0.23127127698E+03  0.41800000000E+01 0.  1.
        -11    1    1    2    0    0  0.37732584958E+02  0.26679504179E+02 -0.20861972794E+03  0.21367670625E+03  0.00000000000E+00 0. -1.
         11    1    1    2    0    0 -0.22789260988E+01 -0.18224253988E+02 -0.17176276861E+01  0.18446332493E+02  0.00000000000E+00 0.  1.
</event>
<event>
 7    1  0.2334784E-009  0.1945115E+03  0.7561462E-02  0.1154454E+00
          1   -1    0    0  501    0  0.00000000000E+00  0.00000000000E+00  0.24274446403E+03  0.24274446403E+03  0.00000000000E+00 0. -1.
         -1   -1    0    0    0  501 -0.00000000000E+00 -0.00000000000E+00 -0.18043011600E+03  0.18043011600E+03  0.00000000000E+00 0.  1.
         25    2    1    2    0    0  0.45098320963E+02 -0.17139355311E+03  0.73032505653E+01  0.21704852320E+03  0.12508843013E+03 0.  0.
          5    1    3    3  502    0 -0.18747187937E+02  0.53006327335E+01 -0.18712412222E+02  0.27334603237E+02  0.41800000000E+01 0.  1.
         -5    1    3    3    0  502  0.63845508900E+02 -0.17669418585E+03  0.26015662788E+02  0.18971391997E+03  0.41800000000E+01 0.  1.
        -11    1    1    2    0    0 -0.51738642469E+02  0.14479994881E+03  0.10847624198E+02  0.15414792652E+03  0.00000000000E+00 0.  1.
         11    1    1    2    0    0  0.66403215063E+01  0.26593604302E+02  0.44163473265E+02  0.51978130308E+02  0.00000000000E+00 0. -1.
</event>
<event>
 7    1  0.2334784E-009  0.6743544E+02  0.7561462E-02  0.1369038E+00
         -2   -1    0    0    0  501 -0.00000000000E+00  0.00000000000E+00  0.19736521502E+03  0.19736521502E+03  0.00000000000E+00 0.  1.
          2   -1    0    0  501    0  0.00000000000E+00 -0.00000000000E+00 -0.66221847750E+02  0.66221847750E+02  0.00000000000E+00 0. -1.
         25    2    1    2    0    0 -0.67208888237E+01 -0.31814919463E+02  0.91183434108E+02  0.15817337770E+03  0.12508812617E+03 0.  0.
          5    1    3    3  502    0 -0.52918523996E+01 -0.32574716961E+02  0.12229604322E+03  0.12673953792E+03  0.41800000000E+01 0.  1.
         -5    1    3    3    0  502 -0.14290364241E+01  0.75979749839E+00 -0.31112609107E+02  0.31433839772E+02  0.41800000000E+01 0.  1.
        -11    1    1    2    0    0 -0.18773890038E+02 -0.27077429218E+02  0.18257605824E+02  0.37669434435E+02  0.00000000000E+00 0. -1.
         11    1    1    2    0    0  0.25494778862E+02  0.58892348681E+02  0.21702327333E+02  0.67744250635E+02  0.00000000000E+00 0.  1.
</event>
<event>
 7    1  0.2334784E-009  0.1995076E+03  0.7561462E-02  0.1150155E+00
          2   -1    0    0  501    0  0.00000000000E+00  0.00000000000E+00  0.50828635741E+03  0.50828635741E+03  0.00000000000E+00 0. -1.
         -2   -1    0    0    0  501 -0.00000000000E+00 -0.00000000000E+00 -0.12450317770E+03  0.12450317770E+03  0.00000000000E+00 0.  1.
         25    2    1    2    0    0  0.77204144414E+02 -0.15484271511E+03  0.13617526483E+02  0.21393833198E+03  0.12508967394E+03 0.  0.
          5    1    3    3  502    0  0.59356783786E+01 -0.13384689791E+03 -0.13534454197E+02  0.13472519515E+03  0.41800000000E+01 0. -1.
         -5    1    3    3    0  502  0.71268466036E+02 -0.20995817196E+02  0.27151980680E+02  0.79213136825E+02  0.41800000000E+01 0. -1.
        -11    1    1    2    0    0 -0.49243814252E+02  0.15496043931E+03  0.27309830794E+03  0.31783702867E+03  0.00000000000E+00 0.  1.
         11    1    1    2    0    0 -0.27960330162E+02 -0.11772420474E+00  0.97067345288E+02  0.10101417447E+03  0.00000000000E+00 0. -1.
</event>
<event>
 7    1  0.2334784E-009  0.9867502E+02  0.7561462E-02  0.1283107E+00
          1   -1    0    0  501    0  0.00000000000E+00  0.00000000000E+00  0.41698557854E+03  0.41698557854E+03  0.00000000000E+00 0. -1.
         -1   -1    0    0    0  501 -0.00000000000E+00 -0.00000000000E+00 -0.44995210292E+02  0.44995210292E+02  0.00000000000E+00 0.  1.
         25    2    1    2    0    0 -0.71195142562E+02 -0.16907411593E+02  0.25747775206E+03  0.29545972924E+03  0.12508816852E+03 0.  0.
          5    1    3    3  502    0 -0.22910902662E+02 -0.42734802333E+02  0.22798964171E+03  0.23312640759E+03  0.41800000000E+01 0. -1.
         -5    1    3    3    0  502 -0.48284239900E+02  0.25827390741E+02  0.29488110355E+02  0.62333321646E+02  0.41800000000E+01 0. -1.
        -11    1    1    2    0    0  0.58538408701E+02  0.37552579898E+02  0.25182586774E+02  0.73966913055E+02  0.00000000000E+00 0.  1.
         11    1    1    2    0    0  0.12656733860E+02 -0.20645168306E+02  0.89330029415E+02  0.92554146540E+02  0.00000000000E+00 0. -1.
</event>
<event>
 7    1  0.2334784E-009  0.9229021E+02  0.7561462E-02  0.1297399E+00
         -1   -1    0    0    0  501 -0.00000000000E+00  0.00000000000E+00  0.10801787897E+03  0.10801787897E+03  0.00000000000E+00 0.  1.
          1   -1    0    0  501    0  0.00000000000E+00 -0.00000000000E+00 -0.21559972354E+03  0.21559972354E+03  0.00000000000E+00 0. -1.
         25    2    1    2    0    0 -0.76189390178E+01  0.76723545034E+02  0.22754185353E+02  0.14869397892E+03  0.12509035064E+03 0.  0.
          5    1    3    3  502    0 -0.12642281132E+02  0.72913185186E+02 -0.40857333983E+02  0.84634236491E+02  0.41800000000E+01 0. -1.
         -5    1    3    3    0  502  0.50233421144E+01  0.38103598485E+01  0.63611519336E+02  0.64059742432E+02  0.41800000000E+01 0. -1.
        -11    1    1    2    0    0  0.36784653112E+02 -0.56447998631E+02 -0.12051484161E+03  0.13806996162E+03  0.00000000000E+00 0. -1.
         11    1    1    2    0    0 -0.29165714094E+02 -0.20275546403E+02 -0.98211883193E+01  0.36853661970E+02  0.00000000000E+00 0.  1.
</event>
<event>
 7    1  0.2334784E-009  0.2550709E+03  0.7561462E-02  0.1110141E+00
         -2   -1    0    0    0  501 -0.00000000000E+00  0.00000000000E+00  0.47988000605E+03  0.47988000605E+03  0.00000000000E+00 0.  1.
          2   -1    0    0  501    0  0.00000000000E+00 -0.00000000000E+00 -0.15207826293E+03  0.15207826293E+03  0.00000000000E+00 0. -1.
         25    2    1    2    0    0  0.69833518646E+02 -0.23194309312E+03  0.22640995893E+03  0.35437703245E+03  0.12508913964E+03 0.  0.
          5    1    3    3  502    0  0.91047720902E+02 -0.21543506389E+03  0.22861482202E+03  0.32708433696E+03  0.41800000000E+01 0. -1.
         -5    1    3    3    0  502 -0.21214202255E+02 -0.16508029224E+02 -0.22048630886E+01  0.27292695496E+02  0.41800000000E+01 0. -1.
        -11    1    1    2    0    0 -0.22672173753E+02  0.15425648105E+02 -0.10470496597E+02  0.29353183492E+02  0.00000000000E+00 0. -1.
         11    1    1    2    0    0 -0.47161344894E+02  0.21651744501E+03  0.11186228079E+03  0.24822805303E+03  0.00000000000E+00 0.  1.
</event>
<event>
 7    1  0.2334784E-009  0.1204344E+03  0.7561462E-02  0.1242382E+00
         -1   -1    0    0    0  501 -0.00000000000E+00  0.00000000000E+00  0.61429065333E+02  0.61429065333E+02  0.00000000000E+00 0.  1.
          1   -1    0    0  501    0  0.00000000000E+00 -0.00000000000E+00 -0.26304727136E+03  0.26304727136E+03  0.00000000000E+00 0. -1.
         25    2    1    2    0    0 -0.55758092262E+01  0.57866380059E+02 -0.72610208059E+02  0.15588267176E+03  0.12509019727E+03 0.  0.
          5    1    3    3  502    0  0.55671729581E+02  0.35988571022E+01 -0.27256293857E+02  0.62230789821E+02  0.41800000000E+01 0. -1.
         -5    1    3    3    0  502 -0.61247538807E+02  0.54267522956E+02 -0.45353914203E+02  0.93651881942E+02  0.41800000000E+01 0. -1.
        -11    1    1    2    0    0 -0.33995906908E+02 -0.13862424570E+01 -0.70000344546E+02  0.77831173647E+02  0.00000000000E+00 0. -1.
         11    1    1    2    0    0  0.39571716135E+02 -0.56480137602E+02 -0.59007653419E+02  0.90762491280E+02  0.00000000000E+00 0.  1.
</event>
<event>
 7    1  0.2334784E-009  0.1756593E+03  0.7561462E-02  0.1172071E+00
         -2   -1    0    0    0  501 -0.00000000000E+00  0.00000000000E+00  0.62652596113E+03  0.62652596113E+03  0.00000000000E+00 0.  1.
          2   -1    0    0  501    0  0.00000000000E+00 -0.00000000000E+00 -0.62130845284E+02  0.62130845284E+02  0.00000000000E+00 0. -1.
         25    2    1    2    0    0  0.15988173385E+03  0.33252096318E+02  0.31385310276E+03  0.37525705203E+03  0.12508482824E+03 0.  0.
          5    1    3    3  502    0  0.32423616029E+02 -0.27109167686E+02  0.15472664641E+02  0.45200371681E+02  0.41800000000E+01 0.  1.
         -5    1    3    3    0  502  0.12745811783E+03  0.60361264003E+02  0.29838043811E+03  0.33005668035E+03  0.41800000000E+01 0.  1.
        -11    1    1    2    0    0 -0.40664260117E+02 -0.26114360813E+02  0.17249520010E+02  0.51313622286E+02  0.00000000000E+00 0. -1.
         11    1    1    2    0    0 -0.11921747374E+03 -0.71377355048E+01  0.23329249308E+03  0.26208613210E+03  0.00000000000E+00 0.  1.
</event>
<event>
 7    1  0.2334784E-009  0.1037405E+03  0.7561462E-02  0.1272621E+00
          1   -1    0    0  501    0  0.00000000000E+00  0.00000000000E+00  0.10523098686E+03  0.10523098686E+03  0.00000000000E+00 0.  1.
         -1   -1    0    0    0  501 -0.00000000000E+00 -0.00000000000E+00 -0.19187680328E+03  0.19187680328E+03  0.00000000000E+00 0. -1.
         25    2    1    2    0    0 -0.41301113776E+02  0.66852773449E+01  0.37158918917E+02  0.13703451558E+03  0.12508876158E+03 0.  0.
          5    1    3    3  502    0 -0.26966957871E+02 -0.52317199138E+02  0.46928845283E+02  0.75392937747E+02  0.41800000000E+01 0. -1.
         -5    1    3    3    0  502 -0.14334155905E+02  0.59002476483E+02 -0.97699263660E+01  0.61641577834E+02  0.41800000000E+01 0. -1.
        -11    1    1    2    0    0  0.82688632796E+01 -0.39912021137E+02 -0.98994605615E+02  0.10705734665E+03  0.00000000000E+00 0. -1.
         11    1    1    2    0    0  0.33032250497E+02  0.33226743792E+02 -0.24810129720E+02  0.53015927914E+02  0.00000000000E+00 0.  1.
</event>
<event>
 7    1  0.2334784E-009  0.1408617E+03  0.7561462E-02  0.1212174E+00
          1   -1    0    0  501    0  0.00000000000E+00  0.00000000000E+00  0.89017283203E+03  0.89017283203E+03  0.00000000000E+00 0. -1.
         -1   -1    0    0    0  501 -0.00000000000E+00 -0.00000000000E+00 -0.33224859833E+02  0.33224859833E+02  0.00000000000E+00 0.  1.
         25    2    1    2    0    0 -0.53406008202E+02  0.10043928020E+03  0.26782926615E+03  0.31673366258E+03  0.12508975372E+03 0.  0.
          5    1    3    3  502    0  0.33385363707E+02  0.77077212191E+01  0.24861043765E+02  0.42538633891E+02  0.41800000000E+01 0. -1.
         -5    1    3    3    0  502 -0.86791371909E+02  0.92731558976E+02  0.24296822238E+03  0.27419502868E+03  0.41800000000E+01 0. -1.
        -11    1    1    2    0    0  0.58681963609E+02 -0.81257740004E+02  0.57108103313E+03  0.57981026170E+03  0.00000000000E+00 0. -1.
         11    1    1    2    0    0 -0.52759554060E+01 -0.19181540191E+02  0.18037672912E+02  0.26853767587E+02  0.00000000000E+00 0.  1.
</event>
<event>
 7    1  0.2334784E-009  0.7932282E+02  0.7561462E-02  0.1330984E+00
         -2   -1    0    0    0  501 -0.00000000000E+00  0.00000000000E+00  0.31453612186E+02  0.31453612186E+02  0.00000000000E+00 0.  1.
          2   -1    0    0  501    0  0.00000000000E+00 -0.00000000000E+00 -0.40472982132E+03  0.40472982132E+03  0.00000000000E+00 0. -1.
         25    2    1    2    0    0  0.27860638225E+02 -0.13659372663E+02 -0.17871671997E+03  0.22033918427E+03  0.12508755534E+03 0.  0.
          5    1    3    3  502    0 -0.14548137262E+02 -0.27504583979E+02  0.45068139119E+01  0.31716465901E+02  0.41800000000E+01 0.  1.
         -5    1    3    3    0  502  0.42408775488E+02  0.13845211316E+02 -0.18322353388E+03  0.18862271837E+03  0.41800000000E+01 0.  1.
        -11    1    1    2    0    0 -0.48717914964E+02 -0.11205126243E+02 -0.63445074651E+02  0.80772938476E+02  0.00000000000E+00 0. -1.
         11    1    1    2    0    0  0.20857276738E+02  0.24864498906E+02 -0.13111441451E+03  0.13507131076E+03  0.00000000000E+00 0.  1.
</event>
<event>
 7    1  0.2334784E-009  0.1565270E+03  0.7561462E-02  0.1192674E+00
          1   -1    0    0  501    0  0.00000000000E+00  0.00000000000E+00  0.15951424553E+04  0.15951424553E+04  0.00000000000E+00 0. -1.
         -1   -1    0    0    0  501 -0.00000000000E+00 -0.00000000000E+00 -0.21613508915E+02  0.21613508915E+02  0.00000000000E+00 0.  1.
         25    2    1    2    0    0 -0.80701800240E+02  0.90214757470E+02  0.12107905745E+04  0.12232408998E+04  0.12511195213E+03 0.  0.
          5    1    3    3  502    0  0.15125265774E+02  0.68346596843E+02  0.35874141208E+03  0.36553098925E+03  0.41800000000E+01 0. -1.
         -5    1    3    3    0  502 -0.95827066014E+02  0.21868160627E+02  0.85204916245E+03  0.85770991055E+03  0.41800000000E+01 0. -1.
        -11    1    1    2    0    0  0.71177095818E+02 -0.10506655671E+03  0.26052773329E+03  0.28979278825E+03  0.00000000000E+00 0.  1.
         11    1    1    2    0    0  0.95247044223E+01  0.14851799243E+02  0.10221063855E+03  0.10372227614E+03  0.00000000000E+00 0. -1.
</event>
<event>
 7    1  0.2334784E-009  0.1052424E+03  0.7561462E-02  0.1269643E+00
          2   -1    0    0  501    0  0.00000000000E+00  0.00000000000E+00  0.58476112629E+03  0.58476112629E+03  0.00000000000E+00 0.  1.
         -2   -1    0    0    0  501 -0.00000000000E+00 -0.00000000000E+00 -0.30356856054E+02  0.30356856054E+02  0.00000000000E+00 0. -1.
         25    2    1    2    0    0 -0.66958003071E+02  0.36791527768E+02  0.31313325628E+03  0.34574033190E+03  0.12508777007E+03 0.  0.
          5    1    3    3  502    0 -0.53110291964E+02 -0.11002309910E+02  0.38598779835E+02  0.66701515280E+02  0.41800000000E+01 0.  1.
         -5    1    3    3    0  502 -0.13847711107E+02  0.47793837678E+02  0.27453447644E+03  0.27903881662E+03  0.41800000000E+01 0.  1.
        -11    1    1    2    0    0  0.57126493008E+02 -0.58840298707E+02  0.11759428532E+03  0.14336677751E+03  0.00000000000E+00 0. -1.
         11    1    1    2    0    0  0.98315100622E+01  0.22048770939E+02  0.12367672864E+03  0.12601087293E+03  0.00000000000E+00 0.  1.
</event>
<event>
 7    1  0.2334784E-009  0.7712922E+02  0.7561462E-02  0.1337401E+00
          4   -1    0    0  501    0  0.00000000000E+00  0.00000000000E+00  0.12193427848E+03  0.12193427848E+03  0.00000000000E+00 0. -1.
         -4   -1    0    0    0  501 -0.00000000000E+00 -0.00000000000E+00 -0.10697573784E+03  0.10697573784E+03  0.00000000000E+00 0.  1.
         25    2    1    2    0    0  0.16504916244E+02 -0.30755200940E+02  0.28283816338E+02  0.13290291674E+03  0.12507964009E+03 0.  0.
          5    1    3    3  502    0  0.11858085497E+02  0.18433593874E+02  0.66600505540E+02  0.70238958655E+02  0.41800000000E+01 0. -1.
         -5    1    3    3    0  502  0.46468307471E+01 -0.49188794814E+02 -0.38316689201E+02  0.62663958083E+02  0.41800000000E+01 0. -1.
        -11    1    1    2    0    0 -0.33889189745E+02 -0.12202285435E+02  0.17805625887E+02  0.40179761879E+02  0.00000000000E+00 0. -1.
         11    1    1    2    0    0  0.17384273500E+02  0.42957486376E+02 -0.31130901590E+02  0.55827337700E+02  0.00000000000E+00 0.  1.
</event>
<event>
 7    1  0.2334784E-009  0.1455919E+03  0.7561462E-02  0.1205997E+00
         -2   -1    0    0    0  501 -0.00000000000E+00  0.00000000000E+00  0.69803126350E+02  0.69803126350E+02  0.00000000000E+00 0.  1.
          2   -1    0    0  501    0  0.00000000000E+00 -0.00000000000E+00 -0.38403115858E+03  0.38403115858E+03  0.00000000000E+00 0. -1.
         25    2    1    2    0    0 -0.24509391360E+02  0.11318731012E+03 -0.11931842457E+03  0.20808010808E+03  0.12509343507E+03 0.  0.
          5    1    3    3  502    0 -0.54238331353E+02  0.90808286975E+02 -0.13139999478E+03  0.16873462182E+03  0.41800000000E+01 0. -1.
         -5    1    3    3    0  502  0.29728939993E+02  0.22379023148E+02  0.12081570215E+02  0.39345486260E+02  0.41800000000E+01 0. -1.
        -11    1    1    2    0    0  0.59244537174E+02 -0.82270555852E+02 -0.11507763056E+03  0.15336629552E+03  0.00000000000E+00 0.  1.
         11    1    1    2    0    0 -0.34735145814E+02 -0.30916754271E+02 -0.79831977097E+02  0.92387881330E+02  0.00000000000E+00 0. -1.
</event>
<event>
 7    1  0.2334784E-009  0.1174049E+03  0.7561462E-02  0.1247441E+00
          2   -1    0    0  501    0  0.00000000000E+00  0.00000000000E+00  0.20401138510E+03  0.20401138510E+03  0.00000000000E+00 0. -1.
         -2   -1    0    0    0  501 -0.00000000000E+00 -0.00000000000E+00 -0.97354021135E+02  0.97354021135E+02  0.00000000000E+00 0.  1.
         25    2    1    2    0    0  0.33745022930E+02 -0.81082608913E+02  0.36909901068E+02  0.15723384620E+03  0.12508807119E+03 0.  0.
          5    1    3    3  502    0  0.51766773340E+02 -0.44935092994E+02 -0.33148673909E+02  0.76257907042E+02  0.41800000000E+01 0.  1.
         -5    1    3    3    0  502 -0.18021750411E+02 -0.36147515919E+02  0.70058574977E+02  0.80975939160E+02  0.41800000000E+01 0.  1.
        -11    1    1    2    0    0 -0.37239862587E+02 -0.65611154509E+01  0.27617298883E+02  0.46824895078E+02  0.00000000000E+00 0. -1.
         11    1    1    2    0    0  0.34948396575E+01  0.87643724364E+02  0.42130164011E+02  0.97306664953E+02  0.00000000000E+00 0.  1.
</event>
<event>
 7    1  0.2334784E-009  0.1045384E+03  0.7561462E-02  0.1271032E+00
          2   -1    0    0  501    0  0.00000000000E+00  0.00000000000E+00  0.22601029749E+03  0.22601029749E+03  0.00000000000E+00 0.  1.
         -2   -1    0    0    0  501 -0.00000000000E+00 -0.00000000000E+00 -0.67336465784E+02  0.67336465784E+02  0.00000000000E+00 0. -1.
         25    2    1    2    0    0 -0.29926722769E+02 -0.30562714911E+02  0.38288032172E+02  0.13763319507E+03  0.12508890718E+03 0.  0.
          5    1    3    3  502    0 -0.16321082207E+02 -0.70508077364E+02  0.56073902367E+02  0.91648904111E+02  0.41800000000E+01 0.  1.
         -5    1    3    3    0  502 -0.13605640562E+02  0.39945362454E+02 -0.17785870196E+02  0.45984290962E+02  0.41800000000E+01 0.  1.
        -11    1    1    2    0    0  0.42909880421E+01  0.57111680430E+02  0.94969726771E+02  0.11090268537E+03  0.00000000000E+00 0.  1.
         11    1    1    2    0    0  0.25635734727E+02 -0.26548965519E+02  0.25416072763E+02  0.44810882828E+02  0.00000000000E+00 0. -1.
</event>
<event>
 7    1  0.2334784E-009  0.1050311E+03  0.7561462E-02  0.1270058E+00
         -1   -1    0    0    0  501 -0.00000000000E+00  0.00000000000E+00  0.37982847452E+02  0.37982847452E+02  0.00000000000E+00 0.  1.
          1   -1    0    0  501    0  0.00000000000E+00 -0.00000000000E+00 -0.45311664091E+03  0.45311664091E+03  0.00000000000E+00 0. -1.
         25    2    1    2    0    0  0.69185982492E+02 -0.20999247689E+02 -0.26788118686E+03  0.30433974328E+03  0.12503871596E+03 0.  0.
          5    1    3    3  502    0  0.16547056023E+02  0.47074707000E+02 -0.53410529894E+02  0.73211953981E+02  0.41800000000E+01 0. -1.
         -5    1    3    3    0  502  0.52638926469E+02 -0.68073954689E+02 -0.21447065696E+03  0.23112778930E+03  0.41800000000E+01 0. -1.
        -11    1    1    2    0    0 -0.52511526803E+02  0.22427629161E+02 -0.15722885567E+03  0.16727633441E+03  0.00000000000E+00 0. -1.
         11    1    1    2    0    0 -0.16674455689E+02 -0.14283814718E+01  0.99762490698E+01  0.19483410678E+02  0.00000000000E+00 0.  1.
</event>
<event>
 7    1  0.2334784E-009  0.8990903E+02  0.7561462E-02  0.1303072E+00
          1   -1    0    0  501    0  0.00000000000E+00  0.00000000000E+00  0.51198382113E+03  0.51198382113E+03  0.00000000000E+00 0. -1.
         -1   -1    0    0    0  501 -0.00000000000E+00 -0.00000000000E+00 -0.25205725445E+02  0.25205725445E+02  0.00000000000E+00 0.  1.
         25    2    1    2    0    0 -0.32978710348E+02  0.91211815383E+00  0.27270897120E+03  0.30183757811E+03  0.12508922132E+03 0.  0.
          5    1    3    3  502    0 -0.54573886077E+02 -0.18107142693E+02  0.26575882503E+03  0.27194007270E+03  0.41800000000E+01 0. -1.
         -5    1    3    3    0  502  0.21595175729E+02  0.19019260846E+02  0.69501461693E+01  0.29897505409E+02  0.41800000000E+01 0. -1.
        -11    1    1    2    0    0 -0.28042925076E+02  0.12350657303E+02  0.39779588839E+02  0.50213146395E+02  0.00000000000E+00 0.  1.
         11    1    1    2    0    0  0.61021635424E+02 -0.13262775456E+02  0.17428953564E+03  0.18513882207E+03  0.00000000000E+00 0. -1.
</event>
<event>
 7    1  0.2334784E-009  0.8600551E+02  0.7561462E-02  0.1312824E+00
         -1   -1    0    0    0  501 -0.00000000000E+00  0.00000000000E+00  0.19334279684E+02  0.19334279684E+02  0.00000000000E+00 0.  1.
          1   -1    0    0  501    0  0.00000000000E+00 -0.00000000000E+00 -0.77885648748E+03  0.77885648748E+03  0.00000000000E+00 0. -1.
         25    2    1    2    0    0 -0.52491318942E+02 -0.18776105489E+02 -0.48520056911E+03  0.50415879684E+03  0.12509444217E+03 0.  0.
          5    1    3    3  502    0 -0.49760576208E+02 -0.32645556169E+02 -0.48575751809E+03  0.48940748469E+03  0.41800000000E+01 0.  1.
         -5    1    3    3    0  502 -0.27307427343E+01  0.13869450680E+02  0.55694898163E+00  0.14751312152E+02  0.41800000000E+01 0.  1.
        -11    1    1    2    0    0  0.71729151926E+02  0.14863058802E+01 -0.14076680651E+03  0.15799548777E+03  0.00000000000E+00 0.  1.
         11    1    1    2    0    0 -0.19237832984E+02  0.17289799609E+02 -0.13355483218E+03  0.13603648256E+03  0.00000000000E+00 0. -1.
</event>
<event>
 7    1  0.2334784E-009  0.3079811E+03  0.7561462E-02  0.1081318E+00
         -1   -1    0    0    0  501 -0.00000000000E+00  0.00000000000E+00  0.80976877318E+02  0.80976877318E+02  0.00000000000E+00 0.  1.
          1   -1    0    0  501    0  0.00000000000E+00 -0.00000000000E+00 -0.16244754760E+04  0.16244754760E+04  0.00000000000E+00 0. -1.
         25    2    1    2    0    0  0.92973950163E+02 -0.28657379977E+03 -0.11878364140E+04  0.12318165828E+04  0.12509216232E+03 0.  0.
          5    1    3    3  502    0  0.58407761660E+02 -0.11645933401E+03 -0.74193223083E+03  0.75329619052E+03  0.41800000000E+01 0.  1.
         -5    1    3    3    0  502  0.34566188503E+02 -0.17011446576E+03 -0.44590418315E+03  0.47852039225E+03  0.41800000000E+01 0.  1.
        -11    1    1    2    0    0 -0.85655062990E+01  0.15757955617E+03 -0.16279599858E+03  0.22673160692E+03  0.00000000000E+00 0.  1.
         11    1    1    2    0    0 -0.84408443864E+02  0.12899424359E+03 -0.19286618615E+03  0.24690416367E+03  0.00000000000E+00 0. -1.
</event>
<event>
 7    1  0.2334784E-009  0.2435072E+03  0.7561462E-02  0.1117478E+00
         -1   -1    0    0    0  501 -0.00000000000E+00  0.00000000000E+00  0.20479511394E+03  0.20479511394E+03  0.00000000000E+00 0.  1.
          1   -1    0    0  501    0  0.00000000000E+00 -0.00000000000E+00 -0.31298643819E+03  0.31298643819E+03  0.00000000000E+00 0. -1.
         25    2    1    2    0    0 -0.15436161823E+03  0.16704320520E+03 -0.82058899307E+02  0.27223857880E+03  0.12509691942E+03 0.  0.
          5    1    3    3  502    0 -0.11471990728E+03  0.18349514369E+03 -0.67607543698E+02  0.22675841163E+03  0.41800000000E+01 0. -1.
         -5    1    3    3    0  502 -0.39641710947E+02 -0.16451938484E+02 -0.14451355609E+02  0.45480167168E+02  0.41800000000E+01 0. -1.
        -11    1    1    2    0    0  0.39665911493E+02 -0.42399721777E+02 -0.47235985580E+02  0.74848909645E+02  0.00000000000E+00 0.  1.
         11    1    1    2    0    0  0.11469570673E+03 -0.12464348342E+03  0.21103560635E+02  0.17069406368E+03  0.00000000000E+00 0. -1.
</event>
<event>
 7    1  0.2334784E-009  0.1066702E+03  0.7561462E-02  0.1266863E+00
         -1   -1    0    0    0  501 -0.00000000000E+00  0.00000000000E+00  0.40480227726E+03  0.40480227726E+03  0.00000000000E+00 0.  1.
          1   -1    0    0  501    0  0.00000000000E+00 -0.00000000000E+00 -0.38380903872E+02  0.38380903872E+02  0.00000000000E+00 0. -1.
         25    2    1    2    0    0 -0.10131450443E+02 -0.60533764530E+02  0.18019049689E+03  0.22777731856E+03  0.12508760428E+03 0.  0.
          5    1    3    3  502    0 -0.54797365192E+02 -0.33634619985E+01  0.34518368316E+02  0.64985031044E+02  0.41800000000E+01 0.  1.
         -5    1    3    3    0  502  0.44665914750E+02 -0.57170302532E+02  0.14567212857E+03  0.16279228751E+03  0.41800000000E+01 0.  1.
        -11    1    1    2    0    0 -0.24362292927E+02  0.15462664710E+02  0.13781931130E+03  0.14080759171E+03  0.00000000000E+00 0.  1.
         11    1    1    2    0    0  0.34493743370E+02  0.45071099820E+02  0.48411565210E+02  0.74598270869E+02  0.00000000000E+00 0. -1.
</event>
<event>
 7    1  0.2334784E-009  0.1486248E+03  0.7561462E-02  0.1202173E+00
          1   -1    0    0  501    0  0.00000000000E+00  0.00000000000E+00  0.11859115539E+04  0.11859115539E+04  0.00000000000E+00 0. -1.
         -1   -1    0    0    0  501 -0.00000000000E+00 -0.00000000000E+00 -0.29811771017E+02  0.29811771017E+02  0.00000000000E+00 0.  1.
         25    2    1    2    0    0 -0.10109730761E+03  0.35766855489E+01  0.97709537279E+03  0.99025057200E+03  0.12508944617E+03 0.  0.
          5    1    3    3  502    0  0.27919600021E+02 -0.12101952684E+02  0.17172895489E+03  0.17445419935E+03  0.41800000000E+01 0. -1.
         -5    1    3    3    0  502 -0.12901690763E+03  0.15678638233E+02  0.80536641790E+03  0.81579637265E+03  0.41800000000E+01 0. -1.
        -11    1    1    2    0    0  0.11373351327E+03  0.14279070697E+02  0.14206393827E+03  0.18254141025E+03  0.00000000000E+00 0. -1.
         11    1    1    2    0    0 -0.12636205657E+02 -0.17855756245E+02  0.36940471864E+02  0.42931342700E+02  0.00000000000E+00 0.  1.
</event>
<event>
 7    1  0.2334784E-009  0.2087725E+03  0.7561462E-02  0.1142542E+00
          1   -1    0    0  501    0  0.00000000000E+00  0.00000000000E+00  0.11284341759E+04  0.11284341759E+04  0.00000000000E+00 0. -1.
         -1   -1    0    0    0  501 -0.00000000000E+00 -0.00000000000E+00 -0.57021081171E+02  0.57021081171E+02  0.00000000000E+00 0.  1.
         25    2    1    2    0    0 -0.77388275353E+01 -0.20044644708E+03  0.80806459094E+03  0.84193507059E+03  0.12509041673E+03 0.  0.
          5    1    3    3  502    0  0.19025083679E+01 -0.36363421658E+02  0.40457128793E+03  0.40622815927E+03  0.41800000000E+01 0.  1.
         -5    1    3    3    0  502 -0.96413359033E+01 -0.16408302543E+03  0.40349330301E+03  0.43570691131E+03  0.41800000000E+01 0.  1.
        -11    1    1    2    0    0  0.42004817946E+02  0.14783856421E+03  0.21497404727E+03  0.26426215544E+03  0.00000000000E+00 0.  1.
         11    1    1    2    0    0 -0.34265990411E+02  0.52607882878E+02  0.48374456494E+02  0.79258031018E+02  0.00000000000E+00 0. -1.
</event>
<event>
 7    1  0.2334784E-009  0.1094342E+03  0.7561462E-02  0.1261621E+00
          1   -1    0    0  501    0  0.00000000000E+00  0.00000000000E+00  0.70984621032E+02  0.70984621032E+02  0.00000000000E+00 0. -1.
         -1   -1    0    0    0  501 -0.00000000000E+00 -0.00000000000E+00 -0.24295150423E+03  0.24295150423E+03  0.00000000000E+00 0.  1.
         25    2    1    2    0    0  0.47072832573E+02 -0.39021332356E+02 -0.46217698899E+02  0.14670400802E+03  0.12508986503E+03 0.  0.
          5    1    3    3  502    0  0.11553273345E+02 -0.67422444249E+02  0.15169738425E+02  0.70191576968E+02  0.41800000000E+01 0.  1.
         -5    1    3    3    0  502  0.35519559228E+02  0.28401111893E+02 -0.61387437324E+02  0.76512431053E+02  0.41800000000E+01 0.  1.
        -11    1    1    2    0    0  0.69281719378E+01 -0.22068237415E+02 -0.89774240650E+01  0.24811304114E+02  0.00000000000E+00 0. -1.
         11    1    1    2    0    0 -0.54001004511E+02  0.61089569771E+02 -0.11677176023E+03  0.14242081312E+03  0.00000000000E+00 0.  1.
</event>
<event>
 7    1  0.2334784E-009  0.1124947E+03  0.7561462E-02  0.1256019E+00
         -2   -1    0    0    0  501 -0.00000000000E+00  0.00000000000E+00  0.15951590362E+03  0.15951590362E+03  0.00000000000E+00 0.  1.
          2   -1    0    0  501    0  0.00000000000E+00 -0.00000000000E+00 -0.12322298582E+03  0.12322298582E+03  0.00000000000E+00 0. -1.
         25    2    1    2    0    0 -0.81821994653E+02 -0.14904383535E+02 -0.80277341333E+01  0.15043031455E+03  0.12509138884E+03 0.  0.
          5    1    3    3  502    0 -0.40860090374E+02  0.44115614616E+02  0.31832346693E+02  0.68165278069E+02  0.41800000000E+01 0.  1.
         -5    1    3    3    0  502 -0.40961904280E+02 -0.59019998150E+02 -0.39860080826E+02  0.82265036482E+02  0.41800000000E+01 0.  1.
        -11    1    1    2    0    0  0.66251409061E+01  0.16242043997E+02  0.53723145669E+02  0.56514359820E+02  0.00000000000E+00 0.  1.
         11    1    1    2    0    0  0.75196853747E+02 -0.13376604625E+01 -0.94024937361E+01  0.75794215066E+02  0.00000000000E+00 0. -1.
</event>
<event>
 7    1  0.2334784E-009  0.1270792E+03  0.7561462E-02  0.1231855E+00
         -1   -1    0    0    0  501 -0.00000000000E+00  0.00000000000E+00  0.57358138096E+03  0.57358138096E+03  0.00000000000E+00 0.  1.
          1   -1    0    0  501    0  0.00000000000E+00 -0.00000000000E+00 -0.32428953538E+02  0.32428953538E+02  0.00000000000E+00 0. -1.
         25    2    1    2    0    0 -0.71886199371E+02 -0.24996498716E+02  0.35410607851E+03  0.38318468695E+03  0.12508772468E+03 0.  0.
          5    1    3    3  502    0  0.18299697565E+02  0.33001561295E+02  0.72768938488E+02  0.82077845900E+02  0.41800000000E+01 0.  1.
         -5    1    3    3    0  502 -0.90185896935E+02 -0.57998060011E+02  0.28133714002E+03  0.30110684105E+03  0.41800000000E+01 0.  1.
        -11    1    1    2    0    0  0.62743719835E+02  0.51294961262E+02  0.17426856211E+03  0.19219125674E+03  0.00000000000E+00 0.  1.
         11    1    1    2    0    0  0.91424795363E+01 -0.26298462546E+02  0.12777786804E+02  0.30634390805E+02  0.00000000000E+00 0. -1.
</event>
<event>
 7    1  0.2334784E-009  0.1221358E+03  0.7561462E-02  0.1239615E+00
          1   -1    0    0  501    0  0.00000000000E+00  0.00000000000E+00  0.26244191435E+03  0.26244191435E+03  0.00000000000E+00 0. -1.
         -1   -1    0    0    0  501 -0.00000000000E+00 -0.00000000000E+00 -0.11543099232E+03  0.11543099232E+03  0.00000000000E+00 0.  1.
         25    2    1    2    0    0 -0.97038906037E+02 -0.34096708043E+02  0.17492619331E+03  0.23838078348E+03  0.12508832896E+03 0.  0.
          5    1    3    3  502    0 -0.12810530594E+02  0.25477479701E+02  0.11593769313E+03  0.11946645033E+03  0.41800000000E+01 0.  1.
         -5    1    3    3    0  502 -0.84228375442E+02 -0.59574187744E+02  0.58988500178E+02  0.11891433315E+03  0.41800000000E+01 0.  1.
        -11    1    1    2    0    0  0.12746388553E+02  0.24167406447E+02  0.26990263764E+02  0.38405836712E+02  0.00000000000E+00 0. -1.
         11    1    1    2    0    0  0.84292517484E+02  0.99293015953E+01 -0.54905535044E+02  0.10108628647E+03  0.00000000000E+00 0.  1.
</event>
<event>
 7    1  0.2334784E-009  0.5299427E+02  0.7561462E-02  0.1429829E+00
         -1   -1    0    0    0  501 -0.00000000000E+00  0.00000000000E+00  0.39688972193E+02  0.39688972193E+02  0.00000000000E+00 0.  1.
          1   -1    0    0  501    0  0.00000000000E+00 -0.00000000000E+00 -0.31759270321E+03  0.31759270321E+03  0.00000000000E+00 0. -1.
         25    2    1    2    0    0  0.32478172566E+00  0.46043235616E+02 -0.15405154988E+03  0.20371289217E+03  0.12508787865E+03 0.  0.
          5    1    3    3  502    0  0.59219824673E+01  0.33202999297E+02  0.12730759780E+02  0.36291234248E+02  0.41800000000E+01 0.  1.
         -5    1    3    3    0  502 -0.55972007416E+01  0.12840236319E+02 -0.16678230966E+03  0.16742165792E+03  0.41800000000E+01 0.  1.
        -11    1    1    2    0    0  0.16305707878E+02 -0.14936769564E+02  0.26220903496E+01  0.22267881628E+02  0.00000000000E+00 0.  1.
         11    1    1    2    0    0 -0.16630489604E+02 -0.31106466052E+02 -0.12647427148E+03  0.13130090160E+03  0.00000000000E+00 0. -1.
</event>
<event>
 7    1  0.2334784E-009  0.2404671E+03  0.7561462E-02  0.1119482E+00
         -2   -1    0    0    0  501 -0.00000000000E+00  0.00000000000E+00  0.90178731027E+02  0.90178731027E+02  0.00000000000E+00 0.  1.
          2   -1    0    0  501    0  0.00000000000E+00 -0.00000000000E+00 -0.79264353642E+03  0.79264353642E+03  0.00000000000E+00 0. -1.
         25    2    1    2    0    0  0.22813547959E+03  0.43963146515E+02 -0.48204669113E+03  0.54954087622E+03  0.12509039496E+03 0.  0.
          5    1    3    3  502    0  0.20719497970E+03  0.66409355809E+02 -0.46675247516E+03  0.51499058983E+03  0.41800000000E+01 0. -1.
         -5    1    3    3    0  502  0.20940499891E+02 -0.22446209294E+02 -0.15294215973E+02  0.34550286389E+02  0.41800000000E+01 0. -1.
        -11    1    1    2    0    0 -0.17780158606E+03 -0.34760874193E+02 -0.11094249896E+03  0.21243813324E+03  0.00000000000E+00 0.  1.
         11    1    1    2    0    0 -0.50333893525E+02 -0.92022723220E+01 -0.10947561530E+03  0.12084325798E+03  0.00000000000E+00 0. -1.
</event>
<event>
 7    1  0.2334784E-009  0.1052709E+03  0.7561462E-02  0.1269587E+00
         -2   -1    0    0    0  501 -0.00000000000E+00  0.00000000000E+00  0.38793335883E+02  0.38793335883E+02  0.00000000000E+00 0.  1.
          2   -1    0    0  501    0  0.00000000000E+00 -0.00000000000E+00 -0.39626725066E+03  0.39626725066E+03  0.00000000000E+00 0. -1.
         25    2    1    2    0    0 -0.15091042516E+02  0.58683701027E+02 -0.19789681102E+03  0.24183386132E+03  0.12509577266E+03 0.  0.
          5    1    3    3  502    0 -0.50485459454E+01 -0.20703732694E+02  0.61890812711E+01  0.22581175581E+02  0.41800000000E+01 0. -1.
         -5    1    3    3    0  502 -0.10042496570E+02  0.79387433722E+02 -0.20408589230E+03  0.21925268574E+03  0.41800000000E+01 0. -1.
        -11    1    1    2    0    0  0.41864867313E+01  0.24472510747E+02 -0.42277263815E+02  0.49028537497E+02  0.00000000000E+00 0. -1.
         11    1    1    2    0    0  0.10904555784E+02 -0.83156211774E+02 -0.11729983994E+03  0.14419818772E+03  0.00000000000E+00 0.  1.
</event>
<event>
 7    1  0.2334784E-009  0.1480339E+03  0.7561462E-02  0.1202910E+00
          1   -1    0    0  501    0  0.00000000000E+00  0.00000000000E+00  0.55664468626E+03  0.55664468626E+03  0.00000000000E+00 0. -1.
         -1   -1    0    0    0  501 -0.00000000000E+00 -0.00000000000E+00 -0.11582880045E+03  0.11582880045E+03  0.00000000000E+00 0.  1.
         25    2    1    2    0    0  0.85053078946E+02  0.67626280060E+02  0.49389476731E+03  0.52094800295E+03  0.12508973026E+03 0.  0.
          5    1    3    3  502    0  0.10584048698E+03  0.14890972245E+02  0.35821108113E+03  0.37384034130E+03  0.41800000000E+01 0.  1.
         -5    1    3    3    0  502 -0.20787408034E+02  0.52735307814E+02  0.13568368618E+03  0.14710766165E+03  0.41800000000E+01 0.  1.
        -11    1    1    2    0    0 -0.67886940758E+02 -0.84366045903E+02 -0.19132233851E+02  0.10996503444E+03  0.00000000000E+00 0. -1.
         11    1    1    2    0    0 -0.17166138188E+02  0.16739765843E+02 -0.33946647648E+02  0.41560449315E+02  0.00000000000E+00 0.  1.
</event>
<event>
 7    1  0.2334784E-009  0.1560393E+03  0.7561462E-02  0.1193242E+00
         -1   -1    0    0    0  501 -0.00000000000E+00  0.00000000000E+00  0.82318425037E+02  0.82318425037E+02  0.00000000000E+00 0.  1.
          1   -1    0    0  501    0  0.00000000000E+00 -0.00000000000E+00 -0.46658741654E+03  0.46658741654E+03  0.00000000000E+00 0. -1.
         25    2    1    2    0    0  0.13084645547E+03  0.37880044928E+02 -0.32668754195E+03  0.37540371384E+03  0.12508998995E+03 0.  0.
          5    1    3    3  502    0 -0.13534857611E+02  0.95955468200E+01 -0.20745611293E-01  0.17109638211E+02  0.41800000000E+01 0.  1.
         -5    1    3    3    0  502  0.14438131308E+03  0.28284498108E+02 -0.32666679634E+03  0.35829407563E+03  0.41800000000E+01 0.  1.
        -11    1    1    2    0    0  0.11478934524E+01 -0.13510095709E+02  0.15563100084E+02  0.20640989067E+02  0.00000000000E+00 0.  1.
         11    1    1    2    0    0 -0.13199434893E+03 -0.24369949219E+02 -0.73144549635E+02  0.15286113867E+03  0.00000000000E+00 0. -1.
</event>
<event>
 7    1  0.2334784E-009  0.7298314E+02  0.7561462E-02  0.1350233E+00
          1   -1    0    0  501    0  0.00000000000E+00  0.00000000000E+00  0.53946713453E+02  0.53946713453E+02  0.00000000000E+00 0. -1.
         -1   -1    0    0    0  501 -0.00000000000E+00 -0.00000000000E+00 -0.27151099471E+03  0.27151099471E+03  0.00000000000E+00 0.  1.
         25    2    1    2    0    0 -0.16994921946E+02 -0.51197849368E+02 -0.12479327327E+03  0.18474510445E+03  0.12508934972E+03 0.  0.
          5    1    3    3  502    0 -0.13053985810E+02 -0.77129693106E+01 -0.13803425192E+03  0.13892740387E+03  0.41800000000E+01 0.  1.
         -5    1    3    3    0  502 -0.39409361364E+01 -0.43484880057E+02  0.13240978650E+02  0.45817700584E+02  0.41800000000E+01 0.  1.
        -11    1    1    2    0    0 -0.25968814605E+02  0.25043925296E+02 -0.81555835187E+02  0.89179211587E+02  0.00000000000E+00 0. -1.
         11    1    1    2    0    0  0.42963736551E+02  0.26153924072E+02 -0.11215172793E+02  0.51533392121E+02  0.00000000000E+00 0.  1.
</event>
<event>
 7    1  0.2334784E-009  0.1021918E+03  0.7561462E-02  0.1275753E+00
          2   -1    0    0  501    0  0.00000000000E+00  0.00000000000E+00  0.14107937689E+04  0.14107937689E+04  0.00000000000E+00 0. -1.
         -2   -1    0    0    0  501 -0.00000000000E+00 -0.00000000000E+00 -0.10161611915E+02  0.10161611915E+02  0.00000000000E+00 0.  1.
         25    2    1    2    0    0 -0.15503266651E+01  0.39038258247E+02  0.96051474135E+03  0.96941518150E+03  0.12510330399E+03 0.  0.
          5    1    3    3  502    0 -0.25184028637E+02 -0.24598074570E+02  0.67427955193E+03  0.67521084642E+03  0.41800000000E+01 0. -1.
         -5    1    3    3    0  502  0.23633701972E+02  0.63636332817E+02  0.28623518941E+03  0.29420433508E+03  0.41800000000E+01 0. -1.
        -11    1    1    2    0    0 -0.43539317777E+02 -0.38187999340E+01  0.18963237676E+03  0.19460394071E+03  0.00000000000E+00 0. -1.
         11    1    1    2    0    0  0.45089644442E+02 -0.35219458313E+02  0.25048503889E+03  0.25693625861E+03  0.00000000000E+00 0.  1.
</event>
<event>
 7    1  0.2334784E-009  0.1592987E+03  0.7561462E-02  0.1189491E+00
          1   -1    0    0  501    0  0.00000000000E+00  0.00000000000E+00  0.47435354781E+03  0.47435354781E+03  0.00000000000E+00 0. -1.
         -1   -1    0    0    0  501 -0.00000000000E+00 -0.00000000000E+00 -0.65331940529E+02  0.65331940529E+02  0.00000000000E+00 0.  1.
         25    2    1    2    0    0 -0.13131478897E+03  0.30229772762E+02  0.26186300005E+03  0.31996444889E+03  0.12509038651E+03 0.  0.
          5    1    3    3  502    0 -0.42478207219E+02  0.70945371625E+02  0.15029202153E+03  0.17158906719E+03  0.41800000000E+01 0.  1.
         -5    1    3    3    0  502 -0.88836581752E+02 -0.40715598862E+02  0.11157097852E+03  0.14837538170E+03  0.41800000000E+01 0.  1.
        -11    1    1    2    0    0  0.82375272344E+02 -0.33533096000E+02  0.31947522312E+02  0.94502900500E+02  0.00000000000E+00 0.  1.
         11    1    1    2    0    0  0.48939516628E+02  0.33033232372E+01  0.11521108492E+03  0.12521813895E+03  0.00000000000E+00 0. -1.
</event>
<event>
 7    1  0.2334784E-009  0.1134032E+03  0.7561462E-02  0.1254394E+00
          2   -1    0    0  501    0  0.00000000000E+00  0.00000000000E+00  0.39754642075E+03  0.39754642075E+03  0.00000000000E+00 0. -1.
         -2   -1    0    0    0  501 -0.00000000000E+00 -0.00000000000E+00 -0.45445114055E+02  0.45445114055E+02  0.00000000000E+00 0.  1.
         25    2    1    2    0    0  0.50856220431E+02 -0.59660354531E+02  0.16394378182E+03  0.22061543437E+03  0.12509153939E+03 0.  0.
          5    1    3    3  502    0 -0.34318638069E+02 -0.50373693392E+02  0.79274463210E+02  0.10008591720E+03  0.41800000000E+01 0. -1.
         -5    1    3    3    0  502  0.85174858500E+02 -0.92866611393E+01  0.84669318607E+02  0.12052951717E+03  0.41800000000E+01 0. -1.
        -11    1    1    2    0    0 -0.20473422261E+02  0.13012308626E+02 -0.19002002753E+01  0.24332939730E+02  0.00000000000E+00 0.  1.
         11    1    1    2    0    0 -0.30382798171E+02  0.46648045905E+02  0.19005772516E+03  0.19804316071E+03  0.00000000000E+00 0. -1.
</event>
<event>
 7    1  0.2334784E-009  0.1435935E+03  0.7561462E-02  0.1208574E+00
          2   -1    0    0  501    0  0.00000000000E+00  0.00000000000E+00  0.62561872566E+03  0.62561872566E+03  0.00000000000E+00 0. -1.
         -2   -1    0    0    0  501 -0.00000000000E+00 -0.00000000000E+00 -0.43301287189E+02  0.43301287189E+02  0.00000000000E+00 0.  1.
         25    2    1    2    0    0  0.10011610006E+03  0.18995880782E+02  0.17147473432E+03  0.23544654372E+03  0.12508962172E+03 0.  0.
          5    1    3    3  502    0  0.55416765604E+02 -0.52674725983E+02  0.75621238826E+02  0.10761825509E+03  0.41800000000E+01 0. -1.
         -5    1    3    3    0  502  0.44699334460E+02  0.71670606765E+02  0.95853495496E+02  0.12782828863E+03  0.41800000000E+01 0. -1.
        -11    1    1    2    0    0 -0.83732358236E+01  0.23493549182E+02  0.27963465706E+02  0.37470166074E+02  0.00000000000E+00 0.  1.
         11    1    1    2    0    0 -0.91742864240E+02 -0.42489429965E+02  0.38287923844E+03  0.39600330305E+03  0.00000000000E+00 0. -1.
</event>
<event>
 7    1  0.2334784E-009  0.9013371E+02  0.7561462E-02  0.1302528E+00
          2   -1    0    0  501    0  0.00000000000E+00  0.00000000000E+00  0.73352804580E+03  0.73352804580E+03  0.00000000000E+00 0. -1.
         -2   -1    0    0    0  501 -0.00000000000E+00 -0.00000000000E+00 -0.24151834143E+02  0.24151834143E+02  0.00000000000E+00 0.  1.
         25    2    1    2    0    0 -0.38663956101E+02  0.65431126196E+02  0.42217564860E+03  0.44682893158E+03  0.12509069529E+03 0.  0.
          5    1    3    3  502    0 -0.50484417696E+01  0.47965037326E+01  0.33622491649E+03  0.33632299964E+03  0.41800000000E+01 0.  1.
         -5    1    3    3    0  502 -0.33615514331E+02  0.60634622463E+02  0.85950732110E+02  0.11050593195E+03  0.41800000000E+01 0.  1.
        -11    1    1    2    0    0  0.27449935654E+02 -0.79842762170E+02  0.27773167337E+03  0.29028132566E+03  0.00000000000E+00 0. -1.
         11    1    1    2    0    0  0.11214020447E+02  0.14411635975E+02  0.94688896876E+01  0.20569622699E+02  0.00000000000E+00 0.  1.
</event>
<event>
 7    1  0.2334784E-009  0.1177169E+03  0.7561462E-02  0.1246912E+00
         -1   -1    0    0    0  501 -0.00000000000E+00  0.00000000000E+00  0.41377509596E+02  0.41377509596E+02  0.00000000000E+00 0.  1.
          1   -1    0    0  501    0  0.00000000000E+00 -0.00000000000E+00 -0.41484301668E+03  0.41484301668E+03  0.00000000000E+00 0. -1.
         25    2    1    2    0    0  0.11849408507E+02 -0.49736436279E+02 -0.12142261546E+03  0.18167158914E+03  0.12508794178E+03 0.  0.
          5    1    3    3  502    0  0.38685008900E+02  0.27310544773E+02 -0.71726060974E+02  0.86049381127E+02  0.41800000000E+01 0. -1.
         -5    1    3    3    0  502 -0.26835600393E+02 -0.77046981052E+02 -0.49696554490E+02  0.95622208016E+02  0.41800000000E+01 0. -1.
        -11    1    1    2    0    0 -0.48951001929E+02  0.48753185259E+02 -0.13328427976E+03  0.15012585684E+03  0.00000000000E+00 0.  1.
         11    1    1    2    0    0  0.37101593422E+02  0.98325101980E+00 -0.11875861186E+03  0.12442308029E+03  0.00000000000E+00 0. -1.
</event>
<event>
 7    1  0.2334784E-009  0.8769253E+02  0.7561462E-02  0.1308538E+00
         -1   -1    0    0    0  501 -0.00000000000E+00  0.00000000000E+00  0.53799673063E+02  0.53799673063E+02  0.00000000000E+00 0.  1.
          1   -1    0    0  501    0  0.00000000000E+00 -0.00000000000E+00 -0.28170535221E+03  0.28170535221E+03  0.00000000000E+00 0. -1.
         25    2    1    2    0    0  0.44785968544E+02 -0.18257379504E+01 -0.16945620533E+03  0.21534040177E+03  0.12508783638E+03 0.  0.
          5    1    3    3  502    0  0.84691957191E+02  0.10399614167E+02 -0.82338728938E+02  0.11865082499E+03  0.41800000000E+01 0. -1.
         -5    1    3    3    0  502 -0.39905988647E+02 -0.12225352117E+02 -0.87117476395E+02  0.96689576779E+02  0.41800000000E+01 0. -1.
        -11    1    1    2    0    0 -0.16012679974E+02  0.89814169033E+01 -0.80910787350E+02  0.82967627898E+02  0.00000000000E+00 0. -1.
         11    1    1    2    0    0 -0.28773288570E+02 -0.71556789530E+01  0.22461313535E+02  0.37196995606E+02  0.00000000000E+00 0.  1.
</event>
<event>
 7    1  0.2334784E-009  0.1489618E+03  0.7561462E-02  0.1201755E+00
          2   -1    0    0  501    0  0.00000000000E+00  0.00000000000E+00  0.98093005424E+02  0.98093005424E+02  0.00000000000E+00 0. -1.
         -2   -1    0    0    0  501 -0.00000000000E+00 -0.00000000000E+00 -0.31657988270E+03  0.31657988270E+03  0.00000000000E+00 0.  1.
         25    2    1    2    0    0  0.13086156512E+03  0.77798851115E+01 -0.59330493943E+02  0.19066470589E+03  0.12509055409E+03 0.  0.
          5    1    3    3  502    0  0.80492070859E+02 -0.39566458282E+02  0.12769090040E+02  0.90691786577E+02  0.41800000000E+01 0. -1.
         -5    1    3    3    0  502  0.50369494264E+02  0.47346343394E+02 -0.72099583983E+02  0.99972919311E+02  0.41800000000E+01 0. -1.
        -11    1    1    2    0    0 -0.84146040836E+02  0.17229202178E+02 -0.14603127992E+03  0.16941822898E+03  0.00000000000E+00 0.  1.
         11    1    1    2    0    0 -0.46715524286E+02 -0.25009087290E+02 -0.13125103411E+02  0.54589953251E+02  0.00000000000E+00 0. -1.
</event>
<event>
 7    1  0.2334784E-009  0.2014501E+03  0.7561462E-02  0.1148521E+00
         -2   -1    0    0    0  501 -0.00000000000E+00  0.00000000000E+00  0.29418349051E+02  0.29418349051E+02  0.00000000000E+00 0.  1.
          2   -1    0    0  501    0  0.00000000000E+00 -0.00000000000E+00 -0.18701661076E+04  0.18701661076E+04  0.00000000000E+00 0. -1.
         25    2    1    2    0    0 -0.43046195328E+01 -0.19150158913E+03 -0.12683594426E+04  0.12888265199E+04  0.12508690778E+03 0.  0.
          5    1    3    3  502    0 -0.47093597663E+01  0.31856657200E+01 -0.16643463407E+01  0.72504471745E+01  0.41800000000E+01 0.  1.
         -5    1    3    3    0  502  0.40474023352E+00 -0.19468725485E+03 -0.12666950962E+04  0.12815760727E+04  0.41800000000E+01 0.  1.
        -11    1    1    2    0    0 -0.27448213952E+02  0.62550163102E+02 -0.30054347482E+03  0.30820822119E+03  0.00000000000E+00 0. -1.
         11    1    1    2    0    0  0.31752833485E+02  0.12895142603E+03 -0.27184484118E+03  0.30254971556E+03  0.00000000000E+00 0.  1.
</event>
<event>
 7    1  0.2334784E-009  0.1525802E+03  0.7561462E-02  0.1197338E+00
         -1   -1    0    0    0  501 -0.00000000000E+00  0.00000000000E+00  0.57774487956E+03  0.57774487956E+03  0.00000000000E+00 0. -1.
          1   -1    0    0  501    0  0.00000000000E+00 -0.00000000000E+00 -0.12101003726E+03  0.12101003726E+03  0.00000000000E+00 0.  1.
         25    2    1    2    0    0 -0.63155159858E+02  0.12278015716E+03  0.49373531085E+03  0.52771713242E+03  0.12508906210E+03 0.  0.
          5    1    3    3  502    0 -0.21229079728E+01  0.84950274639E+01  0.26208069185E+03  0.26226024036E+03  0.41800000000E+01 0.  1.
         -5    1    3    3    0  502 -0.61032251886E+02  0.11428512970E+03  0.23165461900E+03  0.26545689206E+03  0.41800000000E+01 0.  1.
        -11    1    1    2    0    0 -0.15861416585E+02  0.40757624296E+01 -0.99340656438E+01  0.19154164970E+02  0.00000000000E+00 0.  1.
         11    1    1    2    0    0  0.79016576444E+02 -0.12685591959E+03 -0.27066402903E+02  0.15188361944E+03  0.00000000000E+00 0. -1.
</event>
<event>
 7    1  0.2334784E-009  0.1756527E+03  0.7561462E-02  0.1172078E+00
         -2   -1    0    0    0  501 -0.00000000000E+00  0.00000000000E+00  0.11932959099E+03  0.11932959099E+03  0.00000000000E+00 0.  1.
          2   -1    0    0  501    0  0.00000000000E+00 -0.00000000000E+00 -0.42310852365E+03  0.42310852365E+03  0.00000000000E+00 0. -1.
         25    2    1    2    0    0  0.13398243571E+03  0.48475042249E+02  0.54666844196E+01  0.18968119287E+03  0.12509175628E+03 0.  0.
          5    1    3    3  502    0 -0.20469284216E+02 -0.11488103247E+02 -0.32361770277E+00  0.23844186733E+02  0.41800000000E+01 0.  1.
         -5    1    3    3    0  502  0.15445171992E+03  0.59963145496E+02  0.57903021224E+01  0.16583700613E+03  0.41800000000E+01 0.  1.
        -11    1    1    2    0    0 -0.28248987963E+02 -0.48345872289E+02 -0.60303963476E+02  0.82291534797E+02  0.00000000000E+00 0.  1.
         11    1    1    2    0    0 -0.10573344774E+03 -0.12916995994E+00 -0.24894165360E+03  0.27046538698E+03  0.00000000000E+00 0. -1.
</event>
<event>
 7    1  0.2334784E-009  0.1599968E+03  0.7561462E-02  0.1188700E+00
          1   -1    0    0  501    0  0.00000000000E+00  0.00000000000E+00  0.63689323056E+03  0.63689323056E+03  0.00000000000E+00 0. -1.
         -1   -1    0    0    0  501 -0.00000000000E+00 -0.00000000000E+00 -0.55626881044E+02  0.55626881044E+02  0.00000000000E+00 0.  1.
         25    2    1    2    0    0  0.12703633633E+03  0.72940757658E+02  0.22511729829E+03  0.29626495873E+03  0.12504616309E+03 0.  0.
          5    1    3    3  502    0  0.11574652654E+03  0.25292761997E+02  0.21583562276E+03  0.24625082876E+03  0.41800000000E+01 0. -1.
         -5    1    3    3    0  502  0.11289809785E+02  0.47647995661E+02  0.92816755376E+01  0.50014129966E+02  0.41800000000E+01 0. -1.
        -11    1    1    2    0    0 -0.68642337569E+02 -0.62786508448E+02  0.11492846499E+03  0.14785962334E+03  0.00000000000E+00 0.  1.
         11    1    1    2    0    0 -0.58393998761E+02 -0.10154249209E+02  0.24122058623E+03  0.24839552953E+03  0.00000000000E+00 0. -1.
</event>
<event>
 7    1  0.2334784E-009  0.1326766E+03  0.7561462E-02  0.1223537E+00
         -2   -1    0    0    0  501 -0.00000000000E+00  0.00000000000E+00  0.45263426457E+03  0.45263426457E+03  0.00000000000E+00 0.  1.
          2   -1    0    0  501    0  0.00000000000E+00 -0.00000000000E+00 -0.65005133713E+02  0.65005133713E+02  0.00000000000E+00 0. -1.
         25    2    1    2    0    0 -0.11485356416E+02  0.81735292645E+02  0.49123942890E+02  0.15771458760E+03  0.12509259731E+03 0.  0.
          5    1    3    3  502    0  0.31164963209E+01 -0.32984749224E+02  0.17737259534E+02  0.37812550912E+02  0.41800000000E+01 0. -1.
         -5    1    3    3    0  502 -0.14601852736E+02  0.11472004187E+03  0.31386683356E+02  0.11990203669E+03  0.41800000000E+01 0. -1.
        -11    1    1    2    0    0  0.39531104144E+02 -0.78646387807E+02  0.29675641012E+03  0.30953566750E+03  0.00000000000E+00 0.  1.
         11    1    1    2    0    0 -0.28045747729E+02 -0.30889048378E+01  0.41748777847E+02  0.50389143181E+02  0.00000000000E+00 0. -1.
</event>
<event>
 7    1  0.2334784E-009  0.1078572E+03  0.7561462E-02  0.1264590E+00
         -2   -1    0    0    0  501 -0.00000000000E+00  0.00000000000E+00  0.15850562834E+02  0.15850562834E+02  0.00000000000E+00 0.  1.
          2   -1    0    0  501    0  0.00000000000E+00 -0.00000000000E+00 -0.89323286689E+03  0.89323286689E+03  0.00000000000E+00 0. -1.
         25    2    1    2    0    0 -0.36099198324E+02 -0.28388653740E+02 -0.60064977809E+03  0.61525346454E+03  0.12509037501E+03 0.  0.
          5    1    3    3  502    0 -0.11260321160E+02 -0.72771585835E+02 -0.24196605160E+03  0.25295758748E+03  0.41800000000E+01 0. -1.
         -5    1    3    3    0  502 -0.24838877165E+02  0.44382932095E+02 -0.35868372650E+03  0.36229587706E+03  0.41800000000E+01 0. -1.
        -11    1    1    2    0    0  0.60189522907E+02  0.10928401019E+02 -0.12449895877E+03  0.13871625482E+03  0.00000000000E+00 0.  1.
         11    1    1    2    0    0 -0.24090324582E+02  0.17460252721E+02 -0.15223356719E+03  0.15511371036E+03  0.00000000000E+00 0. -1.
</event>
<event>
 7    1  0.2334784E-009  0.6742037E+02  0.7561462E-02  0.1369092E+00
         -2   -1    0    0    0  501 -0.00000000000E+00  0.00000000000E+00  0.40319034398E+02  0.40319034398E+02  0.00000000000E+00 0.  1.
          2   -1    0    0  501    0  0.00000000000E+00 -0.00000000000E+00 -0.28587878434E+03  0.28587878434E+03  0.00000000000E+00 0. -1.
         25    2    1    2    0    0  0.17870415737E+01  0.52278288340E+01 -0.16354212910E+03  0.20597329641E+03  0.12509375336E+03 0.  0.
          5    1    3    3  502    0 -0.48937820855E+02 -0.12637612976E+02 -0.13653274979E+03  0.14564780718E+03  0.41800000000E+01 0. -1.
         -5    1    3    3    0  502  0.50724862429E+02  0.17865441810E+02 -0.27009379318E+02  0.60325489228E+02  0.41800000000E+01 0. -1.
        -11    1    1    2    0    0  0.78966370017E+01 -0.14668918928E+02 -0.97932483267E+02  0.99339344357E+02  0.00000000000E+00 0. -1.
         11    1    1    2    0    0 -0.96836785754E+01  0.94410900943E+01  0.15914862428E+02  0.20885177974E+02  0.00000000000E+00 0.  1.
</event>
<event>
 7    1  0.2334784E-009  0.7703382E+02  0.7561462E-02  0.1337686E+00
         -1   -1    0    0    0  501 -0.00000000000E+00  0.00000000000E+00  0.48074758613E+02  0.48074758613E+02  0.00000000000E+00 0.  1.
          1   -1    0    0  501    0  0.00000000000E+00 -0.00000000000E+00 -0.29805642076E+03  0.29805642076E+03  0.00000000000E+00 0. -1.
         25    2    1    2    0    0  0.40904681175E+02 -0.36212394742E+02 -0.16647678633E+03  0.21528306895E+03  0.12509096256E+03 0.  0.
          5    1    3    3  502    0  0.39882275604E+02 -0.18770169367E+02 -0.18455771703E+03  0.18979446377E+03  0.41800000000E+01 0. -1.
         -5    1    3    3    0  502  0.10224055707E+01 -0.17442225375E+02  0.18080930693E+02  0.25488605178E+02  0.41800000000E+01 0. -1.
        -11    1    1    2    0    0  0.16894970056E+02  0.29021312512E+02 -0.63490675361E+01  0.34175828471E+02  0.00000000000E+00 0.  1.
         11    1    1    2    0    0 -0.57799651231E+02  0.71910822295E+01 -0.77155808275E+02  0.96672281946E+02  0.00000000000E+00 0. -1.
</event>
<event>
 7    1  0.2334784E-009  0.2363592E+03  0.7561462E-02  0.1122242E+00
          1   -1    0    0  501    0  0.00000000000E+00  0.00000000000E+00  0.43382701819E+03  0.43382701819E+03  0.00000000000E+00 0. -1.
         -1   -1    0    0    0  501 -0.00000000000E+00 -0.00000000000E+00 -0.15555877884E+03  0.15555877884E+03  0.00000000000E+00 0.  1.
         25    2    1    2    0    0  0.12937324137E+03  0.18426194042E+03  0.57893143732E+02  0.26398582149E+03  0.12508796740E+03 0.  0.
          5    1    3    3  502    0  0.73768555932E+02  0.25948999395E+02  0.55745547163E+02  0.96125900997E+02  0.41800000000E+01 0.  1.
         -5    1    3    3    0  502  0.55604685434E+02  0.15831294102E+03  0.21475965685E+01  0.16785992050E+03  0.41800000000E+01 0.  1.
        -11    1    1    2    0    0 -0.60522176311E+02 -0.10811556850E+03  0.17182793486E+03  0.21184133019E+03  0.00000000000E+00 0. -1.
         11    1    1    2    0    0 -0.68851065055E+02 -0.76146371918E+02  0.48547160760E+02  0.11355864535E+03  0.00000000000E+00 0.  1.
</event>
<event>
 7    1  0.2334784E-009  0.1647118E+03  0.7561462E-02  0.1183478E+00
          2   -1    0    0  501    0  0.00000000000E+00  0.00000000000E+00  0.14321122931E+03  0.14321122931E+03  0.00000000000E+00 0. -1.
         -2   -1    0    0    0  501 -0.00000000000E+00 -0.00000000000E+00 -0.20365733030E+03  0.20365733030E+03  0.00000000000E+00 0.  1.
         25    2    1    2    0    0 -0.97140665769E+01  0.13133426442E+03 -0.24524059067E+02  0.18326635640E+03  0.12506828461E+03 0.  0.
          5    1    3    3  502    0 -0.64377838150E+02  0.64076872193E+02  0.63933419669E+01  0.91152064247E+02  0.41800000000E+01 0.  1.
         -5    1    3    3    0  502  0.54663771573E+02  0.67257392230E+02 -0.30917401034E+02  0.92114292154E+02  0.41800000000E+01 0.  1.
        -11    1    1    2    0    0  0.36160765511E+02 -0.29964690646E+02 -0.35446853793E+02  0.58838449093E+02  0.00000000000E+00 0.  1.
         11    1    1    2    0    0 -0.26446698934E+02 -0.10136957378E+03 -0.47518813046E+00  0.10476375411E+03  0.00000000000E+00 0. -1.
</event>
<event>
 7    1  0.2334784E-009  0.9165018E+02  0.7561462E-02  0.1298904E+00
         -2   -1    0    0    0  501 -0.00000000000E+00  0.00000000000E+00  0.24630763126E+02  0.24630763126E+02  0.00000000000E+00 0.  1.
          2   -1    0    0  501    0  0.00000000000E+00 -0.00000000000E+00 -0.63716530080E+03  0.63716530080E+03  0.00000000000E+00 0. -1.
         25    2    1    2    0    0 -0.28701404637E+02 -0.41032842474E+02 -0.23341869766E+03  0.26952324784E+03  0.12510406835E+03 0.  0.
          5    1    3    3  502    0  0.30794480074E+02 -0.32178368435E+02 -0.22343060108E+02  0.50004321145E+02  0.41800000000E+01 0.  1.
         -5    1    3    3    0  502 -0.59495884711E+02 -0.88544740390E+01 -0.21107563756E+03  0.21951892670E+03  0.41800000000E+01 0.  1.
        -11    1    1    2    0    0 -0.11970394014E+02 -0.81248304382E+01 -0.97710159554E+01  0.17457833637E+02  0.00000000000E+00 0.  1.
         11    1    1    2    0    0  0.40671798651E+02  0.49157672913E+02 -0.36934482405E+03  0.37481498245E+03  0.00000000000E+00 0. -1.
</event>
<event>
 7    1  0.2334784E-009  0.1120934E+03  0.7561462E-02  0.1256742E+00
          1   -1    0    0  501    0  0.00000000000E+00  0.00000000000E+00  0.90222519553E+03  0.90222519553E+03  0.00000000000E+00 0. -1.
         -1   -1    0    0    0  501 -0.00000000000E+00 -0.00000000000E+00 -0.25069356958E+02  0.25069356958E+02  0.00000000000E+00 0.  1.
         25    2    1    2    0    0  0.68118323088E+02  0.57140356917E+02  0.64631705130E+03  0.66428841165E+03  0.12509291238E+03 0.  0.
          5    1    3    3  502    0  0.64307079936E+02  0.28592304746E+02  0.13641050189E+03  0.15355200372E+03  0.41800000000E+01 0. -1.
         -5    1    3    3    0  502  0.38112431512E+01  0.28548052171E+02  0.50990654941E+03  0.51073640793E+03  0.41800000000E+01 0. -1.
        -11    1    1    2    0    0 -0.56219224925E+02 -0.80604757446E+02  0.16419943209E+03  0.19136139023E+03  0.00000000000E+00 0. -1.
         11    1    1    2    0    0 -0.11899098163E+02  0.23464400529E+02  0.66639355192E+02  0.71644750608E+02  0.00000000000E+00 0.  1.
</event>
<event>
 7    1  0.2334784E-009  0.9508779E+02  0.7561462E-02  0.1290978E+00
         -1   -1    0    0    0  501 -0.00000000000E+00  0.00000000000E+00  0.69269065664E+03  0.69269065664E+03  0.00000000000E+00 0.  1.
          1   -1    0    0  501    0  0.00000000000E+00 -0.00000000000E+00 -0.17625418723E+02  0.17625418723E+02  0.00000000000E+00 0. -1.
         25    2    1    2    0    0  0.15411900503E+02 -0.22066398612E+02  0.40798666901E+03  0.42758066969E+03  0.12509058467E+03 0.  0.
          5    1    3    3  502    0  0.45104991334E+02  0.36524729871E+02  0.13961603429E+03  0.15125681990E+03  0.41800000000E+01 0.  1.
         -5    1    3    3    0  502 -0.29693090831E+02 -0.58591128483E+02  0.26837063472E+03  0.27632384979E+03  0.41800000000E+01 0.  1.
        -11    1    1    2    0    0 -0.33342529189E+02  0.31532898214E+02  0.25507951784E+03  0.25917486056E+03  0.00000000000E+00 0.  1.
         11    1    1    2    0    0  0.17930628687E+02 -0.94664996017E+01  0.11999051061E+02  0.23560545116E+02  0.00000000000E+00 0. -1.
</event>
<event>
 7    1  0.2334784E-009  0.9763957E+02  0.7561462E-02  0.1285339E+00
         -1   -1    0    0    0  501 -0.00000000000E+00  0.00000000000E+00  0.74467785700E+02  0.74467785700E+02  0.00000000000E+00 0.  1.
          1   -1    0    0  501    0  0.00000000000E+00 -0.00000000000E+00 -0.17173386903E+03  0.17173386903E+03  0.00000000000E+00 0. -1.
         25    2    1    2    0    0 -0.41954022467E+01  0.27041930677E+02 -0.38381299200E+02  0.13367798506E+03  0.12509121531E+03 0.  0.
          5    1    3    3  502    0  0.34141633443E+02 -0.21353821981E+02 -0.56216133744E+02  0.69277434569E+02  0.41800000000E+01 0. -1.
         -5    1    3    3    0  502 -0.38337035689E+02  0.48395752658E+02  0.17834834544E+02  0.64400550495E+02  0.41800000000E+01 0. -1.
        -11    1    1    2    0    0 -0.41454318789E+02 -0.22148654808E+02 -0.15862102423E+02  0.49604735150E+02  0.00000000000E+00 0.  1.
         11    1    1    2    0    0  0.45649721036E+02 -0.48932758694E+01 -0.43022681704E+02  0.62918934514E+02  0.00000000000E+00 0. -1.
</event>
<event>
 7    1  0.2334784E-009  0.1268070E+03  0.7561462E-02  0.1232272E+00
          1   -1    0    0  501    0  0.00000000000E+00  0.00000000000E+00  0.13859893308E+03  0.13859893308E+03  0.00000000000E+00 0. -1.
         -1   -1    0    0    0  501 -0.00000000000E+00 -0.00000000000E+00 -0.21005174170E+03  0.21005174170E+03  0.00000000000E+00 0.  1.
         25    2    1    2    0    0 -0.10191446495E+03 -0.24892349420E+02 -0.11848709721E+03  0.20172477449E+03  0.12508998845E+03 0.  0.
          5    1    3    3  502    0 -0.37247182029E+02 -0.36655212951E+02 -0.12499385598E+03  0.13554295865E+03  0.41800000000E+01 0. -1.
         -5    1    3    3    0  502 -0.64667282919E+02  0.11762863531E+02  0.65067587679E+01  0.66181815842E+02  0.41800000000E+01 0. -1.
        -11    1    1    2    0    0  0.26595518447E+02  0.49414454553E+02  0.27667305389E+01  0.56185093380E+02  0.00000000000E+00 0.  1.
         11    1    1    2    0    0  0.75318946500E+02 -0.24522105133E+02  0.44267558060E+02  0.90740806909E+02  0.00000000000E+00 0. -1.
</event>
<event>
 7    1  0.2334784E-009  0.1367274E+03  0.7561462E-02  0.1217802E+00
         -2   -1    0    0    0  501 -0.00000000000E+00  0.00000000000E+00  0.21294677711E+02  0.21294677711E+02  0.00000000000E+00 0.  1.
          2   -1    0    0  501    0  0.00000000000E+00 -0.00000000000E+00 -0.11769588938E+04  0.11769588938E+04  0.00000000000E+00 0. -1.
         25    2    1    2    0    0 -0.75624167315E+02  0.74081439543E+02 -0.80688074433E+03  0.82335486641E+03  0.12509846561E+03 0.  0.
          5    1    3    3  502    0 -0.82253972876E+02  0.20539260696E+01 -0.56114948073E+03  0.56716500843E+03  0.41800000000E+01 0.  1.
         -5    1    3    3    0  502  0.66298055612E+01  0.72027513473E+02 -0.24573126360E+03  0.25618985798E+03  0.41800000000E+01 0.  1.
        -11    1    1    2    0    0  0.39430363300E+02 -0.72330901833E+02 -0.13563995155E+03  0.15869691038E+03  0.00000000000E+00 0.  1.
         11    1    1    2    0    0  0.36193804015E+02 -0.17505377097E+01 -0.21314352020E+03  0.21620179471E+03  0.00000000000E+00 0. -1.
</event>
<event>
 7    1  0.2334784E-009  0.1328712E+03  0.7561462E-02  0.1223257E+00
         -2   -1    0    0    0  501 -0.00000000000E+00  0.00000000000E+00  0.38197512353E+02  0.38197512353E+02  0.00000000000E+00 0.  1.
          2   -1    0    0  501    0  0.00000000000E+00 -0.00000000000E+00 -0.62340450964E+03  0.62340450964E+03  0.00000000000E+00 0. -1.
         25    2    1    2    0    0  0.60723896887E+02  0.71929041717E+02 -0.44184145632E+03  0.46875608689E+03  0.12508883954E+03 0.  0.
          5    1    3    3  502    0 -0.26100564927E+02 -0.17528189711E+02 -0.96510821625E+02  0.10158881836E+03  0.41800000000E+01 0.  1.
         -5    1    3    3    0  502  0.86824461813E+02  0.89457231428E+02 -0.34533063470E+03  0.36716726854E+03  0.41800000000E+01 0.  1.
        -11    1    1    2    0    0 -0.39026825854E+02 -0.55041576436E+01 -0.75810029802E+01  0.40135526579E+02  0.00000000000E+00 0.  1.
         11    1    1    2    0    0 -0.21697071033E+02 -0.66424884074E+02 -0.13578453798E+03  0.15271040852E+03  0.00000000000E+00 0. -1.
</event>
<event>
 7    1  0.2334784E-009  0.1076315E+03  0.7561462E-02  0.1265020E+00
         -1   -1    0    0    0  501 -0.00000000000E+00  0.00000000000E+00  0.37363686685E+02  0.37363686685E+02  0.00000000000E+00 0.  1.
          1   -1    0    0  501    0  0.00000000000E+00 -0.00000000000E+00 -0.45623707103E+03  0.45623707103E+03  0.00000000000E+00 0. -1.
         25    2    1    2    0    0  0.59562637980E+02  0.14461443370E+02 -0.16098669511E+03  0.21288859173E+03  0.12509194737E+03 0.  0.
          5    1    3    3  502    0 -0.36651270772E+01 -0.48660538656E+02 -0.68714701069E+02  0.84382840209E+02  0.41800000000E+01 0.  1.
         -5    1    3    3    0  502  0.63227765057E+02  0.63121982026E+02 -0.92271994043E+02  0.12850575152E+03  0.41800000000E+01 0.  1.
        -11    1    1    2    0    0 -0.18041039082E+02 -0.27881240463E+02 -0.19808552639E+02  0.38668093030E+02  0.00000000000E+00 0.  1.
         11    1    1    2    0    0 -0.41521598897E+02  0.13419797093E+02 -0.23807813660E+03  0.24204407296E+03  0.00000000000E+00 0. -1.
</event>
<event>
 7    1  0.2334784E-009  0.1236930E+03  0.7561462E-02  0.1237126E+00
         -2   -1    0    0    0  501 -0.00000000000E+00  0.00000000000E+00  0.40946033334E+03  0.40946033334E+03  0.00000000000E+00 0. -1.
          2   -1    0    0  501    0  0.00000000000E+00 -0.00000000000E+00 -0.44604698320E+02  0.44604698320E+02  0.00000000000E+00 0.  1.
         25    2    1    2    0    0 -0.20851304795E+02  0.76063915827E+02  0.22707436658E+03  0.27098315217E+03  0.12509438277E+03 0.  0.
          5    1    3    3  502    0 -0.58245750282E+02  0.10856348431E+02  0.46794094126E+02  0.75614729863E+02  0.41800000000E+01 0. -1.
         -5    1    3    3    0  502  0.37394445487E+02  0.65207567396E+02  0.18028027245E+03  0.19536842230E+03  0.41800000000E+01 0. -1.
        -11    1    1    2    0    0  0.81251982676E+01 -0.91973411444E+02  0.81246711969E+02  0.12298843631E+03  0.00000000000E+00 0.  1.
         11    1    1    2    0    0  0.12726106527E+02  0.15909495617E+02  0.56534556473E+02  0.60093443184E+02  0.00000000000E+00 0. -1.
</event>
<event>
 7    1  0.2334784E-009  0.1324955E+03  0.7561462E-02  0.1223799E+00
          1   -1    0    0  501    0  0.00000000000E+00  0.00000000000E+00  0.69136918476E+03  0.69136918476E+03  0.00000000000E+00 0. -1.
         -1   -1    0    0    0  501 -0.00000000000E+00 -0.00000000000E+00 -0.30339882738E+02  0.30339882738E+02  0.00000000000E+00 0.  1.
         25    2    1    2    0    0 -0.73520372659E+02  0.40568631255E+02  0.48437317172E+03  0.50726333493E+03  0.12509061696E+03 0.  0.
          5    1    3    3  502    0 -0.10254564658E+03  0.48294490517E+02  0.43297837017E+03  0.44758877207E+03  0.41800000000E+01 0.  1.
         -5    1    3    3    0  502  0.29025273916E+02 -0.77258592621E+01  0.51394801549E+02  0.59674562868E+02  0.41800000000E+01 0.  1.
        -11    1    1    2    0    0  0.14203576278E+02 -0.57760909733E+02  0.78765612968E+02  0.98702006355E+02  0.00000000000E+00 0. -1.
         11    1    1    2    0    0  0.59316796382E+02  0.17192278478E+02  0.97890517339E+02  0.11574372621E+03  0.00000000000E+00 0.  1.
</event>
<event>
 7    1  0.2334784E-009  0.1300302E+03  0.7561462E-02  0.1227411E+00
         -1   -1    0    0    0  501 -0.00000000000E+00  0.00000000000E+00  0.95440438460E+02  0.95440438460E+02  0.00000000000E+00 0.  1.
          1   -1    0    0  501    0  0.00000000000E+00 -0.00000000000E+00 -0.24422277630E+03  0.24422277630E+03  0.00000000000E+00 0. -1.
         25    2    1    2    0    0  0.78904938396E+02 -0.49401153035E+02 -0.13929456546E+03  0.20908632991E+03  0.12509058384E+03 0.  0.
          5    1    3    3  502    0  0.25061499988E+02  0.41337470466E+02 -0.59250230755E+02  0.76582814592E+02  0.41800000000E+01 0.  1.
         -5    1    3    3    0  502  0.53843438408E+02 -0.90738623501E+02 -0.80044334703E+02  0.13250351532E+03  0.41800000000E+01 0.  1.
        -11    1    1    2    0    0 -0.36002248730E+02  0.51677417295E+02 -0.42854340209E+02  0.76178814947E+02  0.00000000000E+00 0. -1.
         11    1    1    2    0    0 -0.42902689666E+02 -0.22762642598E+01  0.33366567832E+02  0.54398069896E+02  0.00000000000E+00 0.  1.
</event>
<event>
 7    1  0.2334784E-009  0.1124584E+03  0.7561462E-02  0.1256084E+00
         -2   -1    0    0    0  501 -0.00000000000E+00  0.00000000000E+00  0.18720306445E+02  0.18720306445E+02  0.00000000000E+00 0.  1.
          2   -1    0    0  501    0  0.00000000000E+00 -0.00000000000E+00 -0.89619094465E+03  0.89619094465E+03  0.00000000000E+00 0. -1.
         25    2    1    2    0    0  0.41546607660E+00  0.60996480096E+02 -0.35788396346E+03  0.38399173449E+03  0.12509187685E+03 0.  0.
          5    1    3    3  502    0  0.23074208819E+02  0.81818308508E+02 -0.33438671628E+03  0.34504869678E+03  0.41800000000E+01 0.  1.
         -5    1    3    3    0  502 -0.22658742743E+02 -0.20821828412E+02 -0.23497247178E+02  0.38943037709E+02  0.41800000000E+01 0.  1.
        -11    1    1    2    0    0  0.43533607782E+02 -0.17513723040E+02 -0.24583937590E+03  0.25027765430E+03  0.00000000000E+00 0.  1.
         11    1    1    2    0    0 -0.43949073859E+02 -0.43482757056E+02 -0.27374729884E+03  0.28064186230E+03  0.00000000000E+00 0. -1.
</event>
<event>
 7    1  0.2334784E-009  0.1560374E+03  0.7561462E-02  0.1193245E+00
         -1   -1    0    0    0  501 -0.00000000000E+00  0.00000000000E+00  0.64916417059E+02  0.64916417059E+02  0.00000000000E+00 0.  1.
          1   -1    0    0  501    0  0.00000000000E+00 -0.00000000000E+00 -0.63054911487E+03  0.63054911487E+03  0.00000000000E+00 0. -1.
         25    2    1    2    0    0 -0.54687821933E+02  0.12203056214E+03 -0.27033775123E+03  0.32651586776E+03  0.12509155127E+03 0.  0.
          5    1    3    3  502    0 -0.55494769802E+02  0.11709111453E+03 -0.12195578644E+03  0.17799068746E+03  0.41800000000E+01 0.  1.
         -5    1    3    3    0  502  0.80694786854E+00  0.49394476024E+01 -0.14838196479E+03  0.14852518030E+03  0.41800000000E+01 0.  1.
        -11    1    1    2    0    0  0.23178460841E+02 -0.13845183244E+03 -0.30177888299E+03  0.33283125630E+03  0.00000000000E+00 0. -1.
         11    1    1    2    0    0  0.31509361092E+02  0.16421270308E+02  0.64839364108E+01  0.36118407860E+02  0.00000000000E+00 0.  1.
</event>
<event>
 7    1  0.2334784E-009  0.1538427E+03  0.7561462E-02  0.1195829E+00
          1   -1    0    0  501    0  0.00000000000E+00  0.00000000000E+00  0.14398403475E+04  0.14398403475E+04  0.00000000000E+00 0. -1.
         -1   -1    0    0    0  501 -0.00000000000E+00 -0.00000000000E+00 -0.18874815102E+02  0.18874815102E+02  0.00000000000E+00 0.  1.
         25    2    1    2    0    0 -0.75100696073E+02 -0.65117257310E+01  0.93747980613E+03  0.94878760273E+03  0.12508801333E+03 0.  0.
          5    1    3    3  502    0 -0.24089140799E+02  0.58366931519E+02  0.38695476495E+03  0.39209494758E+03  0.41800000000E+01 0.  1.
         -5    1    3    3    0  502 -0.51011555274E+02 -0.64878657250E+02  0.55052504118E+03  0.55669265516E+03  0.41800000000E+01 0.  1.
        -11    1    1    2    0    0 -0.12327772229E+02 -0.54033189534E+02  0.18078678588E+03  0.18909104021E+03  0.00000000000E+00 0. -1.
         11    1    1    2    0    0  0.87428468302E+02  0.60544915265E+02  0.30269894043E+03  0.32083651969E+03  0.00000000000E+00 0.  1.
</event>
<event>
 7    1  0.3935640E-009  0.1256946E+03  0.7561462E-02  0.1233988E+00
         -1   -1    0    0    0  501 -0.00000000000E+00  0.00000000000E+00  0.46671151555E+02  0.46671151555E+02  0.00000000000E+00 0.  1.
          1   -1    0    0  501    0  0.00000000000E+00 -0.00000000000E+00 -0.48751526162E+03  0.48751526162E+03  0.00000000000E+00 0. -1.
         25    2    1    2    0    0  0.90818845806E+02  0.86564356653E+01 -0.14774015697E+03  0.21398597972E+03  0.12505938152E+03 0.  0.
          5    1    3    3  502    0 -0.10233767249E+02 -0.39920394952E+02 -0.28641319350E+02  0.50360356426E+02  0.41800000000E+01 0.  1.
         -5    1    3    3    0  502  0.10105261306E+03  0.48576830618E+02 -0.11909883762E+03  0.16362562330E+03  0.41800000000E+01 0.  1.
        -11    1    1    2    0    0 -0.54067147366E+02  0.12315870160E+02 -0.54069864299E+02  0.77449901920E+02  0.00000000000E+00 0.  1.
         11    1    1    2    0    0 -0.36751698440E+02 -0.20972305826E+02 -0.23903408880E+03  0.24275053153E+03  0.00000000000E+00 0. -1.
</event>
<event>
 7    1  0.2334784E-009  0.7941151E+02  0.7561462E-02  0.1330730E+00
         -1   -1    0    0    0  501 -0.00000000000E+00  0.00000000000E+00  0.52088450556E+02  0.52088450556E+02  0.00000000000E+00 0.  1.
          1   -1    0    0  501    0  0.00000000000E+00 -0.00000000000E+00 -0.19645889911E+03  0.19645889911E+03  0.00000000000E+00 0. -1.
         25    2    1    2    0    0  0.15259079513E+01  0.38456380211E+01 -0.97739807772E+02  0.15879970910E+03  0.12508860964E+03 0.  0.
          5    1    3    3  502    0  0.42238383266E+02  0.22157595124E+02  0.35685886017E+01  0.48012990609E+02  0.41800000000E+01 0.  1.
         -5    1    3    3    0  502 -0.40712475314E+02 -0.18311957103E+02 -0.10130839637E+03  0.11078671850E+03  0.41800000000E+01 0.  1.
        -11    1    1    2    0    0 -0.11565109759E+02  0.29286172124E+02  0.22768853615E+00  0.31487830720E+02  0.00000000000E+00 0.  1.
         11    1    1    2    0    0  0.10039201807E+02 -0.33131810145E+02 -0.46858329319E+02  0.58259809843E+02  0.00000000000E+00 0. -1.
</event>
<event>
 7    1  0.2334784E-009  0.8971781E+02  0.7561462E-02  0.1303536E+00
         -2   -1    0    0    0  501 -0.00000000000E+00  0.00000000000E+00  0.57602499009E+02  0.57602499009E+02  0.00000000000E+00 0.  1.
          2   -1    0    0  501    0  0.00000000000E+00 -0.00000000000E+00 -0.78929984877E+03  0.78929984877E+03  0.00000000000E+00 0. -1.
         25    2    1    2    0    0 -0.71832216985E+02 -0.43504280429E+01 -0.71630868606E+03  0.73071006547E+03  0.12514101017E+03 0.  0.
          5    1    3    3  502    0 -0.83616085436E+02 -0.15363944698E+02 -0.70600879725E+03  0.71112136428E+03  0.41800000000E+01 0.  1.
         -5    1    3    3    0  502  0.11783868451E+02  0.11013516655E+02 -0.10299888817E+02  0.19588701193E+02  0.41800000000E+01 0.  1.
        -11    1    1    2    0    0  0.26314560535E+02 -0.12481618973E+02 -0.49109872318E+02  0.57096641472E+02  0.00000000000E+00 0. -1.
         11    1    1    2    0    0  0.45517656450E+02  0.16832047016E+02  0.33721208619E+02  0.59095640839E+02  0.00000000000E+00 0.  1.
</event>
<event>
 7    1  0.2334784E-009  0.1233105E+03  0.7561462E-02  0.1237734E+00
          1   -1    0    0  501    0  0.00000000000E+00  0.00000000000E+00  0.71268556471E+03  0.71268556471E+03  0.00000000000E+00 0. -1.
         -1   -1    0    0    0  501 -0.00000000000E+00 -0.00000000000E+00 -0.23731575993E+02  0.23731575993E+02  0.00000000000E+00 0.  1.
         25    2    1    2    0    0 -0.62222036607E+02  0.16467244941E+02  0.28075477486E+03  0.31402822103E+03  0.12509087897E+03 0.  0.
          5    1    3    3  502    0 -0.25896797661E+02 -0.54517590318E+02  0.11047751508E+03  0.12595858653E+03  0.41800000000E+01 0. -1.
         -5    1    3    3    0  502 -0.36325238946E+02  0.70984835260E+02  0.17027725978E+03  0.18806963449E+03  0.41800000000E+01 0. -1.
        -11    1    1    2    0    0  0.75095525458E+02  0.11038506839E+02  0.32707295807E+03  0.33576465937E+03  0.00000000000E+00 0. -1.
         11    1    1    2    0    0 -0.12873488851E+02 -0.27505751781E+02  0.81126255785E+02  0.86624260308E+02  0.00000000000E+00 0.  1.
</event>
<event>
 7    1  0.2334784E-009  0.8869811E+02  0.7561462E-02  0.1306035E+00
          1   -1    0    0  501    0  0.00000000000E+00  0.00000000000E+00  0.59211816414E+03  0.59211816414E+03  0.00000000000E+00 0. -1.
         -1   -1    0    0    0  501 -0.00000000000E+00 -0.00000000000E+00 -0.36123596727E+02  0.36123596727E+02  0.00000000000E+00 0.  1.
         25    2    1    2    0    0  0.41086795838E+01  0.12048595266E+02  0.50472986523E+03  0.52015527602E+03  0.12508886611E+03 0.  0.
          5    1    3    3  502    0 -0.25714426378E+02  0.59376209004E+02  0.34023695000E+03  0.34636024665E+03  0.41800000000E+01 0.  1.
         -5    1    3    3    0  502  0.29823105961E+02 -0.47327613738E+02  0.16449291523E+03  0.17379502937E+03  0.41800000000E+01 0.  1.
        -11    1    1    2    0    0 -0.48485619193E+01 -0.34076396089E+02  0.70743405254E+02  0.78672350353E+02  0.00000000000E+00 0. -1.
         11    1    1    2    0    0  0.73988233548E+00  0.22027800823E+02 -0.19478703066E+02  0.29414134495E+02  0.00000000000E+00 0.  1.
</event>
<event>
 7    1  0.2334784E-009  0.1812282E+03  0.7561462E-02  0.1166620E+00
          1   -1    0    0  501    0  0.00000000000E+00  0.00000000000E+00  0.76481836015E+03  0.76481836015E+03  0.00000000000E+00 0. -1.
         -1   -1    0    0    0  501 -0.00000000000E+00 -0.00000000000E+00 -0.55116823619E+02  0.55116823619E+02  0.00000000000E+00 0.  1.
         25    2    1    2    0    0  0.13176024766E+03 -0.86972420483E+02  0.22602513605E+03  0.30275343367E+03  0.12508922690E+03 0.  0.
          5    1    3    3  502    0  0.50542141607E+02  0.16738766508E+02  0.12740454270E+03  0.13814515657E+03  0.41800000000E+01 0. -1.
         -5    1    3    3    0  502  0.81218106054E+02 -0.10371118699E+03  0.98620593343E+02  0.16460827710E+03  0.41800000000E+01 0. -1.
        -11    1    1    2    0    0 -0.16622975330E+02 -0.15791767833E+02  0.28641324441E+02  0.36688263870E+02  0.00000000000E+00 0.  1.
         11    1    1    2    0    0 -0.11513727233E+03  0.10276418832E+03  0.45503507605E+03  0.48049348623E+03  0.00000000000E+00 0. -1.
</event>
<event>
 7    1  0.2334784E-009  0.1843875E+03  0.7561462E-02  0.1163623E+00
          2   -1    0    0  501    0  0.00000000000E+00  0.00000000000E+00  0.17036994633E+04  0.17036994633E+04  0.00000000000E+00 0. -1.
         -2   -1    0    0    0  501 -0.00000000000E+00 -0.00000000000E+00 -0.21078805971E+02  0.21078805971E+02  0.00000000000E+00 0.  1.
         25    2    1    2    0    0 -0.29747936913E+02  0.15172270869E+03  0.82941970263E+03  0.85292991062E+03  0.12509064410E+03 0.  0.
          5    1    3    3  502    0  0.32687726837E+02  0.54841078397E+01  0.77899627232E+02  0.84760764788E+02  0.41800000000E+01 0.  1.
         -5    1    3    3    0  502 -0.62435663750E+02  0.14623860085E+03  0.75152007540E+03  0.76816914584E+03  0.41800000000E+01 0.  1.
        -11    1    1    2    0    0 -0.27012266200E+02 -0.82363021854E+02  0.49975480680E+03  0.50721612436E+03  0.00000000000E+00 0. -1.
         11    1    1    2    0    0  0.56760203112E+02 -0.69359686833E+02  0.35344614787E+03  0.36463223425E+03  0.00000000000E+00 0.  1.
</event>
<event>
 7    1  0.2334784E-009  0.1154371E+03  0.7561462E-02  0.1250820E+00
          1   -1    0    0  501    0  0.00000000000E+00  0.00000000000E+00  0.13382723402E+03  0.13382723402E+03  0.00000000000E+00 0. -1.
         -1   -1    0    0    0  501 -0.00000000000E+00 -0.00000000000E+00 -0.17912224118E+03  0.17912224118E+03  0.00000000000E+00 0.  1.
         25    2    1    2    0    0 -0.74507454743E+02 -0.61892403115E+01  0.45606967308E+02  0.15270056842E+03  0.12509116923E+03 0.  0.
          5    1    3    3  502    0 -0.48582110890E+02 -0.48294143535E+02 -0.19023487983E+02  0.71217352473E+02  0.41800000000E+01 0. -1.
         -5    1    3    3    0  502 -0.25925343853E+02  0.42104903223E+02  0.64630455290E+02  0.81483215943E+02  0.41800000000E+01 0. -1.
        -11    1    1    2    0    0  0.92107064287E+02  0.14356911096E+02 -0.10176935567E+03  0.13801026752E+03  0.00000000000E+00 0.  1.
         11    1    1    2    0    0 -0.17599609544E+02 -0.81676707843E+01  0.10867381206E+02  0.22238639267E+02  0.00000000000E+00 0. -1.
</event>
<event>
 7    1  0.2334784E-009  0.1396114E+03  0.7561462E-02  0.1213853E+00
          3   -1    0    0  501    0  0.00000000000E+00  0.00000000000E+00  0.83785277153E+03  0.83785277153E+03  0.00000000000E+00 0.  1.
         -3   -1    0    0    0  501 -0.00000000000E+00 -0.00000000000E+00 -0.30882403830E+02  0.30882403830E+02  0.00000000000E+00 0. -1.
         25    2    1    2    0    0 -0.93271439069E+02 -0.69106731785E+02  0.35413898508E+03  0.39311220954E+03  0.12508991490E+03 0.  0.
          5    1    3    3  502    0 -0.89758764520E+02 -0.98421778732E+02  0.32567779865E+03  0.35189058423E+03  0.41800000000E+01 0.  1.
         -5    1    3    3    0  502 -0.35126745489E+01  0.29315046947E+02  0.28461186430E+02  0.41221625307E+02  0.41800000000E+01 0.  1.
        -11    1    1    2    0    0  0.59246457808E+02  0.41839169558E+02  0.40271131778E+03  0.40919074323E+03  0.00000000000E+00 0.  1.
         11    1    1    2    0    0  0.34024981261E+02  0.27267562227E+02  0.50120064834E+02  0.66432222593E+02  0.00000000000E+00 0. -1.
</event>
<event>
 7    1  0.2334784E-009  0.1067813E+03  0.7561462E-02  0.1266649E+00
         -1   -1    0    0    0  501 -0.00000000000E+00  0.00000000000E+00  0.16229216341E+03  0.16229216341E+03  0.00000000000E+00 0.  1.
          1   -1    0    0  501    0  0.00000000000E+00 -0.00000000000E+00 -0.77446224397E+02  0.77446224397E+02  0.00000000000E+00 0. -1.
         25    2    1    2    0    0 -0.39409132318E+01  0.50776513780E+02  0.64550069395E+02  0.14967903734E+03  0.12507324899E+03 0.  0.
          5    1    3    3  502    0 -0.11021551945E+02 -0.41009508701E+02  0.24452613441E+02  0.49179844604E+02  0.41800000000E+01 0.  1.
         -5    1    3    3    0  502  0.70806387136E+01  0.91786022481E+02  0.40097455953E+02  0.10049919274E+03  0.41800000000E+01 0.  1.
        -11    1    1    2    0    0  0.66780875846E+01  0.13152857622E+02  0.21483694958E+02  0.26060385002E+02  0.00000000000E+00 0.  1.
         11    1    1    2    0    0 -0.27371743529E+01 -0.63929371402E+02 -0.11878253368E+01  0.63998965463E+02  0.00000000000E+00 0. -1.
</event>
<event>
 7    1  0.2334784E-009  0.1347904E+03  0.7561462E-02  0.1220516E+00
         -1   -1    0    0    0  501 -0.00000000000E+00  0.00000000000E+00  0.18974840686E+03  0.18974840686E+03  0.00000000000E+00 0.  1.
          1   -1    0    0  501    0  0.00000000000E+00 -0.00000000000E+00 -0.12473837922E+03  0.12473837922E+03  0.00000000000E+00 0. -1.
         25    2    1    2    0    0  0.92158388292E+02  0.53128913022E+02  0.15332563063E+02  0.16491884243E+03  0.12508911690E+03 0.  0.
          5    1    3    3  502    0  0.10868970170E+03  0.12971371693E+02 -0.16683580885E+02  0.11080398012E+03  0.41800000000E+01 0. -1.
         -5    1    3    3    0  502 -0.16531313412E+02  0.40157541328E+02  0.32016143948E+02  0.54114862302E+02  0.41800000000E+01 0. -1.
        -11    1    1    2    0    0 -0.36591096303E+02  0.38874553161E+01  0.58869689891E+02  0.69423778530E+02  0.00000000000E+00 0.  1.
         11    1    1    2    0    0 -0.55567291989E+02 -0.57016368338E+02 -0.91922253077E+01  0.80144165124E+02  0.00000000000E+00 0. -1.
</event>
<event>
 7    1  0.2334784E-009  0.1522785E+03  0.7561462E-02  0.1197701E+00
         -2   -1    0    0    0  501 -0.00000000000E+00  0.00000000000E+00  0.48888904275E+02  0.48888904275E+02  0.00000000000E+00 0.  1.
          2   -1    0    0  501    0  0.00000000000E+00 -0.00000000000E+00 -0.78088207685E+03  0.78088207685E+03  0.00000000000E+00 0. -1.
         25    2    1    2    0    0  0.14000549181E+03 -0.32077769568E+02 -0.53735394141E+03  0.57011349521E+03  0.12509843340E+03 0.  0.
          5    1    3    3  502    0  0.76501318368E+02 -0.10476949206E+02 -0.94116479795E+02  0.12180969726E+03  0.41800000000E+01 0.  1.
         -5    1    3    3    0  502  0.63504173439E+02 -0.21600820362E+02 -0.44323746161E+03  0.44830379795E+03  0.41800000000E+01 0.  1.
        -11    1    1    2    0    0 -0.12676473240E+03  0.15817775771E+01 -0.18636522923E+03  0.22539697883E+03  0.00000000000E+00 0. -1.
         11    1    1    2    0    0 -0.13240759410E+02  0.30495991991E+02 -0.82740019312E+01  0.34260507078E+02  0.00000000000E+00 0.  1.
</event>
<event>
 7    1  0.2334784E-009  0.1662929E+03  0.7561462E-02  0.1181770E+00
         -1   -1    0    0    0  501 -0.00000000000E+00  0.00000000000E+00  0.26938759144E+02  0.26938759144E+02  0.00000000000E+00 0.  1.
          1   -1    0    0  501    0  0.00000000000E+00 -0.00000000000E+00 -0.11247825384E+04  0.11247825384E+04  0.00000000000E+00 0. -1.
         25    2    1    2    0    0  0.41649710743E+02 -0.12185199346E+03 -0.41948227047E+03  0.45628969883E+03  0.12510918152E+03 0.  0.
          5    1    3    3  502    0 -0.39482157884E+02 -0.77050395838E+02 -0.19545569295E+03  0.21381301316E+03  0.41800000000E+01 0.  1.
         -5    1    3    3    0  502  0.81131868627E+02 -0.44801597623E+02 -0.22402657752E+03  0.24247668566E+03  0.41800000000E+01 0.  1.
        -11    1    1    2    0    0 -0.45895707099E+02  0.18164928538E+02 -0.21670372585E+03  0.22225410087E+03  0.00000000000E+00 0.  1.
         11    1    1    2    0    0  0.42459963556E+01  0.10368706492E+03 -0.46165778293E+03  0.47317749783E+03  0.00000000000E+00 0. -1.
</event>
<event>
 6    1  0.2334784E-009  0.1089759E+03  0.7561462E-02  0.1262478E+00
          1   -1    0    0  501    0  0.00000000000E+00  0.00000000000E+00  0.13741103354E+03  0.13741103354E+03  0.00000000000E+00 0. -1.
         -1   -1    0    0    0  501 -0.00000000000E+00 -0.00000000000E+00 -0.10586848504E+03  0.10586848504E+03  0.00000000000E+00 0.  1.
          5    1    1    2  502    0  0.80782049438E+02  0.82779917829E-01  0.22454635851E+02  0.83948969232E+02  0.41800000000E+01 0. -1.
         -5    1    1    2    0  502 -0.45779861612E+02  0.64582029230E+01  0.34455640624E+02  0.57811484024E+02  0.41800000000E+01 0. -1.
        -11    1    1    2    0    0  0.18235949358E+01 -0.40503256969E+02  0.80024873619E+01  0.41326494257E+02  0.00000000000E+00 0. -1.
         11    1    1    2    0    0 -0.36825782761E+02  0.33962274128E+02 -0.33370215336E+02  0.60192571066E+02  0.00000000000E+00 0.  1.
</event>
<event>
 7    1  0.2334784E-009  0.1072416E+03  0.7561462E-02  0.1265765E+00
         -3   -1    0    0    0  501 -0.00000000000E+00  0.00000000000E+00  0.11353645323E+03  0.11353645323E+03  0.00000000000E+00 0.  1.
          3   -1    0    0  501    0  0.00000000000E+00 -0.00000000000E+00 -0.13352679525E+03  0.13352679525E+03  0.00000000000E+00 0. -1.
         25    2    1    2    0    0  0.11011374978E+02  0.31517133715E+02  0.37490659636E+02  0.13478707800E+03  0.12508967479E+03 0.  0.
          5    1    3    3  502    0  0.64966230167E+02  0.14300674344E+01  0.32202169108E+02  0.72643707575E+02  0.41800000000E+01 0. -1.
         -5    1    3    3    0  502 -0.53954855189E+02  0.30087066281E+02  0.52884905282E+01  0.62143370426E+02  0.41800000000E+01 0. -1.
        -11    1    1    2    0    0  0.34618672234E+02 -0.58939400515E+01 -0.79295250771E+00  0.35125770743E+02  0.00000000000E+00 0.  1.
         11    1    1    2    0    0 -0.45630047212E+02 -0.25623193663E+02 -0.56688049147E+02  0.77150399728E+02  0.00000000000E+00 0. -1.
</event>
<event>
 7    1  0.2334784E-009  0.1147146E+03  0.7561462E-02  0.1252080E+00
         -2   -1    0    0    0  501 -0.00000000000E+00  0.00000000000E+00  0.37021514811E+02  0.37021514811E+02  0.00000000000E+00 0.  1.
          2   -1    0    0  501    0  0.00000000000E+00 -0.00000000000E+00 -0.50115891843E+03  0.50115891843E+03  0.00000000000E+00 0. -1.
         25    2    1    2    0    0 -0.62997497189E+02  0.35163712506E+02 -0.33602988804E+03  0.36574421660E+03  0.12509026738E+03 0.  0.
          5    1    3    3  502    0 -0.10021111797E+03  0.21777569173E+02 -0.21283336431E+03  0.23628805312E+03  0.41800000000E+01 0.  1.
         -5    1    3    3    0  502  0.37213620779E+02  0.13386143333E+02 -0.12319652373E+03  0.12945616349E+03  0.41800000000E+01 0.  1.
        -11    1    1    2    0    0  0.40751692284E+02  0.50556395023E+01 -0.11859148638E+03  0.12549980302E+03  0.00000000000E+00 0. -1.
         11    1    1    2    0    0  0.22245804905E+02 -0.40219352008E+02 -0.95160291953E+01  0.46936413620E+02  0.00000000000E+00 0.  1.
</event>
<event>
 7    1  0.2334784E-009  0.1522790E+03  0.7561462E-02  0.1197700E+00
         -3   -1    0    0    0  501 -0.00000000000E+00  0.00000000000E+00  0.20649571644E+03  0.20649571644E+03  0.00000000000E+00 0.  1.
          3   -1    0    0  501    0  0.00000000000E+00 -0.00000000000E+00 -0.14655308478E+03  0.14655308478E+03  0.00000000000E+00 0. -1.
         25    2    1    2    0    0 -0.12908930667E+03  0.21751987737E+02  0.67813401379E+02  0.19334473976E+03  0.12508530257E+03 0.  0.
          5    1    3    3  502    0 -0.12369473994E+01 -0.29676960580E+02 -0.13918854605E+02  0.33067490707E+02  0.41800000000E+01 0.  1.
         -5    1    3    3    0  502 -0.12785235927E+03  0.51428948318E+02  0.81732255984E+02  0.16027724905E+03  0.41800000000E+01 0.  1.
        -11    1    1    2    0    0  0.11177285588E+03 -0.39305135850E+01  0.28722632545E+02  0.11547125127E+03  0.00000000000E+00 0.  1.
         11    1    1    2    0    0  0.17316450787E+02 -0.17821474152E+02 -0.36593402255E+02  0.44232810192E+02  0.00000000000E+00 0. -1.
</event>
<event>
 7    1  0.2334784E-009  0.1227784E+03  0.7561462E-02  0.1238583E+00
          2   -1    0    0  501    0  0.00000000000E+00  0.00000000000E+00  0.68704619008E+03  0.68704619008E+03  0.00000000000E+00 0. -1.
         -2   -1    0    0    0  501 -0.00000000000E+00 -0.00000000000E+00 -0.34800441327E+02  0.34800441327E+02  0.00000000000E+00 0.  1.
         25    2    1    2    0    0 -0.10401306954E+03 -0.29458026847E+02  0.30068710991E+03  0.34314155530E+03  0.12508754906E+03 0.  0.
          5    1    3    3  502    0 -0.83046773708E+02 -0.20237311477E+02  0.30725483796E+03  0.31895034606E+03  0.41800000000E+01 0. -1.
         -5    1    3    3    0  502 -0.20966295833E+02 -0.92207153694E+01 -0.65677280556E+01  0.24191209244E+02  0.41800000000E+01 0. -1.
        -11    1    1    2    0    0 -0.25827737504E+01  0.29986811008E+02  0.12115284750E+03  0.12483545976E+03  0.00000000000E+00 0. -1.
         11    1    1    2    0    0  0.10659584329E+03 -0.52878416181E+00  0.23040579135E+03  0.25386961635E+03  0.00000000000E+00 0.  1.
</event>
<event>
 7    1  0.2334784E-009  0.1139563E+03  0.7561462E-02  0.1253414E+00
         -2   -1    0    0    0  501 -0.00000000000E+00  0.00000000000E+00  0.74589247322E+03  0.74589247322E+03  0.00000000000E+00 0.  1.
          2   -1    0    0  501    0  0.00000000000E+00 -0.00000000000E+00 -0.19644325382E+02  0.19644325382E+02  0.00000000000E+00 0. -1.
         25    2    1    2    0    0  0.54017785583E+02 -0.46991926454E+01  0.40722760890E+03  0.42943903808E+03  0.12507421159E+03 0.  0.
          5    1    3    3  502    0 -0.16577800670E+02 -0.42220061807E+02  0.75399608522E+02  0.88090467472E+02  0.41800000000E+01 0. -1.
         -5    1    3    3    0  502  0.70595586252E+02  0.37520869162E+02  0.33182800038E+03  0.34134857061E+03  0.41800000000E+01 0. -1.
        -11    1    1    2    0    0 -0.26483786656E+02  0.45758049169E+02  0.20716017525E+03  0.21380020634E+03  0.00000000000E+00 0.  1.
         11    1    1    2    0    0 -0.27533998926E+02 -0.41058856523E+02  0.11186036368E+03  0.12229755418E+03  0.00000000000E+00 0. -1.
</event>
<event>
 7    1  0.2334784E-009  0.9599927E+02  0.7561462E-02  0.1288941E+00
         -2   -1    0    0    0  501 -0.00000000000E+00  0.00000000000E+00  0.10243212358E+03  0.10243212358E+03  0.00000000000E+00 0.  1.
          2   -1    0    0  501    0  0.00000000000E+00 -0.00000000000E+00 -0.14429263400E+03  0.14429263400E+03  0.00000000000E+00 0. -1.
         25    2    1    2    0    0 -0.54258427763E+02 -0.28434541012E+01  0.46086308211E+01  0.13645862091E+03  0.12509058129E+03 0.  0.
          5    1    3    3  502    0 -0.32819032036E+02 -0.53808795868E+02  0.36036363201E+02  0.72722536048E+02  0.41800000000E+01 0.  1.
         -5    1    3    3    0  502 -0.21439395727E+02  0.50965341766E+02 -0.31427732380E+02  0.63736084858E+02  0.41800000000E+01 0.  1.
        -11    1    1    2    0    0  0.89264788167E+01 -0.20525568905E+02 -0.54239854302E+02  0.58676594973E+02  0.00000000000E+00 0. -1.
         11    1    1    2    0    0  0.45331948946E+02  0.23369023006E+02  0.77707130649E+01  0.51589541702E+02  0.00000000000E+00 0.  1.
</event>
<event>
 7    1  0.2334784E-009  0.2323630E+03  0.7561462E-02  0.1124988E+00
          1   -1    0    0  501    0  0.00000000000E+00  0.00000000000E+00  0.34611842833E+03  0.34611842833E+03  0.00000000000E+00 0. -1.
         -1   -1    0    0    0  501 -0.00000000000E+00 -0.00000000000E+00 -0.18869607827E+03  0.18869607827E+03  0.00000000000E+00 0.  1.
         25    2    1    2    0    0 -0.10197468853E+03 -0.19927410979E+03  0.14402246191E+03  0.29410813043E+03  0.12509242550E+03 0.  0.
          5    1    3    3  502    0 -0.21080796559E+02 -0.53238899055E+02 -0.19254102228E+02  0.60555538217E+02  0.41800000000E+01 0. -1.
         -5    1    3    3    0  502 -0.80893891975E+02 -0.14603521073E+03  0.16327656413E+03  0.23355259221E+03  0.41800000000E+01 0. -1.
        -11    1    1    2    0    0 -0.14460450004E+02  0.43473372276E+02  0.14681004846E+01  0.45838783038E+02  0.00000000000E+00 0.  1.
         11    1    1    2    0    0  0.11643513854E+03  0.15580073751E+03  0.11931787668E+02  0.19486759313E+03  0.00000000000E+00 0. -1.
</event>
<event>
 7    1  0.2334784E-009  0.8673591E+02  0.7561462E-02  0.1310954E+00
         -2   -1    0    0    0  501 -0.00000000000E+00  0.00000000000E+00  0.51108632722E+02  0.51108632722E+02  0.00000000000E+00 0.  1.
          2   -1    0    0  501    0  0.00000000000E+00 -0.00000000000E+00 -0.27579614584E+03  0.27579614584E+03  0.00000000000E+00 0. -1.
         25    2    1    2    0    0  0.41427198278E+02  0.24489860829E+02 -0.10662121673E+03  0.17127366618E+03  0.12510243334E+03 0.  0.
          5    1    3    3  502    0  0.56612031955E+02  0.17800522551E+02  0.37254530103E+01  0.59608155191E+02  0.41800000000E+01 0.  1.
         -5    1    3    3    0  502 -0.15184833677E+02  0.66893382777E+01 -0.11034666974E+03  0.11166551098E+03  0.41800000000E+01 0.  1.
        -11    1    1    2    0    0 -0.27398990847E+02  0.29984372714E+02 -0.27617361719E+02  0.49117063988E+02  0.00000000000E+00 0.  1.
         11    1    1    2    0    0 -0.14028207430E+02 -0.54474233543E+02 -0.90448934670E+02  0.10651404840E+03  0.00000000000E+00 0. -1.
</event>
<event>
 7    1  0.2334784E-009  0.1017556E+03  0.7561462E-02  0.1276647E+00
          3   -1    0    0  501    0  0.00000000000E+00  0.00000000000E+00  0.73196454759E+03  0.73196454759E+03  0.00000000000E+00 0. -1.
         -3   -1    0    0    0  501 -0.00000000000E+00 -0.00000000000E+00 -0.25266075112E+02  0.25266075112E+02  0.00000000000E+00 0.  1.
         25    2    1    2    0    0  0.61174845297E+02  0.47135924830E+02  0.50646956918E+03  0.52737341501E+03  0.12508851765E+03 0.  0.
          5    1    3    3  502    0  0.58894645676E+02  0.60767926596E+02  0.16394596343E+03  0.18454558114E+03  0.41800000000E+01 0. -1.
         -5    1    3    3    0  502  0.22801996208E+01 -0.13632001767E+02  0.34252360574E+03  0.34282783386E+03  0.41800000000E+01 0. -1.
        -11    1    1    2    0    0 -0.26493761548E+02  0.16966641399E+02  0.10694940974E+03  0.11148077218E+03  0.00000000000E+00 0. -1.
         11    1    1    2    0    0 -0.34681083749E+02 -0.64102566229E+02  0.93279493563E+02  0.11837643552E+03  0.00000000000E+00 0.  1.
</event>
<event>
 7    1  0.2334784E-009  0.1332993E+03  0.7561462E-02  0.1222641E+00
         -1   -1    0    0    0  501 -0.00000000000E+00  0.00000000000E+00  0.34659230003E+03  0.34659230003E+03  0.00000000000E+00 0.  1.
          1   -1    0    0  501    0  0.00000000000E+00 -0.00000000000E+00 -0.65311475016E+02  0.65311475016E+02  0.00000000000E+00 0. -1.
         25    2    1    2    0    0  0.10832380227E+02 -0.10068318166E+03  0.11863596137E+03  0.19994404682E+03  0.12509471211E+03 0.  0.
          5    1    3    3  502    0 -0.25581765333E+02  0.20665251206E+02  0.34226308560E+02  0.47648629808E+02  0.41800000000E+01 0.  1.
         -5    1    3    3    0  502  0.36414145559E+02 -0.12134843286E+03  0.84409652812E+02  0.15229541701E+03  0.41800000000E+01 0.  1.
        -11    1    1    2    0    0 -0.22354659423E+02  0.79351841813E+02  0.49312912300E+02  0.96063567062E+02  0.00000000000E+00 0. -1.
         11    1    1    2    0    0  0.11522279196E+02  0.21331339845E+02  0.11333195134E+03  0.11589616116E+03  0.00000000000E+00 0.  1.
</event>
<event>
 7    1  0.2334784E-009  0.1889391E+03  0.7561462E-02  0.1159422E+00
          1   -1    0    0  501    0  0.00000000000E+00  0.00000000000E+00  0.22992408523E+03  0.22992408523E+03  0.00000000000E+00 0. -1.
         -1   -1    0    0    0  501 -0.00000000000E+00 -0.00000000000E+00 -0.18550541648E+03  0.18550541648E+03  0.00000000000E+00 0.  1.
         25    2    1    2    0    0  0.97852312362E+02  0.14006655115E+03 -0.14806083666E+02  0.21227577301E+03  0.12509224559E+03 0.  0.
          5    1    3    3  502    0  0.37874700114E+02  0.13707027935E+03 -0.38813131995E+02  0.14746757611E+03  0.41800000000E+01 0. -1.
         -5    1    3    3    0  502  0.59977612248E+02  0.29962718059E+01  0.24007048329E+02  0.64808196898E+02  0.41800000000E+01 0. -1.
        -11    1    1    2    0    0 -0.57248854162E+02 -0.47704738124E+02 -0.17325811850E+02  0.76507235596E+02  0.00000000000E+00 0.  1.
         11    1    1    2    0    0 -0.40603458200E+02 -0.92361813030E+02  0.76550564268E+02  0.12664649310E+03  0.00000000000E+00 0. -1.
</event>
<event>
 7    1  0.2334784E-009  0.2362148E+03  0.7561462E-02  0.1122340E+00
         -1   -1    0    0    0  501 -0.00000000000E+00  0.00000000000E+00  0.20140532587E+03  0.20140532587E+03  0.00000000000E+00 0.  1.
          1   -1    0    0  501    0  0.00000000000E+00 -0.00000000000E+00 -0.29859831098E+03  0.29859831098E+03  0.00000000000E+00 0. -1.
         25    2    1    2    0    0 -0.64605240567E+02 -0.20607783151E+03 -0.11568930064E+02  0.24984635610E+03  0.12508977482E+03 0.  0.
          5    1    3    3  502    0 -0.79442845384E+02 -0.56426314564E+02  0.92469112210E+01  0.97969752603E+02  0.41800000000E+01 0.  1.
         -5    1    3    3    0  502  0.14837604817E+02 -0.14965151694E+03 -0.20815841285E+02  0.15187660349E+03  0.41800000000E+01 0.  1.
        -11    1    1    2    0    0  0.75280699601E+02  0.15553105016E+03 -0.32063536846E+02  0.17574174715E+03  0.00000000000E+00 0.  1.
         11    1    1    2    0    0 -0.10675459034E+02  0.50546781347E+02 -0.53560518202E+02  0.74415533594E+02  0.00000000000E+00 0. -1.
</event>
<event>
 7    1  0.2334784E-009  0.1020015E+03  0.7561462E-02  0.1276143E+00
         -3   -1    0    0    0  501 -0.00000000000E+00  0.00000000000E+00  0.37872824934E+02  0.37872824934E+02  0.00000000000E+00 0.  1.
          3   -1    0    0  501    0  0.00000000000E+00 -0.00000000000E+00 -0.40656259899E+03  0.40656259899E+03  0.00000000000E+00 0. -1.
         25    2    1    2    0    0 -0.42977659492E+02  0.36974891210E+01 -0.29134109782E+03  0.31998288805E+03  0.12509461509E+03 0.  0.
          5    1    3    3  502    0 -0.14776382967E+02  0.63845818698E+02 -0.15070573225E+03  0.16439075458E+03  0.41800000000E+01 0. -1.
         -5    1    3    3    0  502 -0.28201276525E+02 -0.60148329577E+02 -0.14063536557E+03  0.15559213347E+03  0.41800000000E+01 0. -1.
        -11    1    1    2    0    0  0.57271416756E+02 -0.45683044994E+01 -0.13500574494E+02  0.59018218330E+02  0.00000000000E+00 0.  1.
         11    1    1    2    0    0 -0.14293757264E+02  0.87081537841E+00 -0.63848101742E+02  0.65434317542E+02  0.00000000000E+00 0. -1.
</event>
<event>
 7    1  0.2334784E-009  0.1243614E+03  0.7561462E-02  0.1236071E+00
         -1   -1    0    0    0  501 -0.00000000000E+00  0.00000000000E+00  0.45855146037E+02  0.45855146037E+02  0.00000000000E+00 0.  1.
          1   -1    0    0  501    0  0.00000000000E+00 -0.00000000000E+00 -0.48098285151E+03  0.48098285151E+03  0.00000000000E+00 0. -1.
         25    2    1    2    0    0 -0.85671709615E+02  0.51504776163E+02 -0.26319721743E+03  0.30808131399E+03  0.12509571125E+03 0.  0.
          5    1    3    3  502    0  0.71471917471E+01  0.57995569781E+01 -0.16521830019E+03  0.16552726763E+03  0.41800000000E+01 0.  1.
         -5    1    3    3    0  502 -0.92818901362E+02  0.45705219185E+02 -0.97978917236E+02  0.14255404636E+03  0.41800000000E+01 0.  1.
        -11    1    1    2    0    0 -0.59303480256E+00 -0.48755708465E+02 -0.56581552535E+02  0.74692321462E+02  0.00000000000E+00 0. -1.
         11    1    1    2    0    0  0.86264744417E+02 -0.27490676981E+01 -0.11534893551E+03  0.14406436210E+03  0.00000000000E+00 0.  1.
</event>
<event>
 7    1  0.2334784E-009  0.9922189E+02  0.7561462E-02  0.1281941E+00
         -2   -1    0    0    0  501 -0.00000000000E+00  0.00000000000E+00  0.17156800923E+03  0.17156800923E+03  0.00000000000E+00 0. -1.
          2   -1    0    0  501    0  0.00000000000E+00 -0.00000000000E+00 -0.10988495022E+03  0.10988495022E+03  0.00000000000E+00 0.  1.
         25    2    1    2    0    0 -0.74512997399E+02 -0.71824529908E+01 -0.56299296709E+01  0.14588548685E+03  0.12508838776E+03 0.  0.
          5    1    3    3  502    0 -0.22276528040E+02 -0.28935929696E+02  0.52868899324E+02  0.64390408017E+02  0.41800000000E+01 0. -1.
         -5    1    3    3    0  502 -0.52236469359E+02  0.21753476705E+02 -0.58498828995E+02  0.81495078831E+02  0.41800000000E+01 0. -1.
        -11    1    1    2    0    0  0.77084838487E+02  0.29460431401E+02  0.22624844415E+02  0.85567943341E+02  0.00000000000E+00 0.  1.
         11    1    1    2    0    0 -0.25718410879E+01 -0.22277978410E+02  0.44688144268E+02  0.49999529265E+02  0.00000000000E+00 0. -1.
</event>
<event>
 7    1  0.2334784E-009  0.1105700E+03  0.7561462E-02  0.1259518E+00
          1   -1    0    0  501    0  0.00000000000E+00  0.00000000000E+00  0.20939204183E+04  0.20939204183E+04  0.00000000000E+00 0. -1.
         -1   -1    0    0    0  501 -0.00000000000E+00 -0.00000000000E+00 -0.15602487710E+02  0.15602487710E+02  0.00000000000E+00 0.  1.
         25    2    1    2    0    0  0.10459053161E+03 -0.33387195938E+02  0.16454123316E+04  0.16538087831E+04  0.12509143025E+03 0.  0.
          5    1    3    3  502    0  0.96643329271E+02 -0.32590738537E+02  0.16402449167E+04  0.16434180687E+04  0.41800000000E+01 0.  1.
         -5    1    3    3    0  502  0.79472023429E+01 -0.79645740078E+00  0.51674149216E+01  0.10390714434E+02  0.41800000000E+01 0.  1.
        -11    1    1    2    0    0 -0.68333322493E+02  0.18017489490E+02  0.39424443547E+03  0.40052808614E+03  0.00000000000E+00 0. -1.
         11    1    1    2    0    0 -0.36257209121E+02  0.15369706448E+02  0.38661163528E+02  0.55186036774E+02  0.00000000000E+00 0.  1.
</event>
<event>
 7    1  0.2334784E-009  0.1200131E+03  0.7561462E-02  0.1243075E+00
         -2   -1    0    0    0  501 -0.00000000000E+00  0.00000000000E+00  0.11092161862E+03  0.11092161862E+03  0.00000000000E+00 0.  1.
          2   -1    0    0  501    0  0.00000000000E+00 -0.00000000000E+00 -0.18002704525E+03  0.18002704525E+03  0.00000000000E+00 0. -1.
         25    2    1    2    0    0 -0.11300720500E+02 -0.60637522998E+02 -0.10542640158E+03  0.17483056776E+03  0.12508551393E+03 0.  0.
          5    1    3    3  502    0 -0.31441853547E+02  0.29286976850E+02 -0.54273629620E+02  0.69349956306E+02  0.41800000000E+01 0.  1.
         -5    1    3    3    0  502  0.20141133047E+02 -0.89924499848E+02 -0.51152771955E+02  0.10548061145E+03  0.41800000000E+01 0.  1.
        -11    1    1    2    0    0  0.47967991842E+02  0.40472051481E+02  0.39491114130E+02  0.74151623634E+02  0.00000000000E+00 0.  1.
         11    1    1    2    0    0 -0.36667271342E+02  0.20165471517E+02 -0.31701391832E+01  0.41966472471E+02  0.00000000000E+00 0. -1.
</event>
<event>
 7    1  0.2334784E-009  0.7487032E+02  0.7561462E-02  0.1344273E+00
          2   -1    0    0  501    0  0.00000000000E+00  0.00000000000E+00  0.96775480238E+02  0.96775480238E+02  0.00000000000E+00 0.  1.
         -2   -1    0    0    0  501 -0.00000000000E+00 -0.00000000000E+00 -0.17108809134E+03  0.17108809134E+03  0.00000000000E+00 0. -1.
         25    2    1    2    0    0 -0.22779774585E+02  0.49004954607E+02  0.42394190087E+01  0.13633203524E+03  0.12509215584E+03 0.  0.
          5    1    3    3  502    0 -0.80081827665E+01 -0.11970728567E+02 -0.50676368344E+02  0.52848803602E+02  0.41800000000E+01 0.  1.
         -5    1    3    3    0  502 -0.14771591819E+02  0.60975683174E+02  0.54915787353E+02  0.83483231634E+02  0.41800000000E+01 0.  1.
        -11    1    1    2    0    0  0.91868522441E+01  0.86569341523E+01  0.15738100066E+02  0.20174948743E+02  0.00000000000E+00 0.  1.
         11    1    1    2    0    0  0.13592922341E+02 -0.57661888759E+02 -0.94290130177E+02  0.11135658760E+03  0.00000000000E+00 0. -1.
</event>
<event>
 7    1  0.2334784E-009  0.9515528E+02  0.7561462E-02  0.1290827E+00
          2   -1    0    0  501    0  0.00000000000E+00  0.00000000000E+00  0.47039888973E+02  0.47039888973E+02  0.00000000000E+00 0. -1.
         -2   -1    0    0    0  501 -0.00000000000E+00 -0.00000000000E+00 -0.27025692942E+03  0.27025692942E+03  0.00000000000E+00 0.  1.
         25    2    1    2    0    0 -0.24586205098E+02  0.12219634302E+02 -0.10579962186E+03  0.16611760578E+03  0.12509075913E+03 0.  0.
          5    1    3    3  502    0 -0.94606360716E+01  0.54733705185E+02 -0.53992249553E+01  0.55963435815E+02  0.41800000000E+01 0. -1.
         -5    1    3    3    0  502 -0.15125569026E+02 -0.42514070883E+02 -0.10040039691E+03  0.11015416996E+03  0.41800000000E+01 0. -1.
        -11    1    1    2    0    0 -0.23231547937E+02  0.20797915598E+02 -0.68342992012E+02  0.75120055045E+02  0.00000000000E+00 0.  1.
         11    1    1    2    0    0  0.47817753035E+02 -0.33017549900E+02 -0.49074426575E+02  0.76059157571E+02  0.00000000000E+00 0. -1.
</event>
<event>
 7    1  0.2334784E-009  0.1984510E+03  0.7561462E-02  0.1151052E+00
         -2   -1    0    0    0  501 -0.00000000000E+00  0.00000000000E+00  0.85472385484E+02  0.85472385484E+02  0.00000000000E+00 0.  1.
          2   -1    0    0  501    0  0.00000000000E+00 -0.00000000000E+00 -0.63766724516E+03  0.63766724516E+03  0.00000000000E+00 0. -1.
         25    2    1    2    0    0 -0.15794231145E+03 -0.87990386072E+02 -0.12910974971E+03  0.25496087788E+03  0.12509052717E+03 0.  0.
          5    1    3    3  502    0 -0.81451823064E+02  0.66311417471E+01 -0.63574831449E+01  0.82074731271E+02  0.41800000000E+01 0.  1.
         -5    1    3    3    0  502 -0.76490488389E+02 -0.94621527819E+02 -0.12275226656E+03  0.17288614660E+03  0.41800000000E+01 0.  1.
        -11    1    1    2    0    0  0.10264374974E+03  0.92063572818E+02 -0.23896684735E+03  0.27589236114E+03  0.00000000000E+00 0.  1.
         11    1    1    2    0    0  0.55298561713E+02 -0.40731867460E+01 -0.18411826261E+03  0.19228639163E+03  0.00000000000E+00 0. -1.
</event>
<event>
 7    1  0.2334784E-009  0.1048881E+03  0.7561462E-02  0.1270340E+00
          1   -1    0    0  501    0  0.00000000000E+00  0.00000000000E+00  0.49373351112E+03  0.49373351112E+03  0.00000000000E+00 0. -1.
         -1   -1    0    0    0  501 -0.00000000000E+00 -0.00000000000E+00 -0.35091224456E+02  0.35091224456E+02  0.00000000000E+00 0.  1.
         25    2    1    2    0    0  0.18596005344E+01 -0.74481609228E+02  0.29870737225E+03  0.33230222331E+03  0.12509078763E+03 0.  0.
          5    1    3    3  502    0  0.25624259959E+02 -0.75894056079E+01  0.19233566898E+01  0.27117770500E+02  0.41800000000E+01 0. -1.
         -5    1    3    3    0  502 -0.23764659425E+02 -0.66892203620E+02  0.29678401556E+03  0.30518445281E+03  0.41800000000E+01 0. -1.
        -11    1    1    2    0    0 -0.31088218141E+02 -0.54872849478E+00  0.64881910151E+02  0.71947485536E+02  0.00000000000E+00 0.  1.
         11    1    1    2    0    0  0.29228617607E+02  0.75030337723E+02  0.95053004261E+02  0.12457502673E+03  0.00000000000E+00 0. -1.
</event>
<event>
 7    1  0.2334784E-009  0.1587203E+03  0.7561462E-02  0.1190149E+00
          2   -1    0    0  501    0  0.00000000000E+00  0.00000000000E+00  0.10447757008E+04  0.10447757008E+04  0.00000000000E+00 0. -1.
         -2   -1    0    0    0  501 -0.00000000000E+00 -0.00000000000E+00 -0.31635672723E+02  0.31635672723E+02  0.00000000000E+00 0.  1.
         25    2    1    2    0    0  0.13853172385E+02  0.13895197288E+03  0.46848389861E+03  0.50460206544E+03  0.12508605051E+03 0.  0.
          5    1    3    3  502    0 -0.14183927332E+02  0.13183286856E+03  0.45196047943E+03  0.47102742637E+03  0.41800000000E+01 0. -1.
         -5    1    3    3    0  502  0.28037099717E+02  0.71191043238E+01  0.16523419176E+02  0.33574639062E+02  0.41800000000E+01 0. -1.
        -11    1    1    2    0    0 -0.40238588158E+02 -0.59448003074E+02  0.12744521694E+03  0.14627198080E+03  0.00000000000E+00 0.  1.
         11    1    1    2    0    0  0.26385415773E+02 -0.79503969807E+02  0.41721091250E+03  0.42553732726E+03  0.00000000000E+00 0. -1.
</event>
<event>
 7    1  0.2334784E-009  0.1039546E+03  0.7561462E-02  0.1272193E+00
          1   -1    0    0  501    0  0.00000000000E+00  0.00000000000E+00  0.20184804685E+04  0.20184804685E+04  0.00000000000E+00 0. -1.
         -1   -1    0    0    0  501 -0.00000000000E+00 -0.00000000000E+00 -0.32249785265E+02  0.32249785265E+02  0.00000000000E+00 0.  1.
         25    2    1    2    0    0 -0.81282446108E+02  0.59569968269E+02  0.18567162316E+04  0.18636517853E+04  0.12508954817E+03 0.  0.
          5    1    3    3  502    0 -0.16736030851E+02  0.79459427268E+01  0.13567273877E+04  0.13568603133E+04  0.41800000000E+01 0.  1.
         -5    1    3    3    0  502 -0.64546415257E+02  0.51624025542E+02  0.49998884386E+03  0.50679147202E+03  0.41800000000E+01 0.  1.
        -11    1    1    2    0    0  0.27816336508E+02 -0.41030201294E+02  0.44047365386E+01  0.49765728156E+02  0.00000000000E+00 0.  1.
         11    1    1    2    0    0  0.53466109600E+02 -0.18539766975E+02  0.12510971510E+03  0.13731274030E+03  0.00000000000E+00 0. -1.
</event>
<event>
 7    1  0.2334784E-009  0.1036335E+03  0.7561462E-02  0.1272836E+00
         -2   -1    0    0    0  501 -0.00000000000E+00  0.00000000000E+00  0.20148694937E+02  0.20148694937E+02  0.00000000000E+00 0.  1.
          2   -1    0    0  501    0  0.00000000000E+00 -0.00000000000E+00 -0.64286052093E+03  0.64286052093E+03  0.00000000000E+00 0. -1.
         25    2    1    2    0    0 -0.26257961474E+02  0.22333388402E+02 -0.39791022210E+03  0.41852775094E+03  0.12507866593E+03 0.  0.
          5    1    3    3  502    0 -0.72986427732E+01 -0.43230170268E+02 -0.64005009935E+02  0.77693188276E+02  0.41800000000E+01 0.  1.
         -5    1    3    3    0  502 -0.18959318701E+02  0.65563558670E+02 -0.33390521217E+03  0.34083456266E+03  0.41800000000E+01 0.  1.
        -11    1    1    2    0    0 -0.19248875789E+02 -0.41286022150E+02 -0.88422983079E+02  0.99466973317E+02  0.00000000000E+00 0. -1.
         11    1    1    2    0    0  0.45506837263E+02  0.18952633749E+02 -0.13637862081E+03  0.14501449161E+03  0.00000000000E+00 0.  1.
</event>
<event>
 7    1  0.2334784E-009  0.6232287E+02  0.7561462E-02  0.1388334E+00
         -1   -1    0    0    0  501 -0.00000000000E+00  0.00000000000E+00  0.38870562131E+02  0.38870562131E+02  0.00000000000E+00 0.  1.
          1   -1    0    0  501    0  0.00000000000E+00 -0.00000000000E+00 -0.31811874243E+03  0.31811874243E+03  0.00000000000E+00 0. -1.
         25    2    1    2    0    0  0.18038516394E+02  0.88862796674E+01 -0.21981572477E+03  0.25371419544E+03  0.12509031167E+03 0.  0.
          5    1    3    3  502    0 -0.13034083824E+02  0.72086226694E+00 -0.22087367809E+03  0.22129857898E+03  0.41800000000E+01 0.  1.
         -5    1    3    3    0  502  0.31072600218E+02  0.81654174005E+01  0.10579533241E+01  0.32415616466E+02  0.41800000000E+01 0.  1.
        -11    1    1    2    0    0  0.28103105940E+01 -0.40540147715E+02 -0.49592426951E+02  0.64115600546E+02  0.00000000000E+00 0. -1.
         11    1    1    2    0    0 -0.20848826988E+02  0.31653868048E+02 -0.98400285823E+01  0.39159508573E+02  0.00000000000E+00 0.  1.
</event>
<event>
 7    1  0.2334784E-009  0.1792609E+03  0.7561462E-02  0.1168520E+00
          2   -1    0    0  501    0  0.00000000000E+00  0.00000000000E+00  0.13043813559E+04  0.13043813559E+04  0.00000000000E+00 0.  1.
         -2   -1    0    0    0  501 -0.00000000000E+00 -0.00000000000E+00 -0.31635190153E+02  0.31635190153E+02  0.00000000000E+00 0. -1.
         25    2    1    2    0    0 -0.99805554162E+02  0.13655151757E+03  0.76437820657E+03  0.79279806125E+03  0.12508899893E+03 0.  0.
          5    1    3    3  502    0 -0.94186916333E+02  0.95025319155E+02  0.32615072506E+03  0.35255177541E+03  0.41800000000E+01 0.  1.
         -5    1    3    3    0  502 -0.56186378291E+01  0.41526198410E+02  0.43822748151E+03  0.44024628584E+03  0.41800000000E+01 0.  1.
        -11    1    1    2    0    0  0.40586885882E+02 -0.84995187933E+01  0.19791274668E+03  0.20221026785E+03  0.00000000000E+00 0.  1.
         11    1    1    2    0    0  0.59218668279E+02 -0.12805199877E+03  0.31045521249E+03  0.34100821695E+03  0.00000000000E+00 0. -1.
</event>
<event>
 7    1  0.3625631E-009  0.1418390E+03  0.7561462E-02  0.1210876E+00
         -1   -1    0    0    0  501 -0.00000000000E+00  0.00000000000E+00  0.16213798388E+03  0.16213798388E+03  0.00000000000E+00 0.  1.
          1   -1    0    0  501    0  0.00000000000E+00 -0.00000000000E+00 -0.21393615924E+03  0.21393615924E+03  0.00000000000E+00 0. -1.
         25    2    1    2    0    0 -0.11290820317E+02  0.13226734034E+03  0.45218215129E+02  0.18792043346E+03  0.12508904984E+03 0.  0.
          5    1    3    3  502    0  0.41337767372E+01  0.47699886678E+02 -0.43134221811E+02  0.64578640358E+02  0.41800000000E+01 0. -1.
         -5    1    3    3    0  502 -0.15424597055E+02  0.84567453657E+02  0.88352436939E+02  0.12334179310E+03  0.41800000000E+01 0. -1.
        -11    1    1    2    0    0  0.38153061232E+02 -0.10293899624E+03 -0.99692784971E+02  0.14829276585E+03  0.00000000000E+00 0.  1.
         11    1    1    2    0    0 -0.26862240915E+02 -0.29328344099E+02  0.26763944798E+01  0.39860943817E+02  0.00000000000E+00 0. -1.
</event>
<event>
 7    1  0.2334784E-009  0.1289842E+03  0.7561462E-02  0.1228971E+00
         -2   -1    0    0    0  501 -0.00000000000E+00  0.00000000000E+00  0.16285911719E+02  0.16285911719E+02  0.00000000000E+00 0. -1.
          2   -1    0    0  501    0  0.00000000000E+00 -0.00000000000E+00 -0.12813137848E+04  0.12813137848E+04  0.00000000000E+00 0.  1.
         25    2    1    2    0    0  0.45188646451E+02 -0.75711470937E+02 -0.82803192097E+03  0.84205635921E+03  0.12509120410E+03 0.  0.
          5    1    3    3  502    0  0.66003402991E+02 -0.39024728165E+01 -0.55506608564E+03  0.55900582316E+03  0.41800000000E+01 0. -1.
         -5    1    3    3    0  502 -0.20814756540E+02 -0.71808998120E+02 -0.27296583532E+03  0.28305053605E+03  0.41800000000E+01 0. -1.
        -11    1    1    2    0    0  0.36313145938E+01  0.67177954000E+02 -0.34030100024E+03  0.34688735162E+03  0.00000000000E+00 0.  1.
         11    1    1    2    0    0 -0.48819961045E+02  0.85335169369E+01 -0.96694951839E+02  0.10865598566E+03  0.00000000000E+00 0. -1.
</event>
<event>
 7    1  0.2334784E-009  0.3256578E+03  0.7561462E-02  0.1073074E+00
          2   -1    0    0  501    0  0.00000000000E+00  0.00000000000E+00  0.16329819621E+04  0.16329819621E+04  0.00000000000E+00 0. -1.
         -2   -1    0    0    0  501 -0.00000000000E+00 -0.00000000000E+00 -0.21795996659E+03  0.21795996659E+03  0.00000000000E+00 0.  1.
         25    2    1    2    0    0  0.17081738721E+01 -0.31488056026E+03  0.14787058619E+04  0.15170266526E+04  0.12508458620E+03 0.  0.
          5    1    3    3  502    0 -0.37468389583E+02 -0.13674307948E+03  0.87274251472E+03  0.88419427695E+03  0.41800000000E+01 0. -1.
         -5    1    3    3    0  502  0.39176563455E+02 -0.17813748078E+03  0.60596334714E+03  0.63283237564E+03  0.41800000000E+01 0. -1.
        -11    1    1    2    0    0 -0.42795351103E+02  0.10924955848E+03 -0.12001960461E+02  0.11794471230E+03  0.00000000000E+00 0.  1.
         11    1    1    2    0    0  0.41087177231E+02  0.20563100178E+03 -0.51681905896E+02  0.21597056379E+03  0.00000000000E+00 0. -1.
</event>
<event>
 7    1  0.2334784E-009  0.9697799E+02  0.7561462E-02  0.1286782E+00
         -3   -1    0    0    0  501 -0.00000000000E+00  0.00000000000E+00  0.31347789629E+02  0.31347789629E+02  0.00000000000E+00 0.  1.
          3   -1    0    0  501    0  0.00000000000E+00 -0.00000000000E+00 -0.37929684642E+03  0.37929684642E+03  0.00000000000E+00 0. -1.
         25    2    1    2    0    0  0.81876131748E+01  0.13012231301E+02 -0.19180645099E+03  0.22950623659E+03  0.12508814020E+03 0.  0.
          5    1    3    3  502    0 -0.39513642037E+02  0.38308794580E+02 -0.15363971141E+03  0.16325294782E+03  0.41800000000E+01 0.  1.
         -5    1    3    3    0  502  0.47701255212E+02 -0.25296563279E+02 -0.38166739581E+02  0.66253288769E+02  0.41800000000E+01 0.  1.
        -11    1    1    2    0    0  0.18811861407E+02  0.29059331223E+02 -0.10071397995E+03  0.10649712024E+03  0.00000000000E+00 0.  1.
         11    1    1    2    0    0 -0.26999474582E+02 -0.42071562523E+02 -0.55428625839E+02  0.74641279218E+02  0.00000000000E+00 0. -1.
</event>
<event>
 7    1  0.2334784E-009  0.8828855E+02  0.7561462E-02  0.1307050E+00
          1   -1    0    0  501    0  0.00000000000E+00  0.00000000000E+00  0.71915547380E+03  0.71915547380E+03  0.00000000000E+00 0. -1.
         -1   -1    0    0    0  501 -0.00000000000E+00 -0.00000000000E+00 -0.18770961956E+02  0.18770961956E+02  0.00000000000E+00 0.  1.
         25    2    1    2    0    0  0.28299604773E+02 -0.23525845853E+02  0.36182109998E+03  0.38459894474E+03  0.12508999501E+03 0.  0.
          5    1    3    3  502    0 -0.18778623146E+02  0.12818635659E+02  0.60904482183E+01  0.23906485876E+02  0.41800000000E+01 0.  1.
         -5    1    3    3    0  502  0.47078227919E+02 -0.36344481512E+02  0.35573065176E+03  0.36069245886E+03  0.41800000000E+01 0.  1.
        -11    1    1    2    0    0 -0.22245760176E+02  0.56286126824E+02  0.14838754667E+03  0.16025562681E+03  0.00000000000E+00 0.  1.
         11    1    1    2    0    0 -0.60538445971E+01 -0.32760280971E+02  0.19017586520E+03  0.19307186420E+03  0.00000000000E+00 0. -1.
</event>
<event>
 7    1  0.2334784E-009  0.7528269E+02  0.7561462E-02  0.1342998E+00
         -2   -1    0    0    0  501 -0.00000000000E+00  0.00000000000E+00  0.10843604740E+03  0.10843604740E+03  0.00000000000E+00 0.  1.
          2   -1    0    0  501    0  0.00000000000E+00 -0.00000000000E+00 -0.14651601370E+03  0.14651601370E+03  0.00000000000E+00 0. -1.
         25    2    1    2    0    0  0.61124715734E+02  0.87102898904E+01 -0.47117268592E+02  0.14723995748E+03  0.12508983994E+03 0.  0.
          5    1    3    3  502    0  0.40506538727E+02 -0.66519833331E+00  0.40026680898E+02  0.57103675470E+02  0.41800000000E+01 0. -1.
         -5    1    3    3    0  502  0.20618177006E+02  0.93754882238E+01 -0.87143949490E+02  0.90136282013E+02  0.41800000000E+01 0. -1.
        -11    1    1    2    0    0 -0.27703628869E+02 -0.34747628788E+02 -0.27079648431E+02  0.52040331648E+02  0.00000000000E+00 0. -1.
         11    1    1    2    0    0 -0.33421086864E+02  0.26037338897E+02  0.36116950726E+02  0.55671771965E+02  0.00000000000E+00 0.  1.
</event>
<event>
 7    1  0.2334784E-009  0.1585171E+03  0.7561462E-02  0.1190381E+00
          1   -1    0    0  501    0  0.00000000000E+00  0.00000000000E+00  0.55399406965E+03  0.55399406965E+03  0.00000000000E+00 0. -1.
         -1   -1    0    0    0  501 -0.00000000000E+00 -0.00000000000E+00 -0.53493021410E+02  0.53493021410E+02  0.00000000000E+00 0.  1.
         25    2    1    2    0    0  0.41293406565E+02 -0.12327273287E+03  0.31506812917E+03  0.36306490139E+03  0.12508750743E+03 0.  0.
          5    1    3    3  502    0  0.70586138712E+01  0.22982850441E+02  0.83676153517E+02  0.87161955643E+02  0.41800000000E+01 0. -1.
         -5    1    3    3    0  502  0.34234792693E+02 -0.14625558331E+03  0.23139197565E+03  0.27590294575E+03  0.41800000000E+01 0. -1.
        -11    1    1    2    0    0 -0.56235385721E+02  0.95504487328E+02  0.18147424450E+03  0.21264154609E+03  0.00000000000E+00 0. -1.
         11    1    1    2    0    0  0.14941979156E+02  0.27768245539E+02  0.39586745701E+01  0.31780643571E+02  0.00000000000E+00 0.  1.
</event>
<event>
 7    1  0.2334784E-009  0.3887319E+03  0.7561462E-02  0.1047753E+00
          2   -1    0    0  501    0  0.00000000000E+00  0.00000000000E+00  0.20442081559E+04  0.20442081559E+04  0.00000000000E+00 0. -1.
         -2   -1    0    0    0  501 -0.00000000000E+00 -0.00000000000E+00 -0.78526174534E+02  0.78526174534E+02  0.00000000000E+00 0.  1.
         25    2    1    2    0    0 -0.17570002851E+03 -0.33922746068E+03  0.86164866642E+03  0.95080580382E+03  0.12508989621E+03 0.  0.
          5    1    3    3  502    0 -0.31345649331E+02 -0.10747276543E+02  0.29389530802E+02  0.44488994210E+02  0.41800000000E+01 0. -1.
         -5    1    3    3    0  502 -0.14435437918E+03 -0.32848018414E+03  0.83225913562E+03  0.90631680961E+03  0.41800000000E+01 0. -1.
        -11    1    1    2    0    0  0.12157369565E+03  0.18124677227E+03  0.73813435906E+03  0.76972260455E+03  0.00000000000E+00 0. -1.
         11    1    1    2    0    0  0.54126332857E+02  0.15798068841E+03  0.36589895585E+03  0.40220592203E+03  0.00000000000E+00 0.  1.
</event>
<event>
 7    1  0.2334784E-009  0.1679531E+03  0.7561462E-02  0.1179999E+00
         -1   -1    0    0    0  501 -0.00000000000E+00  0.00000000000E+00  0.19101167888E+02  0.19101167888E+02  0.00000000000E+00 0.  1.
          1   -1    0    0  501    0  0.00000000000E+00 -0.00000000000E+00 -0.24099202677E+04  0.24099202677E+04  0.00000000000E+00 0. -1.
         25    2    1    2    0    0  0.15782347989E+02 -0.14267675635E+03 -0.18978997423E+04  0.19074269553E+04  0.12509363905E+03 0.  0.
          5    1    3    3  502    0 -0.50280731214E+02 -0.98605318309E+02 -0.10715426002E+04  0.10772521419E+04  0.41800000000E+01 0.  1.
         -5    1    3    3    0  502  0.66063079203E+02 -0.44071438036E+02 -0.82635714209E+03  0.83017481337E+03  0.41800000000E+01 0.  1.
        -11    1    1    2    0    0 -0.41024774014E+01  0.12035919888E+03 -0.47660255033E+03  0.49158230039E+03  0.00000000000E+00 0. -1.
         11    1    1    2    0    0 -0.11679870588E+02  0.22317557469E+02 -0.16316807199E+02  0.30012179953E+02  0.00000000000E+00 0.  1.
</event>
<event>
 7    1  0.2334784E-009  0.9870165E+02  0.7561462E-02  0.1283050E+00
         -1   -1    0    0    0  501 -0.00000000000E+00  0.00000000000E+00  0.61867754157E+02  0.61867754157E+02  0.00000000000E+00 0.  1.
          1   -1    0    0  501    0  0.00000000000E+00 -0.00000000000E+00 -0.28562499689E+03  0.28562499689E+03  0.00000000000E+00 0. -1.
         25    2    1    2    0    0 -0.32483166836E+02  0.38455318458E+02 -0.43507896653E+02  0.14168587264E+03  0.12509189338E+03 0.  0.
          5    1    3    3  502    0  0.19737100812E+01 -0.44450693594E+02 -0.10244911555E+02  0.45849648911E+02  0.41800000000E+01 0.  1.
         -5    1    3    3    0  502 -0.34456876917E+02  0.82906012052E+02 -0.33262985098E+02  0.95836223730E+02  0.41800000000E+01 0.  1.
        -11    1    1    2    0    0  0.15146127357E+02  0.50788768528E+01  0.33496095537E+01  0.16322378753E+02  0.00000000000E+00 0.  1.
         11    1    1    2    0    0  0.17337039479E+02 -0.43534195311E+02 -0.18359895563E+03  0.18948449965E+03  0.00000000000E+00 0. -1.
</event>
<event>
 7    1  0.2334784E-009  0.1368894E+03  0.7561462E-02  0.1217577E+00
         -2   -1    0    0    0  501 -0.00000000000E+00  0.00000000000E+00  0.10285163418E+02  0.10285163418E+02  0.00000000000E+00 0.  1.
          2   -1    0    0  501    0  0.00000000000E+00 -0.00000000000E+00 -0.25148416929E+04  0.25148416929E+04  0.00000000000E+00 0. -1.
         25    2    1    2    0    0 -0.97224979147E+02 -0.31584254134E+02 -0.18241008293E+04  0.18312402912E+04  0.12508759718E+03 0.  0.
          5    1    3    3  502    0  0.17601517339E+02 -0.13694627148E+02 -0.76993371457E+02  0.80267103309E+02  0.41800000000E+01 0.  1.
         -5    1    3    3    0  502 -0.11482649649E+03 -0.17889626987E+02 -0.17471074579E+04  0.17509731879E+04  0.41800000000E+01 0.  1.
        -11    1    1    2    0    0  0.65688757576E+02 -0.24786476287E+02 -0.39740920297E+03  0.40356344840E+03  0.00000000000E+00 0.  1.
         11    1    1    2    0    0  0.31536221572E+02  0.56370730421E+02 -0.28304649717E+03  0.29032311668E+03  0.00000000000E+00 0. -1.
</event>
<event>
 7    1  0.2334784E-009  0.9598421E+02  0.7561462E-02  0.1288975E+00
         -1   -1    0    0    0  501 -0.00000000000E+00  0.00000000000E+00  0.25026680195E+03  0.25026680195E+03  0.00000000000E+00 0.  1.
          1   -1    0    0  501    0  0.00000000000E+00 -0.00000000000E+00 -0.53023001190E+02  0.53023001190E+02  0.00000000000E+00 0. -1.
         25    2    1    2    0    0  0.26105705247E+02 -0.26461008166E+02  0.13337215449E+03  0.18659380079E+03  0.12508965626E+03 0.  0.
          5    1    3    3  502    0 -0.36380527853E+02  0.28831823576E+02  0.54370141416E+02  0.71612858728E+02  0.41800000000E+01 0.  1.
         -5    1    3    3    0  502  0.62486233099E+02 -0.55292831742E+02  0.79002013074E+02  0.11498094207E+03  0.41800000000E+01 0.  1.
        -11    1    1    2    0    0 -0.33000079173E+02  0.36776101688E+02 -0.22089475412E+01  0.49460755453E+02  0.00000000000E+00 0. -1.
         11    1    1    2    0    0  0.68943739261E+01 -0.10315093522E+02  0.66080593811E+02  0.67235246892E+02  0.00000000000E+00 0.  1.
</event>
<event>
 7    1  0.2334784E-009  0.9380260E+02  0.7561462E-02  0.1293896E+00
          1   -1    0    0  501    0  0.00000000000E+00  0.00000000000E+00  0.48365044199E+03  0.48365044199E+03  0.00000000000E+00 0. -1.
         -1   -1    0    0    0  501 -0.00000000000E+00 -0.00000000000E+00 -0.28260462052E+02  0.28260462052E+02  0.00000000000E+00 0.  1.
         25    2    1    2    0    0  0.43605288754E+02 -0.62680983503E+01  0.25794701319E+03  0.29004272222E+03  0.12508960324E+03 0.  0.
          5    1    3    3  502    0  0.10068648158E+02 -0.53999891906E+02  0.51290835681E+02  0.75270101810E+02  0.41800000000E+01 0.  1.
         -5    1    3    3    0  502  0.33536640597E+02  0.47731793556E+02  0.20665617750E+03  0.21477262041E+03  0.41800000000E+01 0.  1.
        -11    1    1    2    0    0 -0.27053820433E+02  0.32949178413E+02  0.31568769347E+02  0.53048513233E+02  0.00000000000E+00 0.  1.
         11    1    1    2    0    0 -0.16551468321E+02 -0.26681080062E+02  0.16587419740E+03  0.16881966858E+03  0.00000000000E+00 0. -1.
</event>
<event>
 7    1  0.2334784E-009  0.1103974E+03  0.7561462E-02  0.1259836E+00
          1   -1    0    0  501    0  0.00000000000E+00  0.00000000000E+00  0.62909602688E+03  0.62909602688E+03  0.00000000000E+00 0. -1.
         -1   -1    0    0    0  501 -0.00000000000E+00 -0.00000000000E+00 -0.21383113242E+02  0.21383113242E+02  0.00000000000E+00 0.  1.
         25    2    1    2    0    0  0.10041897678E+02  0.47561072212E+02  0.36587227259E+03  0.38970818472E+03  0.12508818524E+03 0.  0.
          5    1    3    3  502    0  0.51929311706E+02  0.60740757438E+02  0.15686720386E+03  0.17609907744E+03  0.41800000000E+01 0.  1.
         -5    1    3    3    0  502 -0.41887414029E+02 -0.13179685226E+02  0.20900506873E+03  0.21360910728E+03  0.41800000000E+01 0.  1.
        -11    1    1    2    0    0 -0.65764421463E+01 -0.71838323319E+02  0.16415703117E+03  0.17930846375E+03  0.00000000000E+00 0.  1.
         11    1    1    2    0    0 -0.34654555313E+01  0.24277251107E+02  0.77683609872E+02  0.81462491651E+02  0.00000000000E+00 0. -1.
</event>
<event>
 7    1  0.2334784E-009  0.1240381E+03  0.7561462E-02  0.1236580E+00
         -2   -1    0    0    0  501 -0.00000000000E+00  0.00000000000E+00  0.21711060808E+02  0.21711060808E+02  0.00000000000E+00 0.  1.
          2   -1    0    0  501    0  0.00000000000E+00 -0.00000000000E+00 -0.89613179982E+03  0.89613179982E+03  0.00000000000E+00 0. -1.
         25    2    1    2    0    0 -0.19556855636E+02  0.84125168232E+02 -0.52922312408E+03  0.55062266755E+03  0.12509473379E+03 0.  0.
          5    1    3    3  502    0 -0.33470859092E+00 -0.30061388226E+02 -0.18366175209E+03  0.18615292281E+03  0.41800000000E+01 0. -1.
         -5    1    3    3    0  502 -0.19222147045E+02  0.11418655646E+03 -0.34556137200E+03  0.36446974474E+03  0.41800000000E+01 0. -1.
        -11    1    1    2    0    0  0.36107473516E+01 -0.85750405448E+02 -0.33954465936E+03  0.35022385017E+03  0.00000000000E+00 0. -1.
         11    1    1    2    0    0  0.15946108284E+02  0.16252372167E+01 -0.56529555679E+01  0.16996342903E+02  0.00000000000E+00 0.  1.
</event>
<event>
 7    1  0.2451263E-009  0.8373809E+02  0.7561462E-02  0.1318766E+00
         -1   -1    0    0    0  501 -0.00000000000E+00  0.00000000000E+00  0.29176751882E+02  0.29176751882E+02  0.00000000000E+00 0.  1.
          1   -1    0    0  501    0  0.00000000000E+00 -0.00000000000E+00 -0.79375891821E+03  0.79375891821E+03  0.00000000000E+00 0. -1.
         25    2    1    2    0    0  0.52693532049E+02 -0.57732620258E+02 -0.60492100268E+03  0.62264431992E+03  0.12508743293E+03 0.  0.
          5    1    3    3  502    0  0.47876156307E+02 -0.59344705565E+02 -0.15612308482E+03  0.17379818881E+03  0.41800000000E+01 0. -1.
         -5    1    3    3    0  502  0.48173757423E+01  0.16120853073E+01 -0.44879791787E+03  0.44884613111E+03  0.41800000000E+01 0. -1.
        -11    1    1    2    0    0 -0.33998016421E+02  0.13622759389E+02 -0.33216258102E+01  0.36776050521E+02  0.00000000000E+00 0.  1.
         11    1    1    2    0    0 -0.18695515629E+02  0.44109860869E+02 -0.15633953783E+03  0.16351529965E+03  0.00000000000E+00 0. -1.
</event>
<event>
 7    1  0.2334784E-009  0.1560205E+03  0.7561462E-02  0.1193264E+00
         -1   -1    0    0    0  501 -0.00000000000E+00  0.00000000000E+00  0.58827398258E+02  0.58827398258E+02  0.00000000000E+00 0.  1.
          1   -1    0    0  501    0  0.00000000000E+00 -0.00000000000E+00 -0.48151833395E+03  0.48151833395E+03  0.00000000000E+00 0. -1.
         25    2    1    2    0    0 -0.12282267393E+02  0.12478851469E+03 -0.25706186823E+03  0.31217231652E+03  0.12509086142E+03 0.  0.
          5    1    3    3  502    0  0.42915083250E+02  0.29697673771E+02 -0.31231085685E+02  0.60963179960E+02  0.41800000000E+01 0.  1.
         -5    1    3    3    0  502 -0.55197350643E+02  0.95090840916E+02 -0.22583078255E+03  0.25120913656E+03  0.41800000000E+01 0.  1.
        -11    1    1    2    0    0  0.44646153973E+02 -0.97825022232E+02 -0.84498816646E+02  0.13675914614E+03  0.00000000000E+00 0.  1.
         11    1    1    2    0    0 -0.32363886580E+02 -0.26963492455E+02 -0.81130250818E+02  0.91414269552E+02  0.00000000000E+00 0. -1.
</event>
<event>
 7    1  0.2334784E-009  0.1212921E+03  0.7561462E-02  0.1240981E+00
          1   -1    0    0  501    0  0.00000000000E+00  0.00000000000E+00  0.11437845538E+04  0.11437845538E+04  0.00000000000E+00 0. -1.
         -1   -1    0    0    0  501 -0.00000000000E+00 -0.00000000000E+00 -0.18860290081E+02  0.18860290081E+02  0.00000000000E+00 0.  1.
         25    2    1    2    0    0 -0.66278924460E+02  0.73980128417E+02  0.61461705691E+03  0.63503442874E+03  0.12509453945E+03 0.  0.
          5    1    3    3  502    0  0.12352471467E+02  0.23910495629E+02  0.21710275149E+02  0.34829639671E+02  0.41800000000E+01 0. -1.
         -5    1    3    3    0  502 -0.78631395927E+02  0.50069632789E+02  0.59290678176E+03  0.60020478906E+03  0.41800000000E+01 0. -1.
        -11    1    1    2    0    0 -0.61401850336E+01 -0.42717812362E+02  0.88152601290E+02  0.98149857256E+02  0.00000000000E+00 0.  1.
         11    1    1    2    0    0  0.72419109494E+02 -0.31262316056E+02  0.42215460549E+03  0.42946055786E+03  0.00000000000E+00 0. -1.
</event>
<event>
 7    1  0.2334784E-009  0.1021346E+03  0.7561462E-02  0.1275870E+00
          2   -1    0    0  501    0  0.00000000000E+00  0.00000000000E+00  0.12340651432E+03  0.12340651432E+03  0.00000000000E+00 0. -1.
         -2   -1    0    0    0  501 -0.00000000000E+00 -0.00000000000E+00 -0.10480305842E+03  0.10480305842E+03  0.00000000000E+00 0.  1.
         25    2    1    2    0    0 -0.19936874463E+02  0.18311614744E+02  0.27394923175E+02  0.13088381641E+03  0.12508915774E+03 0.  0.
          5    1    3    3  502    0  0.14503579351E+02  0.55206855388E+02 -0.20874381503E+02  0.60920956156E+02  0.41800000000E+01 0.  1.
         -5    1    3    3    0  502 -0.34440453814E+02 -0.36895240644E+02  0.48269304678E+02  0.69962860256E+02  0.41800000000E+01 0.  1.
        -11    1    1    2    0    0 -0.47083155955E+01 -0.53348047941E+02 -0.99597872578E+01  0.54473661682E+02  0.00000000000E+00 0.  1.
         11    1    1    2    0    0  0.24645190058E+02  0.35036433197E+02  0.11683199835E+01  0.42852094649E+02  0.00000000000E+00 0. -1.
</event>
<event>
 7    1  0.2334784E-009  0.1410265E+03  0.7561462E-02  0.1211954E+00
          2   -1    0    0  501    0  0.00000000000E+00  0.00000000000E+00  0.53468206230E+03  0.53468206230E+03  0.00000000000E+00 0. -1.
         -2   -1    0    0    0  501 -0.00000000000E+00 -0.00000000000E+00 -0.59584280454E+02  0.59584280454E+02  0.00000000000E+00 0.  1.
         25    2    1    2    0    0  0.25834549926E+02  0.11283634808E+03  0.38216869194E+03  0.41844999179E+03  0.12509205054E+03 0.  0.
          5    1    3    3  502    0  0.35430555294E+02  0.16725667429E+02  0.25845255749E+03  0.26143884385E+03  0.41800000000E+01 0.  1.
         -5    1    3    3    0  502 -0.95960053686E+01  0.96110680649E+02  0.12371613445E+03  0.15701114794E+03  0.41800000000E+01 0.  1.
        -11    1    1    2    0    0 -0.55453973944E+02 -0.98564027420E+02  0.86340863213E+02  0.14228406583E+03  0.00000000000E+00 0.  1.
         11    1    1    2    0    0  0.29619424019E+02 -0.14272320658E+02  0.65882266979E+01  0.33532285147E+02  0.00000000000E+00 0. -1.
</event>
<event>
 7    1  0.2502024E-009  0.1366797E+03  0.7561462E-02  0.1217868E+00
         -2   -1    0    0    0  501 -0.00000000000E+00  0.00000000000E+00  0.29977397437E+02  0.29977397437E+02  0.00000000000E+00 0.  1.
          2   -1    0    0  501    0  0.00000000000E+00 -0.00000000000E+00 -0.83792186378E+03  0.83792186378E+03  0.00000000000E+00 0. -1.
         25    2    1    2    0    0  0.83857923627E+02  0.60848758621E+02 -0.57384482338E+03  0.59639001853E+03  0.12509376522E+03 0.  0.
          5    1    3    3  502    0 -0.32138512281E+02  0.20821431373E+02 -0.16911202531E+03  0.17344383955E+03  0.41800000000E+01 0.  1.
         -5    1    3    3    0  502  0.11599643591E+03  0.40027327248E+02 -0.40473279808E+03  0.42294617897E+03  0.41800000000E+01 0.  1.
        -11    1    1    2    0    0 -0.55556343541E+02 -0.13948479818E+02 -0.19747684661E+03  0.20561656631E+03  0.00000000000E+00 0. -1.
         11    1    1    2    0    0 -0.28301580085E+02 -0.46900278803E+02 -0.36622796354E+02  0.65892676375E+02  0.00000000000E+00 0.  1.
</event>
<event>
 7    1  0.2334784E-009  0.1010096E+03  0.7561462E-02  0.1278187E+00
         -2   -1    0    0    0  501 -0.00000000000E+00  0.00000000000E+00  0.58203626490E+02  0.58203626490E+02  0.00000000000E+00 0.  1.
          2   -1    0    0  501    0  0.00000000000E+00 -0.00000000000E+00 -0.29729719179E+03  0.29729719179E+03  0.00000000000E+00 0. -1.
         25    2    1    2    0    0  0.74395811568E+01 -0.65134039951E+02 -0.10142339968E+03  0.17387425079E+03  0.12509100110E+03 0.  0.
          5    1    3    3  502    0  0.55844272628E+02 -0.32652562473E+02 -0.95097520308E+02  0.11509032709E+03  0.41800000000E+01 0.  1.
         -5    1    3    3    0  502 -0.48404691471E+02 -0.32481477478E+02 -0.63258793742E+01  0.58783923698E+02  0.41800000000E+01 0.  1.
        -11    1    1    2    0    0 -0.20345454727E+02  0.11056613634E+02 -0.12155653590E+03  0.12374238423E+03  0.00000000000E+00 0. -1.
         11    1    1    2    0    0  0.12905873570E+02  0.54077426317E+02 -0.16113629715E+02  0.57884183265E+02  0.00000000000E+00 0.  1.
</event>
<event>
 7    1  0.2334784E-009  0.1175395E+03  0.7561462E-02  0.1247212E+00
         -1   -1    0    0    0  501 -0.00000000000E+00  0.00000000000E+00  0.34152859778E+02  0.34152859778E+02  0.00000000000E+00 0.  1.
          1   -1    0    0  501    0  0.00000000000E+00 -0.00000000000E+00 -0.42117186955E+03  0.42117186955E+03  0.00000000000E+00 0. -1.
         25    2    1    2    0    0  0.38442024481E+02  0.25844437090E+02 -0.21716620358E+03  0.25486151048E+03  0.12508998911E+03 0.  0.
          5    1    3    3  502    0 -0.58223324312E+01 -0.45725379614E+02 -0.53209516622E+02  0.70522584716E+02  0.41800000000E+01 0.  1.
         -5    1    3    3    0  502  0.44264356913E+02  0.71569816704E+02 -0.16395668696E+03  0.18433892577E+03  0.41800000000E+01 0.  1.
        -11    1    1    2    0    0  0.73895468813E+01 -0.51492143513E+02 -0.65542190245E+02  0.83676908098E+02  0.00000000000E+00 0.  1.
         11    1    1    2    0    0 -0.45831571363E+02  0.25647706423E+02 -0.10431061595E+03  0.11678631075E+03  0.00000000000E+00 0. -1.
</event>
<event>
 7    1  0.2334784E-009  0.1127137E+03  0.7561462E-02  0.1255625E+00
         -1   -1    0    0    0  501 -0.00000000000E+00  0.00000000000E+00  0.83136410311E+02  0.83136410311E+02  0.00000000000E+00 0.  1.
          1   -1    0    0  501    0  0.00000000000E+00 -0.00000000000E+00 -0.25675766130E+03  0.25675766130E+03  0.00000000000E+00 0. -1.
         25    2    1    2    0    0 -0.74171212830E+02  0.60212813910E+02 -0.11361190799E+03  0.19411904217E+03  0.12509030788E+03 0.  0.
          5    1    3    3  502    0 -0.11443313723E+02  0.44144779160E+02  0.16538684583E+02  0.48689952185E+02  0.41800000000E+01 0.  1.
         -5    1    3    3    0  502 -0.62727899108E+02  0.16068034750E+02 -0.13015059257E+03  0.14542908998E+03  0.41800000000E+01 0.  1.
        -11    1    1    2    0    0  0.43388546283E+02 -0.70075460598E+02 -0.57546682755E+01  0.82621137329E+02  0.00000000000E+00 0.  1.
         11    1    1    2    0    0  0.30782666548E+02  0.98626466875E+01 -0.54254674726E+02  0.63153892114E+02  0.00000000000E+00 0. -1.
</event>
<event>
 7    1  0.2334784E-009  0.9727896E+02  0.7561462E-02  0.1286124E+00
         -1   -1    0    0    0  501 -0.00000000000E+00  0.00000000000E+00  0.24122688996E+03  0.24122688996E+03  0.00000000000E+00 0.  1.
          1   -1    0    0  501    0  0.00000000000E+00 -0.00000000000E+00 -0.86389878053E+02  0.86389878053E+02  0.00000000000E+00 0. -1.
         25    2    1    2    0    0 -0.23716036427E+02  0.11531894854E+02  0.18784928765E+03  0.22722449939E+03  0.12509269870E+03 0.  0.
          5    1    3    3  502    0 -0.56814201260E+02 -0.19316455142E+02  0.39232118000E+02  0.71816504975E+02  0.41800000000E+01 0. -1.
         -5    1    3    3    0  502  0.33098164832E+02  0.30848349996E+02  0.14861716965E+03  0.15540799442E+03  0.41800000000E+01 0. -1.
        -11    1    1    2    0    0 -0.31336118850E+02 -0.12924738462E+02 -0.29957659654E+02  0.45237844565E+02  0.00000000000E+00 0. -1.
         11    1    1    2    0    0  0.55052155278E+02  0.13928436081E+01 -0.30546160870E+01  0.55154424061E+02  0.00000000000E+00 0.  1.
</event>
<event>
 7    1  0.2611135E-009  0.1046361E+03  0.7561462E-02  0.1270838E+00
         -2   -1    0    0    0  501 -0.00000000000E+00  0.00000000000E+00  0.12491420464E+02  0.12491420464E+02  0.00000000000E+00 0.  1.
          2   -1    0    0  501    0  0.00000000000E+00 -0.00000000000E+00 -0.14124533926E+04  0.14124533926E+04  0.00000000000E+00 0. -1.
         25    2    1    2    0    0 -0.20605756182E+02 -0.51819456544E+02 -0.10504567400E+04  0.10593479607E+04  0.12509550712E+03 0.  0.
          5    1    3    3  502    0 -0.40840983805E+02  0.17766986650E+02 -0.16614221963E+03  0.17205917969E+03  0.41800000000E+01 0.  1.
         -5    1    3    3    0  502  0.20235227623E+02 -0.69586443194E+02 -0.88431452041E+03  0.88728878102E+03  0.41800000000E+01 0.  1.
        -11    1    1    2    0    0 -0.25559530690E+02  0.47089443565E+01 -0.31569928309E+02  0.40891614537E+02  0.00000000000E+00 0.  1.
         11    1    1    2    0    0  0.46165286872E+02  0.47110512188E+02 -0.31793530377E+03  0.32470523779E+03  0.00000000000E+00 0. -1.
</event>
<event>
 7    1  0.2334784E-009  0.9272347E+02  0.7561462E-02  0.1296387E+00
          2   -1    0    0  501    0  0.00000000000E+00  0.00000000000E+00  0.64346271498E+02  0.64346271498E+02  0.00000000000E+00 0. -1.
         -2   -1    0    0    0  501 -0.00000000000E+00 -0.00000000000E+00 -0.27202604050E+03  0.27202604050E+03  0.00000000000E+00 0.  1.
         25    2    1    2    0    0  0.66671764568E+02  0.37601536987E+02 -0.12076707316E+03  0.18997728753E+03  0.12509070326E+03 0.  0.
          5    1    3    3  502    0  0.45744220803E+02  0.42644945694E+02 -0.14459449368E+03  0.15759494006E+03  0.41800000000E+01 0.  1.
         -5    1    3    3    0  502  0.20927543764E+02 -0.50434087067E+01  0.23827420515E+02  0.32382347472E+02  0.41800000000E+01 0.  1.
        -11    1    1    2    0    0 -0.69058095822E+02 -0.61870793581E+01 -0.91239098960E+02  0.11459438786E+03  0.00000000000E+00 0. -1.
         11    1    1    2    0    0  0.23863312541E+01 -0.31414457629E+02  0.43264031170E+01  0.31800636612E+02  0.00000000000E+00 0.  1.
</event>
<event>
 6    1  0.2334784E-009  0.9037362E+02  0.7561462E-02  0.1301949E+00
         -2   -1    0    0    0  501 -0.00000000000E+00  0.00000000000E+00  0.36924122402E+03  0.36924122402E+03  0.00000000000E+00 0.  1.
          2   -1    0    0  501    0  0.00000000000E+00 -0.00000000000E+00 -0.45811177521E+02  0.45811177521E+02  0.00000000000E+00 0. -1.
          5    1    1    2  502    0  0.55285658439E+02 -0.35250456591E+02  0.41287836251E+02  0.77596755997E+02  0.41800000000E+01 0. -1.
         -5    1    1    2    0  502 -0.48622298263E+01  0.30760562177E+01  0.20395608203E+03  0.20408003135E+03  0.41800000000E+01 0. -1.
        -11    1    1    2    0    0 -0.39816608848E+02 -0.26811960534E+02  0.31652424802E+02  0.57498865760E+02  0.00000000000E+00 0. -1.
         11    1    1    2    0    0 -0.10606819765E+02  0.58986360907E+02  0.46533703413E+02  0.75876748428E+02  0.00000000000E+00 0.  1.
</event>
<event>
 7    1  0.2334784E-009  0.1169356E+03  0.7561462E-02  0.1248240E+00
          1   -1    0    0  501    0  0.00000000000E+00  0.00000000000E+00  0.84131747635E+02  0.84131747635E+02  0.00000000000E+00 0. -1.
         -1   -1    0    0    0  501 -0.00000000000E+00 -0.00000000000E+00 -0.24605523765E+03  0.24605523765E+03  0.00000000000E+00 0.  1.
         25    2    1    2    0    0 -0.70376163403E+02  0.22703240694E+02 -0.21716016781E+02  0.14692641091E+03  0.12509014080E+03 0.  0.
          5    1    3    3  502    0 -0.37226310893E+02 -0.38202641052E+02  0.29052967064E+02  0.60883391014E+02  0.41800000000E+01 0. -1.
         -5    1    3    3    0  502 -0.33149852509E+02  0.60905881747E+02 -0.50768983845E+02  0.86043019899E+02  0.41800000000E+01 0. -1.
        -11    1    1    2    0    0  0.73569688319E+01 -0.43821382293E+02 -0.27028562970E+02  0.52009439072E+02  0.00000000000E+00 0. -1.
         11    1    1    2    0    0  0.63019194571E+02  0.21118141598E+02 -0.11317891027E+03  0.13125113530E+03  0.00000000000E+00 0.  1.
</event>
<event>
 7    1  0.2334784E-009  0.1685459E+03  0.7561462E-02  0.1179373E+00
          2   -1    0    0  501    0  0.00000000000E+00  0.00000000000E+00  0.92475036999E+03  0.92475036999E+03  0.00000000000E+00 0. -1.
         -2   -1    0    0    0  501 -0.00000000000E+00 -0.00000000000E+00 -0.41356058989E+02  0.41356058989E+02  0.00000000000E+00 0.  1.
         25    2    1    2    0    0  0.14762969313E+03  0.59207333651E+02  0.37104886551E+03  0.42264044150E+03  0.12509055735E+03 0.  0.
          5    1    3    3  502    0  0.20984543282E+02  0.10787606227E+02  0.21307332330E+03  0.21441650358E+03  0.41800000000E+01 0. -1.
         -5    1    3    3    0  502  0.12664514985E+03  0.48419727424E+02  0.15797554222E+03  0.20822393792E+03  0.41800000000E+01 0. -1.
        -11    1    1    2    0    0  0.71440191236E+01 -0.14843255713E+02  0.89524755554E+02  0.91027694173E+02  0.00000000000E+00 0.  1.
         11    1    1    2    0    0 -0.15477371226E+03 -0.44364077939E+02  0.42282068993E+03  0.45243829331E+03  0.00000000000E+00 0. -1.
</event>
<event>
 7    1  0.2334784E-009  0.1658990E+03  0.7561462E-02  0.1182193E+00
         -1   -1    0    0    0  501 -0.00000000000E+00  0.00000000000E+00  0.42696270628E+03  0.42696270628E+03  0.00000000000E+00 0.  1.
          1   -1    0    0  501    0  0.00000000000E+00 -0.00000000000E+00 -0.85469536636E+02  0.85469536636E+02  0.00000000000E+00 0. -1.
         25    2    1    2    0    0  0.12804746107E+03 -0.11139106267E+02  0.58728501161E+02  0.18872247230E+03  0.12508758023E+03 0.  0.
          5    1    3    3  502    0  0.11898746584E+03  0.38817773630E+02  0.57411044136E+02  0.13776188502E+03  0.41800000000E+01 0. -1.
         -5    1    3    3    0  502  0.90599952290E+01 -0.49956879897E+02  0.13174570254E+01  0.50960587276E+02  0.41800000000E+01 0. -1.
        -11    1    1    2    0    0 -0.56130588226E+02  0.48859098850E+02  0.16076902502E+03  0.17715680591E+03  0.00000000000E+00 0.  1.
         11    1    1    2    0    0 -0.71916872843E+02 -0.37719992584E+02  0.12199564347E+03  0.14655296471E+03  0.00000000000E+00 0. -1.
</event>
<event>
 7    1  0.2334784E-009  0.1162098E+03  0.7561462E-02  0.1249484E+00
          1   -1    0    0  501    0  0.00000000000E+00  0.00000000000E+00  0.25163834282E+03  0.25163834282E+03  0.00000000000E+00 0. -1.
         -1   -1    0    0    0  501 -0.00000000000E+00 -0.00000000000E+00 -0.91425697754E+02  0.91425697754E+02  0.00000000000E+00 0.  1.
         25    2    1    2    0    0  0.98863765285E+02  0.85406618655E+01  0.52227617051E+02  0.16799290912E+03  0.12508759546E+03 0.  0.
          5    1    3    3  502    0  0.59890100403E+02 -0.90999493530E+01  0.91469954488E+02  0.10979006412E+03  0.41800000000E+01 0.  1.
         -5    1    3    3    0  502  0.38973664882E+02  0.17640611218E+02 -0.39242337437E+02  0.58202844999E+02  0.41800000000E+01 0.  1.
        -11    1    1    2    0    0 -0.61147143099E+02 -0.45260017067E+02  0.93375150722E+02  0.12044235562E+03  0.00000000000E+00 0. -1.
         11    1    1    2    0    0 -0.37716622186E+02  0.36719355201E+02  0.14609877291E+02  0.54628775842E+02  0.00000000000E+00 0.  1.
</event>
<event>
 7    1  0.2334784E-009  0.1070233E+03  0.7561462E-02  0.1266184E+00
          1   -1    0    0  501    0  0.00000000000E+00  0.00000000000E+00  0.76062373044E+02  0.76062373044E+02  0.00000000000E+00 0.  1.
         -1   -1    0    0    0  501 -0.00000000000E+00 -0.00000000000E+00 -0.16830199957E+03  0.16830199957E+03  0.00000000000E+00 0. -1.
         25    2    1    2    0    0  0.46974087370E+01  0.24217051498E+02 -0.75577838107E+02  0.14821349447E+03  0.12508676628E+03 0.  0.
          5    1    3    3  502    0  0.49221416184E+02 -0.22869544412E+02 -0.89357046536E+01  0.55164146784E+02  0.41800000000E+01 0. -1.
         -5    1    3    3    0  502 -0.44524007447E+02  0.47086595910E+02 -0.66642133453E+02  0.93049347686E+02  0.41800000000E+01 0. -1.
        -11    1    1    2    0    0  0.42834125981E+02 -0.40017779086E+01 -0.86455255685E+01  0.43880766714E+02  0.00000000000E+00 0.  1.
         11    1    1    2    0    0 -0.47531534719E+02 -0.20215273589E+02 -0.80162628531E+01  0.52270111432E+02  0.00000000000E+00 0. -1.
</event>
<event>
 7    1  0.2334784E-009  0.1272315E+03  0.7561462E-02  0.1231622E+00
          2   -1    0    0  501    0  0.00000000000E+00  0.00000000000E+00  0.19242903941E+03  0.19242903941E+03  0.00000000000E+00 0. -1.
         -2   -1    0    0    0  501 -0.00000000000E+00 -0.00000000000E+00 -0.13702431138E+03  0.13702431138E+03  0.00000000000E+00 0.  1.
         25    2    1    2    0    0  0.58235561755E+02  0.15839350225E+02  0.92947801630E+02  0.16712029048E+03  0.12509049522E+03 0.  0.
          5    1    3    3  502    0  0.39865802629E+02 -0.31393045965E+02  0.10335511141E+03  0.11521526378E+03  0.41800000000E+01 0.  1.
         -5    1    3    3    0  502  0.18369759127E+02  0.47232396190E+02 -0.10407309777E+02  0.51905026703E+02  0.41800000000E+01 0.  1.
        -11    1    1    2    0    0  0.35186155629E+02 -0.42854000405E+02 -0.33952243515E+02  0.65017580225E+02  0.00000000000E+00 0.  1.
         11    1    1    2    0    0 -0.93421717384E+02  0.27014650180E+02 -0.35908300811E+01  0.97315480084E+02  0.00000000000E+00 0. -1.
</event>
<event>
 7    1  0.2334784E-009  0.2843607E+03  0.7561462E-02  0.1093331E+00
          2   -1    0    0  501    0  0.00000000000E+00  0.00000000000E+00  0.96066076734E+03  0.96066076734E+03  0.00000000000E+00 0. -1.
         -2   -1    0    0    0  501 -0.00000000000E+00 -0.00000000000E+00 -0.11922515044E+03  0.11922515044E+03  0.00000000000E+00 0.  1.
         25    2    1    2    0    0  0.23785312216E+03 -0.15305547840E+03  0.66629337675E+03  0.73457113001E+03  0.12509114255E+03 0.  0.
          5    1    3    3  502    0  0.13737390785E+03 -0.10491376036E+03  0.53540831453E+03  0.56263489346E+03  0.41800000000E+01 0. -1.
         -5    1    3    3    0  502  0.10047921431E+03 -0.48141718039E+02  0.13088506222E+03  0.17193623654E+03  0.41800000000E+01 0. -1.
        -11    1    1    2    0    0 -0.20527176404E+03  0.14318951397E+03  0.11331750548E+03  0.27473731285E+03  0.00000000000E+00 0.  1.
         11    1    1    2    0    0 -0.32581358118E+02  0.98659644289E+01  0.61824734670E+02  0.70577474933E+02  0.00000000000E+00 0. -1.
</event>
<event>
 7    1  0.2334784E-009  0.1182120E+03  0.7561462E-02  0.1246076E+00
         -1   -1    0    0    0  501 -0.00000000000E+00  0.00000000000E+00  0.50210660938E+02  0.50210660938E+02  0.00000000000E+00 0.  1.
          1   -1    0    0  501    0  0.00000000000E+00 -0.00000000000E+00 -0.37993264938E+03  0.37993264938E+03  0.00000000000E+00 0. -1.
         25    2    1    2    0    0 -0.26277120234E+02  0.64870774155E+02 -0.26546852740E+03  0.30169505193E+03  0.12509061089E+03 0.  0.
          5    1    3    3  502    0 -0.57821150083E+02  0.31768641588E+00 -0.57610788470E+02  0.81730420711E+02  0.41800000000E+01 0.  1.
         -5    1    3    3    0  502  0.31544029849E+02  0.64553087739E+02 -0.20785773893E+03  0.21996463122E+03  0.41800000000E+01 0.  1.
        -11    1    1    2    0    0 -0.20413815732E+02 -0.55126383363E+02 -0.53651565246E+02  0.79587263233E+02  0.00000000000E+00 0. -1.
         11    1    1    2    0    0  0.46690935966E+02 -0.97443907916E+01 -0.10601895803E+02  0.48860995159E+02  0.00000000000E+00 0.  1.
</event>
<event>
 7    1  0.2334784E-009  0.8376490E+02  0.7561462E-02  0.1318694E+00
         -2   -1    0    0    0  501 -0.00000000000E+00  0.00000000000E+00  0.18256365288E+03  0.18256365288E+03  0.00000000000E+00 0.  1.
          2   -1    0    0  501    0  0.00000000000E+00 -0.00000000000E+00 -0.95586694949E+02  0.95586694949E+02  0.00000000000E+00 0. -1.
         25    2    1    2    0    0  0.41566876696E+02  0.58103636253E+02  0.25305184309E+02  0.14625327895E+03  0.12508329811E+03 0.  0.
          5    1    3    3  502    0  0.41242481723E+01  0.14347745327E+02 -0.49433940637E+02  0.51807857569E+02  0.41800000000E+01 0.  1.
         -5    1    3    3    0  502  0.37442628523E+02  0.43755890926E+02  0.74739124947E+02  0.94445421378E+02  0.41800000000E+01 0.  1.
        -11    1    1    2    0    0 -0.46067398272E+02 -0.11520506500E+02 -0.78097629197E+01  0.48124002851E+02  0.00000000000E+00 0.  1.
         11    1    1    2    0    0  0.45005215761E+01 -0.46583129753E+02  0.69481536537E+02  0.83773066027E+02  0.00000000000E+00 0. -1.
</event>
<event>
 7    1  0.2334784E-009  0.7085863E+02  0.7561462E-02  0.1357197E+00
         -1   -1    0    0    0  501 -0.00000000000E+00  0.00000000000E+00  0.77561769387E+03  0.77561769387E+03  0.00000000000E+00 0.  1.
          1   -1    0    0  501    0  0.00000000000E+00 -0.00000000000E+00 -0.15394447441E+02  0.15394447441E+02  0.00000000000E+00 0. -1.
         25    2    1    2    0    0 -0.51456066048E+01  0.64177052652E+01  0.41403355916E+03  0.43259643074E+03  0.12509284382E+03 0.  0.
          5    1    3    3  502    0  0.14306408005E+02 -0.16052144606E+02  0.50062641833E+01  0.22469529090E+02  0.41800000000E+01 0. -1.
         -5    1    3    3    0  502 -0.19452014609E+02  0.22469849871E+02  0.40902729498E+03  0.41012690165E+03  0.41800000000E+01 0. -1.
        -11    1    1    2    0    0  0.41249384041E+02  0.19232062488E+02  0.13000791217E+03  0.13774411471E+03  0.00000000000E+00 0.  1.
         11    1    1    2    0    0 -0.36103777436E+02 -0.25649767753E+02  0.21618177510E+03  0.22067159585E+03  0.00000000000E+00 0. -1.
</event>
<event>
 7    1  0.2334784E-009  0.1097840E+03  0.7561462E-02  0.1260970E+00
          2   -1    0    0  501    0  0.00000000000E+00  0.00000000000E+00  0.84654403193E+03  0.84654403193E+03  0.00000000000E+00 0. -1.
         -2   -1    0    0    0  501 -0.00000000000E+00 -0.00000000000E+00 -0.19739476479E+02  0.19739476479E+02  0.00000000000E+00 0.  1.
         25    2    1    2    0    0  0.63910986929E+02  0.20516496275E+02  0.50782462523E+03  0.52729534712E+03  0.12509593212E+03 0.  0.
          5    1    3    3  502    0  0.80276430535E+02  0.49099953236E+02  0.24674297395E+03  0.26411110976E+03  0.41800000000E+01 0. -1.
         -5    1    3    3    0  502 -0.16365443606E+02 -0.28583456961E+02  0.26108165128E+03  0.26318423735E+03  0.41800000000E+01 0. -1.
        -11    1    1    2    0    0 -0.22516533859E+02 -0.40399413105E+02  0.58917898458E+02  0.74902774548E+02  0.00000000000E+00 0.  1.
         11    1    1    2    0    0 -0.41394453070E+02  0.19882916830E+02  0.26006203176E+03  0.26408538674E+03  0.00000000000E+00 0. -1.
</event>
<event>
 7    1  0.2334784E-009  0.9612096E+02  0.7561462E-02  0.1288671E+00
         -1   -1    0    0    0  501 -0.00000000000E+00  0.00000000000E+00  0.68196126599E+03  0.68196126599E+03  0.00000000000E+00 0.  1.
          1   -1    0    0  501    0  0.00000000000E+00 -0.00000000000E+00 -0.22794644025E+02  0.22794644025E+02  0.00000000000E+00 0. -1.
         25    2    1    2    0    0 -0.27218187964E+02 -0.49342073917E+02  0.30030268433E+03  0.33015997903E+03  0.12509372294E+03 0.  0.
          5    1    3    3  502    0 -0.55091257806E+02 -0.58129130479E+02  0.10239547801E+03  0.13006286485E+03  0.41800000000E+01 0.  1.
         -5    1    3    3    0  502  0.27873069842E+02  0.87870565619E+01  0.19790720632E+03  0.20009711417E+03  0.41800000000E+01 0.  1.
        -11    1    1    2    0    0  0.89871606277E+01  0.60489457699E+02  0.34186149415E+03  0.34728810048E+03  0.00000000000E+00 0.  1.
         11    1    1    2    0    0  0.18231027336E+02 -0.11147383782E+02  0.17002443477E+02  0.27307830509E+02  0.00000000000E+00 0. -1.
</event>
<event>
 7    1  0.2334784E-009  0.1072252E+03  0.7561462E-02  0.1265796E+00
         -2   -1    0    0    0  501 -0.00000000000E+00  0.00000000000E+00  0.28186883650E+02  0.28186883650E+02  0.00000000000E+00 0.  1.
          2   -1    0    0  501    0  0.00000000000E+00 -0.00000000000E+00 -0.61126527784E+03  0.61126527784E+03  0.00000000000E+00 0. -1.
         25    2    1    2    0    0 -0.26734048161E+02  0.58983322084E+02 -0.41187252197E+03  0.43529327381E+03  0.12509004060E+03 0.  0.
          5    1    3    3  502    0 -0.71467485537E+01  0.81200280106E+02 -0.38944720324E+03  0.39790847944E+03  0.41800000000E+01 0.  1.
         -5    1    3    3    0  502 -0.19587299607E+02 -0.22216958022E+02 -0.22425318734E+02  0.37384794369E+02  0.41800000000E+01 0.  1.
        -11    1    1    2    0    0  0.42568606071E+02 -0.71174592936E+02 -0.16233903502E+03  0.18229610855E+03  0.00000000000E+00 0. -1.
         11    1    1    2    0    0 -0.15834557910E+02  0.12191270851E+02 -0.88668372001E+01  0.21862779126E+02  0.00000000000E+00 0.  1.
</event>
<event>
 7    1  0.2334784E-009  0.2144364E+03  0.7561462E-02  0.1138100E+00
          2   -1    0    0  501    0  0.00000000000E+00  0.00000000000E+00  0.49408812626E+03  0.49408812626E+03  0.00000000000E+00 0. -1.
         -2   -1    0    0    0  501 -0.00000000000E+00 -0.00000000000E+00 -0.10965303750E+03  0.10965303750E+03  0.00000000000E+00 0.  1.
         25    2    1    2    0    0  0.48713919277E+02 -0.19223766778E+03  0.26939604920E+03  0.35714156440E+03  0.12508996304E+03 0.  0.
          5    1    3    3  502    0  0.56680190564E+02 -0.59691420486E+02  0.38988701866E+02  0.91177305044E+02  0.41800000000E+01 0. -1.
         -5    1    3    3    0  502 -0.79662712870E+01 -0.13254624729E+03  0.23040734734E+03  0.26596425936E+03  0.41800000000E+01 0. -1.
        -11    1    1    2    0    0  0.55862971511E+01  0.13347194839E+03  0.47144877394E+02  0.14166371161E+03  0.00000000000E+00 0.  1.
         11    1    1    2    0    0 -0.54300216428E+02  0.58765719389E+02  0.67894162166E+02  0.10493588774E+03  0.00000000000E+00 0. -1.
</event>
<event>
 7    1  0.2334784E-009  0.9854943E+02  0.7561462E-02  0.1283376E+00
          1   -1    0    0  501    0  0.00000000000E+00  0.00000000000E+00  0.32582986889E+03  0.32582986889E+03  0.00000000000E+00 0. -1.
         -1   -1    0    0    0  501 -0.00000000000E+00 -0.00000000000E+00 -0.86336958894E+02  0.86336958894E+02  0.00000000000E+00 0.  1.
         25    2    1    2    0    0  0.27324480636E+02 -0.67356386514E+02  0.25672883888E+03  0.29468847073E+03  0.12509231799E+03 0.  0.
          5    1    3    3  502    0  0.64516055672E+02 -0.54900353006E+02  0.91280649173E+02  0.12460336879E+03  0.41800000000E+01 0.  1.
         -5    1    3    3    0  502 -0.37191575036E+02 -0.12456033508E+02  0.16544818971E+03  0.17008510194E+03  0.41800000000E+01 0.  1.
        -11    1    1    2    0    0 -0.19549616020E+02  0.53342526066E+02 -0.53370801288E+02  0.77949053899E+02  0.00000000000E+00 0.  1.
         11    1    1    2    0    0 -0.77748646158E+01  0.14013860448E+02  0.36134872403E+02  0.39529303156E+02  0.00000000000E+00 0. -1.
</event>
<event>
 7    1  0.2334784E-009  0.1040472E+03  0.7561462E-02  0.1272008E+00
         -1   -1    0    0    0  501 -0.00000000000E+00  0.00000000000E+00  0.32455304297E+02  0.32455304297E+02  0.00000000000E+00 0.  1.
          1   -1    0    0  501    0  0.00000000000E+00 -0.00000000000E+00 -0.47812170324E+03  0.47812170324E+03  0.00000000000E+00 0. -1.
         25    2    1    2    0    0  0.65790096099E+02  0.85895185186E+01 -0.31825208370E+03  0.34832973412E+03  0.12508836204E+03 0.  0.
          5    1    3    3  502    0  0.10215098563E+03 -0.27366934059E+01 -0.24901300248E+03  0.26919743899E+03  0.41800000000E+01 0.  1.
         -5    1    3    3    0  502 -0.36360889527E+02  0.11326211925E+02 -0.69239081226E+02  0.79132295131E+02  0.41800000000E+01 0.  1.
        -11    1    1    2    0    0 -0.10782938580E+02 -0.62246963213E+01  0.88530638102E+01  0.15277282073E+02  0.00000000000E+00 0.  1.
         11    1    1    2    0    0 -0.55007157518E+02 -0.23648221973E+01 -0.13626737905E+03  0.14696999134E+03  0.00000000000E+00 0. -1.
</event>
<event>
 7    1  0.2334784E-009  0.9433129E+02  0.7561462E-02  0.1292689E+00
          1   -1    0    0  501    0  0.00000000000E+00  0.00000000000E+00  0.13004111547E+03  0.13004111547E+03  0.00000000000E+00 0. -1.
         -1   -1    0    0    0  501 -0.00000000000E+00 -0.00000000000E+00 -0.27177348215E+03  0.27177348215E+03  0.00000000000E+00 0.  1.
         25    2    1    2    0    0 -0.30503280128E+02 -0.56719331458E+02 -0.22210497767E+03  0.26291800108E+03  0.12509085308E+03 0.  0.
          5    1    3    3  502    0 -0.24500122614E+02  0.21371922047E+02 -0.64032187111E+01  0.33398932168E+02  0.41800000000E+01 0. -1.
         -5    1    3    3    0  502 -0.60031575136E+01 -0.78091253506E+02 -0.21570175896E+03  0.22951906891E+03  0.41800000000E+01 0. -1.
        -11    1    1    2    0    0 -0.87764630553E+01  0.26427539358E+02 -0.14827851815E+02  0.31548475870E+02  0.00000000000E+00 0. -1.
         11    1    1    2    0    0  0.39279743183E+02  0.30291792100E+02  0.95200462805E+02  0.10734812067E+03  0.00000000000E+00 0.  1.
</event>
<event>
 7    1  0.2334784E-009  0.1121220E+03  0.7561462E-02  0.1256690E+00
         -1   -1    0    0    0  501 -0.00000000000E+00  0.00000000000E+00  0.86985347662E+02  0.86985347662E+02  0.00000000000E+00 0.  1.
          1   -1    0    0  501    0  0.00000000000E+00 -0.00000000000E+00 -0.18493991919E+03  0.18493991919E+03  0.00000000000E+00 0. -1.
         25    2    1    2    0    0 -0.16809554741E+02  0.65587655439E+02 -0.62963644375E+02  0.15554901000E+03  0.12508705897E+03 0.  0.
          5    1    3    3  502    0  0.19706704066E+02 -0.16319914470E+02 -0.60407930786E+02  0.65736476140E+02  0.41800000000E+01 0.  1.
         -5    1    3    3    0  502 -0.36516258807E+02  0.81907569908E+02 -0.25557135891E+01  0.89812533855E+02  0.41800000000E+01 0.  1.
        -11    1    1    2    0    0  0.48916559410E+02 -0.20148331772E+02 -0.29227981263E+02  0.60440548860E+02  0.00000000000E+00 0. -1.
         11    1    1    2    0    0 -0.32107004669E+02 -0.45439323666E+02 -0.57629458929E+01  0.55935708000E+02  0.00000000000E+00 0.  1.
</event>
<event>
 7    1  0.2334784E-009  0.1057187E+03  0.7561462E-02  0.1268710E+00
         -1   -1    0    0    0  501 -0.00000000000E+00  0.00000000000E+00  0.51042351701E+03  0.51042351701E+03  0.00000000000E+00 0.  1.
          1   -1    0    0  501    0  0.00000000000E+00 -0.00000000000E+00 -0.25252623950E+02  0.25252623950E+02  0.00000000000E+00 0. -1.
         25    2    1    2    0    0  0.90013345952E+01 -0.26635416600E+02  0.22470864799E+03  0.25871221050E+03  0.12509021520E+03 0.  0.
          5    1    3    3  502    0  0.55949724800E+02 -0.40789275236E+02  0.17726641158E+03  0.19035490473E+03  0.41800000000E+01 0.  1.
         -5    1    3    3    0  502 -0.46948390205E+02  0.14153858636E+02  0.47442236406E+02  0.68357305772E+02  0.41800000000E+01 0.  1.
        -11    1    1    2    0    0 -0.28396798542E+02 -0.24916463296E+02  0.12930115880E+03  0.13470708214E+03  0.00000000000E+00 0.  1.
         11    1    1    2    0    0  0.19395463947E+02  0.51551879896E+02  0.13116108627E+03  0.14225684832E+03  0.00000000000E+00 0. -1.
</event>
<event>
 7    1  0.2334784E-009  0.1356804E+03  0.7561462E-02  0.1219262E+00
         -2   -1    0    0    0  501 -0.00000000000E+00  0.00000000000E+00  0.22486903291E+02  0.22486903291E+02  0.00000000000E+00 0.  1.
          2   -1    0    0  501    0  0.00000000000E+00 -0.00000000000E+00 -0.10085154607E+04  0.10085154607E+04  0.00000000000E+00 0. -1.
         25    2    1    2    0    0  0.99257809414E+02 -0.25464518632E+02 -0.59487995998E+03  0.61646594444E+03  0.12509012524E+03 0.  0.
          5    1    3    3  502    0  0.11495536902E+03  0.92821543373E+01 -0.51608816071E+03  0.52883396003E+03  0.41800000000E+01 0. -1.
         -5    1    3    3    0  502 -0.15697559603E+02 -0.34746672969E+02 -0.78791799264E+02  0.87631984407E+02  0.41800000000E+01 0. -1.
        -11    1    1    2    0    0 -0.95835282917E+02  0.39126697115E+02 -0.38584067928E+03  0.39948508065E+03  0.00000000000E+00 0. -1.
         11    1    1    2    0    0 -0.34225264966E+01 -0.13662178483E+02 -0.53079182055E+01  0.15051338950E+02  0.00000000000E+00 0.  1.
</event>
<event>
 7    1  0.2334784E-009  0.1466978E+03  0.7561462E-02  0.1204590E+00
          2   -1    0    0  501    0  0.00000000000E+00  0.00000000000E+00  0.11334917803E+04  0.11334917803E+04  0.00000000000E+00 0. -1.
         -2   -1    0    0    0  501 -0.00000000000E+00 -0.00000000000E+00 -0.19690436208E+02  0.19690436208E+02  0.00000000000E+00 0.  1.
         25    2    1    2    0    0 -0.96438744965E+02 -0.29676322739E+02  0.54716632202E+03  0.57028047945E+03  0.12509086946E+03 0.  0.
          5    1    3    3  502    0  0.25197261292E+02  0.15008760786E+02  0.75051891589E+02  0.80687196679E+02  0.41800000000E+01 0. -1.
         -5    1    3    3    0  502 -0.12163600626E+03 -0.44685083524E+02  0.47211443043E+03  0.48959328277E+03  0.41800000000E+01 0. -1.
        -11    1    1    2    0    0  0.62453431851E+02 -0.26995453943E+02  0.34413076439E+03  0.35079220157E+03  0.00000000000E+00 0. -1.
         11    1    1    2    0    0  0.33985313114E+02  0.56671776681E+02  0.22250425768E+03  0.23210953549E+03  0.00000000000E+00 0.  1.
</event>
<event>
 7    1  0.2334784E-009  0.1246037E+03  0.7561462E-02  0.1235690E+00
         -1   -1    0    0    0  501 -0.00000000000E+00  0.00000000000E+00  0.21460865321E+02  0.21460865321E+02  0.00000000000E+00 0.  1.
          1   -1    0    0  501    0  0.00000000000E+00 -0.00000000000E+00 -0.81920841876E+03  0.81920841876E+03  0.00000000000E+00 0. -1.
         25    2    1    2    0    0  0.61352758048E+02 -0.14405343474E+02 -0.30642747065E+03  0.33692376247E+03  0.12509257415E+03 0.  0.
          5    1    3    3  502    0  0.15278360866E+01  0.49891538365E+02 -0.84739206494E+02  0.98436301235E+02  0.41800000000E+01 0.  1.
         -5    1    3    3    0  502  0.59824921961E+02 -0.64296881839E+02 -0.22168826415E+03  0.23848746123E+03  0.41800000000E+01 0.  1.
        -11    1    1    2    0    0  0.16666905312E+02  0.27428131637E+02 -0.14203424312E+03  0.14561529575E+03  0.00000000000E+00 0.  1.
         11    1    1    2    0    0 -0.78019663360E+02 -0.13022788164E+02 -0.34928583967E+03  0.35813022586E+03  0.00000000000E+00 0. -1.
</event>
<event>
 7    1  0.2334784E-009  0.1482880E+03  0.7561462E-02  0.1202593E+00
         -2   -1    0    0    0  501 -0.00000000000E+00  0.00000000000E+00  0.75876116004E+02  0.75876116004E+02  0.00000000000E+00 0.  1.
          2   -1    0    0  501    0  0.00000000000E+00 -0.00000000000E+00 -0.39114576669E+03  0.39114576669E+03  0.00000000000E+00 0. -1.
         25    2    1    2    0    0 -0.77320200165E+02 -0.10697091224E+03 -0.13895861491E+03  0.22886241957E+03  0.12508925221E+03 0.  0.
          5    1    3    3  502    0 -0.72985145937E+02 -0.18158974055E+02 -0.15904564474E+02  0.76987060194E+02  0.41800000000E+01 0. -1.
         -5    1    3    3    0  502 -0.43350542286E+01 -0.88811938180E+02 -0.12305405043E+03  0.15187535938E+03  0.41800000000E+01 0. -1.
        -11    1    1    2    0    0  0.31954087513E+02  0.51040736935E+02 -0.15835305092E+02  0.62265379008E+02  0.00000000000E+00 0.  1.
         11    1    1    2    0    0  0.45366112652E+02  0.55930175300E+02 -0.16047573068E+03  0.17589408411E+03  0.00000000000E+00 0. -1.
</event>
<event>
 7    1  0.2334784E-009  0.1226485E+03  0.7561462E-02  0.1238791E+00
         -2   -1    0    0    0  501 -0.00000000000E+00  0.00000000000E+00  0.81458249597E+02  0.81458249597E+02  0.00000000000E+00 0.  1.
          2   -1    0    0  501    0  0.00000000000E+00 -0.00000000000E+00 -0.23966896198E+03  0.23966896198E+03  0.00000000000E+00 0. -1.
         25    2    1    2    0    0  0.76819974103E+02 -0.11550694917E+02 -0.39821223268E+02  0.15253947044E+03  0.12509129963E+03 0.  0.
          5    1    3    3  502    0 -0.27264666846E+02  0.10097834383E+02 -0.35473814771E+02  0.46056402941E+02  0.41800000000E+01 0.  1.
         -5    1    3    3    0  502  0.10408464095E+03 -0.21648529300E+02 -0.43474084965E+01  0.10648306749E+03  0.41800000000E+01 0.  1.
        -11    1    1    2    0    0 -0.24274951661E+02 -0.32774640778E+02 -0.13088739800E+02  0.42834162369E+02  0.00000000000E+00 0.  1.
         11    1    1    2    0    0 -0.52545022442E+02  0.44325335694E+02 -0.10530074932E+03  0.12575357877E+03  0.00000000000E+00 0. -1.
</event>
<event>
 7    1  0.2649617E-009  0.1206728E+03  0.7561462E-02  0.1241991E+00
         -1   -1    0    0    0  501 -0.00000000000E+00  0.00000000000E+00  0.57683117349E+02  0.57683117349E+02  0.00000000000E+00 0.  1.
          1   -1    0    0  501    0  0.00000000000E+00 -0.00000000000E+00 -0.33004849440E+03  0.33004849440E+03  0.00000000000E+00 0. -1.
         25    2    1    2    0    0  0.57261992575E+02 -0.62407188095E+02 -0.14530438078E+03  0.20960490504E+03  0.12508900920E+03 0.  0.
          5    1    3    3  502    0  0.76574925924E+02 -0.61750114915E+02 -0.15795777282E+03  0.18613147602E+03  0.41800000000E+01 0.  1.
         -5    1    3    3    0  502 -0.19312933349E+02 -0.65707318037E+00  0.12653392039E+02  0.23473429016E+02  0.41800000000E+01 0.  1.
        -11    1    1    2    0    0  0.96885352463E+00 -0.21203192328E+02 -0.11791466098E+02  0.24280706637E+02  0.00000000000E+00 0.  1.
         11    1    1    2    0    0 -0.58230846100E+02  0.83610380423E+02 -0.11526953017E+03  0.15384600007E+03  0.00000000000E+00 0. -1.
</event>
<event>
 7    1  0.2334784E-009  0.3247714E+03  0.7561462E-02  0.1073474E+00
          2   -1    0    0  501    0  0.00000000000E+00  0.00000000000E+00  0.20103431211E+04  0.20103431211E+04  0.00000000000E+00 0. -1.
         -2   -1    0    0    0  501 -0.00000000000E+00 -0.00000000000E+00 -0.58173957707E+02  0.58173957707E+02  0.00000000000E+00 0.  1.
         25    2    1    2    0    0  0.29901566341E+03  0.95585850663E+02  0.12322472132E+04  0.12777415252E+04  0.12507273477E+03 0.  0.
          5    1    3    3  502    0 -0.72590781341E+01 -0.85656996137E+01  0.81666111891E+02  0.82540242650E+02  0.41800000000E+01 0.  1.
         -5    1    3    3    0  502  0.30627474154E+03  0.10415155028E+03  0.11505811013E+04  0.11952012825E+04  0.41800000000E+01 0.  1.
        -11    1    1    2    0    0 -0.10964916731E+03 -0.39338053907E+02  0.16692767838E+03  0.20355655771E+03  0.00000000000E+00 0.  1.
         11    1    1    2    0    0 -0.18936649610E+03 -0.56247796755E+02  0.55299427190E+03  0.58721899598E+03  0.00000000000E+00 0. -1.
</event>
<event>
 7    1  0.2334784E-009  0.9747824E+02  0.7561462E-02  0.1285690E+00
          2   -1    0    0  501    0  0.00000000000E+00  0.00000000000E+00  0.41864112665E+03  0.41864112665E+03  0.00000000000E+00 0. -1.
         -2   -1    0    0    0  501 -0.00000000000E+00 -0.00000000000E+00 -0.46326712399E+02  0.46326712399E+02  0.00000000000E+00 0.  1.
         25    2    1    2    0    0  0.69765237834E+02 -0.37997488368E+02  0.14807898722E+03  0.20949077835E+03  0.12509197505E+03 0.  0.
          5    1    3    3  502    0  0.68205153227E+02 -0.47455782912E+02  0.26285355223E+02  0.87248991729E+02  0.41800000000E+01 0. -1.
         -5    1    3    3    0  502  0.15600846072E+01  0.94582945433E+01  0.12179363200E+03  0.12224178662E+03  0.41800000000E+01 0. -1.
        -11    1    1    2    0    0 -0.75128235469E+02  0.13632478236E+02  0.85984686017E+02  0.11499331484E+03  0.00000000000E+00 0.  1.
         11    1    1    2    0    0  0.53629976349E+01  0.24365010133E+02  0.13825074101E+03  0.14048374587E+03  0.00000000000E+00 0. -1.
</event>
<event>
 7    1  0.2334784E-009  0.1443978E+03  0.7561462E-02  0.1207531E+00
         -1   -1    0    0    0  501 -0.00000000000E+00  0.00000000000E+00  0.31168123112E+03  0.31168123112E+03  0.00000000000E+00 0.  1.
          1   -1    0    0  501    0  0.00000000000E+00 -0.00000000000E+00 -0.84702863818E+02  0.84702863818E+02  0.00000000000E+00 0. -1.
         25    2    1    2    0    0 -0.10331824562E+03 -0.52956505955E+02  0.81869155096E+02  0.18928610775E+03  0.12509044979E+03 0.  0.
          5    1    3    3  502    0 -0.78262130057E+02  0.13092123175E+02 -0.20840762954E+01  0.79486982986E+02  0.41800000000E+01 0.  1.
         -5    1    3    3    0  502 -0.25056115568E+02 -0.66048629130E+02  0.83953231392E+02  0.10979912476E+03  0.41800000000E+01 0.  1.
        -11    1    1    2    0    0  0.76335265227E+02  0.72481490903E+02  0.13708656562E+03  0.17283913247E+03  0.00000000000E+00 0.  1.
         11    1    1    2    0    0  0.26982980398E+02 -0.19524984948E+02  0.80226465890E+01  0.34258854719E+02  0.00000000000E+00 0. -1.
</event>
<event>
 7    1  0.2334784E-009  0.8137359E+02  0.7561462E-02  0.1325198E+00
         -1   -1    0    0    0  501 -0.00000000000E+00  0.00000000000E+00  0.17936812140E+03  0.17936812140E+03  0.00000000000E+00 0.  1.
          1   -1    0    0  501    0  0.00000000000E+00 -0.00000000000E+00 -0.94413126905E+02  0.94413126905E+02  0.00000000000E+00 0. -1.
         25    2    1    2    0    0  0.32868805471E+02 -0.59020914924E+02  0.22764882782E+02  0.14397485123E+03  0.12508673442E+03 0.  0.
          5    1    3    3  502    0  0.24348680347E+02 -0.63109410466E+02 -0.41112071650E+02  0.79267463435E+02  0.41800000000E+01 0.  1.
         -5    1    3    3    0  502  0.85201251235E+01  0.40884955422E+01  0.63876954432E+02  0.64707387797E+02  0.41800000000E+01 0.  1.
        -11    1    1    2    0    0 -0.31161373127E+02  0.61746552330E+01 -0.15880991193E+02  0.35515678562E+02  0.00000000000E+00 0. -1.
         11    1    1    2    0    0 -0.17074323440E+01  0.52846259691E+02  0.78071102903E+02  0.94290718509E+02  0.00000000000E+00 0.  1.
</event>
<event>
 7    1  0.2334784E-009  0.1572976E+03  0.7561462E-02  0.1191782E+00
         -2   -1    0    0    0  501 -0.00000000000E+00  0.00000000000E+00  0.24166514881E+02  0.24166514881E+02  0.00000000000E+00 0.  1.
          2   -1    0    0  501    0  0.00000000000E+00 -0.00000000000E+00 -0.11956867622E+04  0.11956867622E+04  0.00000000000E+00 0. -1.
         25    2    1    2    0    0 -0.36657776440E+02  0.12633157122E+03 -0.63703667324E+03  0.66239455898E+03  0.12508944897E+03 0.  0.
          5    1    3    3  502    0 -0.39401628592E+02  0.25185594463E+01 -0.58261643508E+02  0.70503354400E+02  0.41800000000E+01 0.  1.
         -5    1    3    3    0  502  0.27438521520E+01  0.12381301178E+03 -0.57877502973E+03  0.59189120458E+03  0.41800000000E+01 0.  1.
        -11    1    1    2    0    0 -0.13347450911E+02 -0.85175063717E+02 -0.21824984015E+03  0.23466132755E+03  0.00000000000E+00 0.  1.
         11    1    1    2    0    0  0.50005227352E+02 -0.41156507507E+02 -0.31623373396E+03  0.32279739058E+03  0.00000000000E+00 0. -1.
</event>
<event>
 7    1  0.2334784E-009  0.1389198E+03  0.7561462E-02  0.1214790E+00
         -2   -1    0    0    0  501 -0.00000000000E+00  0.00000000000E+00  0.26473820371E+03  0.26473820371E+03  0.00000000000E+00 0.  1.
          2   -1    0    0  501    0  0.00000000000E+00 -0.00000000000E+00 -0.13616600224E+03  0.13616600224E+03  0.00000000000E+00 0. -1.
         25    2    1    2    0    0 -0.13410176009E+03  0.15992670496E+02 -0.14208563391E+02  0.18462892304E+03  0.12508760283E+03 0.  0.
          5    1    3    3  502    0 -0.62091295235E+02 -0.32187360468E+01  0.54791279126E+02  0.82977381701E+02  0.41800000000E+01 0. -1.
         -5    1    3    3    0  502 -0.72010464850E+02  0.19211406542E+02 -0.68999842517E+02  0.10165154134E+03  0.41800000000E+01 0. -1.
        -11    1    1    2    0    0  0.95273068837E+02 -0.29550743372E+02  0.14394679300E+03  0.17513104606E+03  0.00000000000E+00 0.  1.
         11    1    1    2    0    0  0.38828691248E+02  0.13558072876E+02 -0.11660281394E+01  0.41144236848E+02  0.00000000000E+00 0. -1.
</event>
<event>
 7    1  0.2334784E-009  0.7579284E+02  0.7561462E-02  0.1341433E+00
          4   -1    0    0  501    0  0.00000000000E+00  0.00000000000E+00  0.29396188513E+02  0.29396188513E+02  0.00000000000E+00 0. -1.
         -4   -1    0    0    0  501 -0.00000000000E+00 -0.00000000000E+00 -0.41117045572E+03  0.41117045572E+03  0.00000000000E+00 0.  1.
         25    2    1    2    0    0 -0.12798442255E+02 -0.94234921513E+01 -0.20927184872E+03  0.24432328227E+03  0.12508619933E+03 0.  0.
          5    1    3    3  502    0 -0.45989255745E+02 -0.20210266280E+02 -0.20230501093E+03  0.20849042270E+03  0.41800000000E+01 0. -1.
         -5    1    3    3    0  502  0.33190813490E+02  0.10786774128E+02 -0.69668377818E+01  0.35832859570E+02  0.41800000000E+01 0. -1.
        -11    1    1    2    0    0  0.35738571724E+02 -0.87130435870E+01 -0.16045132808E+03  0.16461406781E+03  0.00000000000E+00 0.  1.
         11    1    1    2    0    0 -0.22940129470E+02  0.18136535738E+02 -0.12051090403E+02  0.31629294152E+02  0.00000000000E+00 0. -1.
</event>
<event>
 7    1  0.2334784E-009  0.1536746E+03  0.7561462E-02  0.1196029E+00
          2   -1    0    0  501    0  0.00000000000E+00  0.00000000000E+00  0.64734421994E+03  0.64734421994E+03  0.00000000000E+00 0. -1.
         -2   -1    0    0    0  501 -0.00000000000E+00 -0.00000000000E+00 -0.49089785876E+02  0.49089785876E+02  0.00000000000E+00 0.  1.
         25    2    1    2    0    0  0.11420745398E+03 -0.81837012538E+02  0.35399735803E+03  0.40087685322E+03  0.12508989884E+03 0.  0.
          5    1    3    3  502    0  0.88435164936E+02 -0.66073760121E+02  0.35351556345E+03  0.37037446749E+03  0.41800000000E+01 0.  1.
         -5    1    3    3    0  502  0.25772289039E+02 -0.15763252417E+02  0.48179458698E+00  0.30502385728E+02  0.41800000000E+01 0.  1.
        -11    1    1    2    0    0 -0.66882734387E+02 -0.54330545680E+01  0.95687904998E+02  0.11687169633E+03  0.00000000000E+00 0.  1.
         11    1    1    2    0    0 -0.47324719589E+02  0.87270067106E+02  0.14856917103E+03  0.17868545626E+03  0.00000000000E+00 0. -1.
</event>
<event>
 7    1  0.2334784E-009  0.1121496E+03  0.7561462E-02  0.1256640E+00
          2   -1    0    0  501    0  0.00000000000E+00  0.00000000000E+00  0.77883341566E+02  0.77883341566E+02  0.00000000000E+00 0. -1.
         -2   -1    0    0    0  501 -0.00000000000E+00 -0.00000000000E+00 -0.37230831759E+03  0.37230831759E+03  0.00000000000E+00 0.  1.
         25    2    1    2    0    0 -0.60013023909E+02 -0.39654834823E+02 -0.30029667515E+03  0.33316402309E+03  0.12508438837E+03 0.  0.
          5    1    3    3  502    0 -0.22773467906E+02 -0.73760575085E+02 -0.25035160660E+03  0.26201651209E+03  0.41800000000E+01 0.  1.
         -5    1    3    3    0  502 -0.37239556003E+02  0.34105740262E+02 -0.49945068545E+02  0.71147511004E+02  0.41800000000E+01 0.  1.
        -11    1    1    2    0    0  0.26231749877E+02 -0.16354024622E+02 -0.29447427653E+02  0.42693205763E+02  0.00000000000E+00 0.  1.
         11    1    1    2    0    0  0.33781274031E+02  0.56008859445E+02  0.35319126779E+02  0.74334430300E+02  0.00000000000E+00 0. -1.
</event>
<event>
 7    1  0.2461774E-009  0.1567844E+03  0.7561462E-02  0.1192376E+00
          1   -1    0    0  501    0  0.00000000000E+00  0.00000000000E+00  0.45573645275E+03  0.45573645275E+03  0.00000000000E+00 0.  1.
         -1   -1    0    0    0  501 -0.00000000000E+00 -0.00000000000E+00 -0.69406464315E+02  0.69406464315E+02  0.00000000000E+00 0. -1.
         25    2    1    2    0    0  0.12533358477E+03 -0.29551219710E+01  0.11127033831E+03  0.20915566880E+03  0.12509102840E+03 0.  0.
          5    1    3    3  502    0  0.43025626620E+02 -0.61429764208E+02  0.36913121614E+02  0.83695109917E+02  0.41800000000E+01 0.  1.
         -5    1    3    3    0  502  0.82307958153E+02  0.58474642237E+02  0.74357216699E+02  0.12546055888E+03  0.41800000000E+01 0.  1.
        -11    1    1    2    0    0 -0.28755518599E+02  0.25268308317E+02  0.21871938592E+02  0.44087968345E+02  0.00000000000E+00 0.  1.
         11    1    1    2    0    0 -0.96578066175E+02 -0.22313186346E+02  0.25318771153E+03  0.27189927992E+03  0.00000000000E+00 0. -1.
</event>
<event>
 7    1  0.2334784E-009  0.8657417E+02  0.7561462E-02  0.1311366E+00
          1   -1    0    0  501    0  0.00000000000E+00  0.00000000000E+00  0.92617136304E+02  0.92617136304E+02  0.00000000000E+00 0. -1.
         -1   -1    0    0    0  501 -0.00000000000E+00 -0.00000000000E+00 -0.13095856917E+03  0.13095856917E+03  0.00000000000E+00 0.  1.
         25    2    1    2    0    0 -0.37382630601E+01 -0.11155561278E+02 -0.41129149060E+02  0.13220225416E+03  0.12508959966E+03 0.  0.
          5    1    3    3  502    0  0.29683845144E+01  0.50135894788E+02  0.10730308914E+02  0.51526994694E+02  0.41800000000E+01 0.  1.
         -5    1    3    3    0  502 -0.67066475744E+01 -0.61291456066E+02 -0.51859457975E+02  0.80675259465E+02  0.41800000000E+01 0.  1.
        -11    1    1    2    0    0  0.20794186895E+02  0.29378265120E+02 -0.32268381906E+02  0.48339726323E+02  0.00000000000E+00 0.  1.
         11    1    1    2    0    0 -0.17055923835E+02 -0.18222703843E+02  0.35056098097E+02  0.43033724996E+02  0.00000000000E+00 0. -1.
</event>
<event>
 7    1  0.2334784E-009  0.8455442E+02  0.7561462E-02  0.1316602E+00
          2   -1    0    0  501    0  0.00000000000E+00  0.00000000000E+00  0.26136246558E+03  0.26136246558E+03  0.00000000000E+00 0. -1.
         -2   -1    0    0    0  501 -0.00000000000E+00 -0.00000000000E+00 -0.50960194339E+02  0.50960194339E+02  0.00000000000E+00 0.  1.
         25    2    1    2    0    0 -0.25740914604E+02  0.19480435439E+02  0.90450017892E+02  0.15770336769E+03  0.12508822645E+03 0.  0.
          5    1    3    3  502    0  0.13697876636E+02  0.39853438708E+02 -0.13619660334E+02  0.44484783340E+02  0.41800000000E+01 0.  1.
         -5    1    3    3    0  502 -0.39438791239E+02 -0.20373003270E+02  0.10406967823E+03  0.11321858435E+03  0.41800000000E+01 0.  1.
        -11    1    1    2    0    0  0.51924647658E+02 -0.47762701261E+01  0.11201656249E+03  0.12355845605E+03  0.00000000000E+00 0.  1.
         11    1    1    2    0    0 -0.26183733054E+02 -0.14704165313E+02  0.79356908566E+01  0.31060836169E+02  0.00000000000E+00 0. -1.
</event>
<event>
 7    1  0.2334784E-009  0.2832070E+03  0.7561462E-02  0.1093950E+00
          1   -1    0    0  501    0  0.00000000000E+00  0.00000000000E+00  0.24653543901E+04  0.24653543901E+04  0.00000000000E+00 0. -1.
         -1   -1    0    0    0  501 -0.00000000000E+00 -0.00000000000E+00 -0.36062490156E+02  0.36062490156E+02  0.00000000000E+00 0.  1.
         25    2    1    2    0    0 -0.25376108695E+03 -0.67185045250E+02  0.16154642057E+04  0.16414262311E+04  0.12508778015E+03 0.  0.
          5    1    3    3  502    0 -0.25604512582E+03 -0.37622996333E+02  0.14985761255E+04  0.15207637794E+04  0.41800000000E+01 0. -1.
         -5    1    3    3    0  502  0.22840388699E+01 -0.29562048916E+02  0.11688808019E+03  0.12066245174E+03  0.41800000000E+01 0. -1.
        -11    1    1    2    0    0  0.81797034800E+02  0.66911222048E+02  0.33032277551E+03  0.34681551661E+03  0.00000000000E+00 0. -1.
         11    1    1    2    0    0  0.17196405215E+03  0.27382320198E+00  0.48350491867E+03  0.51317513247E+03  0.00000000000E+00 0.  1.
</event>
<event>
 7    1  0.2334784E-009  0.1161710E+03  0.7561462E-02  0.1249551E+00
         -1   -1    0    0    0  501 -0.00000000000E+00  0.00000000000E+00  0.26581778808E+03  0.26581778808E+03  0.00000000000E+00 0.  1.
          1   -1    0    0  501    0  0.00000000000E+00 -0.00000000000E+00 -0.71667964553E+02  0.71667964553E+02  0.00000000000E+00 0. -1.
         25    2    1    2    0    0  0.62812404198E+01  0.67311889343E+02  0.42705543405E+02  0.14847043371E+03  0.12509740932E+03 0.  0.
          5    1    3    3  502    0  0.65078090277E+02  0.35521795947E+02  0.31064679070E+02  0.80494984361E+02  0.41800000000E+01 0. -1.
         -5    1    3    3    0  502 -0.58796849858E+02  0.31790093395E+02  0.11640864335E+02  0.67975449346E+02  0.41800000000E+01 0. -1.
        -11    1    1    2    0    0 -0.32440942871E+02 -0.23405973805E+02  0.14009721288E+02  0.42385453574E+02  0.00000000000E+00 0. -1.
         11    1    1    2    0    0  0.26159702451E+02 -0.43905915537E+02  0.13743455884E+03  0.14662986536E+03  0.00000000000E+00 0.  1.
</event>
<event>
 7    1  0.2334784E-009  0.1259324E+03  0.7561462E-02  0.1233619E+00
         -2   -1    0    0    0  501 -0.00000000000E+00  0.00000000000E+00  0.39709491315E+02  0.39709491315E+02  0.00000000000E+00 0.  1.
          2   -1    0    0  501    0  0.00000000000E+00 -0.00000000000E+00 -0.45055549301E+03  0.45055549301E+03  0.00000000000E+00 0. -1.
         25    2    1    2    0    0 -0.41119948667E+02  0.65148228477E+02 -0.22278849419E+03  0.26686592328E+03  0.12509023149E+03 0.  0.
          5    1    3    3  502    0 -0.69126889986E+02  0.18788072883E+01 -0.67113865237E+02  0.96456208422E+02  0.41800000000E+01 0.  1.
         -5    1    3    3    0  502  0.28006941319E+02  0.63269421188E+02 -0.15567462895E+03  0.17040971486E+03  0.41800000000E+01 0.  1.
        -11    1    1    2    0    0 -0.72536041823E+01 -0.64484212576E+02 -0.68161624335E+02  0.94110761750E+02  0.00000000000E+00 0.  1.
         11    1    1    2    0    0  0.48373552850E+02 -0.66401590038E+00 -0.11989588317E+03  0.12928829929E+03  0.00000000000E+00 0. -1.
</event>
<event>
 7    1  0.2334784E-009  0.1040537E+03  0.7561462E-02  0.1271995E+00
          2   -1    0    0  501    0  0.00000000000E+00  0.00000000000E+00  0.28185343330E+02  0.28185343330E+02  0.00000000000E+00 0. -1.
         -2   -1    0    0    0  501 -0.00000000000E+00 -0.00000000000E+00 -0.69384884468E+03  0.69384884468E+03  0.00000000000E+00 0.  1.
         25    2    1    2    0    0 -0.16916533437E+02 -0.45119810565E+02 -0.56804892737E+03  0.58365206027E+03  0.12509267428E+03 0.  0.
          5    1    3    3  502    0 -0.55322053880E+02 -0.37728464397E+01 -0.12257934672E+03  0.13460287017E+03  0.41800000000E+01 0.  1.
         -5    1    3    3    0  502  0.38405520443E+02 -0.41346964125E+02 -0.44546958065E+03  0.44904919009E+03  0.41800000000E+01 0.  1.
        -11    1    1    2    0    0 -0.27877585463E+02 -0.53985748800E+01 -0.16488242787E+02  0.32835446276E+02  0.00000000000E+00 0.  1.
         11    1    1    2    0    0  0.44794118899E+02  0.50518385445E+02 -0.81126331199E+02  0.10554668147E+03  0.00000000000E+00 0. -1.
</event>
<event>
 7    1  0.2334784E-009  0.8016176E+02  0.7561462E-02  0.1328593E+00
         -2   -1    0    0    0  501 -0.00000000000E+00  0.00000000000E+00  0.22173399076E+02  0.22173399076E+02  0.00000000000E+00 0.  1.
          2   -1    0    0  501    0  0.00000000000E+00 -0.00000000000E+00 -0.59255762671E+03  0.59255762671E+03  0.00000000000E+00 0. -1.
         25    2    1    2    0    0 -0.26567523607E+02 -0.23104801400E+02 -0.37691861174E+03  0.39869074401E+03  0.12508798633E+03 0.  0.
          5    1    3    3  502    0 -0.55544388879E+02 -0.50693993756E+01 -0.68834068367E+02  0.88693175126E+02  0.41800000000E+01 0. -1.
         -5    1    3    3    0  502  0.28976865272E+02 -0.18035402025E+02 -0.30808454338E+03  0.30999756889E+03  0.41800000000E+01 0. -1.
        -11    1    1    2    0    0  0.40437187520E+02 -0.28919894727E+01 -0.31294286495E+02  0.51213885859E+02  0.00000000000E+00 0.  1.
         11    1    1    2    0    0 -0.13869663913E+02  0.25996790873E+02 -0.16217132939E+03  0.16482639591E+03  0.00000000000E+00 0. -1.
</event>
<event>
 7    1  0.2334784E-009  0.8356850E+02  0.7561462E-02  0.1319219E+00
          1   -1    0    0  501    0  0.00000000000E+00  0.00000000000E+00  0.96365011848E+02  0.96365011848E+02  0.00000000000E+00 0. -1.
         -1   -1    0    0    0  501 -0.00000000000E+00 -0.00000000000E+00 -0.15412168483E+03  0.15412168483E+03  0.00000000000E+00 0.  1.
         25    2    1    2    0    0 -0.42396114740E+02 -0.22538271514E+02 -0.63872698238E+02  0.14843372180E+03  0.12508974363E+03 0.  0.
          5    1    3    3  502    0 -0.38024439043E+02  0.37064385783E+01  0.31273587238E+02  0.49549019266E+02  0.41800000000E+01 0. -1.
         -5    1    3    3    0  502 -0.43716756970E+01 -0.26244710092E+02 -0.95146285476E+02  0.98884702538E+02  0.41800000000E+01 0. -1.
        -11    1    1    2    0    0  0.67084400307E+02 -0.17934850280E+01  0.19114925472E+01  0.67135587857E+02  0.00000000000E+00 0.  1.
         11    1    1    2    0    0 -0.24688285567E+02  0.24331756542E+02  0.42045327098E+01  0.34917387015E+02  0.00000000000E+00 0. -1.
</event>
<event>
 7    1  0.2334784E-009  0.9316729E+02  0.7561462E-02  0.1295358E+00
          3   -1    0    0  501    0  0.00000000000E+00  0.00000000000E+00  0.38705442543E+03  0.38705442543E+03  0.00000000000E+00 0. -1.
         -3   -1    0    0    0  501 -0.00000000000E+00 -0.00000000000E+00 -0.44485946349E+02  0.44485946349E+02  0.00000000000E+00 0.  1.
         25    2    1    2    0    0 -0.24026014263E+02  0.49038101708E+02  0.27055305676E+03  0.30303233068E+03  0.12509057572E+03 0.  0.
          5    1    3    3  502    0 -0.14726243937E+02  0.88793592605E+02  0.14281841181E+03  0.16886602826E+03  0.41800000000E+01 0.  1.
         -5    1    3    3    0  502 -0.92997703268E+01 -0.39755490897E+02  0.12773464496E+03  0.13416630243E+03  0.41800000000E+01 0.  1.
        -11    1    1    2    0    0  0.98151595643E+01 -0.29055188105E+02 -0.17763150884E+02  0.35441089746E+02  0.00000000000E+00 0.  1.
         11    1    1    2    0    0  0.14210854699E+02 -0.19982913603E+02  0.89778573203E+02  0.93066951351E+02  0.00000000000E+00 0. -1.
</event>
<event>
 7    1  0.2334784E-009  0.1003160E+03  0.7561462E-02  0.1279633E+00
         -2   -1    0    0    0  501 -0.00000000000E+00  0.00000000000E+00  0.95334673601E+03  0.95334673601E+03  0.00000000000E+00 0.  1.
          2   -1    0    0  501    0  0.00000000000E+00 -0.00000000000E+00 -0.13181300220E+02  0.13181300220E+02  0.00000000000E+00 0. -1.
         25    2    1    2    0    0  0.15846970488E+01  0.22101609180E+02  0.62195596329E+03  0.63479664805E+03  0.12508625707E+03 0.  0.
          5    1    3    3  502    0 -0.46347201942E+02  0.34246047691E+02  0.15870040224E+03  0.16889092628E+03  0.41800000000E+01 0. -1.
         -5    1    3    3    0  502  0.47931898990E+02 -0.12144438511E+02  0.46325556106E+03  0.46590572177E+03  0.41800000000E+01 0. -1.
        -11    1    1    2    0    0  0.44107321167E+02 -0.47792140764E+01  0.16886563463E+03  0.17459638950E+03  0.00000000000E+00 0.  1.
         11    1    1    2    0    0 -0.45692018216E+02 -0.17322395104E+02  0.14934383787E+03  0.15713499868E+03  0.00000000000E+00 0. -1.
</event>
<event>
 7    1  0.2334784E-009  0.1120160E+03  0.7561462E-02  0.1256881E+00
          2   -1    0    0  501    0  0.00000000000E+00  0.00000000000E+00  0.25682199461E+02  0.25682199461E+02  0.00000000000E+00 0. -1.
         -2   -1    0    0    0  501 -0.00000000000E+00 -0.00000000000E+00 -0.50577996218E+03  0.50577996218E+03  0.00000000000E+00 0.  1.
         25    2    1    2    0    0 -0.30975201060E+02  0.12238534892E+02 -0.30262796127E+03  0.32915109159E+03  0.12509002092E+03 0.  0.
          5    1    3    3  502    0 -0.33460894355E+02 -0.53330532424E+02 -0.13238369490E+03  0.14665160147E+03  0.41800000000E+01 0. -1.
         -5    1    3    3    0  502  0.24856932954E+01  0.65569067316E+02 -0.17024426637E+03  0.18249949012E+03  0.41800000000E+01 0. -1.
        -11    1    1    2    0    0  0.13678809811E+02  0.38882255060E+02 -0.57356797419E+02  0.70631025807E+02  0.00000000000E+00 0.  1.
         11    1    1    2    0    0  0.17296391249E+02 -0.51120789952E+02 -0.12011300403E+03  0.13168004424E+03  0.00000000000E+00 0. -1.
</event>
<event>
 7    1  0.2334784E-009  0.1318685E+03  0.7561462E-02  0.1224709E+00
         -4   -1    0    0    0  501 -0.00000000000E+00  0.00000000000E+00  0.17338257149E+03  0.17338257149E+03  0.00000000000E+00 0. -1.
          4   -1    0    0  501    0  0.00000000000E+00 -0.00000000000E+00 -0.15713365123E+03  0.15713365123E+03  0.00000000000E+00 0.  1.
         25    2    1    2    0    0 -0.79708004503E+02  0.26739967570E+02  0.10062325717E+03  0.18119538137E+03  0.12505332661E+03 0.  0.
          5    1    3    3  502    0 -0.36760376983E+01 -0.41916263691E+02  0.80195740699E+01  0.43038034147E+02  0.41800000000E+01 0. -1.
         -5    1    3    3    0  502 -0.76031966805E+02  0.68656231261E+02  0.92603683098E+02  0.13815734722E+03  0.41800000000E+01 0. -1.
        -11    1    1    2    0    0 -0.69686219357E+01  0.19484124058E+02 -0.31703726303E+02  0.37859200249E+02  0.00000000000E+00 0.  1.
         11    1    1    2    0    0  0.86676626439E+02 -0.46224091629E+02 -0.52670610604E+02  0.11146164111E+03  0.00000000000E+00 0. -1.
</event>
<event>
 7    1  0.2334784E-009  0.1236537E+03  0.7561462E-02  0.1237188E+00
         -1   -1    0    0    0  501 -0.00000000000E+00  0.00000000000E+00  0.58911941195E+02  0.58911941195E+02  0.00000000000E+00 0.  1.
          1   -1    0    0  501    0  0.00000000000E+00 -0.00000000000E+00 -0.30866366693E+03  0.30866366693E+03  0.00000000000E+00 0. -1.
         25    2    1    2    0    0 -0.47345186938E+02  0.60180504145E+02 -0.16650212086E+03  0.22188710667E+03  0.12509065534E+03 0.  0.
          5    1    3    3  502    0 -0.15737220046E+02 -0.31423471923E+02 -0.83536128913E+01  0.36364129728E+02  0.41800000000E+01 0. -1.
         -5    1    3    3    0  502 -0.31607966891E+02  0.91603976068E+02 -0.15814850797E+03  0.18552297695E+03  0.41800000000E+01 0. -1.
        -11    1    1    2    0    0  0.10637985536E+02  0.22263992685E+02 -0.28801127354E+01  0.24842446658E+02  0.00000000000E+00 0.  1.
         11    1    1    2    0    0  0.36707201401E+02 -0.82444496831E+02 -0.80369492141E+02  0.12084605479E+03  0.00000000000E+00 0. -1.
</event>
<event>
 7    1  0.2334784E-009  0.1291620E+03  0.7561462E-02  0.1228704E+00
          3   -1    0    0  501    0  0.00000000000E+00  0.00000000000E+00  0.17979000890E+03  0.17979000890E+03  0.00000000000E+00 0. -1.
         -3   -1    0    0    0  501 -0.00000000000E+00 -0.00000000000E+00 -0.11108160108E+03  0.11108160108E+03  0.00000000000E+00 0.  1.
         25    2    1    2    0    0  0.82933933617E+02 -0.19678046367E+01  0.36844207458E+02  0.15454756852E+03  0.12508215585E+03 0.  0.
          5    1    3    3  502    0 -0.30053355445E+02 -0.18895882288E+02  0.76688373562E+01  0.36558747344E+02  0.41800000000E+01 0. -1.
         -5    1    3    3    0  502  0.11298728906E+03  0.16928077651E+02  0.29175370101E+02  0.11798882118E+03  0.41800000000E+01 0. -1.
        -11    1    1    2    0    0 -0.53124519989E+02  0.35109814523E+02 -0.21114224263E+02  0.67087436723E+02  0.00000000000E+00 0.  1.
         11    1    1    2    0    0 -0.29809413628E+02 -0.33142009886E+02  0.52978424623E+02  0.69236604738E+02  0.00000000000E+00 0. -1.
</event>
<event>
 7    1  0.2334784E-009  0.9006537E+02  0.7561462E-02  0.1302693E+00
          1   -1    0    0  501    0  0.00000000000E+00  0.00000000000E+00  0.84138306402E+02  0.84138306402E+02  0.00000000000E+00 0. -1.
         -1   -1    0    0    0  501 -0.00000000000E+00 -0.00000000000E+00 -0.23823646903E+03  0.23823646903E+03  0.00000000000E+00 0.  1.
         25    2    1    2    0    0 -0.83419165318E+01 -0.11923740185E+02  0.12178192264E+02  0.12650487024E+03  0.12507362102E+03 0.  0.
          5    1    3    3  502    0  0.31676319058E+01  0.38576797996E+02  0.49171785142E+02  0.62717940731E+02  0.41800000000E+01 0. -1.
         -5    1    3    3    0  502 -0.11509548438E+02 -0.50500538182E+02 -0.36993592878E+02  0.63786929507E+02  0.41800000000E+01 0. -1.
        -11    1    1    2    0    0 -0.32954071598E+02  0.29618070737E+02 -0.13235664342E+03  0.13957607964E+03  0.00000000000E+00 0. -1.
         11    1    1    2    0    0  0.41295988130E+02 -0.17694330552E+02 -0.33919711466E+02  0.56293825551E+02  0.00000000000E+00 0.  1.
</event>
<event>
 7    1  0.2334784E-009  0.1614453E+03  0.7561462E-02  0.1187075E+00
         -4   -1    0    0    0  501 -0.00000000000E+00  0.00000000000E+00  0.31312358545E+03  0.31312358545E+03  0.00000000000E+00 0.  1.
          4   -1    0    0  501    0  0.00000000000E+00 -0.00000000000E+00 -0.10553750054E+03  0.10553750054E+03  0.00000000000E+00 0. -1.
         25    2    1    2    0    0 -0.13121576343E+03  0.48941810262E+02  0.63818021252E+02  0.19832479688E+03  0.12508840016E+03 0.  0.
          5    1    3    3  502    0 -0.34524186520E+02  0.60862865890E+02  0.71977020750E+02  0.10047075104E+03  0.41800000000E+01 0. -1.
         -5    1    3    3    0  502 -0.96691576914E+02 -0.11921055628E+02 -0.81589994985E+01  0.97854045835E+02  0.41800000000E+01 0. -1.
        -11    1    1    2    0    0  0.34977629425E+02  0.16726911652E+02  0.76599753135E+02  0.85853050697E+02  0.00000000000E+00 0.  1.
         11    1    1    2    0    0  0.96238134009E+02 -0.65668721914E+02  0.67168310530E+02  0.13448323842E+03  0.00000000000E+00 0. -1.
</event>
<event>
 7    1  0.2334784E-009  0.9187792E+02  0.7561462E-02  0.1298367E+00
          1   -1    0    0  501    0  0.00000000000E+00  0.00000000000E+00  0.23384287125E+02  0.23384287125E+02  0.00000000000E+00 0. -1.
         -1   -1    0    0    0  501 -0.00000000000E+00 -0.00000000000E+00 -0.65315535028E+03  0.65315535028E+03  0.00000000000E+00 0.  1.
         25    2    1    2    0    0 -0.42300373157E+02 -0.34433887783E+02 -0.40904280704E+03  0.43120782624E+03  0.12509659157E+03 0.  0.
          5    1    3    3  502    0  0.26657665770E+02 -0.55711961416E+01 -0.17656582362E+02  0.32724557620E+02  0.41800000000E+01 0.  1.
         -5    1    3    3    0  502 -0.68958038927E+02 -0.28862691642E+02 -0.39138622468E+03  0.39848326862E+03  0.41800000000E+01 0.  1.
        -11    1    1    2    0    0  0.12788179407E+02  0.47401565114E+02 -0.20235917934E+03  0.20822988107E+03  0.00000000000E+00 0.  1.
         11    1    1    2    0    0  0.29512193750E+02 -0.12967677331E+02 -0.18369076777E+02  0.37101930097E+02  0.00000000000E+00 0. -1.
</event>
<event>
 7    1  0.2334784E-009  0.1161607E+03  0.7561462E-02  0.1249569E+00
          2   -1    0    0  501    0  0.00000000000E+00  0.00000000000E+00  0.15260399943E+03  0.15260399943E+03  0.00000000000E+00 0. -1.
         -2   -1    0    0    0  501 -0.00000000000E+00 -0.00000000000E+00 -0.12552355255E+03  0.12552355255E+03  0.00000000000E+00 0.  1.
         25    2    1    2    0    0 -0.26476500388E+01 -0.82031187831E+02  0.29698386819E+02  0.15252987102E+03  0.12508893455E+03 0.  0.
          5    1    3    3  502    0 -0.29007577719E+02  0.23132937686E+02  0.22941103653E+02  0.43821672810E+02  0.41800000000E+01 0. -1.
         -5    1    3    3    0  502  0.26359927680E+02 -0.10516412552E+03  0.67572831659E+01  0.10870819821E+03  0.41800000000E+01 0. -1.
        -11    1    1    2    0    0 -0.74631819532E+01  0.71495986589E+02  0.38795634554E+02  0.81685227818E+02  0.00000000000E+00 0. -1.
         11    1    1    2    0    0  0.10110831992E+02  0.10535201242E+02 -0.41413574487E+02  0.43912453138E+02  0.00000000000E+00 0.  1.
</event>
<event>
 7    1  0.2334784E-009  0.1734048E+03  0.7561462E-02  0.1174343E+00
         -2   -1    0    0    0  501 -0.00000000000E+00  0.00000000000E+00  0.28941772518E+02  0.28941772518E+02  0.00000000000E+00 0. -1.
          2   -1    0    0  501    0  0.00000000000E+00 -0.00000000000E+00 -0.13086123532E+04  0.13086123532E+04  0.00000000000E+00 0.  1.
         25    2    1    2    0    0 -0.72368158765E+02  0.11667270158E+03 -0.96319259636E+03  0.98093715363E+03  0.12509217399E+03 0.  0.
          5    1    3    3  502    0  0.35232042376E+02  0.18548996719E+02 -0.21317731062E+03  0.21690412687E+03  0.41800000000E+01 0. -1.
         -5    1    3    3    0  502 -0.10760020114E+03  0.98123704857E+02 -0.75001528573E+03  0.76403302676E+03  0.41800000000E+01 0. -1.
        -11    1    1    2    0    0  0.69115677068E+01 -0.90231670619E+02 -0.21218893979E+03  0.23068088417E+03  0.00000000000E+00 0. -1.
         11    1    1    2    0    0  0.65456591059E+02 -0.26441030957E+02 -0.10428904453E+03  0.12593608792E+03  0.00000000000E+00 0.  1.
</event>
<event>
 7    1  0.2334784E-009  0.1007478E+03  0.7561462E-02  0.1278731E+00
         -1   -1    0    0    0  501 -0.00000000000E+00  0.00000000000E+00  0.16036723615E+02  0.16036723615E+02  0.00000000000E+00 0.  1.
          1   -1    0    0  501    0  0.00000000000E+00 -0.00000000000E+00 -0.74296946746E+03  0.74296946746E+03  0.00000000000E+00 0. -1.
         25    2    1    2    0    0 -0.18706854604E+02  0.20935206983E+01 -0.44177601789E+03  0.45953098809E+03  0.12509336433E+03 0.  0.
          5    1    3    3  502    0  0.30791505434E+02 -0.36033763698E+02 -0.85993137741E+02  0.98279403090E+02  0.41800000000E+01 0.  1.
         -5    1    3    3    0  502 -0.49498360038E+02  0.38127284397E+02 -0.35578288015E+03  0.36125158500E+03  0.41800000000E+01 0.  1.
        -11    1    1    2    0    0 -0.13008646715E+02  0.38004565923E+02 -0.13535376846E+03  0.14118857799E+03  0.00000000000E+00 0.  1.
         11    1    1    2    0    0  0.31715501319E+02 -0.40098086621E+02 -0.14980295750E+03  0.15828662499E+03  0.00000000000E+00 0. -1.
</event>
<event>
 7    1  0.2334784E-009  0.2273186E+03  0.7561462E-02  0.1128541E+00
          1   -1    0    0  501    0  0.00000000000E+00  0.00000000000E+00  0.55141111113E+03  0.55141111113E+03  0.00000000000E+00 0. -1.
         -1   -1    0    0    0  501 -0.00000000000E+00 -0.00000000000E+00 -0.11256457817E+03  0.11256457817E+03  0.00000000000E+00 0.  1.
         25    2    1    2    0    0 -0.12350092528E+03  0.17695893842E+03  0.14368222056E+03  0.28785152252E+03  0.12508786544E+03 0.  0.
          5    1    3    3  502    0 -0.44191237495E+02  0.26509870804E+02 -0.16411273158E+02  0.54244271662E+02  0.41800000000E+01 0. -1.
         -5    1    3    3    0  502 -0.79309687787E+02  0.15044906761E+03  0.16009349372E+03  0.23360725086E+03  0.41800000000E+01 0. -1.
        -11    1    1    2    0    0  0.11075944218E+03 -0.84070810158E+02  0.18580498527E+03  0.23207552155E+03  0.00000000000E+00 0.  1.
         11    1    1    2    0    0  0.12741483105E+02 -0.92888128259E+02  0.10935932712E+03  0.14404864523E+03  0.00000000000E+00 0. -1.
</event>
<event>
 7    1  0.2334784E-009  0.1116551E+03  0.7561462E-02  0.1257535E+00
          1   -1    0    0  501    0  0.00000000000E+00  0.00000000000E+00  0.26523435343E+03  0.26523435343E+03  0.00000000000E+00 0. -1.
         -1   -1    0    0    0  501 -0.00000000000E+00 -0.00000000000E+00 -0.74967954674E+02  0.74967954674E+02  0.00000000000E+00 0.  1.
         25    2    1    2    0    0  0.24352368769E+02  0.82072858132E+02  0.69713108470E+02  0.16684154579E+03  0.12508873651E+03 0.  0.
          5    1    3    3  502    0  0.14292877328E+02 -0.68919344924E+01  0.75272275227E+02  0.77040073476E+02  0.41800000000E+01 0. -1.
         -5    1    3    3    0  502  0.10059491442E+02  0.88964792624E+02 -0.55591667570E+01  0.89801472314E+02  0.41800000000E+01 0. -1.
        -11    1    1    2    0    0 -0.38639311332E+02 -0.92060119402E+02  0.11974998954E+03  0.15591062170E+03  0.00000000000E+00 0. -1.
         11    1    1    2    0    0  0.14286942562E+02  0.99872612701E+01  0.80330075226E+00  0.17450140617E+02  0.00000000000E+00 0.  1.
</event>
<event>
 7    1  0.2334784E-009  0.1323621E+03  0.7561462E-02  0.1223992E+00
         -1   -1    0    0    0  501 -0.00000000000E+00  0.00000000000E+00  0.29411097922E+02  0.29411097922E+02  0.00000000000E+00 0.  1.
          1   -1    0    0  501    0  0.00000000000E+00 -0.00000000000E+00 -0.69443952686E+03  0.69443952686E+03  0.00000000000E+00 0. -1.
         25    2    1    2    0    0  0.66602325997E+02  0.55318108216E+02 -0.45698071314E+03  0.48163799476E+03  0.12509125827E+03 0.  0.
          5    1    3    3  502    0  0.99917701736E+02  0.61686491476E+02 -0.36884663405E+03  0.38710990972E+03  0.41800000000E+01 0. -1.
         -5    1    3    3    0  502 -0.33315375740E+02 -0.63683832603E+01 -0.88134079085E+02  0.94528085045E+02  0.41800000000E+01 0. -1.
        -11    1    1    2    0    0 -0.64594604921E+02 -0.73190195011E+01 -0.67644919834E+02  0.93818261606E+02  0.00000000000E+00 0.  1.
         11    1    1    2    0    0 -0.20077210752E+01 -0.47999088715E+02 -0.14040279596E+03  0.14839436841E+03  0.00000000000E+00 0. -1.
</event>
<event>
 7    1  0.2440956E-009  0.1008266E+03  0.7561462E-02  0.1278567E+00
          1   -1    0    0  501    0  0.00000000000E+00  0.00000000000E+00  0.67674624311E+03  0.67674624311E+03  0.00000000000E+00 0. -1.
         -1   -1    0    0    0  501 -0.00000000000E+00 -0.00000000000E+00 -0.26113649386E+02  0.26113649386E+02  0.00000000000E+00 0.  1.
         25    2    1    2    0    0  0.30872289567E+02 -0.67867833716E+02  0.30895661671E+03  0.34155612990E+03  0.12508899931E+03 0.  0.
          5    1    3    3  502    0 -0.13962797737E+02 -0.17019182794E+02 -0.27135579456E+01  0.22570957010E+02  0.41800000000E+01 0.  1.
         -5    1    3    3    0  502  0.44835087304E+02 -0.50848650922E+02  0.31167017466E+03  0.31898517289E+03  0.41800000000E+01 0.  1.
        -11    1    1    2    0    0 -0.37825833844E+02 -0.49745794299E+01  0.17758305553E+03  0.18163502349E+03  0.00000000000E+00 0. -1.
         11    1    1    2    0    0  0.69535442765E+01  0.72842413146E+02  0.16409292148E+03  0.17966873910E+03  0.00000000000E+00 0.  1.
</event>
<event>
 7    1  0.2334784E-009  0.6728751E+02  0.7561462E-02  0.1369568E+00
         -1   -1    0    0    0  501 -0.00000000000E+00  0.00000000000E+00  0.20315895263E+02  0.20315895263E+02  0.00000000000E+00 0.  1.
          1   -1    0    0  501    0  0.00000000000E+00 -0.00000000000E+00 -0.82403270544E+03  0.82403270544E+03  0.00000000000E+00 0. -1.
         25    2    1    2    0    0 -0.49041594319E+02 -0.22469218262E+01 -0.60510029182E+03  0.61984139105E+03  0.12508741050E+03 0.  0.
          5    1    3    3  502    0 -0.26635741652E+02  0.67970595006E+00 -0.59347695205E+03  0.59408946275E+03  0.41800000000E+01 0. -1.
         -5    1    3    3    0  502 -0.22405852667E+02 -0.29266277763E+01 -0.11623339774E+02  0.25751928304E+02  0.41800000000E+01 0. -1.
        -11    1    1    2    0    0  0.62411108055E+02  0.17030335426E+02 -0.19335752101E+03  0.20389288773E+03  0.00000000000E+00 0. -1.
         11    1    1    2    0    0 -0.13369513735E+02 -0.14783413600E+02 -0.52589973329E+01  0.20614321918E+02  0.00000000000E+00 0.  1.
</event>
<event>
 7    1  0.2334784E-009  0.1056298E+03  0.7561462E-02  0.1268884E+00
         -1   -1    0    0    0  501 -0.00000000000E+00  0.00000000000E+00  0.72945184622E+02  0.72945184622E+02  0.00000000000E+00 0.  1.
          1   -1    0    0  501    0  0.00000000000E+00 -0.00000000000E+00 -0.22130793922E+03  0.22130793922E+03  0.00000000000E+00 0. -1.
         25    2    1    2    0    0  0.40133602782E+02  0.30517555014E+02 -0.13049541489E+03  0.18766465716E+03  0.12508774122E+03 0.  0.
          5    1    3    3  502    0  0.50101545596E+02 -0.20380890610E+02 -0.12384768221E+03  0.13520823334E+03  0.41800000000E+01 0. -1.
         -5    1    3    3    0  502 -0.99679428140E+01  0.50898445623E+02 -0.66477326812E+01  0.52456423826E+02  0.41800000000E+01 0. -1.
        -11    1    1    2    0    0 -0.10858165862E+02 -0.61441253317E+02 -0.12941487845E+02  0.63721342443E+02  0.00000000000E+00 0.  1.
         11    1    1    2    0    0 -0.29275436921E+02  0.30923698304E+02 -0.49258518596E+01  0.42867124235E+02  0.00000000000E+00 0. -1.
</event>
<event>
 7    1  0.2334784E-009  0.1184455E+03  0.7561462E-02  0.1245684E+00
          3   -1    0    0  501    0  0.00000000000E+00  0.00000000000E+00  0.10704728551E+03  0.10704728551E+03  0.00000000000E+00 0. -1.
         -3   -1    0    0    0  501 -0.00000000000E+00 -0.00000000000E+00 -0.35283430241E+03  0.35283430241E+03  0.00000000000E+00 0.  1.
         25    2    1    2    0    0  0.18010394795E+02 -0.11167319254E+03 -0.26553618150E+03  0.31456915077E+03  0.12509600585E+03 0.  0.
          5    1    3    3  502    0 -0.14516397376E+02 -0.32729459802E+02 -0.20898769251E+03  0.21207374037E+03  0.41800000000E+01 0.  1.
         -5    1    3    3    0  502  0.32526792172E+02 -0.78943732738E+02 -0.56548488984E+02  0.10249541040E+03  0.41800000000E+01 0.  1.
        -11    1    1    2    0    0 -0.97964084078E+00  0.74100064431E+02 -0.30639690002E+02  0.80190833942E+02  0.00000000000E+00 0.  1.
         11    1    1    2    0    0 -0.17030753954E+02  0.37573128109E+02  0.50388854605E+02  0.65121603209E+02  0.00000000000E+00 0. -1.
</event>
<event>
 7    1  0.2334784E-009  0.1026252E+03  0.7561462E-02  0.1274870E+00
          1   -1    0    0  501    0  0.00000000000E+00  0.00000000000E+00  0.35553854244E+03  0.35553854244E+03  0.00000000000E+00 0. -1.
         -1   -1    0    0    0  501 -0.00000000000E+00 -0.00000000000E+00 -0.43390750585E+02  0.43390750585E+02  0.00000000000E+00 0.  1.
         25    2    1    2    0    0 -0.59122486012E+01 -0.50505887169E+02  0.12261810784E+03  0.18239535770E+03  0.12508823612E+03 0.  0.
          5    1    3    3  502    0  0.40813255967E+02 -0.23996370054E+02 -0.10044312008E+01  0.47539761468E+02  0.41800000000E+01 0.  1.
         -5    1    3    3    0  502 -0.46725504569E+02 -0.26509517116E+02  0.12362253904E+03  0.13485559623E+03  0.41800000000E+01 0.  1.
        -11    1    1    2    0    0 -0.39485843495E+02  0.42004390345E+02  0.11896519066E+03  0.13219764458E+03  0.00000000000E+00 0.  1.
         11    1    1    2    0    0  0.45398092096E+02  0.85014968248E+01  0.70564493352E+02  0.84336290743E+02  0.00000000000E+00 0. -1.
</event>
<event>
 7    1  0.2334784E-009  0.1258401E+03  0.7561462E-02  0.1233762E+00
         -1   -1    0    0    0  501 -0.00000000000E+00  0.00000000000E+00  0.15611185625E+03  0.15611185625E+03  0.00000000000E+00 0.  1.
          1   -1    0    0  501    0  0.00000000000E+00 -0.00000000000E+00 -0.30124644255E+03  0.30124644255E+03  0.00000000000E+00 0. -1.
         25    2    1    2    0    0 -0.15660044040E+02  0.54284107623E+02  0.11025102964E+03  0.17604481051E+03  0.12507791352E+03 0.  0.
          5    1    3    3  502    0 -0.14579601125E+00 -0.40163319918E+02  0.43030704005E+02  0.59010400867E+02  0.41800000000E+01 0. -1.
         -5    1    3    3    0  502 -0.15514248028E+02  0.94447427542E+02  0.67220325639E+02  0.11703440964E+03  0.41800000000E+01 0. -1.
        -11    1    1    2    0    0  0.14437557698E+02  0.28898202211E+02 -0.99585407183E+02  0.10469385124E+03  0.00000000000E+00 0. -1.
         11    1    1    2    0    0  0.12224863418E+01 -0.83182309835E+02 -0.15580020876E+03  0.17661963705E+03  0.00000000000E+00 0.  1.
</event>
<event>
 7    1  0.2334784E-009  0.1544101E+03  0.7561462E-02  0.1195156E+00
          2   -1    0    0  501    0  0.00000000000E+00  0.00000000000E+00  0.40483653314E+03  0.40483653314E+03  0.00000000000E+00 0. -1.
         -2   -1    0    0    0  501 -0.00000000000E+00 -0.00000000000E+00 -0.73191403990E+02  0.73191403990E+02  0.00000000000E+00 0.  1.
         25    2    1    2    0    0 -0.10194888069E+03 -0.47403801535E+02  0.79654032259E+02  0.18609951212E+03  0.12509024296E+03 0.  0.
          5    1    3    3  502    0 -0.15339423787E+02 -0.74189718482E+02  0.48945837380E+02  0.90291636642E+02  0.41800000000E+01 0.  1.
         -5    1    3    3    0  502 -0.86609456899E+02  0.26785916947E+02  0.30708194879E+02  0.95807875478E+02  0.41800000000E+01 0.  1.
        -11    1    1    2    0    0  0.13785979885E+02 -0.24708571487E+02  0.86657408673E+02  0.91159603028E+02  0.00000000000E+00 0. -1.
         11    1    1    2    0    0  0.88162900802E+02  0.72112373022E+02  0.16533368822E+03  0.20076882199E+03  0.00000000000E+00 0.  1.
</event>
<event>
 7    1  0.2334784E-009  0.1297928E+03  0.7561462E-02  0.1227764E+00
          2   -1    0    0  501    0  0.00000000000E+00  0.00000000000E+00  0.31675761764E+03  0.31675761764E+03  0.00000000000E+00 0. -1.
         -2   -1    0    0    0  501 -0.00000000000E+00 -0.00000000000E+00 -0.57841930216E+02  0.57841930216E+02  0.00000000000E+00 0.  1.
         25    2    1    2    0    0  0.61898235846E+02 -0.59937819145E+02  0.14936880601E+03  0.21303317509E+03  0.12509260456E+03 0.  0.
          5    1    3    3  502    0 -0.32170850757E+02 -0.37302530090E+01  0.71218557046E+01  0.33422621899E+02  0.41800000000E+01 0. -1.
         -5    1    3    3    0  502  0.94069086604E+02 -0.56207566136E+02  0.14224695031E+03  0.17961055319E+03  0.41800000000E+01 0. -1.
        -11    1    1    2    0    0 -0.68031165031E+02  0.12173111019E+02  0.76866367626E+02  0.10336760866E+03  0.00000000000E+00 0.  1.
         11    1    1    2    0    0  0.61329291848E+01  0.47764708126E+02  0.32680513784E+02  0.58198764110E+02  0.00000000000E+00 0. -1.
</event>
<event>
 7    1  0.2334784E-009  0.7782873E+02  0.7561462E-02  0.1335329E+00
         -2   -1    0    0    0  501 -0.00000000000E+00  0.00000000000E+00  0.20223086181E+02  0.20223086181E+02  0.00000000000E+00 0. -1.
          2   -1    0    0  501    0  0.00000000000E+00 -0.00000000000E+00 -0.67241080492E+03  0.67241080492E+03  0.00000000000E+00 0.  1.
         25    2    1    2    0    0  0.16427394427E+02 -0.19583132199E+02 -0.54846114802E+03  0.56313306521E+03  0.12512337865E+03 0.  0.
          5    1    3    3  502    0 -0.28106360491E+02  0.22762982119E+02 -0.55742939043E+02  0.66579790539E+02  0.41800000000E+01 0. -1.
         -5    1    3    3    0  502  0.44533754918E+02 -0.42346114318E+02 -0.49271820898E+03  0.49655327467E+03  0.41800000000E+01 0. -1.
        -11    1    1    2    0    0  0.18675777706E+02  0.33287087716E+01 -0.83927340314E+02  0.86044543274E+02  0.00000000000E+00 0.  1.
         11    1    1    2    0    0 -0.35103172133E+02  0.16254423427E+02 -0.19799230405E+02  0.43456282623E+02  0.00000000000E+00 0. -1.
</event>
<event>
 7    1  0.2334784E-009  0.7006610E+02  0.7561462E-02  0.1359868E+00
          2   -1    0    0  501    0  0.00000000000E+00  0.00000000000E+00  0.55720492810E+02  0.55720492810E+02  0.00000000000E+00 0. -1.
         -2   -1    0    0    0  501 -0.00000000000E+00 -0.00000000000E+00 -0.29699491429E+03  0.29699491429E+03  0.00000000000E+00 0.  1.
         25    2    1    2    0    0  0.63573938883E+02  0.17661679421E+02 -0.15745193910E+03  0.21164942041E+03  0.12510309113E+03 0.  0.
          5    1    3    3  502    0  0.64338976468E+02  0.18143821227E+02 -0.17824875768E+03  0.19041742083E+03  0.41800000000E+01 0.  1.
         -5    1    3    3    0  502 -0.76503758438E+00 -0.48214180631E+00  0.20796818582E+02  0.21231999584E+02  0.41800000000E+01 0.  1.
        -11    1    1    2    0    0 -0.38494692619E+02 -0.20541588600E+02  0.92743249027E+01  0.44607301246E+02  0.00000000000E+00 0. -1.
         11    1    1    2    0    0 -0.25079246264E+02  0.28799091793E+01 -0.93096807289E+02  0.96458685444E+02  0.00000000000E+00 0.  1.
</event>
<event>
 7    1  0.2334784E-009  0.9270486E+02  0.7561462E-02  0.1296431E+00
         -2   -1    0    0    0  501 -0.00000000000E+00  0.00000000000E+00  0.31995766391E+03  0.31995766391E+03  0.00000000000E+00 0.  1.
          2   -1    0    0  501    0  0.00000000000E+00 -0.00000000000E+00 -0.52160154118E+02  0.52160154118E+02  0.00000000000E+00 0. -1.
         25    2    1    2    0    0  0.41853001480E+02  0.13660311817E+02  0.51919674734E+02  0.14241203434E+03  0.12508899652E+03 0.  0.
          5    1    3    3  502    0  0.78481559673E+02  0.34790867464E+02  0.17463853871E+02  0.87705292085E+02  0.41800000000E+01 0.  1.
         -5    1    3    3    0  502 -0.36628558193E+02 -0.21130555647E+02  0.34455820863E+02  0.54706742259E+02  0.41800000000E+01 0.  1.
        -11    1    1    2    0    0 -0.31960554053E+02 -0.25966096661E+02  0.20804392330E+03  0.21208014809E+03  0.00000000000E+00 0.  1.
         11    1    1    2    0    0 -0.98924474266E+01  0.12305784844E+02  0.78339117585E+01  0.17625635596E+02  0.00000000000E+00 0. -1.
</event>
<event>
 7    1  0.2334784E-009  0.1037403E+03  0.7561462E-02  0.1272622E+00
          3   -1    0    0  501    0  0.00000000000E+00  0.00000000000E+00  0.20274782007E+03  0.20274782007E+03  0.00000000000E+00 0. -1.
         -3   -1    0    0    0  501 -0.00000000000E+00 -0.00000000000E+00 -0.68110153440E+02  0.68110153440E+02  0.00000000000E+00 0.  1.
         25    2    1    2    0    0 -0.25764779637E+02  0.29447601212E+02  0.10193977748E+03  0.16604822951E+03  0.12509720703E+03 0.  0.
          5    1    3    3  502    0 -0.62561382414E+01 -0.37522183191E+02  0.86352195823E+02  0.94452250479E+02  0.41800000000E+01 0.  1.
         -5    1    3    3    0  502 -0.19508641395E+02  0.66969784403E+02  0.15587581652E+02  0.71595979034E+02  0.41800000000E+01 0.  1.
        -11    1    1    2    0    0  0.55690534398E+02  0.22559917343E+01  0.21990195081E+02  0.59917391465E+02  0.00000000000E+00 0. -1.
         11    1    1    2    0    0 -0.29925754762E+02 -0.31703592947E+02  0.10707694079E+02  0.44892352537E+02  0.00000000000E+00 0.  1.
</event>
<event>
 7    1  0.2334784E-009  0.1392912E+03  0.7561462E-02  0.1214286E+00
         -2   -1    0    0    0  501 -0.00000000000E+00  0.00000000000E+00  0.44437143274E+03  0.44437143274E+03  0.00000000000E+00 0.  1.
          2   -1    0    0  501    0  0.00000000000E+00 -0.00000000000E+00 -0.52226263403E+02  0.52226263403E+02  0.00000000000E+00 0. -1.
         25    2    1    2    0    0 -0.25015966490E+02 -0.10014628547E+03  0.25714330184E+03  0.30401425766E+03  0.12508762571E+03 0.  0.
          5    1    3    3  502    0 -0.62322004887E+02 -0.53692242907E+02  0.21685354703E+03  0.23196944303E+03  0.41800000000E+01 0.  1.
         -5    1    3    3    0  502  0.37306038397E+02 -0.46454042567E+02  0.40289754807E+02  0.72044814623E+02  0.41800000000E+01 0.  1.
        -11    1    1    2    0    0 -0.27991251331E+02  0.62753726885E+01  0.37616688779E+02  0.47306508306E+02  0.00000000000E+00 0.  1.
         11    1    1    2    0    0  0.53007217821E+02  0.93870912785E+02  0.97385178724E+02  0.14527693018E+03  0.00000000000E+00 0. -1.
</event>
<event>
 7    1  0.2334784E-009  0.6761915E+02  0.7561462E-02  0.1368382E+00
          1   -1    0    0  501    0  0.00000000000E+00  0.00000000000E+00  0.16263413718E+03  0.16263413718E+03  0.00000000000E+00 0. -1.
         -1   -1    0    0    0  501 -0.00000000000E+00 -0.00000000000E+00 -0.10092113370E+03  0.10092113370E+03  0.00000000000E+00 0.  1.
         25    2    1    2    0    0 -0.33795987688E+02 -0.29074633868E+02  0.84055515433E+02  0.15716273334E+03  0.12508913605E+03 0.  0.
          5    1    3    3  502    0 -0.41748075564E+02 -0.92397126966E+01 -0.22436093286E+02  0.48467770590E+02  0.41800000000E+01 0. -1.
         -5    1    3    3    0  502  0.79520878752E+01 -0.19834921172E+02  0.10649160872E+03  0.10869496275E+03  0.41800000000E+01 0. -1.
        -11    1    1    2    0    0  0.41722565734E+02  0.39466634719E+02 -0.49778857898E+02  0.76002121293E+02  0.00000000000E+00 0.  1.
         11    1    1    2    0    0 -0.79265780461E+01 -0.10392000850E+02  0.27436345942E+02  0.30390416250E+02  0.00000000000E+00 0. -1.
</event>
<event>
 7    1  0.2334784E-009  0.1504853E+03  0.7561462E-02  0.1199878E+00
          1   -1    0    0  501    0  0.00000000000E+00  0.00000000000E+00  0.56244923502E+03  0.56244923502E+03  0.00000000000E+00 0. -1.
         -1   -1    0    0    0  501 -0.00000000000E+00 -0.00000000000E+00 -0.53142729378E+02  0.53142729378E+02  0.00000000000E+00 0.  1.
         25    2    1    2    0    0 -0.33189455501E+02 -0.10511573832E+03  0.40614434330E+03  0.43903622296E+03  0.12509484034E+03 0.  0.
          5    1    3    3  502    0  0.44960094610E+02 -0.20017315436E+02  0.15216585535E+03  0.15998132065E+03  0.41800000000E+01 0. -1.
         -5    1    3    3    0  502 -0.78149550110E+02 -0.85098422883E+02  0.25397848795E+03  0.27905490231E+03  0.41800000000E+01 0. -1.
        -11    1    1    2    0    0 -0.14073286398E+02  0.82278839457E+02  0.89355468459E+02  0.12227945271E+03  0.00000000000E+00 0.  1.
         11    1    1    2    0    0  0.47262741899E+02  0.22836898862E+02  0.13806693883E+02  0.54276288722E+02  0.00000000000E+00 0. -1.
</event>
<event>
 7    1  0.2334784E-009  0.1466425E+03  0.7561462E-02  0.1204660E+00
         -1   -1    0    0    0  501 -0.00000000000E+00  0.00000000000E+00  0.48667475783E+02  0.48667475783E+02  0.00000000000E+00 0.  1.
          1   -1    0    0  501    0  0.00000000000E+00 -0.00000000000E+00 -0.76421006666E+03  0.76421006666E+03  0.00000000000E+00 0. -1.
         25    2    1    2    0    0 -0.53236269643E+02  0.99630720093E+02 -0.61161880187E+03  0.63441721546E+03  0.12508902302E+03 0.  0.
          5    1    3    3  502    0 -0.34238944489E+02  0.12845120933E+03 -0.50788576348E+03  0.52501184714E+03  0.41800000000E+01 0.  1.
         -5    1    3    3    0  502 -0.18997325154E+02 -0.28820489233E+02 -0.10373303840E+03  0.10940536832E+03  0.41800000000E+01 0. -1.
        -11    1    1    2    0    0  0.23639361549E+02 -0.22645994953E+01 -0.65518465321E+02  0.69689433369E+02  0.00000000000E+00 0.  1.
         11    1    1    2    0    0  0.29596908095E+02 -0.97366120597E+02 -0.38405323679E+02  0.10877089361E+03  0.00000000000E+00 0. -1.
</event>
<event>
 7    1  0.2334784E-009  0.1394266E+03  0.7561462E-02  0.1214103E+00
          1   -1    0    0  501    0  0.00000000000E+00  0.00000000000E+00  0.38439361917E+03  0.38439361917E+03  0.00000000000E+00 0. -1.
         -1   -1    0    0    0  501 -0.00000000000E+00 -0.00000000000E+00 -0.59770183376E+02  0.59770183376E+02  0.00000000000E+00 0.  1.
         25    2    1    2    0    0  0.67282924432E+01 -0.10324172967E+03  0.15057286809E+03  0.22141301115E+03  0.12508960084E+03 0.  0.
          5    1    3    3  502    0  0.52578442272E+02 -0.47693497388E+01  0.58963997979E+02  0.79255692202E+02  0.41800000000E+01 0. -1.
         -5    1    3    3    0  502 -0.45850149829E+02 -0.98472379935E+02  0.91608870108E+02  0.14215731895E+03  0.41800000000E+01 0. -1.
        -11    1    1    2    0    0 -0.29561383852E+02  0.76577901473E+02  0.55438144943E+02  0.99052704778E+02  0.00000000000E+00 0.  1.
         11    1    1    2    0    0  0.22833091409E+02  0.26663828201E+02  0.11861242276E+03  0.12369808661E+03  0.00000000000E+00 0. -1.
</event>
<event>
 7    1  0.2334784E-009  0.1198265E+03  0.7561462E-02  0.1243384E+00
         -2   -1    0    0    0  501 -0.00000000000E+00  0.00000000000E+00  0.49005591205E+02  0.49005591205E+02  0.00000000000E+00 0.  1.
          2   -1    0    0  501    0  0.00000000000E+00 -0.00000000000E+00 -0.87127588702E+03  0.87127588702E+03  0.00000000000E+00 0. -1.
         25    2    1    2    0    0 -0.17270105040E+02  0.49533806620E+02 -0.20021646109E+03  0.24184062164E+03  0.12509356680E+03 0.  0.
          5    1    3    3  502    0 -0.11002789822E+02  0.31644004501E+02 -0.21487821845E+03  0.21751442612E+03  0.41800000000E+01 0. -1.
         -5    1    3    3    0  502 -0.62673152178E+01  0.17889802119E+02  0.14661757356E+02  0.24326195524E+02  0.41800000000E+01 0. -1.
        -11    1    1    2    0    0  0.72680547161E+02 -0.91584695596E+02 -0.59066672014E+03  0.60212738909E+03  0.00000000000E+00 0. -1.
         11    1    1    2    0    0 -0.55410442121E+02  0.42050888976E+02 -0.31387114571E+02  0.76313467493E+02  0.00000000000E+00 0.  1.
</event>
<event>
 7    1  0.2334784E-009  0.1200961E+03  0.7561462E-02  0.1242939E+00
         -2   -1    0    0    0  501 -0.00000000000E+00  0.00000000000E+00  0.45845648672E+03  0.45845648672E+03  0.00000000000E+00 0. -1.
          2   -1    0    0  501    0  0.00000000000E+00 -0.00000000000E+00 -0.32217131356E+02  0.32217131356E+02  0.00000000000E+00 0.  1.
         25    2    1    2    0    0 -0.14103110728E+01  0.48735180077E+02  0.25312126036E+03  0.28652359365E+03  0.12509312736E+03 0.  0.
          5    1    3    3  502    0  0.59816756248E+02  0.11329761253E+02  0.13674532529E+03  0.14974366166E+03  0.41800000000E+01 0.  1.
         -5    1    3    3    0  502 -0.61227067321E+02  0.37405418824E+02  0.11637593507E+03  0.13677993199E+03  0.41800000000E+01 0.  1.
        -11    1    1    2    0    0  0.46283777568E+02 -0.85620473473E+01  0.89179231913E+02  0.10083864401E+03  0.00000000000E+00 0.  1.
         11    1    1    2    0    0 -0.44873466496E+02 -0.40173132729E+02  0.83938863088E+02  0.10331138042E+03  0.00000000000E+00 0. -1.
</event>
<event>
 7    1  0.2334784E-009  0.1213831E+03  0.7561462E-02  0.1240833E+00
          1   -1    0    0  501    0  0.00000000000E+00  0.00000000000E+00  0.44377195722E+03  0.44377195722E+03  0.00000000000E+00 0. -1.
         -1   -1    0    0    0  501 -0.00000000000E+00 -0.00000000000E+00 -0.66141490847E+02  0.66141490847E+02  0.00000000000E+00 0.  1.
         25    2    1    2    0    0 -0.83268141133E+02 -0.31741131240E+02  0.34446397820E+03  0.37715258839E+03  0.12509020710E+03 0.  0.
          5    1    3    3  502    0 -0.66457611941E+02  0.41116946759E+02  0.19020612635E+03  0.20567707795E+03  0.41800000000E+01 0. -1.
         -5    1    3    3    0  502 -0.16810529192E+02 -0.72858077999E+02  0.15425785185E+03  0.17147551044E+03  0.41800000000E+01 0. -1.
        -11    1    1    2    0    0  0.44083365194E+02  0.21858601087E+02 -0.30105640559E+02  0.57684409694E+02  0.00000000000E+00 0.  1.
         11    1    1    2    0    0  0.39184775939E+02  0.98825301531E+01  0.63272128736E+02  0.75076449985E+02  0.00000000000E+00 0. -1.
</event>
<event>
 7    1  0.2334784E-009  0.1201569E+03  0.7561462E-02  0.1242838E+00
          2   -1    0    0  501    0  0.00000000000E+00  0.00000000000E+00  0.39142537224E+03  0.39142537224E+03  0.00000000000E+00 0. -1.
         -2   -1    0    0    0  501 -0.00000000000E+00 -0.00000000000E+00 -0.38560188413E+02  0.38560188413E+02  0.00000000000E+00 0.  1.
         25    2    1    2    0    0 -0.15165731934E+02 -0.47317884293E+02  0.24024416297E+03  0.27538776257E+03  0.12510867409E+03 0.  0.
          5    1    3    3  502    0  0.31413149332E+02  0.30342230431E+02  0.73763528817E+02  0.85825214722E+02  0.41800000000E+01 0.  1.
         -5    1    3    3    0  502 -0.46578881266E+02 -0.77660114723E+02  0.16648063415E+03  0.18956254785E+03  0.41800000000E+01 0.  1.
        -11    1    1    2    0    0 -0.36867942804E+02  0.37961144662E+02  0.52594160698E+02  0.74608574910E+02  0.00000000000E+00 0. -1.
         11    1    1    2    0    0  0.52033674737E+02  0.93567396308E+01  0.60026860157E+02  0.79989223171E+02  0.00000000000E+00 0.  1.
</event>
<event>
 7    1  0.2334784E-009  0.1686619E+03  0.7561462E-02  0.1179250E+00
         -4   -1    0    0    0  501 -0.00000000000E+00  0.00000000000E+00  0.12608157467E+03  0.12608157467E+03  0.00000000000E+00 0.  1.
          4   -1    0    0  501    0  0.00000000000E+00 -0.00000000000E+00 -0.33263877928E+03  0.33263877928E+03  0.00000000000E+00 0. -1.
         25    2    1    2    0    0 -0.41336151324E+02  0.13679869340E+03 -0.21774869327E+03  0.28893638899E+03  0.12508870268E+03 0.  0.
          5    1    3    3  502    0  0.37850908933E+02  0.67712433844E+02 -0.55082973751E+02  0.95232722325E+02  0.41800000000E+01 0. -1.
         -5    1    3    3    0  502 -0.79187060257E+02  0.69086259553E+02 -0.16266571952E+03  0.19370366666E+03  0.41800000000E+01 0. -1.
        -11    1    1    2    0    0  0.26955854937E+02 -0.13164229629E+02  0.31692864414E+02  0.43638889902E+02  0.00000000000E+00 0.  1.
         11    1    1    2    0    0  0.14380296387E+02 -0.12363446377E+03 -0.20501375747E+02  0.12614507506E+03  0.00000000000E+00 0. -1.
</event>
<event>
 7    1  0.2334784E-009  0.1110883E+03  0.7561462E-02  0.1258568E+00
         -2   -1    0    0    0  501 -0.00000000000E+00  0.00000000000E+00  0.11215231969E+03  0.11215231969E+03  0.00000000000E+00 0.  1.
          2   -1    0    0  501    0  0.00000000000E+00 -0.00000000000E+00 -0.15245760442E+03  0.15245760442E+03  0.00000000000E+00 0. -1.
         25    2    1    2    0    0 -0.62637176459E+02  0.11930424261E+02 -0.61190489694E+02  0.15315973230E+03  0.12509147321E+03 0.  0.
          5    1    3    3  502    0 -0.74121681711E+02 -0.31579188110E+02 -0.46967407915E+01  0.80813368915E+02  0.41800000000E+01 0. -1.
         -5    1    3    3    0  502  0.11484505252E+02  0.43509612372E+02 -0.56493748903E+02  0.72346363383E+02  0.41800000000E+01 0. -1.
        -11    1    1    2    0    0  0.45679947932E+02 -0.41826257756E+02  0.38400373668E+02  0.72874427468E+02  0.00000000000E+00 0.  1.
         11    1    1    2    0    0  0.16957228527E+02  0.29895833495E+02 -0.17515168703E+02  0.38575764340E+02  0.00000000000E+00 0. -1.
</event>
<event>
 7    1  0.2334784E-009  0.7714366E+02  0.7561462E-02  0.1337358E+00
          2   -1    0    0  501    0  0.00000000000E+00  0.00000000000E+00  0.10758038470E+03  0.10758038470E+03  0.00000000000E+00 0. -1.
         -2   -1    0    0    0  501 -0.00000000000E+00 -0.00000000000E+00 -0.13637525652E+03  0.13637525652E+03  0.00000000000E+00 0.  1.
         25    2    1    2    0    0  0.30754797293E+02 -0.24114948329E+02  0.20362763895E+02  0.13262582567E+03  0.12509028416E+03 0.  0.
          5    1    3    3  502    0  0.26583245714E+01  0.11929791352E+02 -0.48322760342E+02  0.50019477989E+02  0.41800000000E+01 0.  1.
         -5    1    3    3    0  502  0.28096472722E+02 -0.36044739680E+02  0.68685524237E+02  0.82606347684E+02  0.41800000000E+01 0.  1.
        -11    1    1    2    0    0 -0.56572466098E+02 -0.47253988399E+01 -0.12736224985E+02  0.58180621700E+02  0.00000000000E+00 0.  1.
         11    1    1    2    0    0  0.25817668804E+02  0.28840347169E+02 -0.36421410734E+02  0.53149193852E+02  0.00000000000E+00 0. -1.
</event>
<event>
 7    1  0.2334784E-009  0.9127841E+02  0.7561462E-02  0.1299785E+00
          1   -1    0    0  501    0  0.00000000000E+00  0.00000000000E+00  0.65441447632E+02  0.65441447632E+02  0.00000000000E+00 0. -1.
         -1   -1    0    0    0  501 -0.00000000000E+00 -0.00000000000E+00 -0.26144584862E+03  0.26144584862E+03  0.00000000000E+00 0.  1.
         25    2    1    2    0    0  0.26104560036E+02  0.67432981917E+02 -0.11886134202E+03  0.18709112933E+03  0.12508563844E+03 0.  0.
          5    1    3    3  502    0  0.37915539824E+02  0.81282626839E+02 -0.13518531354E+03  0.16228676774E+03  0.41800000000E+01 0. -1.
         -5    1    3    3    0  502 -0.11810979788E+02 -0.13849644922E+02  0.16323971519E+02  0.24804361596E+02  0.41800000000E+01 0. -1.
        -11    1    1    2    0    0 -0.12895771016E+02 -0.52921305214E+02 -0.97398107489E+02  0.11159460918E+03  0.00000000000E+00 0.  1.
         11    1    1    2    0    0 -0.13208789020E+02 -0.14511676704E+02  0.20255048523E+02  0.28201557737E+02  0.00000000000E+00 0. -1.
</event>
<event>
 7    1  0.2334784E-009  0.1643541E+03  0.7561462E-02  0.1183867E+00
         -3   -1    0    0    0  501 -0.00000000000E+00  0.00000000000E+00  0.18287587319E+03  0.18287587319E+03  0.00000000000E+00 0.  1.
          3   -1    0    0  501    0  0.00000000000E+00 -0.00000000000E+00 -0.17769609939E+03  0.17769609939E+03  0.00000000000E+00 0. -1.
         25    2    1    2    0    0 -0.12577121805E+03 -0.16046133411E+02 -0.69955432440E+02  0.19135757032E+03  0.12509228396E+03 0.  0.
          5    1    3    3  502    0 -0.14732771552E+03  0.52976449230E+01 -0.57243772913E+02  0.15820190498E+03  0.41800000000E+01 0. -1.
         -5    1    3    3    0  502  0.21556497467E+02 -0.21343778334E+02 -0.12711659527E+02  0.33155665346E+02  0.41800000000E+01 0. -1.
        -11    1    1    2    0    0  0.19618584629E+02 -0.29226317199E+02  0.26121181184E+02  0.43833578297E+02  0.00000000000E+00 0.  1.
         11    1    1    2    0    0  0.10615263342E+03  0.45272450610E+02  0.49014025056E+02  0.12538082397E+03  0.00000000000E+00 0. -1.
</event>
<event>
 7    1  0.2334784E-009  0.1302997E+03  0.7561462E-02  0.1227012E+00
          1   -1    0    0  501    0  0.00000000000E+00  0.00000000000E+00  0.63653261262E+02  0.63653261262E+02  0.00000000000E+00 0. -1.
         -1   -1    0    0    0  501 -0.00000000000E+00 -0.00000000000E+00 -0.38127220457E+03  0.38127220457E+03  0.00000000000E+00 0.  1.
         25    2    1    2    0    0 -0.10491775948E+03  0.26388110904E+02 -0.13929745426E+03  0.21623008171E+03  0.12509036263E+03 0.  0.
          5    1    3    3  502    0 -0.36361975742E+02  0.59346530588E+02 -0.11811262191E+03  0.13715782088E+03  0.41800000000E+01 0.  1.
         -5    1    3    3    0  502 -0.68555783738E+02 -0.32958419684E+02 -0.21184832347E+02  0.79072260836E+02  0.41800000000E+01 0.  1.
        -11    1    1    2    0    0  0.18858654700E+02  0.98951747424E+01  0.59454766206E+01  0.22111355285E+02  0.00000000000E+00 0. -1.
         11    1    1    2    0    0  0.86059104781E+02 -0.36283285647E+02 -0.18426696567E+03  0.20658402884E+03  0.00000000000E+00 0.  1.
</event>
<event>
 7    1  0.2334784E-009  0.1352865E+03  0.7561462E-02  0.1219816E+00
         -2   -1    0    0    0  501 -0.00000000000E+00  0.00000000000E+00  0.66969053501E+03  0.66969053501E+03  0.00000000000E+00 0.  1.
          2   -1    0    0  501    0  0.00000000000E+00 -0.00000000000E+00 -0.31452316782E+02  0.31452316782E+02  0.00000000000E+00 0. -1.
         25    2    1    2    0    0 -0.15788132116E+02  0.95419920895E+02  0.34394904947E+03  0.37855292722E+03  0.12508854327E+03 0.  0.
          5    1    3    3  502    0 -0.13865477462E+01 -0.25871650982E+02  0.22199467334E+02  0.34373734000E+02  0.41800000000E+01 0.  1.
         -5    1    3    3    0  502 -0.14401584369E+02  0.12129157188E+03  0.32174958213E+03  0.34417919322E+03  0.41800000000E+01 0.  1.
        -11    1    1    2    0    0  0.45994108116E+02 -0.58126159659E+02  0.23442114143E+03  0.24586048883E+03  0.00000000000E+00 0.  1.
         11    1    1    2    0    0 -0.30205976001E+02 -0.37293761237E+02  0.59868027338E+02  0.76729435751E+02  0.00000000000E+00 0. -1.
</event>
<event>
 7    1  0.2334784E-009  0.1070509E+03  0.7561462E-02  0.1266131E+00
         -2   -1    0    0    0  501 -0.00000000000E+00  0.00000000000E+00  0.59527446234E+02  0.59527446234E+02  0.00000000000E+00 0. -1.
          2   -1    0    0  501    0  0.00000000000E+00 -0.00000000000E+00 -0.35160240586E+03  0.35160240586E+03  0.00000000000E+00 0.  1.
         25    2    1    2    0    0 -0.10086151615E+02 -0.32362769229E+02 -0.28629154720E+03  0.31425984927E+03  0.12508926243E+03 0.  0.
          5    1    3    3  502    0  0.55192005017E+02 -0.31258602968E+02 -0.12584378037E+03  0.14098718784E+03  0.41800000000E+01 0.  1.
         -5    1    3    3    0  502 -0.65278156632E+02 -0.11041662618E+01 -0.16044776683E+03  0.17327266142E+03  0.41800000000E+01 0.  1.
        -11    1    1    2    0    0  0.42908808067E+02  0.29696940290E+02 -0.25924792130E+02  0.58268078047E+02  0.00000000000E+00 0.  1.
         11    1    1    2    0    0 -0.32822656452E+02  0.26658289399E+01  0.20141379704E+02  0.38601924782E+02  0.00000000000E+00 0. -1.
</event>
<event>
 7    1  0.2334784E-009  0.9083351E+02  0.7561462E-02  0.1300846E+00
         -1   -1    0    0    0  501 -0.00000000000E+00  0.00000000000E+00  0.45518925191E+03  0.45518925191E+03  0.00000000000E+00 0.  1.
          1   -1    0    0  501    0  0.00000000000E+00 -0.00000000000E+00 -0.31211235278E+02  0.31211235278E+02  0.00000000000E+00 0. -1.
         25    2    1    2    0    0 -0.18187086121E+02 -0.28285080915E+02  0.30761519790E+03  0.33377636630E+03  0.12509491122E+03 0.  0.
          5    1    3    3  502    0  0.38135547606E+02 -0.18451255647E+02  0.24584359180E+03  0.24950212996E+03  0.41800000000E+01 0.  1.
         -5    1    3    3    0  502 -0.56322633727E+02 -0.98338252683E+01  0.61771606098E+02  0.84274236332E+02  0.41800000000E+01 0.  1.
        -11    1    1    2    0    0  0.11469914878E+00  0.51973788868E+02  0.27295944199E+02  0.58705676514E+02  0.00000000000E+00 0. -1.
         11    1    1    2    0    0  0.18072386973E+02 -0.23688707953E+02  0.89066874532E+02  0.93918444378E+02  0.00000000000E+00 0.  1.
</event>
<event>
 7    1  0.2334784E-009  0.8486140E+02  0.7561462E-02  0.1315795E+00
         -1   -1    0    0    0  501 -0.00000000000E+00  0.00000000000E+00  0.48214895140E+02  0.48214895140E+02  0.00000000000E+00 0.  1.
          1   -1    0    0  501    0  0.00000000000E+00 -0.00000000000E+00 -0.32427206421E+03  0.32427206421E+03  0.00000000000E+00 0. -1.
         25    2    1    2    0    0 -0.42021655655E+02  0.96918915250E+01 -0.21985974133E+03  0.25660227607E+03  0.12508664964E+03 0.  0.
          5    1    3    3  502    0  0.83649122218E+01 -0.10832665614E+02 -0.19687134023E+03  0.19739076829E+03  0.41800000000E+01 0. -1.
         -5    1    3    3    0  502 -0.50386567877E+02  0.20524557139E+02 -0.22988401100E+02  0.59211507778E+02  0.41800000000E+01 0. -1.
        -11    1    1    2    0    0 -0.24129599395E+02 -0.23037886503E+02 -0.24103073065E+02  0.41157501293E+02  0.00000000000E+00 0. -1.
         11    1    1    2    0    0  0.66151255051E+02  0.13345994978E+02 -0.32094354677E+02  0.74727181995E+02  0.00000000000E+00 0.  1.
</event>
<event>
 7    1  0.2334784E-009  0.2058183E+03  0.7561462E-02  0.1144921E+00
         -3   -1    0    0    0  501 -0.00000000000E+00  0.00000000000E+00  0.41703906077E+03  0.41703906077E+03  0.00000000000E+00 0. -1.
          3   -1    0    0  501    0  0.00000000000E+00 -0.00000000000E+00 -0.10885299086E+03  0.10885299086E+03  0.00000000000E+00 0.  1.
         25    2    1    2    0    0 -0.14144884282E+03  0.10856850121E+03  0.10869806949E+03  0.24343024988E+03  0.12509245242E+03 0.  0.
          5    1    3    3  502    0 -0.19252514347E+02  0.89681011107E+02  0.29110048930E+02  0.96323467601E+02  0.41800000000E+01 0. -1.
         -5    1    3    3    0  502 -0.12219632847E+03  0.18887490107E+02  0.79588020562E+02  0.14710678228E+03  0.41800000000E+01 0. -1.
        -11    1    1    2    0    0  0.10069637534E+03 -0.25965418732E+02  0.13317126223E+03  0.16896315592E+03  0.00000000000E+00 0.  1.
         11    1    1    2    0    0  0.40752467483E+02 -0.82603082483E+02  0.66316738186E+02  0.11349864583E+03  0.00000000000E+00 0. -1.
</event>
<event>
 7    1  0.2334784E-009  0.1272266E+03  0.7561462E-02  0.1231630E+00
          2   -1    0    0  501    0  0.00000000000E+00  0.00000000000E+00  0.39487833818E+02  0.39487833818E+02  0.00000000000E+00 0. -1.
         -2   -1    0    0    0  501 -0.00000000000E+00 -0.00000000000E+00 -0.70279124202E+03  0.70279124202E+03  0.00000000000E+00 0.  1.
         25    2    1    2    0    0  0.11726728906E+03 -0.45301672539E+02 -0.35403914719E+03  0.39597316224E+03  0.12508864397E+03 0.  0.
          5    1    3    3  502    0  0.81034642656E+02 -0.31011859185E+02 -0.76703241714E+02  0.11588446147E+03  0.41800000000E+01 0. -1.
         -5    1    3    3    0  502  0.36232646408E+02 -0.14289813354E+02 -0.27733590548E+03  0.28008870077E+03  0.41800000000E+01 0. -1.
        -11    1    1    2    0    0 -0.32873036921E+02  0.52568858002E+00 -0.19320718695E+03  0.19598451468E+03  0.00000000000E+00 0. -1.
         11    1    1    2    0    0 -0.84394252143E+02  0.44775983959E+02 -0.11605707406E+03  0.15032139892E+03  0.00000000000E+00 0.  1.
</event>
<event>
 7    1  0.2334784E-009  0.1250351E+03  0.7561462E-02  0.1235014E+00
          2   -1    0    0  501    0  0.00000000000E+00  0.00000000000E+00  0.12223980897E+03  0.12223980897E+03  0.00000000000E+00 0. -1.
         -2   -1    0    0    0  501 -0.00000000000E+00 -0.00000000000E+00 -0.15352247185E+03  0.15352247185E+03  0.00000000000E+00 0.  1.
         25    2    1    2    0    0 -0.25530715939E+02  0.60700364841E+02 -0.54561898263E+02  0.15152954811E+03  0.12509137245E+03 0.  0.
          5    1    3    3  502    0  0.37360715816E+02  0.65898743147E+02 -0.16258248039E+02  0.77590401880E+02  0.41800000000E+01 0. -1.
         -5    1    3    3    0  502 -0.62891431755E+02 -0.51983783060E+01 -0.38303650224E+02  0.73939146233E+02  0.41800000000E+01 0. -1.
        -11    1    1    2    0    0 -0.32576822905E+02 -0.10668999186E+02 -0.16282294542E+02  0.37949835965E+02  0.00000000000E+00 0.  1.
         11    1    1    2    0    0  0.58107538844E+02 -0.50031365655E+02  0.39561529926E+02  0.86282896741E+02  0.00000000000E+00 0. -1.
</event>
<event>
 7    1  0.2334784E-009  0.7801885E+02  0.7561462E-02  0.1334770E+00
         -2   -1    0    0    0  501 -0.00000000000E+00  0.00000000000E+00  0.16447488088E+03  0.16447488088E+03  0.00000000000E+00 0.  1.
          2   -1    0    0  501    0  0.00000000000E+00 -0.00000000000E+00 -0.89781853686E+02  0.89781853686E+02  0.00000000000E+00 0. -1.
         25    2    1    2    0    0  0.11601234527E+02 -0.37449201987E+02  0.90245948745E+01  0.13139941788E+03  0.12508929744E+03 0.  0.
          5    1    3    3  502    0 -0.75842214080E+01 -0.57232728855E+02  0.53558825140E+02  0.78861434282E+02  0.41800000000E+01 0. -1.
         -5    1    3    3    0  502  0.19185455935E+02  0.19783526868E+02 -0.44534230265E+02  0.52537983594E+02  0.41800000000E+01 0. -1.
        -11    1    1    2    0    0  0.21680247075E+02  0.21844070227E+01  0.70818310686E+02  0.74094789802E+02  0.00000000000E+00 0.  1.
         11    1    1    2    0    0 -0.33281481602E+02  0.35264794964E+02 -0.51498783656E+01  0.48762526890E+02  0.00000000000E+00 0. -1.
</event>
<event>
 7    1  0.2334784E-009  0.1214232E+03  0.7561462E-02  0.1240767E+00
         -2   -1    0    0    0  501 -0.00000000000E+00  0.00000000000E+00  0.24186839202E+03  0.24186839202E+03  0.00000000000E+00 0.  1.
          2   -1    0    0  501    0  0.00000000000E+00 -0.00000000000E+00 -0.10088654771E+03  0.10088654771E+03  0.00000000000E+00 0. -1.
         25    2    1    2    0    0 -0.66244930252E+02 -0.24935987374E+02 -0.19534052754E+02  0.14504985224E+03  0.12509071175E+03 0.  0.
          5    1    3    3  502    0 -0.25346870523E+02 -0.68388993208E+02  0.16933447526E+02  0.74991548073E+02  0.41800000000E+01 0.  1.
         -5    1    3    3    0  502 -0.40898059729E+02  0.43453005834E+02 -0.36467500280E+02  0.70058304164E+02  0.41800000000E+01 0.  1.
        -11    1    1    2    0    0  0.82404336447E+02  0.26525082889E+01  0.14304075863E+03  0.16510048181E+03  0.00000000000E+00 0.  1.
         11    1    1    2    0    0 -0.16159406195E+02  0.22283479085E+02  0.17475138429E+02  0.32604605684E+02  0.00000000000E+00 0. -1.
</event>
<event>
 7    1  0.2334784E-009  0.9615114E+02  0.7561462E-02  0.1288604E+00
          2   -1    0    0  501    0  0.00000000000E+00  0.00000000000E+00  0.37532097506E+03  0.37532097506E+03  0.00000000000E+00 0. -1.
         -2   -1    0    0    0  501 -0.00000000000E+00 -0.00000000000E+00 -0.39653672047E+02  0.39653672047E+02  0.00000000000E+00 0.  1.
         25    2    1    2    0    0  0.27832060221E+02 -0.40469425263E+02  0.23611952979E+03  0.27168491386E+03  0.12509141503E+03 0.  0.
          5    1    3    3  502    0  0.54873400394E+02 -0.65888481770E+02  0.20773659532E+03  0.22477621657E+03  0.41800000000E+01 0. -1.
         -5    1    3    3    0  502 -0.27041340173E+02  0.25419056507E+02  0.28382934468E+02  0.46908697286E+02  0.41800000000E+01 0. -1.
        -11    1    1    2    0    0  0.11068723263E+02  0.24820151674E+02 -0.76088262283E+01  0.28221459926E+02  0.00000000000E+00 0.  1.
         11    1    1    2    0    0 -0.38900783484E+02  0.15649273589E+02  0.10715659945E+03  0.11506827332E+03  0.00000000000E+00 0. -1.
</event>
<event>
 7    1  0.2334784E-009  0.1043139E+03  0.7561462E-02  0.1271477E+00
         -2   -1    0    0    0  501 -0.00000000000E+00  0.00000000000E+00  0.40313310679E+02  0.40313310679E+02  0.00000000000E+00 0.  1.
          2   -1    0    0  501    0  0.00000000000E+00 -0.00000000000E+00 -0.44477486160E+03  0.44477486160E+03  0.00000000000E+00 0. -1.
         25    2    1    2    0    0 -0.15535833890E+02 -0.78865554654E+02 -0.18659639223E+03  0.23859374944E+03  0.12509047059E+03 0.  0.
          5    1    3    3  502    0 -0.46462969811E+02 -0.38176210799E+01 -0.13360493157E+03  0.14156670490E+03  0.41800000000E+01 0. -1.
         -5    1    3    3    0  502  0.30927135921E+02 -0.75047933574E+02 -0.52991460661E+02  0.97027044545E+02  0.41800000000E+01 0. -1.
        -11    1    1    2    0    0  0.11901087494E+02  0.47530932035E+02 -0.33276158716E+02  0.59229453168E+02  0.00000000000E+00 0.  1.
         11    1    1    2    0    0  0.36347463956E+01  0.31334622619E+02 -0.18458899997E+03  0.18726496968E+03  0.00000000000E+00 0. -1.
</event>
<event>
 7    1  0.2334784E-009  0.1065210E+03  0.7561462E-02  0.1267152E+00
         -1   -1    0    0    0  501 -0.00000000000E+00  0.00000000000E+00  0.11203084711E+03  0.11203084711E+03  0.00000000000E+00 0.  1.
          1   -1    0    0  501    0  0.00000000000E+00 -0.00000000000E+00 -0.14617389098E+03  0.14617389098E+03  0.00000000000E+00 0. -1.
         25    2    1    2    0    0  0.25280711493E+02  0.62887844713E+02 -0.11272279927E+02  0.14271868239E+03  0.12509021793E+03 0.  0.
          5    1    3    3  502    0  0.39378407343E+02 -0.40171167906E+01  0.40552010648E+02  0.56821951390E+02  0.41800000000E+01 0. -1.
         -5    1    3    3    0  502 -0.14097695851E+02  0.66904961503E+02 -0.51824290575E+02  0.85896730995E+02  0.41800000000E+01 0. -1.
        -11    1    1    2    0    0 -0.17376936705E+02  0.17088393833E+02 -0.25239038533E+02  0.35085327405E+02  0.00000000000E+00 0. -1.
         11    1    1    2    0    0 -0.79037747874E+01 -0.79976238546E+02  0.23682745904E+01  0.80400728307E+02  0.00000000000E+00 0.  1.
</event>
<event>
 7    1  0.2334784E-009  0.6088458E+02  0.7561462E-02  0.1394157E+00
          2   -1    0    0  501    0  0.00000000000E+00  0.00000000000E+00  0.99357931524E+02  0.99357931524E+02  0.00000000000E+00 0. -1.
         -2   -1    0    0    0  501 -0.00000000000E+00 -0.00000000000E+00 -0.12131074106E+03  0.12131074106E+03  0.00000000000E+00 0.  1.
         25    2    1    2    0    0  0.27058351783E+01 -0.10503456467E+02 -0.35201430160E+01  0.12560828372E+03  0.12508958945E+03 0.  0.
          5    1    3    3  502    0 -0.30260868574E+01  0.31724206368E+02 -0.51871535091E+02  0.61022217463E+02  0.41800000000E+01 0.  1.
         -5    1    3    3    0  502  0.57319220357E+01 -0.42227662835E+02  0.48351392075E+02  0.64586066255E+02  0.41800000000E+01 0.  1.
        -11    1    1    2    0    0 -0.78568594939E+01 -0.17052412936E+02 -0.49663142180E+02  0.53093716382E+02  0.00000000000E+00 0.  1.
         11    1    1    2    0    0  0.51510243156E+01  0.27555869403E+02  0.31230475656E+02  0.41966672489E+02  0.00000000000E+00 0. -1.
</event>
<event>
 7    1  0.2334784E-009  0.2805364E+03  0.7561462E-02  0.1095396E+00
         -1   -1    0    0    0  501 -0.00000000000E+00  0.00000000000E+00  0.75598257146E+03  0.75598257146E+03  0.00000000000E+00 0.  1.
          1   -1    0    0  501    0  0.00000000000E+00 -0.00000000000E+00 -0.11313405069E+03  0.11313405069E+03  0.00000000000E+00 0. -1.
         25    2    1    2    0    0  0.17815522694E+03 -0.19936520103E+03  0.31634154884E+03  0.43267772738E+03  0.12510904036E+03 0.  0.
          5    1    3    3  502    0 -0.41855029983E+01  0.10716800903E+02  0.34702613334E+02  0.36798261225E+02  0.41800000000E+01 0.  1.
         -5    1    3    3    0  502  0.18234072993E+03 -0.21008200194E+03  0.28163893550E+03  0.39587946615E+03  0.41800000000E+01 0.  1.
        -11    1    1    2    0    0 -0.49624975727E+02  0.85758588479E+02  0.49849750965E+02  0.11091515399E+03  0.00000000000E+00 0. -1.
         11    1    1    2    0    0 -0.12853025121E+03  0.11360661256E+03  0.27665722097E+03  0.32552374078E+03  0.00000000000E+00 0.  1.
</event>
<event>
 7    1  0.2334784E-009  0.8949189E+02  0.7561462E-02  0.1304087E+00
         -1   -1    0    0    0  501 -0.00000000000E+00  0.00000000000E+00  0.23464277644E+03  0.23464277644E+03  0.00000000000E+00 0.  1.
          1   -1    0    0  501    0  0.00000000000E+00 -0.00000000000E+00 -0.78326421931E+02  0.78326421931E+02  0.00000000000E+00 0. -1.
         25    2    1    2    0    0 -0.70122873993E+02  0.29305957592E+02  0.89729712753E+02  0.17168192228E+03  0.12508878639E+03 0.  0.
          5    1    3    3  502    0 -0.11046760601E+02 -0.86483681993E+00  0.10318938045E+03  0.10386673915E+03  0.41800000000E+01 0.  1.
         -5    1    3    3    0  502 -0.59076113392E+02  0.30170794412E+02 -0.13459667700E+02  0.67815183135E+02  0.41800000000E+01 0.  1.
        -11    1    1    2    0    0  0.43382983435E+02  0.17491683224E+02  0.73319382568E+02  0.86969960871E+02  0.00000000000E+00 0.  1.
         11    1    1    2    0    0  0.26739890558E+02 -0.46797640817E+02 -0.67327408166E+01  0.54317315213E+02  0.00000000000E+00 0. -1.
</event>
<event>
 7    1  0.2334784E-009  0.1436181E+03  0.7561462E-02  0.1208542E+00
          3   -1    0    0  501    0  0.00000000000E+00  0.00000000000E+00  0.70088031008E+02  0.70088031008E+02  0.00000000000E+00 0. -1.
         -3   -1    0    0    0  501 -0.00000000000E+00 -0.00000000000E+00 -0.46615473551E+03  0.46615473551E+03  0.00000000000E+00 0.  1.
         25    2    1    2    0    0 -0.12800299016E+03 -0.39066621437E+02 -0.12695569652E+03  0.22288331480E+03  0.12509299236E+03 0.  0.
          5    1    3    3  502    0 -0.59930731903E+02 -0.17336076046E+02  0.14644543217E+02  0.64219679267E+02  0.41800000000E+01 0. -1.
         -5    1    3    3    0  502 -0.68072258262E+02 -0.21730545391E+02 -0.14160023974E+03  0.15866363554E+03  0.41800000000E+01 0. -1.
        -11    1    1    2    0    0  0.12360988114E+03  0.10309571421E+02 -0.24840513492E+03  0.27765230241E+03  0.00000000000E+00 0.  1.
         11    1    1    2    0    0  0.43931090298E+01  0.28757050017E+02 -0.20705873067E+02  0.35707149313E+02  0.00000000000E+00 0. -1.
</event>
<event>
 7    1  0.2334784E-009  0.1141608E+03  0.7561462E-02  0.1253053E+00
         -1   -1    0    0    0  501 -0.00000000000E+00  0.00000000000E+00  0.79911501481E+02  0.79911501481E+02  0.00000000000E+00 0.  1.
          1   -1    0    0  501    0  0.00000000000E+00 -0.00000000000E+00 -0.21801374166E+03  0.21801374166E+03  0.00000000000E+00 0. -1.
         25    2    1    2    0    0 -0.57373375847E+02 -0.13288209452E+02 -0.11935811679E+03  0.18265494835E+03  0.12509272301E+03 0.  0.
          5    1    3    3  502    0  0.19116739892E+02  0.25728418720E+02 -0.83444881009E+02  0.89486992577E+02  0.41800000000E+01 0. -1.
         -5    1    3    3    0  502 -0.76490115738E+02 -0.39016628172E+02 -0.35913235776E+02  0.93167955776E+02  0.41800000000E+01 0. -1.
        -11    1    1    2    0    0  0.16370142526E+00 -0.35099802909E+02  0.74734820349E+01  0.35886987838E+02  0.00000000000E+00 0. -1.
         11    1    1    2    0    0  0.57209674421E+02  0.48388012361E+02 -0.26217605428E+02  0.79383306948E+02  0.00000000000E+00 0.  1.
</event>
<event>
 7    1  0.2334784E-009  0.1110201E+03  0.7561462E-02  0.1258692E+00
         -2   -1    0    0    0  501 -0.00000000000E+00  0.00000000000E+00  0.35808013510E+02  0.35808013510E+02  0.00000000000E+00 0.  1.
          2   -1    0    0  501    0  0.00000000000E+00 -0.00000000000E+00 -0.39399959401E+03  0.39399959401E+03  0.00000000000E+00 0. -1.
         25    2    1    2    0    0 -0.16466527320E+02 -0.41792894821E+02 -0.24064025455E+03  0.27490683755E+03  0.12509294403E+03 0.  0.
          5    1    3    3  502    0 -0.19130948570E+02  0.40451480794E+02 -0.50034353475E+02  0.67254921152E+02  0.41800000000E+01 0.  1.
         -5    1    3    3    0  502  0.26644212500E+01 -0.82244375615E+02 -0.19060590108E+03  0.20765191640E+03  0.41800000000E+01 0.  1.
        -11    1    1    2    0    0  0.45610185339E+02  0.46555422368E+02 -0.10322650086E+03  0.12207951031E+03  0.00000000000E+00 0. -1.
         11    1    1    2    0    0 -0.29143658019E+02 -0.47625275463E+01 -0.14324825094E+02  0.32821259655E+02  0.00000000000E+00 0.  1.
</event>
<event>
 7    1  0.2334784E-009  0.1202254E+03  0.7561462E-02  0.1242726E+00
         -1   -1    0    0    0  501 -0.00000000000E+00  0.00000000000E+00  0.44088826941E+02  0.44088826941E+02  0.00000000000E+00 0.  1.
          1   -1    0    0  501    0  0.00000000000E+00 -0.00000000000E+00 -0.34238103627E+03  0.34238103627E+03  0.00000000000E+00 0. -1.
         25    2    1    2    0    0 -0.48902703914E+02  0.20928496497E+02 -0.19119752945E+03  0.23460599425E+03  0.12511594964E+03 0.  0.
          5    1    3    3  502    0  0.12923146187E+02  0.59023545229E+02 -0.11014954598E+03  0.12570275048E+03  0.41800000000E+01 0.  1.
         -5    1    3    3    0  502 -0.61825850101E+02 -0.38095048732E+02 -0.81047983472E+02  0.10890324377E+03  0.41800000000E+01 0.  1.
        -11    1    1    2    0    0 -0.15283310033E+02  0.24241817817E+02 -0.22228972534E+02  0.36268064692E+02  0.00000000000E+00 0.  1.
         11    1    1    2    0    0  0.64186013947E+02 -0.45170314313E+02 -0.84865707337E+02  0.11559580426E+03  0.00000000000E+00 0. -1.
</event>
<event>
 7    1  0.2334784E-009  0.1200206E+03  0.7561462E-02  0.1243063E+00
         -1   -1    0    0    0  501 -0.00000000000E+00  0.00000000000E+00  0.77750982325E+02  0.77750982325E+02  0.00000000000E+00 0.  1.
          1   -1    0    0  501    0  0.00000000000E+00 -0.00000000000E+00 -0.27508358028E+03  0.27508358028E+03  0.00000000000E+00 0. -1.
         25    2    1    2    0    0 -0.68130958742E+02 -0.13771292993E+02 -0.23823660855E+02  0.14507769902E+03  0.12509394824E+03 0.  0.
          5    1    3    3  502    0  0.12780107121E+02  0.31027438119E+02 -0.38609803480E+02  0.51324676122E+02  0.41800000000E+01 0.  1.
         -5    1    3    3    0  502 -0.80911065863E+02 -0.44798731112E+02  0.14786142626E+02  0.93753022896E+02  0.41800000000E+01 0.  1.
        -11    1    1    2    0    0 -0.22304800409E+02  0.42992831659E+01 -0.26551149044E+02  0.34942116029E+02  0.00000000000E+00 0.  1.
         11    1    1    2    0    0  0.90435759151E+02  0.94720098270E+01 -0.14695778806E+03  0.17281474756E+03  0.00000000000E+00 0. -1.
</event>
<event>
 7    1  0.2334784E-009  0.1492409E+03  0.7561462E-02  0.1201409E+00
          2   -1    0    0  501    0  0.00000000000E+00  0.00000000000E+00  0.81490964761E+03  0.81490964761E+03  0.00000000000E+00 0. -1.
         -2   -1    0    0    0  501 -0.00000000000E+00 -0.00000000000E+00 -0.35733603762E+02  0.35733603762E+02  0.00000000000E+00 0.  1.
         25    2    1    2    0    0 -0.11050509056E+03 -0.57038285621E+02  0.32832952907E+03  0.37270938284E+03  0.12508902164E+03 0.  0.
          5    1    3    3  502    0 -0.13762131066E+02 -0.56191755546E+02  0.21949900809E+03  0.22703347021E+03  0.41800000000E+01 0. -1.
         -5    1    3    3    0  502 -0.96742959496E+02 -0.84653007493E+00  0.10883052098E+03  0.14567591263E+03  0.41800000000E+01 0. -1.
        -11    1    1    2    0    0  0.10636959039E+03  0.22330524759E+02  0.41005740101E+03  0.42421717813E+03  0.00000000000E+00 0. -1.
         11    1    1    2    0    0  0.41355001698E+01  0.34707760862E+02  0.40789113775E+02  0.53716690407E+02  0.00000000000E+00 0.  1.
</event>
<event>
 7    1  0.2334784E-009  0.1268146E+03  0.7561462E-02  0.1232260E+00
          2   -1    0    0  501    0  0.00000000000E+00  0.00000000000E+00  0.51843691963E+02  0.51843691963E+02  0.00000000000E+00 0. -1.
         -2   -1    0    0    0  501 -0.00000000000E+00 -0.00000000000E+00 -0.52351285503E+03  0.52351285503E+03  0.00000000000E+00 0.  1.
         25    2    1    2    0    0  0.74855698526E+02 -0.82011323170E+02 -0.15988434189E+03  0.23138660045E+03  0.12509006098E+03 0.  0.
          5    1    3    3  502    0  0.39811909291E+02 -0.76929987543E+02 -0.22699124425E+02  0.89643369830E+02  0.41800000000E+01 0.  1.
         -5    1    3    3    0  502  0.35043789235E+02 -0.50813356275E+01 -0.13718521747E+03  0.14174323062E+03  0.41800000000E+01 0.  1.
        -11    1    1    2    0    0 -0.23176566711E+02  0.75723627456E+02 -0.25462570435E+03  0.26665608997E+03  0.00000000000E+00 0.  1.
         11    1    1    2    0    0 -0.51679131815E+02  0.62876957144E+01 -0.57159116825E+02  0.77313856577E+02  0.00000000000E+00 0. -1.
</event>
<event>
 7    1  0.2334784E-009  0.8678709E+02  0.7561462E-02  0.1310824E+00
         -1   -1    0    0    0  501 -0.00000000000E+00  0.00000000000E+00  0.14398358177E+03  0.14398358177E+03  0.00000000000E+00 0.  1.
          1   -1    0    0  501    0  0.00000000000E+00 -0.00000000000E+00 -0.60003204917E+03  0.60003204917E+03  0.00000000000E+00 0. -1.
         25    2    1    2    0    0  0.51610846184E+02  0.16697328536E+02 -0.57053272643E+03  0.58659413404E+03  0.12507040391E+03 0.  0.
          5    1    3    3  502    0  0.40306521922E+02 -0.90692812984E+01 -0.48757182875E+02  0.64043757343E+02  0.41800000000E+01 0.  1.
         -5    1    3    3    0  502  0.11304324262E+02  0.25766609835E+02 -0.52177554356E+03  0.52255037670E+03  0.41800000000E+01 0.  1.
        -11    1    1    2    0    0 -0.76927118231E+02 -0.12112370055E+02  0.64156227409E+02  0.10089852597E+03  0.00000000000E+00 0. -1.
         11    1    1    2    0    0  0.25316272047E+02 -0.45849584816E+01  0.50328031631E+02  0.56522970928E+02  0.00000000000E+00 0.  1.
</event>
<event>
 7    1  0.2334784E-009  0.1210106E+03  0.7561462E-02  0.1241439E+00
          1   -1    0    0  501    0  0.00000000000E+00  0.00000000000E+00  0.22921140176E+03  0.22921140176E+03  0.00000000000E+00 0. -1.
         -1   -1    0    0    0  501 -0.00000000000E+00 -0.00000000000E+00 -0.66323404100E+02  0.66323404100E+02  0.00000000000E+00 0.  1.
         25    2    1    2    0    0 -0.51641830592E+02  0.17557148032E+02  0.76484417125E+02  0.15643732899E+03  0.12509052612E+03 0.  0.
          5    1    3    3  502    0 -0.70577245703E+02  0.55872970847E+02  0.67432990975E+02  0.11255050935E+03  0.41800000000E+01 0. -1.
         -5    1    3    3    0  502  0.18935415111E+02 -0.38315822815E+02  0.90514261500E+01  0.43886819648E+02  0.41800000000E+01 0. -1.
        -11    1    1    2    0    0  0.71323523571E+02  0.13116516866E+02  0.55663417675E+02  0.91419385781E+02  0.00000000000E+00 0.  1.
         11    1    1    2    0    0 -0.19681692978E+02 -0.30673664899E+02  0.30740162856E+02  0.47678091082E+02  0.00000000000E+00 0. -1.
</event>
<event>
 7    1  0.2334784E-009  0.7100410E+02  0.7561462E-02  0.1356711E+00
         -2   -1    0    0    0  501 -0.00000000000E+00  0.00000000000E+00  0.73134722182E+02  0.73134722182E+02  0.00000000000E+00 0.  1.
          2   -1    0    0  501    0  0.00000000000E+00 -0.00000000000E+00 -0.20097837606E+03  0.20097837606E+03  0.00000000000E+00 0. -1.
         25    2    1    2    0    0 -0.22142712993E+02  0.33264729455E+02 -0.11117083026E+03  0.17205577769E+03  0.12508954862E+03 0.  0.
          5    1    3    3  502    0 -0.17362464744E+02  0.17325331942E+02  0.24727206893E+02  0.35078903484E+02  0.41800000000E+01 0.  1.
         -5    1    3    3    0  502 -0.47802482491E+01  0.15939397512E+02 -0.13589803715E+03  0.13697687421E+03  0.41800000000E+01 0.  1.
        -11    1    1    2    0    0 -0.28971007936E+02 -0.38946643621E+02 -0.20210057027E+01  0.48582350851E+02  0.00000000000E+00 0.  1.
         11    1    1    2    0    0  0.51113720929E+02  0.56819141659E+01 -0.14651817915E+02  0.53474969696E+02  0.00000000000E+00 0. -1.
</event>
<event>
 7    1  0.2334784E-009  0.1218330E+03  0.7561462E-02  0.1240103E+00
          1   -1    0    0  501    0  0.00000000000E+00  0.00000000000E+00  0.85834303035E+02  0.85834303035E+02  0.00000000000E+00 0. -1.
         -1   -1    0    0    0  501 -0.00000000000E+00 -0.00000000000E+00 -0.25414902596E+03  0.25414902596E+03  0.00000000000E+00 0.  1.
         25    2    1    2    0    0 -0.36945747187E+02 -0.74835050364E+02 -0.15401825798E+03  0.21525286320E+03  0.12508756264E+03 0.  0.
          5    1    3    3  502    0  0.17082635427E+02  0.11122652158E+02 -0.96027708405E+02  0.98256414577E+02  0.41800000000E+01 0. -1.
         -5    1    3    3    0  502 -0.54028382614E+02 -0.85957702522E+02 -0.57990549577E+02  0.11699644863E+03  0.41800000000E+01 0. -1.
        -11    1    1    2    0    0  0.48870493324E+02  0.35838349635E+01  0.67991531030E+01  0.49471178212E+02  0.00000000000E+00 0. -1.
         11    1    1    2    0    0 -0.11924746138E+02  0.71251215400E+02 -0.21095618049E+02  0.75259287582E+02  0.00000000000E+00 0.  1.
</event>
<event>
 7    1  0.2360823E-009  0.1118668E+03  0.7561462E-02  0.1257151E+00
          1   -1    0    0  501    0  0.00000000000E+00  0.00000000000E+00  0.61563286059E+03  0.61563286059E+03  0.00000000000E+00 0. -1.
         -1   -1    0    0    0  501 -0.00000000000E+00 -0.00000000000E+00 -0.28354044199E+02  0.28354044199E+02  0.00000000000E+00 0.  1.
         25    2    1    2    0    0  0.53083788566E+02 -0.32334938700E+02  0.43068464596E+03  0.45277020679E+03  0.12509260178E+03 0.  0.
          5    1    3    3  502    0  0.26168542728E+02 -0.75559445684E+02  0.18112869822E+03  0.19803812810E+03  0.41800000000E+01 0. -1.
         -5    1    3    3    0  502  0.26915245838E+02  0.43224506984E+02  0.24955594774E+03  0.25473207869E+03  0.41800000000E+01 0. -1.
        -11    1    1    2    0    0 -0.61513307584E+02  0.24955090871E+01  0.47377070409E+02  0.77683340403E+02  0.00000000000E+00 0.  1.
         11    1    1    2    0    0  0.84295190183E+01  0.29839429613E+02  0.10921710002E+03  0.11353335759E+03  0.00000000000E+00 0. -1.
</event>
<event>
 7    1  0.2334784E-009  0.1523616E+03  0.7561462E-02  0.1197601E+00
         -2   -1    0    0    0  501 -0.00000000000E+00  0.00000000000E+00  0.40983017345E+02  0.40983017345E+02  0.00000000000E+00 0.  1.
          2   -1    0    0  501    0  0.00000000000E+00 -0.00000000000E+00 -0.60710512466E+03  0.60710512466E+03  0.00000000000E+00 0. -1.
         25    2    1    2    0    0 -0.93444095031E+02  0.58111366952E+02 -0.35128945866E+03  0.38879339132E+03  0.12508911825E+03 0.  0.
          5    1    3    3  502    0  0.27638676165E+02  0.18626794529E+01 -0.10430945115E+03  0.10800601832E+03  0.41800000000E+01 0. -1.
         -5    1    3    3    0  502 -0.12108277120E+03  0.56248687499E+02 -0.24698000752E+03  0.28078737300E+03  0.41800000000E+01 0. -1.
        -11    1    1    2    0    0  0.35191365734E+02  0.23898867392E+02 -0.85018023010E+02  0.95066567843E+02  0.00000000000E+00 0.  1.
         11    1    1    2    0    0  0.58252729297E+02 -0.82010234344E+02 -0.12981462565E+03  0.16422818284E+03  0.00000000000E+00 0. -1.
</event>
<event>
 7    1  0.2334784E-009  0.8589688E+02  0.7561462E-02  0.1313104E+00
         -1   -1    0    0    0  501 -0.00000000000E+00  0.00000000000E+00  0.80496354367E+02  0.80496354367E+02  0.00000000000E+00 0. -1.
          1   -1    0    0  501    0  0.00000000000E+00 -0.00000000000E+00 -0.29442375070E+03  0.29442375070E+03  0.00000000000E+00 0.  1.
         25    2    1    2    0    0 -0.29209060209E+02  0.14618498198E+02 -0.22626339674E+03  0.26059400154E+03  0.12508892535E+03 0.  0.
          5    1    3    3  502    0 -0.22648901375E+02  0.69521582954E+02 -0.11626246537E+03  0.13740690115E+03  0.41800000000E+01 0.  1.
         -5    1    3    3    0  502 -0.65601588334E+01 -0.54903084756E+02 -0.11000093137E+03  0.12318710039E+03  0.41800000000E+01 0.  1.
        -11    1    1    2    0    0  0.14717494111E+02 -0.22288290672E+02 -0.46294190102E+02  0.53446464534E+02  0.00000000000E+00 0.  1.
         11    1    1    2    0    0  0.14491566098E+02  0.76697924739E+01  0.58630190511E+02  0.60879638993E+02  0.00000000000E+00 0. -1.
</event>
<event>
 7    1  0.2334784E-009  0.1681350E+03  0.7561462E-02  0.1179807E+00
         -2   -1    0    0    0  501 -0.00000000000E+00  0.00000000000E+00  0.25372093661E+02  0.25372093661E+02  0.00000000000E+00 0.  1.
          2   -1    0    0  501    0  0.00000000000E+00 -0.00000000000E+00 -0.13176242000E+04  0.13176242000E+04  0.00000000000E+00 0. -1.
         25    2    1    2    0    0 -0.13528181338E+03 -0.42908835374E+02 -0.80834178614E+03  0.83017967665E+03  0.12505804700E+03 0.  0.
          5    1    3    3  502    0 -0.14612772273E+03 -0.59702962571E+02 -0.58603965332E+03  0.60694126796E+03  0.41800000000E+01 0.  1.
         -5    1    3    3    0  502  0.10845909357E+02  0.16794127197E+02 -0.22230213282E+03  0.22323840869E+03  0.41800000000E+01 0.  1.
        -11    1    1    2    0    0  0.10671688452E+03  0.62150428593E+02 -0.44004677384E+03  0.45704740715E+03  0.00000000000E+00 0. -1.
         11    1    1    2    0    0  0.28564928858E+02 -0.19241593219E+02 -0.43863546395E+02  0.55769209898E+02  0.00000000000E+00 0.  1.
</event>
<event>
 7    1  0.2334784E-009  0.1035300E+03  0.7561462E-02  0.1273043E+00
          2   -1    0    0  501    0  0.00000000000E+00  0.00000000000E+00  0.70912795668E+02  0.70912795668E+02  0.00000000000E+00 0. -1.
         -2   -1    0    0    0  501 -0.00000000000E+00 -0.00000000000E+00 -0.21388992179E+03  0.21388992179E+03  0.00000000000E+00 0.  1.
         25    2    1    2    0    0  0.36316743622E+02 -0.83708199352E+01 -0.26506223071E+02  0.13318815527E+03  0.12509008094E+03 0.  0.
          5    1    3    3  502    0  0.36911768789E+02 -0.53249443962E+02 -0.50379352205E+02  0.82179884923E+02  0.41800000000E+01 0.  1.
         -5    1    3    3    0  502 -0.59502516749E+00  0.44878624027E+02  0.23873129134E+02  0.51008270350E+02  0.41800000000E+01 0.  1.
        -11    1    1    2    0    0 -0.66351661031E+02  0.21622850798E+01 -0.78777306108E+02  0.10301981536E+03  0.00000000000E+00 0.  1.
         11    1    1    2    0    0  0.30034917409E+02  0.62085348554E+01 -0.37693596946E+02  0.48594746831E+02  0.00000000000E+00 0. -1.
</event>
<event>
 7    1  0.2334784E-009  0.2039345E+03  0.7561462E-02  0.1146461E+00
         -2   -1    0    0    0  501 -0.00000000000E+00  0.00000000000E+00  0.17378091590E+03  0.17378091590E+03  0.00000000000E+00 0.  1.
          2   -1    0    0  501    0  0.00000000000E+00 -0.00000000000E+00 -0.62827422313E+03  0.62827422313E+03  0.00000000000E+00 0. -1.
         25    2    1    2    0    0  0.85828101264E+02 -0.16827624577E+03 -0.53258504016E+03  0.57877300072E+03  0.12509198013E+03 0.  0.
          5    1    3    3  502    0  0.18044375281E+02  0.11164881361E+02 -0.13821141455E+02  0.25666133448E+02  0.41800000000E+01 0.  1.
         -5    1    3    3    0  502  0.67783725983E+02 -0.17944112713E+03 -0.51876389871E+03  0.55310686727E+03  0.41800000000E+01 0.  1.
        -11    1    1    2    0    0 -0.38119360283E+02  0.31269678915E+02  0.59105081766E+02  0.76969403911E+02  0.00000000000E+00 0.  1.
         11    1    1    2    0    0 -0.47708740981E+02  0.13700656686E+03  0.18986651170E+02  0.14631273441E+03  0.00000000000E+00 0. -1.
</event>
<event>
 7    1  0.2334784E-009  0.1042255E+03  0.7561462E-02  0.1271653E+00
          3   -1    0    0  501    0  0.00000000000E+00  0.00000000000E+00  0.24046397797E+03  0.24046397797E+03  0.00000000000E+00 0. -1.
         -3   -1    0    0    0  501 -0.00000000000E+00 -0.00000000000E+00 -0.59500028293E+02  0.59500028293E+02  0.00000000000E+00 0.  1.
         25    2    1    2    0    0  0.42215440875E+02  0.11307907289E+02  0.68561509092E+02  0.14919597026E+03  0.12509494313E+03 0.  0.
          5    1    3    3  502    0 -0.31504957898E+02 -0.17959756876E+02  0.58745842542E+02  0.69164019947E+02  0.41800000000E+01 0.  1.
         -5    1    3    3    0  502  0.73720398773E+02  0.29267664165E+02  0.98156665496E+01  0.80031950312E+02  0.41800000000E+01 0.  1.
        -11    1    1    2    0    0 -0.55339534343E+02  0.19784536228E+02  0.97572357673E+02  0.11390459568E+03  0.00000000000E+00 0. -1.
         11    1    1    2    0    0  0.13124093468E+02 -0.31092443517E+02  0.14830082909E+02  0.36863440321E+02  0.00000000000E+00 0.  1.
</event>
<event>
 7    1  0.2334784E-009  0.1430912E+03  0.7561462E-02  0.1209229E+00
          2   -1    0    0  501    0  0.00000000000E+00  0.00000000000E+00  0.88837511653E+02  0.88837511653E+02  0.00000000000E+00 0.  1.
         -2   -1    0    0    0  501 -0.00000000000E+00 -0.00000000000E+00 -0.34008152633E+03  0.34008152633E+03  0.00000000000E+00 0. -1.
         25    2    1    2    0    0  0.12242948064E+03 -0.28935017997E+02 -0.19619106679E+03  0.26450896229E+03  0.12509134041E+03 0.  0.
          5    1    3    3  502    0 -0.11487699721E+02 -0.96862649741E+01  0.95101571307E+01  0.18267634293E+02  0.41800000000E+01 0. -1.
         -5    1    3    3    0  502  0.13391718036E+03 -0.19248753022E+02 -0.20570122392E+03  0.24624132799E+03  0.41800000000E+01 0. -1.
        -11    1    1    2    0    0 -0.22631772805E+02  0.27240496966E+02  0.18940899485E+02  0.40162164889E+02  0.00000000000E+00 0.  1.
         11    1    1    2    0    0 -0.99797707836E+02  0.16945210300E+01 -0.73993847369E+02  0.12424791080E+03  0.00000000000E+00 0. -1.
</event>
<event>
 7    1  0.2334784E-009  0.3403768E+03  0.7561462E-02  0.1066636E+00
          2   -1    0    0  501    0  0.00000000000E+00  0.00000000000E+00  0.33512368751E+03  0.33512368751E+03  0.00000000000E+00 0. -1.
         -2   -1    0    0    0  501 -0.00000000000E+00 -0.00000000000E+00 -0.38139690754E+03  0.38139690754E+03  0.00000000000E+00 0.  1.
         25    2    1    2    0    0  0.33503981474E+03  0.50264857034E+02 -0.57365237229E+02  0.36567199628E+03  0.12508798947E+03 0.  0.
          5    1    3    3  502    0  0.33332557313E+03  0.49165426507E+02 -0.30419730697E+02  0.33832825670E+03  0.41800000000E+01 0.  1.
         -5    1    3    3    0  502  0.17142416048E+01  0.10994305271E+01 -0.26945506532E+02  0.27343739577E+02  0.41800000000E+01 0.  1.
        -11    1    1    2    0    0 -0.12588664250E+03 -0.26514691711E+02  0.47670504720E+02  0.13719676621E+03  0.00000000000E+00 0. -1.
         11    1    1    2    0    0 -0.20915317223E+03 -0.23750165323E+02 -0.36578487523E+02  0.21365183256E+03  0.00000000000E+00 0.  1.
</event>
<event>
 7    1  0.2334784E-009  0.1224831E+03  0.7561462E-02  0.1239056E+00
         -2   -1    0    0    0  501 -0.00000000000E+00  0.00000000000E+00  0.10601599344E+02  0.10601599344E+02  0.00000000000E+00 0.  1.
          2   -1    0    0  501    0  0.00000000000E+00 -0.00000000000E+00 -0.16659108384E+04  0.16659108384E+04  0.00000000000E+00 0. -1.
         25    2    1    2    0    0 -0.51681807338E+02  0.41950550779E+02 -0.11763195884E+04  0.11848232125E+04  0.12508961975E+03 0.  0.
          5    1    3    3  502    0 -0.69069405124E+02  0.72305207774E+02 -0.10015585799E+04  0.10065464158E+04  0.41800000000E+01 0. -1.
         -5    1    3    3    0  502  0.17387597786E+02 -0.30354656994E+02 -0.17476100848E+03  0.17827679670E+03  0.41800000000E+01 0. -1.
        -11    1    1    2    0    0 -0.22334233134E+01 -0.54298089127E+02 -0.27597491981E+03  0.28127464697E+03  0.00000000000E+00 0.  1.
         11    1    1    2    0    0  0.53915230652E+02  0.12347538348E+02 -0.20301473086E+03  0.21041457826E+03  0.00000000000E+00 0. -1.
</event>
<event>
 7    1  0.2334784E-009  0.1047626E+03  0.7561462E-02  0.1270588E+00
         -3   -1    0    0    0  501 -0.00000000000E+00  0.00000000000E+00  0.37548755142E+03  0.37548755142E+03  0.00000000000E+00 0.  1.
          3   -1    0    0  501    0  0.00000000000E+00 -0.00000000000E+00 -0.37218648400E+02  0.37218648400E+02  0.00000000000E+00 0. -1.
         25    2    1    2    0    0 -0.23317792430E+02 -0.44373019823E+02  0.20250335128E+03  0.24324513105E+03  0.12509157514E+03 0.  0.
          5    1    3    3  502    0 -0.56390199131E+02  0.10993445824E+02  0.14760935102E+03  0.15845094925E+03  0.41800000000E+01 0.  1.
         -5    1    3    3    0  502  0.33072406702E+02 -0.55366465647E+02  0.54894000252E+02  0.84794181799E+02  0.41800000000E+01 0.  1.
        -11    1    1    2    0    0  0.39196366546E+02  0.55470760250E+02  0.57991238359E+02  0.89310380805E+02  0.00000000000E+00 0. -1.
         11    1    1    2    0    0 -0.15878574116E+02 -0.11097740427E+02  0.77774313381E+02  0.80150687960E+02  0.00000000000E+00 0.  1.
</event>
<event>
 7    1  0.2334784E-009  0.1129707E+03  0.7561462E-02  0.1255165E+00
          2   -1    0    0  501    0  0.00000000000E+00  0.00000000000E+00  0.29709954392E+03  0.29709954392E+03  0.00000000000E+00 0. -1.
         -2   -1    0    0    0  501 -0.00000000000E+00 -0.00000000000E+00 -0.49550669503E+02  0.49550669503E+02  0.00000000000E+00 0.  1.
         25    2    1    2    0    0 -0.18242273114E+02 -0.46906596814E+02  0.17489240793E+03  0.22084046561E+03  0.12510054975E+03 0.  0.
          5    1    3    3  502    0 -0.50412522915E+02  0.23745554468E+02  0.58776416086E+02  0.81101253452E+02  0.41800000000E+01 0. -1.
         -5    1    3    3    0  502  0.32170249801E+02 -0.70652151282E+02  0.11611599185E+03  0.13973921216E+03  0.41800000000E+01 0. -1.
        -11    1    1    2    0    0  0.56874525767E+01 -0.21770274245E+02 -0.31869556303E+01  0.22725506457E+02  0.00000000000E+00 0. -1.
         11    1    1    2    0    0  0.12554820537E+02  0.68676871059E+02  0.75843422114E+02  0.10308424135E+03  0.00000000000E+00 0.  1.
</event>
<event>
 7    1  0.2334784E-009  0.1677694E+03  0.7561462E-02  0.1180194E+00
         -1   -1    0    0    0  501 -0.00000000000E+00  0.00000000000E+00  0.10425586715E+03  0.10425586715E+03  0.00000000000E+00 0.  1.
          1   -1    0    0  501    0  0.00000000000E+00 -0.00000000000E+00 -0.30525283099E+03  0.30525283099E+03  0.00000000000E+00 0. -1.
         25    2    1    2    0    0 -0.57171804584E+01  0.13213064085E+03 -0.16246951743E+03  0.24399821052E+03  0.12509032831E+03 0.  0.
          5    1    3    3  502    0 -0.59772169854E+02  0.69464664552E+02 -0.50550510331E+02  0.10474196105E+03  0.41800000000E+01 0. -1.
         -5    1    3    3    0  502  0.54054989395E+02  0.62665976299E+02 -0.11191900710E+03  0.13925624946E+03  0.41800000000E+01 0. -1.
        -11    1    1    2    0    0  0.48459648256E+02 -0.60375498771E+02 -0.17072456219E+02  0.79278036822E+02  0.00000000000E+00 0.  1.
         11    1    1    2    0    0 -0.42742467798E+02 -0.71755142080E+02 -0.21454990187E+02  0.86232450807E+02  0.00000000000E+00 0. -1.
</event>
<event>
 7    1  0.2334784E-009  0.4541127E+02  0.7561462E-02  0.1471790E+00
          1   -1    0    0  501    0  0.00000000000E+00  0.00000000000E+00  0.46980540153E+03  0.46980540153E+03  0.00000000000E+00 0. -1.
         -1   -1    0    0    0  501 -0.00000000000E+00 -0.00000000000E+00 -0.27395187926E+02  0.27395187926E+02  0.00000000000E+00 0.  1.
         25    2    1    2    0    0  0.16324744392E+02 -0.25801574195E+02  0.24210634010E+03  0.27422117211E+03  0.12509817266E+03 0.  0.
          5    1    3    3  502    0  0.12926022152E+02 -0.26344181398E+02 -0.23232687980E+01  0.29731598009E+02  0.41800000000E+01 0. -1.
         -5    1    3    3    0  502  0.33987222392E+01  0.54260720351E+00  0.24442960890E+03  0.24448957410E+03  0.41800000000E+01 0. -1.
        -11    1    1    2    0    0 -0.78193967286E+01 -0.13475465160E+02 -0.28934001856E+01  0.15846226400E+02  0.00000000000E+00 0.  1.
         11    1    1    2    0    0 -0.85053476629E+01  0.39277039355E+02  0.20319727369E+03  0.20713319095E+03  0.00000000000E+00 0. -1.
</event>
<event>
 7    1  0.2334784E-009  0.2089543E+03  0.7561462E-02  0.1142397E+00
         -1   -1    0    0    0  501 -0.00000000000E+00  0.00000000000E+00  0.21838186797E+03  0.21838186797E+03  0.00000000000E+00 0.  1.
          1   -1    0    0  501    0  0.00000000000E+00 -0.00000000000E+00 -0.21900852212E+03  0.21900852212E+03  0.00000000000E+00 0. -1.
         25    2    1    2    0    0  0.18492492959E+03  0.42526767440E+02  0.54323248064E+01  0.22733724374E+03  0.12508779600E+03 0.  0.
          5    1    3    3  502    0  0.16846904589E+03 -0.88722650004E+01  0.23252572836E+02  0.17034873364E+03  0.41800000000E+01 0. -1.
         -5    1    3    3    0  502  0.16455883696E+02  0.51399032440E+02 -0.17820248029E+02  0.56988510104E+02  0.41800000000E+01 0. -1.
        -11    1    1    2    0    0 -0.65407502558E+02 -0.37512447265E+02  0.35601863497E+02  0.83383558182E+02  0.00000000000E+00 0.  1.
         11    1    1    2    0    0 -0.11951742703E+03 -0.50143201753E+01 -0.41660842455E+02  0.12666958816E+03  0.00000000000E+00 0. -1.
</event>
<event>
 7    1  0.2334784E-009  0.8839041E+02  0.7561462E-02  0.1306797E+00
         -2   -1    0    0    0  501 -0.00000000000E+00  0.00000000000E+00  0.24534983851E+02  0.24534983851E+02  0.00000000000E+00 0. -1.
          2   -1    0    0  501    0  0.00000000000E+00 -0.00000000000E+00 -0.80698588396E+03  0.80698588396E+03  0.00000000000E+00 0.  1.
         25    2    1    2    0    0  0.78476773028E+02  0.33701854073E+01 -0.54714728274E+03  0.56673438308E+03  0.12509096647E+03 0.  0.
          5    1    3    3  502    0  0.75796026245E+02  0.50470633056E+01 -0.55338321425E+03  0.55858836782E+03  0.41800000000E+01 0. -1.
         -5    1    3    3    0  502  0.26807467829E+01 -0.16768778983E+01  0.62359315105E+01  0.81460152592E+01  0.41800000000E+01 0. -1.
        -11    1    1    2    0    0 -0.54692184617E+02  0.23542715518E+02 -0.21590626393E+03  0.22396653615E+03  0.00000000000E+00 0.  1.
         11    1    1    2    0    0 -0.23784588411E+02 -0.26912900925E+02 -0.19397353439E+02  0.40819948586E+02  0.00000000000E+00 0. -1.
</event>
<event>
 7    1  0.2334784E-009  0.1168586E+03  0.7561462E-02  0.1248371E+00
          2   -1    0    0  501    0  0.00000000000E+00  0.00000000000E+00  0.11192293010E+04  0.11192293010E+04  0.00000000000E+00 0.  1.
         -2   -1    0    0    0  501 -0.00000000000E+00 -0.00000000000E+00 -0.15093502106E+02  0.15093502106E+02  0.00000000000E+00 0. -1.
         25    2    1    2    0    0 -0.91572573729E+01  0.59434981574E+02  0.79100988267E+03  0.80309413622E+03  0.12508870751E+03 0.  0.
          5    1    3    3  502    0 -0.59255634487E+02  0.51334116183E+02  0.32673789705E+03  0.33603801492E+03  0.41800000000E+01 0.  1.
         -5    1    3    3    0  502  0.50098377115E+02  0.81008653907E+01  0.46427198562E+03  0.46705612130E+03  0.41800000000E+01 0.  1.
        -11    1    1    2    0    0  0.31719803812E+02 -0.71844830892E+02  0.19286834935E+03  0.20824511005E+03  0.00000000000E+00 0. -1.
         11    1    1    2    0    0 -0.22562546439E+02  0.12409849318E+02  0.12025756690E+03  0.12298355687E+03  0.00000000000E+00 0.  1.
</event>
<event>
 7    1  0.2334784E-009  0.9781927E+02  0.7561462E-02  0.1284950E+00
         -2   -1    0    0    0  501 -0.00000000000E+00  0.00000000000E+00  0.13376103486E+02  0.13376103486E+02  0.00000000000E+00 0.  1.
          2   -1    0    0  501    0  0.00000000000E+00 -0.00000000000E+00 -0.17697057675E+04  0.17697057675E+04  0.00000000000E+00 0. -1.
         25    2    1    2    0    0 -0.56486899707E+02  0.27906646202E+02 -0.14605849098E+04  0.14672856378E+04  0.12509721600E+03 0.  0.
          5    1    3    3  502    0 -0.13910763425E+01  0.38038191966E+02 -0.13017409492E+03  0.13568937515E+03  0.41800000000E+01 0. -1.
         -5    1    3    3    0  502 -0.55095823365E+02 -0.10131545764E+02 -0.13304108149E+04  0.13315962627E+04  0.41800000000E+01 0. -1.
        -11    1    1    2    0    0  0.38354457895E+02  0.24637532963E+02 -0.71741548952E+02  0.84999543039E+02  0.00000000000E+00 0.  1.
         11    1    1    2    0    0  0.18132441813E+02 -0.52544179165E+02 -0.22400320528E+03  0.23079669015E+03  0.00000000000E+00 0. -1.
</event>
<event>
 7    1  0.2334784E-009  0.9698735E+02  0.7561462E-02  0.1286762E+00
          4   -1    0    0  501    0  0.00000000000E+00  0.00000000000E+00  0.46779841558E+02  0.46779841558E+02  0.00000000000E+00 0. -1.
         -4   -1    0    0    0  501 -0.00000000000E+00 -0.00000000000E+00 -0.30548470999E+03  0.30548470999E+03  0.00000000000E+00 0.  1.
         25    2    1    2    0    0 -0.30172901057E+01  0.18876437734E+02 -0.78954719112E+02  0.14915577810E+03  0.12509266378E+03 0.  0.
          5    1    3    3  502    0 -0.63549912798E+02  0.16404279096E+02 -0.43179652837E+02  0.78674307168E+02  0.41800000000E+01 0. -1.
         -5    1    3    3    0  502  0.60532622692E+02  0.24721586377E+01 -0.35775066275E+02  0.70481470936E+02  0.41800000000E+01 0. -1.
        -11    1    1    2    0    0  0.31583385200E+02  0.26768458198E+01 -0.16022604002E+02  0.35516187341E+02  0.00000000000E+00 0. -1.
         11    1    1    2    0    0 -0.28566095094E+02 -0.21553283553E+02 -0.16372754532E+03  0.16759258610E+03  0.00000000000E+00 0.  1.
</event>
<event>
 7    1  0.2334784E-009  0.1016809E+03  0.7561462E-02  0.1276800E+00
          2   -1    0    0  501    0  0.00000000000E+00  0.00000000000E+00  0.30945942775E+03  0.30945942775E+03  0.00000000000E+00 0. -1.
         -2   -1    0    0    0  501 -0.00000000000E+00 -0.00000000000E+00 -0.70175015168E+02  0.70175015168E+02  0.00000000000E+00 0.  1.
         25    2    1    2    0    0  0.74231373142E+02 -0.34724516829E+02  0.20168894692E+03  0.25108304814E+03  0.12509267336E+03 0.  0.
          5    1    3    3  502    0  0.22894064127E+02 -0.57096592720E+02  0.18103917916E+03  0.19125066239E+03  0.41800000000E+01 0.  1.
         -5    1    3    3    0  502  0.51337309015E+02  0.22372075891E+02  0.20649767758E+02  0.59832385754E+02  0.41800000000E+01 0.  1.
        -11    1    1    2    0    0 -0.61624154597E+02  0.17235521778E+02  0.66634740444E+02  0.92383917837E+02  0.00000000000E+00 0. -1.
         11    1    1    2    0    0 -0.12607218544E+02  0.17488995052E+02 -0.29039274789E+02  0.36167476932E+02  0.00000000000E+00 0.  1.
</event>
<event>
 7    1  0.2334784E-009  0.1340390E+03  0.7561462E-02  0.1221583E+00
         -1   -1    0    0    0  501 -0.00000000000E+00  0.00000000000E+00  0.83602530827E+02  0.83602530827E+02  0.00000000000E+00 0.  1.
          1   -1    0    0  501    0  0.00000000000E+00 -0.00000000000E+00 -0.25720823345E+03  0.25720823345E+03  0.00000000000E+00 0. -1.
         25    2    1    2    0    0 -0.54284364982E+01  0.10837171226E+03 -0.57322868457E+02  0.17523499439E+03  0.12508995191E+03 0.  0.
          5    1    3    3  502    0  0.42875462358E+02  0.49532559084E+01 -0.41325009598E+02  0.59900491106E+02  0.41800000000E+01 0. -1.
         -5    1    3    3    0  502 -0.48303898856E+02  0.10341845635E+03 -0.15997858859E+02  0.11533450328E+03  0.41800000000E+01 0. -1.
        -11    1    1    2    0    0  0.12905459738E+02 -0.84521750864E+02 -0.11085697146E+03  0.13999909064E+03  0.00000000000E+00 0. -1.
         11    1    1    2    0    0 -0.74770232400E+01 -0.23849961397E+02 -0.54258627082E+01  0.25576679247E+02  0.00000000000E+00 0.  1.
</event>
<event>
 7    1  0.2334784E-009  0.1239181E+03  0.7561462E-02  0.1236770E+00
         -1   -1    0    0    0  501 -0.00000000000E+00  0.00000000000E+00  0.24740583394E+03  0.24740583394E+03  0.00000000000E+00 0.  1.
          1   -1    0    0  501    0  0.00000000000E+00 -0.00000000000E+00 -0.13751707594E+03  0.13751707594E+03  0.00000000000E+00 0. -1.
         25    2    1    2    0    0  0.53890999663E+00  0.59918068976E+02  0.19943960702E+03  0.24292770326E+03  0.12508895534E+03 0.  0.
          5    1    3    3  502    0 -0.30800896426E+02 -0.29926644241E+02  0.69822523501E+02  0.82078964688E+02  0.41800000000E+01 0.  1.
         -5    1    3    3    0  502  0.31339806423E+02  0.89844713218E+02  0.12961708352E+03  0.16084873857E+03  0.41800000000E+01 0.  1.
        -11    1    1    2    0    0 -0.40866523876E+02 -0.55429273343E+02 -0.48176521914E+02  0.84044359601E+02  0.00000000000E+00 0.  1.
         11    1    1    2    0    0  0.40327613879E+02 -0.44887956336E+01 -0.41374327105E+02  0.57950847024E+02  0.00000000000E+00 0. -1.
</event>
<event>
 7    1  0.2334784E-009  0.5983707E+02  0.7561462E-02  0.1398517E+00
         -2   -1    0    0    0  501 -0.00000000000E+00  0.00000000000E+00  0.39253081254E+02  0.39253081254E+02  0.00000000000E+00 0.  1.
          2   -1    0    0  501    0  0.00000000000E+00 -0.00000000000E+00 -0.31234849651E+03  0.31234849651E+03  0.00000000000E+00 0. -1.
         25    2    1    2    0    0 -0.30789959200E+02  0.96743218587E+01 -0.14604791196E+03  0.19498404622E+03  0.12508865497E+03 0.  0.
          5    1    3    3  502    0  0.50791992975E+01 -0.17339274572E+02  0.17399242514E+02  0.25429407155E+02  0.41800000000E+01 0. -1.
         -5    1    3    3    0  502 -0.35869158498E+02  0.27013596431E+02 -0.16344715447E+03  0.16955463906E+03  0.41800000000E+01 0. -1.
        -11    1    1    2    0    0  0.41420574844E+02  0.34672635125E+00 -0.13413117462E+03  0.14038146689E+03  0.00000000000E+00 0. -1.
         11    1    1    2    0    0 -0.10630615644E+02 -0.10021048210E+02  0.70836713238E+01  0.16236064659E+02  0.00000000000E+00 0.  1.
</event>
<event>
 7    1  0.2334784E-009  0.1475728E+03  0.7561462E-02  0.1203488E+00
         -2   -1    0    0    0  501 -0.00000000000E+00  0.00000000000E+00  0.45717595482E+02  0.45717595482E+02  0.00000000000E+00 0.  1.
          2   -1    0    0  501    0  0.00000000000E+00 -0.00000000000E+00 -0.59519805441E+03  0.59519805441E+03  0.00000000000E+00 0. -1.
         25    2    1    2    0    0  0.78806259839E+01  0.11205710445E+03 -0.21652614128E+03  0.27413310318E+03  0.12508592839E+03 0.  0.
          5    1    3    3  502    0 -0.10705497027E+02  0.12009275412E+03 -0.22207258816E+03  0.25272630269E+03  0.41800000000E+01 0.  1.
         -5    1    3    3    0  502  0.18586123011E+02 -0.80356496708E+01  0.55464468863E+01  0.21406800492E+02  0.41800000000E+01 0.  1.
        -11    1    1    2    0    0  0.48672570072E+02 -0.47605090023E+02 -0.14409114631E+03  0.15936600051E+03  0.00000000000E+00 0.  1.
         11    1    1    2    0    0 -0.56553196056E+02 -0.64452014427E+02 -0.18886317135E+03  0.20741654620E+03  0.00000000000E+00 0. -1.
</event>
<event>
 7    1  0.2334784E-009  0.3296268E+03  0.7561462E-02  0.1071302E+00
         -1   -1    0    0    0  501 -0.00000000000E+00  0.00000000000E+00  0.37390214824E+03  0.37390214824E+03  0.00000000000E+00 0.  1.
          1   -1    0    0  501    0  0.00000000000E+00 -0.00000000000E+00 -0.37136138965E+03  0.37136138965E+03  0.00000000000E+00 0. -1.
         25    2    1    2    0    0  0.30281428032E+02  0.31758762209E+03  0.16001933691E+03  0.37819517088E+03  0.12508611634E+03 0.  0.
          5    1    3    3  502    0  0.71321860904E+02  0.25810129164E+03  0.14394749145E+03  0.30404183476E+03  0.41800000000E+01 0. -1.
         -5    1    3    3    0  502 -0.41040432872E+02  0.59486330450E+02  0.16071845453E+02  0.74153336115E+02  0.41800000000E+01 0. -1.
        -11    1    1    2    0    0 -0.13126866163E+02 -0.15988886193E+03 -0.12909905438E+03  0.20592068528E+03  0.00000000000E+00 0. -1.
         11    1    1    2    0    0 -0.17154561869E+02 -0.15769876016E+03 -0.28379523928E+02  0.16114768173E+03  0.00000000000E+00 0.  1.
</event>
<event>
 7    1  0.2334784E-009  0.1237520E+03  0.7561462E-02  0.1237033E+00
          1   -1    0    0  501    0  0.00000000000E+00  0.00000000000E+00  0.18521576566E+03  0.18521576566E+03  0.00000000000E+00 0. -1.
         -1   -1    0    0    0  501 -0.00000000000E+00 -0.00000000000E+00 -0.93252571228E+02  0.93252571228E+02  0.00000000000E+00 0.  1.
         25    2    1    2    0    0 -0.61799845016E+02  0.33690136884E+02  0.25643202441E+02  0.14580624897E+03  0.12509053617E+03 0.  0.
          5    1    3    3  502    0  0.31571309687E+02  0.34166223319E+02 -0.60852363695E+01  0.47101814327E+02  0.41800000000E+01 0. -1.
         -5    1    3    3    0  502 -0.93371154703E+02 -0.47608643534E+00  0.31728438810E+02  0.98704434643E+02  0.41800000000E+01 0. -1.
        -11    1    1    2    0    0  0.46566473453E+02 -0.60590078102E+02  0.23694002167E+02  0.80006248212E+02  0.00000000000E+00 0.  1.
         11    1    1    2    0    0  0.15233371563E+02  0.26899941218E+02  0.42625989827E+02  0.52655839709E+02  0.00000000000E+00 0. -1.
</event>
<event>
 7    1  0.2334784E-009  0.9921388E+02  0.7561462E-02  0.1281958E+00
          1   -1    0    0  501    0  0.00000000000E+00  0.00000000000E+00  0.21969652456E+03  0.21969652456E+03  0.00000000000E+00 0. -1.
         -1   -1    0    0    0  501 -0.00000000000E+00 -0.00000000000E+00 -0.75111486728E+02  0.75111486728E+02  0.00000000000E+00 0.  1.
         25    2    1    2    0    0 -0.31267031584E+02 -0.46192818977E+02  0.66709152859E+01  0.13710041441E+03  0.12506245932E+03 0.  0.
          5    1    3    3  502    0 -0.67874502183E+02 -0.61740452095E+02 -0.12597449441E+02  0.92709220706E+02  0.41800000000E+01 0. -1.
         -5    1    3    3    0  502  0.36607470598E+02  0.15547633119E+02  0.19268364727E+02  0.44391193704E+02  0.41800000000E+01 0. -1.
        -11    1    1    2    0    0 -0.51558616190E+01  0.22623147631E+02  0.15684479359E+02  0.28007010025E+02  0.00000000000E+00 0.  1.
         11    1    1    2    0    0  0.36422893203E+02  0.23569671346E+02  0.12222964319E+03  0.12970058685E+03  0.00000000000E+00 0. -1.
</event>
<event>
 7    1  0.2334784E-009  0.1018616E+03  0.7561462E-02  0.1276429E+00
          1   -1    0    0  501    0  0.00000000000E+00  0.00000000000E+00  0.93245655060E+03  0.93245655060E+03  0.00000000000E+00 0. -1.
         -1   -1    0    0    0  501 -0.00000000000E+00 -0.00000000000E+00 -0.20013851890E+02  0.20013851890E+02  0.00000000000E+00 0.  1.
         25    2    1    2    0    0  0.28205008450E+02  0.70748999666E+02  0.61892947541E+03  0.63602044223E+03  0.12508942385E+03 0.  0.
          5    1    3    3  502    0  0.35435847013E+02  0.35393943071E+02  0.71553624109E+02  0.87440402462E+02  0.41800000000E+01 0.  1.
         -5    1    3    3    0  502 -0.72308385626E+01  0.35355056595E+02  0.54737585130E+03  0.54858003977E+03  0.41800000000E+01 0.  1.
        -11    1    1    2    0    0 -0.45045214822E+02 -0.84260977634E+02  0.22048577235E+03  0.24029764780E+03  0.00000000000E+00 0.  1.
         11    1    1    2    0    0  0.16840206372E+02  0.13511977968E+02  0.73027450958E+02  0.76152312458E+02  0.00000000000E+00 0. -1.
</event>
<event>
 7    1  0.2334784E-009  0.1000384E+03  0.7561462E-02  0.1280215E+00
          1   -1    0    0  501    0  0.00000000000E+00  0.00000000000E+00  0.12227759006E+04  0.12227759006E+04  0.00000000000E+00 0. -1.
         -1   -1    0    0    0  501 -0.00000000000E+00 -0.00000000000E+00 -0.14989823401E+02  0.14989823401E+02  0.00000000000E+00 0.  1.
         25    2    1    2    0    0 -0.74327308635E+02 -0.31887950759E+02  0.80823861623E+03  0.82185012377E+03  0.12508627010E+03 0.  0.
          5    1    3    3  502    0 -0.31453929823E+02 -0.26091214508E+02  0.62169071196E+02  0.74515548640E+02  0.41800000000E+01 0. -1.
         -5    1    3    3    0  502 -0.42873378812E+02 -0.57967362509E+01  0.74606954503E+03  0.74733457513E+03  0.41800000000E+01 0. -1.
        -11    1    1    2    0    0  0.76377054305E+02 -0.69015461724E+01  0.26531686890E+03  0.27617770852E+03  0.00000000000E+00 0.  1.
         11    1    1    2    0    0 -0.20497456700E+01  0.38789496931E+02  0.13423059204E+03  0.13973789167E+03  0.00000000000E+00 0. -1.
</event>
<event>
 7    1  0.2334784E-009  0.9681502E+02  0.7561462E-02  0.1287140E+00
         -2   -1    0    0    0  501 -0.00000000000E+00  0.00000000000E+00  0.23482625518E+02  0.23482625518E+02  0.00000000000E+00 0.  1.
          2   -1    0    0  501    0  0.00000000000E+00 -0.00000000000E+00 -0.95545698702E+03  0.95545698702E+03  0.00000000000E+00 0. -1.
         25    2    1    2    0    0 -0.66857845934E+02  0.37598410848E+02 -0.72955142379E+03  0.74416146928E+03  0.12508956929E+03 0.  0.
          5    1    3    3  502    0 -0.47159962985E+01  0.23766064866E+02 -0.59225935310E+03  0.59276950006E+03  0.41800000000E+01 0.  1.
         -5    1    3    3    0  502 -0.62141849636E+02  0.13832345983E+02 -0.13729207069E+03  0.15139196922E+03  0.41800000000E+01 0.  1.
        -11    1    1    2    0    0  0.82521420304E+00  0.18548307892E+02 -0.50950333570E+01  0.19253053499E+02  0.00000000000E+00 0.  1.
         11    1    1    2    0    0  0.66032631731E+02 -0.56146718740E+02 -0.19732790436E+03  0.21552508976E+03  0.00000000000E+00 0. -1.
</event>
<event>
 7    1  0.2334784E-009  0.1504928E+03  0.7561462E-02  0.1199869E+00
         -2   -1    0    0    0  501 -0.00000000000E+00  0.00000000000E+00  0.60257541028E+02  0.60257541028E+02  0.00000000000E+00 0.  1.
          2   -1    0    0  501    0  0.00000000000E+00 -0.00000000000E+00 -0.73497107559E+03  0.73497107559E+03  0.00000000000E+00 0. -1.
         25    2    1    2    0    0 -0.12555412391E+03  0.95315963202E+01 -0.59531610037E+03  0.62121097455E+03  0.12508847338E+03 0.  0.
          5    1    3    3  502    0 -0.59018079069E+02 -0.49005222148E+02 -0.16729229654E+03  0.18408919125E+03  0.41800000000E+01 0. -1.
         -5    1    3    3    0  502 -0.66536044839E+02  0.58536818468E+02 -0.42802380384E+03  0.43712178329E+03  0.41800000000E+01 0. -1.
        -11    1    1    2    0    0  0.11805012758E+03 -0.22768024813E+02 -0.94241856675E+02  0.15276041085E+03  0.00000000000E+00 0. -1.
         11    1    1    2    0    0  0.75039963308E+01  0.13236428493E+02  0.14844422487E+02  0.21257231220E+02  0.00000000000E+00 0.  1.
</event>
<event>
 7    1  0.2334784E-009  0.1159857E+03  0.7561462E-02  0.1249870E+00
         -2   -1    0    0    0  501 -0.00000000000E+00  0.00000000000E+00  0.83971033933E+03  0.83971033933E+03  0.00000000000E+00 0.  1.
          2   -1    0    0  501    0  0.00000000000E+00 -0.00000000000E+00 -0.28819297965E+02  0.28819297965E+02  0.00000000000E+00 0. -1.
         25    2    1    2    0    0 -0.56378638105E+02 -0.92232188270E+02  0.38741982698E+03  0.42122101294E+03  0.12509073515E+03 0.  0.
          5    1    3    3  502    0 -0.20735574310E+02 -0.28965143804E+02  0.32012848470E+03  0.32213143701E+03  0.41800000000E+01 0.  1.
         -5    1    3    3    0  502 -0.35643063795E+02 -0.63267044466E+02  0.67291342283E+02  0.99089575932E+02  0.41800000000E+01 0.  1.
        -11    1    1    2    0    0  0.39534236443E+02  0.97911696291E+02  0.41382465984E+03  0.42708372155E+03  0.00000000000E+00 0.  1.
         11    1    1    2    0    0  0.16844401662E+02 -0.56795080206E+01  0.96465545476E+01  0.20224902802E+02  0.00000000000E+00 0. -1.
</event>
<event>
 7    1  0.2334784E-009  0.1263929E+03  0.7561462E-02  0.1232908E+00
          1   -1    0    0  501    0  0.00000000000E+00  0.00000000000E+00  0.50284122121E+03  0.50284122121E+03  0.00000000000E+00 0.  1.
         -1   -1    0    0    0  501 -0.00000000000E+00 -0.00000000000E+00 -0.42657114903E+02  0.42657114903E+02  0.00000000000E+00 0. -1.
         25    2    1    2    0    0 -0.66919914559E+02  0.37548181586E+02  0.36645078971E+03  0.39474308886E+03  0.12509110288E+03 0.  0.
          5    1    3    3  502    0 -0.14882372219E+02 -0.45237495469E+02  0.98769287917E+02  0.10973039978E+03  0.41800000000E+01 0. -1.
         -5    1    3    3    0  502 -0.52037542339E+02  0.82785677055E+02  0.26768150179E+03  0.28501268908E+03  0.41800000000E+01 0. -1.
        -11    1    1    2    0    0 -0.14311181351E+02 -0.18999675236E+02  0.52823490170E+02  0.57932017784E+02  0.00000000000E+00 0. -1.
         11    1    1    2    0    0  0.81231095910E+02 -0.18548506350E+02  0.40909826428E+02  0.92823229468E+02  0.00000000000E+00 0.  1.
</event>
<event>
 7    1  0.2334784E-009  0.7852006E+02  0.7561462E-02  0.1333305E+00
         -2   -1    0    0    0  501 -0.00000000000E+00  0.00000000000E+00  0.28655145043E+03  0.28655145043E+03  0.00000000000E+00 0.  1.
          2   -1    0    0  501    0  0.00000000000E+00 -0.00000000000E+00 -0.48286277554E+02  0.48286277554E+02  0.00000000000E+00 0. -1.
         25    2    1    2    0    0  0.25714948636E+02 -0.19057069655E+02  0.89607830926E+02  0.15716802341E+03  0.12509114170E+03 0.  0.
          5    1    3    3  502    0  0.45581473640E+02 -0.18299743921E+02  0.11472260957E+03  0.12486513090E+03  0.41800000000E+01 0.  1.
         -5    1    3    3    0  502 -0.19866525004E+02 -0.75732573385E+00 -0.25114778648E+02  0.32302892510E+02  0.41800000000E+01 0.  1.
        -11    1    1    2    0    0 -0.41170632507E+02  0.42614744058E+02  0.13260728201E+03  0.14524368707E+03  0.00000000000E+00 0.  1.
         11    1    1    2    0    0  0.15455683871E+02 -0.23557674403E+02  0.16050059944E+02  0.32426017508E+02  0.00000000000E+00 0. -1.
</event>
<event>
 7    1  0.2334784E-009  0.2096875E+03  0.7561462E-02  0.1141814E+00
         -1   -1    0    0    0  501 -0.00000000000E+00  0.00000000000E+00  0.18747611179E+03  0.18747611179E+03  0.00000000000E+00 0.  1.
          1   -1    0    0  501    0  0.00000000000E+00 -0.00000000000E+00 -0.30100622412E+03  0.30100622412E+03  0.00000000000E+00 0. -1.
         25    2    1    2    0    0  0.39178107474E+02  0.19742994545E+03 -0.12353526231E+03  0.26725090185E+03  0.12509426860E+03 0.  0.
          5    1    3    3  502    0  0.14467656061E+02  0.16686131803E+03 -0.14561315501E+03  0.22197449367E+03  0.41800000000E+01 0. -1.
         -5    1    3    3    0  502  0.24710451413E+02  0.30568627417E+02  0.22077892701E+02  0.45276408176E+02  0.41800000000E+01 0. -1.
        -11    1    1    2    0    0 -0.57125961765E+02 -0.17155786616E+03  0.30901775012E+02  0.18344044442E+03  0.00000000000E+00 0.  1.
         11    1    1    2    0    0  0.17947854291E+02 -0.25872079290E+02 -0.20896625039E+02  0.37790989646E+02  0.00000000000E+00 0. -1.
</event>
<event>
 7    1  0.2334784E-009  0.1190801E+03  0.7561462E-02  0.1244622E+00
         -2   -1    0    0    0  501 -0.00000000000E+00  0.00000000000E+00  0.27176579262E+03  0.27176579262E+03  0.00000000000E+00 0.  1.
          2   -1    0    0  501    0  0.00000000000E+00 -0.00000000000E+00 -0.58234351584E+02  0.58234351584E+02  0.00000000000E+00 0. -1.
         25    2    1    2    0    0 -0.41282734297E+02  0.39334224993E+02  0.82298465300E+02  0.16022603367E+03  0.12509156274E+03 0.  0.
          5    1    3    3  502    0  0.35888089142E+02  0.47128145898E+02  0.41853147348E+02  0.72651052443E+02  0.41800000000E+01 0.  1.
         -5    1    3    3    0  502 -0.77170823439E+02 -0.77939209048E+01  0.40445317951E+02  0.87574981231E+02  0.41800000000E+01 0.  1.
        -11    1    1    2    0    0  0.62135161594E+02 -0.48002515617E+02  0.12262091327E+03  0.14560531647E+03  0.00000000000E+00 0.  1.
         11    1    1    2    0    0 -0.20852427296E+02  0.86682906233E+01  0.86120624607E+01  0.24168794060E+02  0.00000000000E+00 0. -1.
</event>
<event>
 7    1  0.2334784E-009  0.1530639E+03  0.7561462E-02  0.1196758E+00
         -1   -1    0    0    0  501 -0.00000000000E+00  0.00000000000E+00  0.90909821034E+02  0.90909821034E+02  0.00000000000E+00 0.  1.
          1   -1    0    0  501    0  0.00000000000E+00 -0.00000000000E+00 -0.27579921649E+03  0.27579921649E+03  0.00000000000E+00 0. -1.
         25    2    1    2    0    0 -0.11592773521E+03 -0.16524935291E+02 -0.94621611173E+02  0.19573762576E+03  0.12509058941E+03 0.  0.
          5    1    3    3  502    0 -0.56830589646E+01 -0.46917520801E+02 -0.59366876514E+02  0.75996377179E+02  0.41800000000E+01 0. -1.
         -5    1    3    3    0  502 -0.11024467625E+03  0.30392585510E+02 -0.35254734659E+02  0.11974124858E+03  0.41800000000E+01 0. -1.
        -11    1    1    2    0    0  0.10234744600E+03  0.45685834664E+02 -0.77964693737E+02  0.13653090735E+03  0.00000000000E+00 0.  1.
         11    1    1    2    0    0  0.13580289211E+02 -0.29160899373E+02 -0.12303090545E+02  0.34440504414E+02  0.00000000000E+00 0. -1.
</event>
<event>
 7    1  0.2334784E-009  0.1098263E+03  0.7561462E-02  0.1260892E+00
          1   -1    0    0  501    0  0.00000000000E+00  0.00000000000E+00  0.31423857055E+03  0.31423857055E+03  0.00000000000E+00 0. -1.
         -1   -1    0    0    0  501 -0.00000000000E+00 -0.00000000000E+00 -0.53573590580E+02  0.53573590580E+02  0.00000000000E+00 0.  1.
         25    2    1    2    0    0 -0.23379136334E+02 -0.62500865090E+02  0.13526065061E+03  0.19594919118E+03  0.12509076611E+03 0.  0.
          5    1    3    3  502    0 -0.74305266192E+02 -0.48371986035E+02  0.84431659028E+02  0.12250428182E+03  0.41800000000E+01 0. -1.
         -5    1    3    3    0  502  0.50926129858E+02 -0.14128879055E+02  0.50828991587E+02  0.73444909363E+02  0.41800000000E+01 0. -1.
        -11    1    1    2    0    0 -0.60957530350E+01  0.40854477436E+02  0.12867968906E+03  0.13514699001E+03  0.00000000000E+00 0. -1.
         11    1    1    2    0    0  0.29474889369E+02  0.21646387655E+02 -0.32753597077E+01  0.36715979941E+02  0.00000000000E+00 0.  1.
</event>
<event>
 7    1  0.2334784E-009  0.1123971E+03  0.7561462E-02  0.1256194E+00
          4   -1    0    0  501    0  0.00000000000E+00  0.00000000000E+00  0.17970131083E+03  0.17970131083E+03  0.00000000000E+00 0. -1.
         -4   -1    0    0    0  501 -0.00000000000E+00 -0.00000000000E+00 -0.13383158474E+03  0.13383158474E+03  0.00000000000E+00 0.  1.
         25    2    1    2    0    0  0.97646811700E+01 -0.56198622391E+02 -0.71828733791E+02  0.15511836195E+03  0.12509478430E+03 0.  0.
          5    1    3    3  502    0 -0.20161128282E+02  0.24976187225E+02  0.12055230276E+02  0.34541019077E+02  0.41800000000E+01 0.  1.
         -5    1    3    3    0  502  0.29925809452E+02 -0.81174809616E+02 -0.83883964067E+02  0.12057734288E+03  0.41800000000E+01 0.  1.
        -11    1    1    2    0    0  0.32315925714E+02  0.54903852546E+02  0.65818113393E+02  0.91601179740E+02  0.00000000000E+00 0.  1.
         11    1    1    2    0    0 -0.42080606884E+02  0.12947698444E+01  0.51880346487E+02  0.66813353877E+02  0.00000000000E+00 0. -1.
</event>
<event>
 7    1  0.2334784E-009  0.1176154E+03  0.7561462E-02  0.1247084E+00
         -4   -1    0    0    0  501 -0.00000000000E+00  0.00000000000E+00  0.70391427380E+03  0.70391427380E+03  0.00000000000E+00 0. -1.
          4   -1    0    0  501    0  0.00000000000E+00 -0.00000000000E+00 -0.35896431128E+02  0.35896431128E+02  0.00000000000E+00 0.  1.
         25    2    1    2    0    0  0.15994722143E+02  0.10417286991E+03  0.24503182803E+03  0.29461187220E+03  0.12509092906E+03 0.  0.
          5    1    3    3  502    0  0.21968171949E+02  0.42912735673E+02  0.72165995299E+01  0.48924995355E+02  0.41800000000E+01 0.  1.
         -5    1    3    3    0  502 -0.59734498064E+01  0.61260134241E+02  0.23781522850E+03  0.24568687685E+03  0.41800000000E+01 0.  1.
        -11    1    1    2    0    0 -0.19660670725E+02  0.12137768455E+01  0.17912517845E+02  0.26624678836E+02  0.00000000000E+00 0.  1.
         11    1    1    2    0    0  0.36659485817E+01 -0.10538664676E+03  0.40507349680E+03  0.41857415389E+03  0.00000000000E+00 0. -1.
</event>
<event>
 7    1  0.2425124E-009  0.1138762E+03  0.7561462E-02  0.1253555E+00
         -3   -1    0    0    0  501 -0.00000000000E+00  0.00000000000E+00  0.70266613387E+02  0.70266613387E+02  0.00000000000E+00 0.  1.
          3   -1    0    0  501    0  0.00000000000E+00 -0.00000000000E+00 -0.32650570699E+03  0.32650570699E+03  0.00000000000E+00 0. -1.
         25    2    1    2    0    0  0.76441077096E+02 -0.13225976770E+01 -0.23353236721E+03  0.27573448967E+03  0.12508858751E+03 0.  0.
          5    1    3    3  502    0  0.10755369533E+03  0.18771609793E+02 -0.17778347426E+03  0.20867344545E+03  0.41800000000E+01 0.  1.
         -5    1    3    3    0  502 -0.31112618235E+02 -0.20094207470E+02 -0.55748892952E+02  0.67061044226E+02  0.41800000000E+01 0.  1.
        -11    1    1    2    0    0 -0.17630646692E+02 -0.11471824312E+02  0.32930623973E+02  0.39075164121E+02  0.00000000000E+00 0.  1.
         11    1    1    2    0    0 -0.58810430404E+02  0.12794421989E+02 -0.55637350359E+02  0.81962666582E+02  0.00000000000E+00 0. -1.
</event>
<event>
 7    1  0.2334784E-009  0.1043614E+03  0.7561462E-02  0.1271383E+00
          1   -1    0    0  501    0  0.00000000000E+00  0.00000000000E+00  0.74820065282E+02  0.74820065282E+02  0.00000000000E+00 0. -1.
         -1   -1    0    0    0  501 -0.00000000000E+00 -0.00000000000E+00 -0.19354939135E+03  0.19354939135E+03  0.00000000000E+00 0.  1.
         25    2    1    2    0    0  0.40918214146E+02 -0.41321864701E+01 -0.10426528253E+03  0.16792999505E+03  0.12505142494E+03 0.  0.
          5    1    3    3  502    0  0.41440941286E+02 -0.50886341066E+02 -0.15568874711E+02  0.67576871647E+02  0.41800000000E+01 0. -1.
         -5    1    3    3    0  502 -0.52272714007E+00  0.46754154596E+02 -0.88696407820E+02  0.10035312340E+03  0.41800000000E+01 0. -1.
        -11    1    1    2    0    0  0.27187287278E+02 -0.38113473434E+01  0.74667626549E+01  0.28450439410E+02  0.00000000000E+00 0. -1.
         11    1    1    2    0    0 -0.68105501424E+02  0.79435338135E+01 -0.21930806190E+02  0.71989022175E+02  0.00000000000E+00 0.  1.
</event>
<event>
 7    1  0.2334784E-009  0.1285586E+03  0.7561462E-02  0.1229610E+00
          2   -1    0    0  501    0  0.00000000000E+00  0.00000000000E+00  0.23786539852E+03  0.23786539852E+03  0.00000000000E+00 0.  1.
         -2   -1    0    0    0  501 -0.00000000000E+00 -0.00000000000E+00 -0.15368213541E+03  0.15368213541E+03  0.00000000000E+00 0. -1.
         25    2    1    2    0    0  0.23861890247E+02  0.70898708407E+02  0.18597455641E+03  0.23628255364E+03  0.12508754079E+03 0.  0.
          5    1    3    3  502    0  0.73442626213E+02  0.58409454705E+02  0.11056516507E+03  0.14507795101E+03  0.41800000000E+01 0.  1.
         -5    1    3    3    0  502 -0.49580735966E+02  0.12489253702E+02  0.75409391345E+02  0.91204602625E+02  0.41800000000E+01 0.  1.
        -11    1    1    2    0    0  0.30133208125E+02 -0.13303751971E+02 -0.10500440936E+02  0.34572522446E+02  0.00000000000E+00 0.  1.
         11    1    1    2    0    0 -0.53995098371E+02 -0.57594956436E+02 -0.91290852361E+02  0.12069245784E+03  0.00000000000E+00 0. -1.
</event>
<event>
 7    1  0.2334784E-009  0.3109578E+03  0.7561462E-02  0.1079888E+00
          1   -1    0    0  501    0  0.00000000000E+00  0.00000000000E+00  0.84100292150E+02  0.84100292150E+02  0.00000000000E+00 0. -1.
         -1   -1    0    0    0  501 -0.00000000000E+00 -0.00000000000E+00 -0.11929757657E+04  0.11929757657E+04  0.00000000000E+00 0.  1.
         25    2    1    2    0    0  0.71315045488E+02  0.28842882168E+03 -0.59425781743E+03  0.67606755569E+03  0.12509182786E+03 0.  0.
          5    1    3    3  502    0 -0.46129619519E+01  0.21509978206E+03 -0.36653125598E+03  0.42503156314E+03  0.41800000000E+01 0.  1.
         -5    1    3    3    0  502  0.75928007440E+02  0.73329039621E+02 -0.22772656145E+03  0.25103599255E+03  0.41800000000E+01 0.  1.
        -11    1    1    2    0    0 -0.47659443078E+01 -0.11842674760E+03 -0.13415486103E+03  0.17901155134E+03  0.00000000000E+00 0. -1.
         11    1    1    2    0    0 -0.66549101180E+02 -0.17000207407E+03 -0.38046279510E+03  0.42199695083E+03  0.00000000000E+00 0.  1.
</event>
<event>
 7    1  0.2334784E-009  0.1230750E+03  0.7561462E-02  0.1238109E+00
          1   -1    0    0  501    0  0.00000000000E+00  0.00000000000E+00  0.12972251232E+04  0.12972251232E+04  0.00000000000E+00 0. -1.
         -1   -1    0    0    0  501 -0.00000000000E+00 -0.00000000000E+00 -0.19550615852E+02  0.19550615852E+02  0.00000000000E+00 0.  1.
         25    2    1    2    0    0  0.80250306748E+02 -0.18193184086E+02  0.10120894369E+04  0.10231048756E+04  0.12508978523E+03 0.  0.
          5    1    3    3  502    0  0.39045955037E+02 -0.70262587255E+02  0.45599926176E+03  0.46304882777E+03  0.41800000000E+01 0. -1.
         -5    1    3    3    0  502  0.41204351710E+02  0.52069403169E+02  0.55609017519E+03  0.56005604781E+03  0.41800000000E+01 0. -1.
        -11    1    1    2    0    0 -0.33103531632E+02 -0.19803017340E+02  0.25918413296E+02  0.46473298248E+02  0.00000000000E+00 0.  1.
         11    1    1    2    0    0 -0.47146775116E+02  0.37996201426E+02  0.23966665712E+03  0.24719756524E+03  0.00000000000E+00 0. -1.
</event>
<event>
 7    1  0.2334784E-009  0.2605921E+03  0.7561462E-02  0.1106788E+00
         -2   -1    0    0    0  501 -0.00000000000E+00  0.00000000000E+00  0.59863240640E+02  0.59863240640E+02  0.00000000000E+00 0.  1.
          2   -1    0    0  501    0  0.00000000000E+00 -0.00000000000E+00 -0.12843924722E+04  0.12843924722E+04  0.00000000000E+00 0. -1.
         25    2    1    2    0    0 -0.34698327675E+02 -0.25217571844E+03 -0.64248220286E+03  0.70230114410E+03  0.12508776559E+03 0.  0.
          5    1    3    3  502    0 -0.34945637451E+02 -0.16876485722E+03 -0.55584045822E+03  0.58196122036E+03  0.41800000000E+01 0. -1.
         -5    1    3    3    0  502  0.24730977658E+00 -0.83410861221E+02 -0.86641744641E+02  0.12033992374E+03  0.41800000000E+01 0. -1.
        -11    1    1    2    0    0  0.57882660989E+02  0.15749529435E+03 -0.30280655458E+03  0.34618922526E+03  0.00000000000E+00 0.  1.
         11    1    1    2    0    0 -0.23184333315E+02  0.94680424090E+02 -0.27924047408E+03  0.29576534344E+03  0.00000000000E+00 0. -1.
</event>
<event>
 7    1  0.2334784E-009  0.2147512E+03  0.7561462E-02  0.1137858E+00
          1   -1    0    0  501    0  0.00000000000E+00  0.00000000000E+00  0.11052292248E+04  0.11052292248E+04  0.00000000000E+00 0. -1.
         -1   -1    0    0    0  501 -0.00000000000E+00 -0.00000000000E+00 -0.49169428580E+02  0.49169428580E+02  0.00000000000E+00 0.  1.
         25    2    1    2    0    0  0.19240302598E+03 -0.35466693630E+02  0.39922227374E+03  0.46184690910E+03  0.12508929941E+03 0.  0.
          5    1    3    3  502    0  0.90800864643E+02  0.45249446261E+02  0.15579170557E+03  0.18595923567E+03  0.41800000000E+01 0. -1.
         -5    1    3    3    0  502  0.10160216134E+03 -0.80716139890E+02  0.24343056818E+03  0.27588767343E+03  0.41800000000E+01 0. -1.
        -11    1    1    2    0    0 -0.11817353183E+03  0.37188547667E+02  0.25020746509E+03  0.27919840130E+03  0.00000000000E+00 0.  1.
         11    1    1    2    0    0 -0.74229494148E+02 -0.17218540369E+01  0.40663005734E+03  0.41335334293E+03  0.00000000000E+00 0. -1.
</event>
<event>
 7    1  0.2334784E-009  0.1935900E+03  0.7561462E-02  0.1155263E+00
          2   -1    0    0  501    0  0.00000000000E+00  0.00000000000E+00  0.10886542185E+04  0.10886542185E+04  0.00000000000E+00 0. -1.
         -2   -1    0    0    0  501 -0.00000000000E+00 -0.00000000000E+00 -0.38849579171E+02  0.38849579171E+02  0.00000000000E+00 0.  1.
         25    2    1    2    0    0  0.73471024142E+02  0.15179460689E+03  0.44817740758E+03  0.49492332214E+03  0.12508601867E+03 0.  0.
          5    1    3    3  502    0  0.99058130533E+01  0.13034657640E+03  0.36653876055E+03  0.38917411334E+03  0.41800000000E+01 0.  1.
         -5    1    3    3    0  502  0.63565211089E+02  0.21448030482E+02  0.81638647038E+02  0.10574920880E+03  0.41800000000E+01 0.  1.
        -11    1    1    2    0    0 -0.35602239404E+02 -0.31038657052E+01  0.18898752468E+03  0.19233678254E+03  0.00000000000E+00 0. -1.
         11    1    1    2    0    0 -0.37868784738E+02 -0.14869074118E+03  0.41263970711E+03  0.44024369303E+03  0.00000000000E+00 0.  1.
</event>
<event>
 7    1  0.2334784E-009  0.1171884E+03  0.7561462E-02  0.1247809E+00
          1   -1    0    0  501    0  0.00000000000E+00  0.00000000000E+00  0.89383693189E+02  0.89383693189E+02  0.00000000000E+00 0. -1.
         -1   -1    0    0    0  501 -0.00000000000E+00 -0.00000000000E+00 -0.24509994872E+03  0.24509994872E+03  0.00000000000E+00 0.  1.
         25    2    1    2    0    0  0.95868453707E+02 -0.31694122266E+02 -0.10067586422E+03  0.18967927853E+03  0.12508925320E+03 0.  0.
          5    1    3    3  502    0  0.10716609091E+03 -0.38356981031E+02 -0.12032702852E+03  0.16568613469E+03  0.41800000000E+01 0.  1.
         -5    1    3    3    0  502 -0.11297637203E+02  0.66628587653E+01  0.19651164301E+02  0.23993143847E+02  0.41800000000E+01 0.  1.
        -11    1    1    2    0    0 -0.26480016757E+02 -0.68278693544E+01 -0.59325133977E+02  0.65324441129E+02  0.00000000000E+00 0.  1.
         11    1    1    2    0    0 -0.69388436949E+02  0.38521991620E+02  0.42847426652E+01  0.79479922247E+02  0.00000000000E+00 0. -1.
</event>
<event>
 7    1  0.2334784E-009  0.1101071E+03  0.7561462E-02  0.1260372E+00
          3   -1    0    0  501    0  0.00000000000E+00  0.00000000000E+00  0.14839684482E+03  0.14839684482E+03  0.00000000000E+00 0. -1.
         -3   -1    0    0    0  501 -0.00000000000E+00 -0.00000000000E+00 -0.11820062402E+03  0.11820062402E+03  0.00000000000E+00 0.  1.
         25    2    1    2    0    0  0.61592581304E+02  0.39709414762E+02 -0.41732673299E+01  0.14503395626E+03  0.12508776365E+03 0.  0.
          5    1    3    3  502    0  0.35500406608E+02  0.74760138836E+02 -0.36470432061E+02  0.90536854611E+02  0.41800000000E+01 0.  1.
         -5    1    3    3    0  502  0.26092174696E+02 -0.35050724074E+02  0.32297164731E+02  0.54497101649E+02  0.41800000000E+01 0.  1.
        -11    1    1    2    0    0 -0.17813251079E+02  0.15066652294E+02 -0.21637972314E+02  0.31820084400E+02  0.00000000000E+00 0.  1.
         11    1    1    2    0    0 -0.43779330225E+02 -0.54776067056E+02  0.56007460437E+02  0.89743428181E+02  0.00000000000E+00 0. -1.
</event>
<event>
 7    1  0.2334784E-009  0.7419740E+02  0.7561462E-02  0.1346375E+00
         -2   -1    0    0    0  501 -0.00000000000E+00  0.00000000000E+00  0.12991805885E+02  0.12991805885E+02  0.00000000000E+00 0.  1.
          2   -1    0    0  501    0  0.00000000000E+00 -0.00000000000E+00 -0.12384978976E+04  0.12384978976E+04  0.00000000000E+00 0. -1.
         25    2    1    2    0    0  0.10659218665E+02  0.16254320312E+02 -0.99341669935E+03  0.10014499396E+04  0.12508965189E+03 0.  0.
          5    1    3    3  502    0  0.27111405868E+02 -0.24638783153E+02 -0.94429662617E+02  0.10137322894E+03  0.41800000000E+01 0.  1.
         -5    1    3    3    0  502 -0.16452187203E+02  0.40893103465E+02 -0.89898703673E+03  0.90007671061E+03  0.41800000000E+01 0.  1.
        -11    1    1    2    0    0  0.25293636030E+02  0.45621403717E+01 -0.16632341819E+02  0.30613982799E+02  0.00000000000E+00 0.  1.
         11    1    1    2    0    0 -0.35952854695E+02 -0.20816460684E+02 -0.21545705052E+03  0.21942578111E+03  0.00000000000E+00 0. -1.
</event>
<event>
 7    1  0.2787116E-009  0.1206461E+03  0.7561462E-02  0.1242035E+00
         -2   -1    0    0    0  501 -0.00000000000E+00  0.00000000000E+00  0.16756136351E+02  0.16756136351E+02  0.00000000000E+00 0.  1.
          2   -1    0    0  501    0  0.00000000000E+00 -0.00000000000E+00 -0.10909750347E+04  0.10909750347E+04  0.00000000000E+00 0. -1.
         25    2    1    2    0    0  0.56940262308E+02  0.43278910339E+02 -0.74173986032E+03  0.75560641829E+03  0.12509109252E+03 0.  0.
          5    1    3    3  502    0  0.48144164137E+02  0.83469149715E+02 -0.60851171575E+03  0.61610789647E+03  0.41800000000E+01 0.  1.
         -5    1    3    3    0  502  0.87960981711E+01 -0.40190239377E+02 -0.13322814457E+03  0.13949852182E+03  0.41800000000E+01 0.  1.
        -11    1    1    2    0    0  0.11804992730E+02 -0.31634393664E+02 -0.44699515416E+02  0.56019098478E+02  0.00000000000E+00 0.  1.
         11    1    1    2    0    0 -0.68745255039E+02 -0.11644516675E+02 -0.28777952258E+03  0.29610565424E+03  0.00000000000E+00 0. -1.
</event>
<event>
 7    1  0.2334784E-009  0.1041842E+03  0.7561462E-02  0.1271735E+00
          1   -1    0    0  501    0  0.00000000000E+00  0.00000000000E+00  0.53883268362E+02  0.53883268362E+02  0.00000000000E+00 0. -1.
         -1   -1    0    0    0  501 -0.00000000000E+00 -0.00000000000E+00 -0.22612843918E+03  0.22612843918E+03  0.00000000000E+00 0.  1.
         25    2    1    2    0    0  0.70027357096E+01 -0.11452397971E+02 -0.11783004188E+03  0.17236388877E+03  0.12508075653E+03 0.  0.
          5    1    3    3  502    0  0.10937254769E+02  0.53847254979E+02 -0.78526492890E+02  0.95932439228E+02  0.41800000000E+01 0. -1.
         -5    1    3    3    0  502 -0.39345190596E+01 -0.65299652951E+02 -0.39303548992E+02  0.76431449542E+02  0.41800000000E+01 0. -1.
        -11    1    1    2    0    0  0.27556413670E+02  0.35989173052E+02 -0.10322825458E+02  0.46488033264E+02  0.00000000000E+00 0. -1.
         11    1    1    2    0    0 -0.34559149380E+02 -0.24536775081E+02 -0.44092303477E+02  0.61159785506E+02  0.00000000000E+00 0.  1.
</event>
<event>
 7    1  0.2334784E-009  0.1076579E+03  0.7561462E-02  0.1264970E+00
          1   -1    0    0  501    0  0.00000000000E+00  0.00000000000E+00  0.63386605748E+03  0.63386605748E+03  0.00000000000E+00 0. -1.
         -1   -1    0    0    0  501 -0.00000000000E+00 -0.00000000000E+00 -0.33604226972E+02  0.33604226972E+02  0.00000000000E+00 0.  1.
         25    2    1    2    0    0 -0.41511734397E+02 -0.24783308957E+02  0.50474123551E+03  0.52225280655E+03  0.12508734001E+03 0.  0.
          5    1    3    3  502    0 -0.18564889882E+02 -0.73257181787E+02  0.22509054365E+03  0.23747525147E+03  0.41800000000E+01 0. -1.
         -5    1    3    3    0  502 -0.22946844515E+02  0.48473872830E+02  0.27965069186E+03  0.28477755508E+03  0.41800000000E+01 0. -1.
        -11    1    1    2    0    0  0.87618670345E+01 -0.24861157105E+02 -0.64796895117E+01  0.27144683139E+02  0.00000000000E+00 0.  1.
         11    1    1    2    0    0  0.32749867362E+02  0.49644466062E+02  0.10200028451E+03  0.11807279476E+03  0.00000000000E+00 0. -1.
</event>
<event>
 7    1  0.2334784E-009  0.1561731E+03  0.7561462E-02  0.1193086E+00
         -2   -1    0    0    0  501 -0.00000000000E+00  0.00000000000E+00  0.30306069187E+03  0.30306069187E+03  0.00000000000E+00 0.  1.
          2   -1    0    0  501    0  0.00000000000E+00 -0.00000000000E+00 -0.10377078730E+03  0.10377078730E+03  0.00000000000E+00 0. -1.
         25    2    1    2    0    0 -0.58216500944E+00 -0.12029499404E+03  0.23200446810E+02  0.17509294657E+03  0.12509218481E+03 0.  0.
          5    1    3    3  502    0  0.21483322795E+02 -0.13886266941E+03  0.48575900852E+01  0.14066073616E+03  0.41800000000E+01 0.  1.
         -5    1    3    3    0  502 -0.22065487805E+02  0.18567675377E+02  0.18342856725E+02  0.34432210411E+02  0.41800000000E+01 0.  1.
        -11    1    1    2    0    0  0.38399879005E+02  0.53202388397E+02  0.44540601212E+02  0.79302648096E+02  0.00000000000E+00 0. -1.
         11    1    1    2    0    0 -0.37817713995E+02  0.67092605640E+02  0.13154885656E+03  0.15243588450E+03  0.00000000000E+00 0.  1.
</event>
<event>
 7    1  0.2334784E-009  0.8586067E+02  0.7561462E-02  0.1313197E+00
          1   -1    0    0  501    0  0.00000000000E+00  0.00000000000E+00  0.11995758789E+03  0.11995758789E+03  0.00000000000E+00 0. -1.
         -1   -1    0    0    0  501 -0.00000000000E+00 -0.00000000000E+00 -0.12725458824E+03  0.12725458824E+03  0.00000000000E+00 0.  1.
         25    2    1    2    0    0 -0.52623114532E+02  0.27218478885E+02  0.21464972489E+02  0.14006939352E+03  0.12509457294E+03 0.  0.
          5    1    3    3  502    0 -0.35114635946E+01 -0.32186099575E+02 -0.32359583028E+02  0.45966187532E+02  0.41800000000E+01 0. -1.
         -5    1    3    3    0  502 -0.49111650937E+02  0.59404578460E+02  0.53824555517E+02  0.94103205984E+02  0.41800000000E+01 0. -1.
        -11    1    1    2    0    0  0.12313117595E+02 -0.15718380854E+02  0.29345039289E+02  0.35493826117E+02  0.00000000000E+00 0. -1.
         11    1    1    2    0    0  0.40309996937E+02 -0.11500098031E+02 -0.58107012133E+02  0.71648956494E+02  0.00000000000E+00 0.  1.
</event>
<event>
 7    1  0.2334784E-009  0.8865020E+02  0.7561462E-02  0.1306154E+00
          2   -1    0    0  501    0  0.00000000000E+00  0.00000000000E+00  0.29561809846E+03  0.29561809846E+03  0.00000000000E+00 0. -1.
         -2   -1    0    0    0  501 -0.00000000000E+00 -0.00000000000E+00 -0.59543935926E+02  0.59543935926E+02  0.00000000000E+00 0.  1.
         25    2    1    2    0    0  0.29014288352E+02  0.43651568079E+01  0.22666212692E+03  0.26055056571E+03  0.12509993601E+03 0.  0.
          5    1    3    3  502    0  0.28363489361E+02 -0.38560588886E+02  0.24688066572E+02  0.54022028609E+02  0.41800000000E+01 0.  1.
         -5    1    3    3    0  502  0.65079899020E+00  0.42925745694E+02  0.20197406035E+03  0.20652853710E+03  0.41800000000E+01 0.  1.
        -11    1    1    2    0    0 -0.56888477087E+02  0.39569337041E+01  0.24235705357E+02  0.61962291466E+02  0.00000000000E+00 0. -1.
         11    1    1    2    0    0  0.27874188735E+02 -0.83220905119E+01 -0.14823669741E+02  0.32649177214E+02  0.00000000000E+00 0.  1.
</event>
<event>
 7    1  0.2334784E-009  0.1123430E+03  0.7561462E-02  0.1256292E+00
          2   -1    0    0  501    0  0.00000000000E+00  0.00000000000E+00  0.26510466538E+03  0.26510466538E+03  0.00000000000E+00 0. -1.
         -2   -1    0    0    0  501 -0.00000000000E+00 -0.00000000000E+00 -0.65331479546E+02  0.65331479546E+02  0.00000000000E+00 0.  1.
         25    2    1    2    0    0 -0.37383519517E+02 -0.41698787154E+02  0.47455663850E+02  0.14503467455E+03  0.12508677152E+03 0.  0.
          5    1    3    3  502    0 -0.57939865100E+02 -0.65627409398E+02  0.64609019125E+02  0.10888426234E+03  0.41800000000E+01 0. -1.
         -5    1    3    3    0  502  0.20556345583E+02  0.23928622244E+02 -0.17153355275E+02  0.36150412216E+02  0.41800000000E+01 0. -1.
        -11    1    1    2    0    0 -0.29377957786E+02  0.17577497324E+02  0.41506624597E+02  0.53803649516E+02  0.00000000000E+00 0. -1.
         11    1    1    2    0    0  0.66761477303E+02  0.24121289831E+02  0.11081089739E+03  0.13159782086E+03  0.00000000000E+00 0.  1.
</event>
<event>
 7    1  0.2334784E-009  0.1031532E+03  0.7561462E-02  0.1273801E+00
         -1   -1    0    0    0  501 -0.00000000000E+00  0.00000000000E+00  0.59398275702E+02  0.59398275702E+02  0.00000000000E+00 0.  1.
          1   -1    0    0  501    0  0.00000000000E+00 -0.00000000000E+00 -0.30747918755E+03  0.30747918755E+03  0.00000000000E+00 0. -1.
         25    2    1    2    0    0  0.59992322681E+02  0.34649718521E+02 -0.19239526663E+03  0.23971426525E+03  0.12508920244E+03 0.  0.
          5    1    3    3  502    0 -0.26702567612E+02  0.20334598943E+02 -0.70460418204E+01  0.34549126423E+02  0.41800000000E+01 0.  1.
         -5    1    3    3    0  502  0.86694890293E+02  0.14315119578E+02 -0.18534922481E+03  0.20516513883E+03  0.41800000000E+01 0.  1.
        -11    1    1    2    0    0  0.42892986501E+01 -0.17454146751E+02  0.19662066773E+02  0.26639110186E+02  0.00000000000E+00 0.  1.
         11    1    1    2    0    0 -0.64281621331E+02 -0.17195571770E+02 -0.75347711991E+02  0.10052408782E+03  0.00000000000E+00 0. -1.
</event>
<event>
 7    1  0.2334784E-009  0.1199680E+03  0.7561462E-02  0.1243150E+00
          2   -1    0    0  501    0  0.00000000000E+00  0.00000000000E+00  0.26317879984E+02  0.26317879984E+02  0.00000000000E+00 0. -1.
         -2   -1    0    0    0  501 -0.00000000000E+00 -0.00000000000E+00 -0.60437976920E+03  0.60437976920E+03  0.00000000000E+00 0.  1.
         25    2    1    2    0    0  0.22206953227E+02 -0.44528649581E+02 -0.41119688033E+03  0.43268759639E+03  0.12513885196E+03 0.  0.
          5    1    3    3  502    0  0.44811219030E+02 -0.79635027434E+02 -0.25332744116E+03  0.26933630982E+03  0.41800000000E+01 0. -1.
         -5    1    3    3    0  502 -0.22604265804E+02  0.35106377853E+02 -0.15786943917E+03  0.16335128656E+03  0.41800000000E+01 0. -1.
        -11    1    1    2    0    0  0.10949890810E+02 -0.26194283511E+02 -0.40729946497E+02  0.49648455556E+02  0.00000000000E+00 0.  1.
         11    1    1    2    0    0 -0.33156844037E+02  0.70722933091E+02 -0.12613506239E+03  0.14836159724E+03  0.00000000000E+00 0. -1.
</event>
<event>
 7    1  0.2334784E-009  0.1101415E+03  0.7561462E-02  0.1260308E+00
         -1   -1    0    0    0  501 -0.00000000000E+00  0.00000000000E+00  0.18898552233E+02  0.18898552233E+02  0.00000000000E+00 0.  1.
          1   -1    0    0  501    0  0.00000000000E+00 -0.00000000000E+00 -0.12194104641E+04  0.12194104641E+04  0.00000000000E+00 0. -1.
         25    2    1    2    0    0  0.76142573244E+02 -0.17668597530E+02 -0.92045260828E+03  0.93219606214E+03  0.12508646363E+03 0.  0.
          5    1    3    3  502    0 -0.25435624300E+02  0.19615903278E+02 -0.11422599607E+03  0.11872996767E+03  0.41800000000E+01 0.  1.
         -5    1    3    3    0  502  0.10157819754E+03 -0.37284500808E+02 -0.80622661221E+03  0.81346609447E+03  0.41800000000E+01 0.  1.
        -11    1    1    2    0    0 -0.66307702475E+02  0.98364692644E+01 -0.28487069130E+03  0.29265129129E+03  0.00000000000E+00 0. -1.
         11    1    1    2    0    0 -0.98348707695E+01  0.78321282657E+01  0.48113877132E+01  0.13461662897E+02  0.00000000000E+00 0.  1.
</event>
<event>
 7    1  0.2334784E-009  0.1072421E+03  0.7561462E-02  0.1265764E+00
          1   -1    0    0  501    0  0.00000000000E+00  0.00000000000E+00  0.68028714316E+03  0.68028714316E+03  0.00000000000E+00 0. -1.
         -1   -1    0    0    0  501 -0.00000000000E+00 -0.00000000000E+00 -0.23308054271E+02  0.23308054271E+02  0.00000000000E+00 0.  1.
         25    2    1    2    0    0  0.44930222036E+02  0.30818420920E+02  0.46265463971E+03  0.48235273219E+03  0.12508534163E+03 0.  0.
          5    1    3    3  502    0  0.15716124489E+02 -0.33895655930E+02  0.44783798533E+02  0.58471985351E+02  0.41800000000E+01 0. -1.
         -5    1    3    3    0  502  0.29214097547E+02  0.64714076849E+02  0.41787084118E+03  0.42388074684E+03  0.41800000000E+01 0. -1.
        -11    1    1    2    0    0  0.25365603869E+02 -0.24365363525E+02  0.64088840637E+02  0.73105843088E+02  0.00000000000E+00 0.  1.
         11    1    1    2    0    0 -0.70295825906E+02 -0.64530573952E+01  0.13023560855E+03  0.14813662215E+03  0.00000000000E+00 0. -1.
</event>
<event>
 7    1  0.2334784E-009  0.1436073E+03  0.7561462E-02  0.1208556E+00
         -2   -1    0    0    0  501 -0.00000000000E+00  0.00000000000E+00  0.19291336210E+02  0.19291336210E+02  0.00000000000E+00 0. -1.
          2   -1    0    0  501    0  0.00000000000E+00 -0.00000000000E+00 -0.13229721679E+04  0.13229721679E+04  0.00000000000E+00 0.  1.
         25    2    1    2    0    0 -0.98192470704E+02 -0.64481556282E+02 -0.80255671678E+03  0.82069769100E+03  0.12509110261E+03 0.  0.
          5    1    3    3  502    0  0.21447980911E+02 -0.29472211127E+02 -0.32717305085E+03  0.32922379124E+03  0.41800000000E+01 0.  1.
         -5    1    3    3    0  502 -0.11964045161E+03 -0.35009345155E+02 -0.47538366593E+03  0.49147389976E+03  0.41800000000E+01 0.  1.
        -11    1    1    2    0    0  0.79029622909E+02  0.26671589874E+02 -0.43568584653E+03  0.44359802961E+03  0.00000000000E+00 0.  1.
         11    1    1    2    0    0  0.19162847795E+02  0.37809966408E+02 -0.65438268324E+02  0.77967783454E+02  0.00000000000E+00 0. -1.
</event>
<event>
 7    1  0.2334784E-009  0.6162566E+02  0.7561462E-02  0.1391133E+00
          2   -1    0    0  501    0  0.00000000000E+00  0.00000000000E+00  0.18775102754E+03  0.18775102754E+03  0.00000000000E+00 0. -1.
         -2   -1    0    0    0  501 -0.00000000000E+00 -0.00000000000E+00 -0.67561436023E+02  0.67561436023E+02  0.00000000000E+00 0.  1.
         25    2    1    2    0    0  0.17304724060E+02 -0.44380587908E+01  0.10114561421E+03  0.16185188538E+03  0.12508576132E+03 0.  0.
          5    1    3    3  502    0  0.15264211521E+02  0.12951127803E+02 -0.26202377096E+02  0.33238002801E+02  0.41800000000E+01 0.  1.
         -5    1    3    3    0  502  0.20405125389E+01 -0.17389186594E+02  0.12734799130E+03  0.12861388257E+03  0.41800000000E+01 0.  1.
        -11    1    1    2    0    0 -0.50036568800E+02 -0.61173081530E+01 -0.62134276500E+01  0.50790612907E+02  0.00000000000E+00 0.  1.
         11    1    1    2    0    0  0.32731844741E+02  0.10555366944E+02  0.25257404955E+02  0.42669965275E+02  0.00000000000E+00 0. -1.
</event>
<event>
 7    1  0.2334784E-009  0.8503818E+02  0.7561462E-02  0.1315333E+00
          2   -1    0    0  501    0  0.00000000000E+00  0.00000000000E+00  0.20971706879E+03  0.20971706879E+03  0.00000000000E+00 0. -1.
         -2   -1    0    0    0  501 -0.00000000000E+00 -0.00000000000E+00 -0.71613989206E+02  0.71613989206E+02  0.00000000000E+00 0.  1.
         25    2    1    2    0    0  0.36039611699E+02  0.38690228902E+02  0.84647639014E+02  0.16002738828E+03  0.12509098603E+03 0.  0.
          5    1    3    3  502    0  0.51749450833E+02 -0.11375966657E+02 -0.77258302126E+01  0.53708278052E+02  0.41800000000E+01 0.  1.
         -5    1    3    3    0  502 -0.15709839134E+02  0.50066195559E+02  0.92373469226E+02  0.10631911023E+03  0.41800000000E+01 0.  1.
        -11    1    1    2    0    0  0.24259000259E+01 -0.22372825684E+02  0.72113804991E+02  0.75543558232E+02  0.00000000000E+00 0. -1.
         11    1    1    2    0    0 -0.38465511725E+02 -0.16317403218E+02 -0.18658364419E+02  0.45760111482E+02  0.00000000000E+00 0.  1.
</event>
<event>
 7    1  0.2334784E-009  0.1443143E+03  0.7561462E-02  0.1207639E+00
         -1   -1    0    0    0  501 -0.00000000000E+00  0.00000000000E+00  0.90313414629E+02  0.90313414629E+02  0.00000000000E+00 0.  1.
          1   -1    0    0  501    0  0.00000000000E+00 -0.00000000000E+00 -0.24934631350E+03  0.24934631350E+03  0.00000000000E+00 0. -1.
         25    2    1    2    0    0  0.77946924831E+02  0.63156875230E+02 -0.11332694911E+03  0.19635537681E+03  0.12509165690E+03 0.  0.
          5    1    3    3  502    0  0.15612242160E+01 -0.32267934557E+02 -0.47114038437E+02  0.57278809690E+02  0.41800000000E+01 0. -1.
         -5    1    3    3    0  502  0.76385700615E+02  0.95424809787E+02 -0.66212910677E+02  0.13907656712E+03  0.41800000000E+01 0. -1.
        -11    1    1    2    0    0 -0.68967549788E+02 -0.85395194963E+02 -0.46728803672E+02  0.11929980444E+03  0.00000000000E+00 0. -1.
         11    1    1    2    0    0 -0.89793750427E+01  0.22238319733E+02  0.10228539182E+01  0.24004546879E+02  0.00000000000E+00 0.  1.
</event>
<event>
 7    1  0.2334784E-009  0.9008524E+02  0.7561462E-02  0.1302645E+00
          3   -1    0    0  501    0  0.00000000000E+00  0.00000000000E+00  0.65188351324E+02  0.65188351324E+02  0.00000000000E+00 0. -1.
         -3   -1    0    0    0  501 -0.00000000000E+00 -0.00000000000E+00 -0.20410050306E+03  0.20410050306E+03  0.00000000000E+00 0.  1.
         25    2    1    2    0    0  0.33400357936E+02  0.13608837817E+02 -0.56461629301E+02  0.14189791551E+03  0.12508524479E+03 0.  0.
          5    1    3    3  502    0 -0.24813878183E+01  0.61142320310E+02 -0.54677904729E+02  0.82168645382E+02  0.41800000000E+01 0.  1.
         -5    1    3    3    0  502  0.35881745755E+02 -0.47533482494E+02 -0.17837245719E+01  0.59729270126E+02  0.41800000000E+01 0.  1.
        -11    1    1    2    0    0  0.10946147883E+02 -0.96800902734E+01 -0.81563307519E+02  0.82861905811E+02  0.00000000000E+00 0.  1.
         11    1    1    2    0    0 -0.44346505819E+02 -0.39287475431E+01 -0.88721491915E+00  0.44529033068E+02  0.00000000000E+00 0. -1.
</event>
<event>
 7    1  0.2334784E-009  0.1997281E+03  0.7561462E-02  0.1149969E+00
         -4   -1    0    0    0  501 -0.00000000000E+00  0.00000000000E+00  0.16842980690E+03  0.16842980690E+03  0.00000000000E+00 0.  1.
          4   -1    0    0  501    0  0.00000000000E+00 -0.00000000000E+00 -0.32610498980E+03  0.32610498980E+03  0.00000000000E+00 0. -1.
         25    2    1    2    0    0 -0.16997828413E+03  0.97741096779E+02 -0.12056668306E+02  0.23289363982E+03  0.12509254632E+03 0.  0.
          5    1    3    3  502    0 -0.54323424358E+02  0.66812548063E+01  0.48901906682E+02  0.73515593427E+02  0.41800000000E+01 0.  1.
         -5    1    3    3    0  502 -0.11565485977E+03  0.91059841973E+02 -0.60958574988E+02  0.15937804639E+03  0.41800000000E+01 0.  1.
        -11    1    1    2    0    0  0.12110740422E+03 -0.57825731475E+02 -0.14630894119E+03  0.19853746460E+03  0.00000000000E+00 0. -1.
         11    1    1    2    0    0  0.48870879906E+02 -0.39915365304E+02  0.69042660050E+00  0.63103692277E+02  0.00000000000E+00 0.  1.
</event>
<event>
 7    1  0.2334784E-009  0.2347234E+03  0.7561462E-02  0.1123359E+00
          1   -1    0    0  501    0  0.00000000000E+00  0.00000000000E+00  0.15486574368E+03  0.15486574368E+03  0.00000000000E+00 0. -1.
         -1   -1    0    0    0  501 -0.00000000000E+00 -0.00000000000E+00 -0.63225478174E+03  0.63225478174E+03  0.00000000000E+00 0.  1.
         25    2    1    2    0    0 -0.17923607739E+03  0.12452592049E+03  0.33826681883E+01  0.25157925334E+03  0.12509357281E+03 0.  0.
          5    1    3    3  502    0 -0.56155673803E+02 -0.17265491771E+02  0.21954691657E+02  0.62857281138E+02  0.41800000000E+01 0.  1.
         -5    1    3    3    0  502 -0.12308040359E+03  0.14179141226E+03 -0.18572023468E+02  0.18872197221E+03  0.41800000000E+01 0.  1.
        -11    1    1    2    0    0  0.60008864565E+02 -0.17457949517E+02 -0.22669582572E+03  0.23515280399E+03  0.00000000000E+00 0.  1.
         11    1    1    2    0    0  0.11922721283E+03 -0.10706797097E+03 -0.25407588054E+03  0.30038846808E+03  0.00000000000E+00 0. -1.
</event>
<event>
 7    1  0.2334784E-009  0.1795721E+03  0.7561462E-02  0.1168218E+00
         -1   -1    0    0    0  501 -0.00000000000E+00  0.00000000000E+00  0.49641343683E+02  0.49641343683E+02  0.00000000000E+00 0.  1.
          1   -1    0    0  501    0  0.00000000000E+00 -0.00000000000E+00 -0.89434216430E+03  0.89434216430E+03  0.00000000000E+00 0. -1.
         25    2    1    2    0    0 -0.79382400232E+02 -0.13650569428E+03 -0.24432579607E+03  0.31666684228E+03  0.12508966520E+03 0.  0.
          5    1    3    3  502    0 -0.37635461582E+02 -0.15189277187E+03 -0.18374113527E+03  0.24138375941E+03  0.41800000000E+01 0. -1.
         -5    1    3    3    0  502 -0.41746938650E+02  0.15387077593E+02 -0.60584660800E+02  0.75283082879E+02  0.41800000000E+01 0. -1.
        -11    1    1    2    0    0  0.46661551986E+02  0.81444999319E+02 -0.49640575220E+03  0.50520219632E+03  0.00000000000E+00 0. -1.
         11    1    1    2    0    0  0.32720848246E+02  0.55060694957E+02 -0.10396927234E+03  0.12211446937E+03  0.00000000000E+00 0.  1.
</event>
<event>
 7    1  0.2334784E-009  0.1785607E+03  0.7561462E-02  0.1169203E+00
         -2   -1    0    0    0  501 -0.00000000000E+00  0.00000000000E+00  0.89999013302E+02  0.89999013302E+02  0.00000000000E+00 0.  1.
          2   -1    0    0  501    0  0.00000000000E+00 -0.00000000000E+00 -0.41285042702E+03  0.41285042702E+03  0.00000000000E+00 0. -1.
         25    2    1    2    0    0  0.15798520413E+03  0.15419611392E+02 -0.17873464443E+03  0.26979588351E+03  0.12508659599E+03 0.  0.
          5    1    3    3  502    0 -0.18057037651E+02  0.20625363357E+01 -0.16345040648E+00  0.18649659002E+02  0.41800000000E+01 0.  1.
         -5    1    3    3    0  502  0.17604224179E+03  0.13357075056E+02 -0.17857119403E+03  0.25114622450E+03  0.41800000000E+01 0.  1.
        -11    1    1    2    0    0 -0.10838047142E+03 -0.25302946192E+02 -0.41741565395E+02  0.11886515028E+03  0.00000000000E+00 0.  1.
         11    1    1    2    0    0 -0.49604732718E+02  0.98833347999E+01 -0.10237520388E+03  0.11418840653E+03  0.00000000000E+00 0. -1.
</event>
<event>
 7    1  0.2334784E-009  0.1060222E+03  0.7561462E-02  0.1268119E+00
         -2   -1    0    0    0  501 -0.00000000000E+00  0.00000000000E+00  0.27346466714E+03  0.27346466714E+03  0.00000000000E+00 0.  1.
          2   -1    0    0  501    0  0.00000000000E+00 -0.00000000000E+00 -0.63234434637E+02  0.63234434637E+02  0.00000000000E+00 0. -1.
         25    2    1    2    0    0  0.21746092845E+02 -0.36325713352E+02  0.18144729491E+03  0.22441904265E+03  0.12509330866E+03 0.  0.
          5    1    3    3  502    0 -0.40701927849E+02 -0.17513788223E+02  0.17318953369E+02  0.47757703613E+02  0.41800000000E+01 0. -1.
         -5    1    3    3    0  502  0.62448020694E+02 -0.18811925129E+02  0.16412834154E+03  0.17666133904E+03  0.41800000000E+01 0. -1.
        -11    1    1    2    0    0  0.34917700520E+02  0.77343396204E-01  0.28406137532E+02  0.45012891943E+02  0.00000000000E+00 0.  1.
         11    1    1    2    0    0 -0.56663793365E+02  0.36248369955E+02  0.37680006836E+00  0.67267167186E+02  0.00000000000E+00 0. -1.
</event>
<event>
 7    1  0.2334784E-009  0.1148393E+03  0.7561462E-02  0.1251862E+00
         -3   -1    0    0    0  501 -0.00000000000E+00  0.00000000000E+00  0.57321129512E+02  0.57321129512E+02  0.00000000000E+00 0.  1.
          3   -1    0    0  501    0  0.00000000000E+00 -0.00000000000E+00 -0.28693781167E+03  0.28693781167E+03  0.00000000000E+00 0. -1.
         25    2    1    2    0    0 -0.37777791159E+02  0.51026634280E+02 -0.91805601778E+02  0.16765059444E+03  0.12509026495E+03 0.  0.
          5    1    3    3  502    0 -0.36865851828E+02 -0.36709030494E+02 -0.39067146184E+02  0.65194771736E+02  0.41800000000E+01 0. -1.
         -5    1    3    3    0  502 -0.91193933154E+00  0.87735664774E+02 -0.52738455594E+02  0.10245582270E+03  0.41800000000E+01 0. -1.
        -11    1    1    2    0    0  0.52550442062E+02 -0.21790374449E+02 -0.30790826295E+02  0.64687281311E+02  0.00000000000E+00 0.  1.
         11    1    1    2    0    0 -0.14772650902E+02 -0.29236259831E+02 -0.10702025408E+03  0.11192106543E+03  0.00000000000E+00 0. -1.
</event>
<event>
 7    1  0.2334784E-009  0.8786069E+02  0.7561462E-02  0.1308117E+00
         -1   -1    0    0    0  501 -0.00000000000E+00  0.00000000000E+00  0.23657757391E+02  0.23657757391E+02  0.00000000000E+00 0.  1.
          1   -1    0    0  501    0  0.00000000000E+00 -0.00000000000E+00 -0.65879031868E+03  0.65879031868E+03  0.00000000000E+00 0. -1.
         25    2    1    2    0    0  0.49240208688E+02 -0.27343737777E+01 -0.45036155526E+03  0.47000628908E+03  0.12509319073E+03 0.  0.
          5    1    3    3  502    0  0.39936342089E+02 -0.40269200309E+02 -0.41010358063E+03  0.41402770338E+03  0.41800000000E+01 0.  1.
         -5    1    3    3    0  502  0.93038665988E+01  0.37534826531E+02 -0.40257974625E+02  0.55978585703E+02  0.41800000000E+01 0.  1.
        -11    1    1    2    0    0 -0.52963181450E+02  0.24157912578E+02 -0.18130693256E+03  0.19042296900E+03  0.00000000000E+00 0. -1.
         11    1    1    2    0    0  0.37229727616E+01 -0.21423538800E+02 -0.34640734757E+01  0.22018817996E+02  0.00000000000E+00 0.  1.
</event>
<event>
 7    1  0.2334784E-009  0.2170988E+03  0.7561462E-02  0.1136065E+00
         -3   -1    0    0    0  501 -0.00000000000E+00  0.00000000000E+00  0.52822318525E+03  0.52822318525E+03  0.00000000000E+00 0.  1.
          3   -1    0    0  501    0  0.00000000000E+00 -0.00000000000E+00 -0.11422905551E+03  0.11422905551E+03  0.00000000000E+00 0. -1.
         25    2    1    2    0    0  0.12774737684E+03 -0.15305487158E+03  0.33593011460E+03  0.41017271764E+03  0.12508968940E+03 0.  0.
          5    1    3    3  502    0  0.87117300574E+02 -0.15347950947E+03  0.32163830071E+03  0.36689787785E+03  0.41800000000E+01 0.  1.
         -5    1    3    3    0  502  0.40630076261E+02  0.42463788830E+00  0.14291813891E+02  0.43274839787E+02  0.41800000000E+01 0.  1.
        -11    1    1    2    0    0 -0.10071835019E+03  0.54278166436E+02  0.25714293986E+02  0.11726691917E+03  0.00000000000E+00 0. -1.
         11    1    1    2    0    0 -0.27029026644E+02  0.98776705149E+02  0.52349721160E+02  0.11501260395E+03  0.00000000000E+00 0.  1.
</event>
<event>
 7    1  0.2334784E-009  0.8712424E+02  0.7561462E-02  0.1309969E+00
         -2   -1    0    0    0  501 -0.00000000000E+00  0.00000000000E+00  0.98948006761E+01  0.98948006761E+01  0.00000000000E+00 0.  1.
          2   -1    0    0  501    0  0.00000000000E+00 -0.00000000000E+00 -0.24901646069E+04  0.24901646069E+04  0.00000000000E+00 0. -1.
         25    2    1    2    0    0 -0.34058050588E+02  0.15557129830E+02 -0.21711135689E+04  0.21750367144E+04  0.12509438393E+03 0.  0.
          5    1    3    3  502    0 -0.20659335036E+02  0.50542402616E+02 -0.42464830364E+03  0.42816468418E+03  0.41800000000E+01 0. -1.
         -5    1    3    3    0  502 -0.13398715552E+02 -0.34985272786E+02 -0.17464652653E+04  0.17468720303E+04  0.41800000000E+01 0. -1.
        -11    1    1    2    0    0  0.13400299019E+02  0.29402932336E+02 -0.40315059918E+02  0.51666280105E+02  0.00000000000E+00 0.  1.
         11    1    1    2    0    0  0.20657751569E+02 -0.44960062165E+02 -0.26884117740E+03  0.27335641305E+03  0.00000000000E+00 0. -1.
</event>
<event>
 7    1  0.2334784E-009  0.1969105E+03  0.7561462E-02  0.1152372E+00
         -2   -1    0    0    0  501 -0.00000000000E+00  0.00000000000E+00  0.55387743402E+02  0.55387743402E+02  0.00000000000E+00 0.  1.
          2   -1    0    0  501    0  0.00000000000E+00 -0.00000000000E+00 -0.10353063121E+04  0.10353063121E+04  0.00000000000E+00 0. -1.
         25    2    1    2    0    0 -0.17754078799E+03  0.38484963801E+01 -0.23778164701E+03  0.32204695907E+03  0.12505434765E+03 0.  0.
          5    1    3    3  502    0  0.13619538984E+02 -0.11381216907E+02 -0.23737701611E+01  0.18388342100E+02  0.41800000000E+01 0. -1.
         -5    1    3    3    0  502 -0.19116032698E+03  0.15229713287E+02 -0.23540787685E+03  0.30365861697E+03  0.41800000000E+01 0. -1.
        -11    1    1    2    0    0  0.42899643962E+02  0.19501380170E+02 -0.82551042114E+02  0.95054499287E+02  0.00000000000E+00 0.  1.
         11    1    1    2    0    0  0.13464114403E+03 -0.23349876550E+02 -0.65958587961E+03  0.67359259719E+03  0.00000000000E+00 0. -1.
</event>
<event>
 7    1  0.2387139E-009  0.1246145E+03  0.7561462E-02  0.1235673E+00
         -1   -1    0    0    0  501 -0.00000000000E+00  0.00000000000E+00  0.45935403075E+02  0.45935403075E+02  0.00000000000E+00 0.  1.
          1   -1    0    0  501    0  0.00000000000E+00 -0.00000000000E+00 -0.36005268796E+03  0.36005268796E+03  0.00000000000E+00 0. -1.
         25    2    1    2    0    0 -0.53371753512E+02 -0.38979232990E+02 -0.20568553946E+03  0.24964368751E+03  0.12508998718E+03 0.  0.
          5    1    3    3  502    0 -0.82008783711E+02 -0.62118853722E+02 -0.16607479012E+03  0.19540343116E+03  0.41800000000E+01 0. -1.
         -5    1    3    3    0  502  0.28637030200E+02  0.23139620732E+02 -0.39610749343E+02  0.54240256358E+02  0.41800000000E+01 0. -1.
        -11    1    1    2    0    0 -0.87199394787E+01  0.45912381386E+02 -0.27932403940E+02  0.54444497417E+02  0.00000000000E+00 0.  1.
         11    1    1    2    0    0  0.62091692991E+02 -0.69331483965E+01 -0.80499341477E+02  0.10189990610E+03  0.00000000000E+00 0. -1.
</event>
<event>
 7    1  0.2334784E-009  0.1235002E+03  0.7561462E-02  0.1237432E+00
         -1   -1    0    0    0  501 -0.00000000000E+00  0.00000000000E+00  0.36254665098E+03  0.36254665098E+03  0.00000000000E+00 0.  1.
          1   -1    0    0  501    0  0.00000000000E+00 -0.00000000000E+00 -0.55439070154E+02  0.55439070154E+02  0.00000000000E+00 0. -1.
         25    2    1    2    0    0  0.79679591369E+02  0.29062507564E+02  0.20730229351E+03  0.25654077870E+03  0.12508182767E+03 0.  0.
          5    1    3    3  502    0  0.38660616712E+02  0.77642259644E+02  0.10843229956E+03  0.13891724067E+03  0.41800000000E+01 0. -1.
         -5    1    3    3    0  502  0.41018974656E+02 -0.48579752080E+02  0.98869993948E+02  0.11762353802E+03  0.41800000000E+01 0. -1.
        -11    1    1    2    0    0 -0.26895199891E+02 -0.34091094552E+02  0.99344079211E+02  0.10841955810E+03  0.00000000000E+00 0.  1.
         11    1    1    2    0    0 -0.52784391478E+02  0.50285869875E+01  0.46120810046E+00  0.53025384333E+02  0.00000000000E+00 0. -1.
</event>
<event>
 7    1  0.2334784E-009  0.1039078E+03  0.7561462E-02  0.1272287E+00
         -1   -1    0    0    0  501 -0.00000000000E+00  0.00000000000E+00  0.23055976738E+02  0.23055976738E+02  0.00000000000E+00 0.  1.
          1   -1    0    0  501    0  0.00000000000E+00 -0.00000000000E+00 -0.60748866929E+03  0.60748866929E+03  0.00000000000E+00 0. -1.
         25    2    1    2    0    0  0.20058044768E+02 -0.10673663633E+02 -0.26348721796E+03  0.29255709847E+03  0.12509152483E+03 0.  0.
          5    1    3    3  502    0 -0.52178607117E+01 -0.64125311056E+02 -0.17051894409E+03  0.18230047801E+03  0.41800000000E+01 0.  1.
         -5    1    3    3    0  502  0.25275905480E+02  0.53451647423E+02 -0.92968273861E+02  0.11025662046E+03  0.41800000000E+01 0.  1.
        -11    1    1    2    0    0  0.27005302314E+02  0.22939357705E+02 -0.42530534544E+02  0.55356543006E+02  0.00000000000E+00 0.  1.
         11    1    1    2    0    0 -0.47063347083E+02 -0.12265694073E+02 -0.27841494006E+03  0.28263100455E+03  0.00000000000E+00 0. -1.
</event>
<event>
 7    1  0.2334784E-009  0.8860992E+02  0.7561462E-02  0.1306253E+00
          2   -1    0    0  501    0  0.00000000000E+00  0.00000000000E+00  0.13230492199E+04  0.13230492199E+04  0.00000000000E+00 0. -1.
         -2   -1    0    0    0  501 -0.00000000000E+00 -0.00000000000E+00 -0.19127246477E+02  0.19127246477E+02  0.00000000000E+00 0.  1.
         25    2    1    2    0    0  0.42299578318E+01 -0.16091939323E+02  0.11767266620E+04  0.11834735993E+04  0.12508908927E+03 0.  0.
          5    1    3    3  502    0 -0.42085516924E+02  0.20593028287E+02  0.22289251203E+03  0.22780212437E+03  0.41800000000E+01 0.  1.
         -5    1    3    3    0  502  0.46315474756E+02 -0.36684967610E+02  0.95383414993E+03  0.95567147494E+03  0.41800000000E+01 0.  1.
        -11    1    1    2    0    0 -0.56084374866E+01 -0.27130489012E+02  0.10780925369E+03  0.11131196336E+03  0.00000000000E+00 0. -1.
         11    1    1    2    0    0  0.13784796548E+01  0.43222428335E+02  0.19386057760E+02  0.47390903693E+02  0.00000000000E+00 0.  1.
</event>
<event>
 7    1  0.2334784E-009  0.1695624E+03  0.7561462E-02  0.1178305E+00
         -2   -1    0    0    0  501 -0.00000000000E+00  0.00000000000E+00  0.53300142623E+03  0.53300142623E+03  0.00000000000E+00 0. -1.
          2   -1    0    0  501    0  0.00000000000E+00 -0.00000000000E+00 -0.63525032963E+02  0.63525032963E+02  0.00000000000E+00 0.  1.
         25    2    1    2    0    0  0.70484144543E+02 -0.13160823168E+03  0.24533857972E+03  0.31325313852E+03  0.12509104211E+03 0.  0.
          5    1    3    3  502    0  0.63273427277E+02 -0.41765040944E+02  0.19648839604E+03  0.21064901477E+03  0.41800000000E+01 0. -1.
         -5    1    3    3    0  502  0.72107172662E+01 -0.89843190736E+02  0.48850183681E+02  0.10260412375E+03  0.41800000000E+01 0. -1.
        -11    1    1    2    0    0  0.17804395717E+02  0.48697892046E+02  0.60264123914E+02  0.79499973759E+02  0.00000000000E+00 0.  1.
         11    1    1    2    0    0 -0.88288540260E+02  0.82910339634E+02  0.16387368963E+03  0.20377334691E+03  0.00000000000E+00 0. -1.
</event>
<event>
 7    1  0.2334784E-009  0.1292997E+03  0.7561462E-02  0.1228498E+00
         -1   -1    0    0    0  501 -0.00000000000E+00  0.00000000000E+00  0.52454745615E+02  0.52454745615E+02  0.00000000000E+00 0.  1.
          1   -1    0    0  501    0  0.00000000000E+00 -0.00000000000E+00 -0.52516642201E+03  0.52516642201E+03  0.00000000000E+00 0. -1.
         25    2    1    2    0    0 -0.98509803896E+02  0.49859038789E+02 -0.35291672777E+03  0.39036907829E+03  0.12509074841E+03 0.  0.
          5    1    3    3  502    0 -0.26803903069E+02  0.48023368774E+02 -0.28895826846E+03  0.29417519691E+03  0.41800000000E+01 0.  1.
         -5    1    3    3    0  502 -0.71705900828E+02  0.18356700146E+01 -0.63958459307E+02  0.96193881380E+02  0.41800000000E+01 0.  1.
        -11    1    1    2    0    0  0.47012805547E+02  0.14470782289E+02 -0.84145214216E+02  0.97468069136E+02  0.00000000000E+00 0.  1.
         11    1    1    2    0    0  0.51496998349E+02 -0.64329821078E+02 -0.35649734411E+02  0.89784020195E+02  0.00000000000E+00 0. -1.
</event>
<event>
 7    1  0.2334784E-009  0.1341965E+03  0.7561462E-02  0.1221358E+00
         -4   -1    0    0    0  501 -0.00000000000E+00  0.00000000000E+00  0.96178889793E+03  0.96178889793E+03  0.00000000000E+00 0.  1.
          4   -1    0    0  501    0  0.00000000000E+00 -0.00000000000E+00 -0.48279162181E+02  0.48279162181E+02  0.00000000000E+00 0. -1.
         25    2    1    2    0    0  0.92721682529E+02  0.23557034738E+01  0.84776585915E+03  0.86194930104E+03  0.12508711315E+03 0.  0.
          5    1    3    3  502    0  0.11014693753E+03  0.21800847320E+02  0.46940996114E+03  0.48267049714E+03  0.41800000000E+01 0.  1.
         -5    1    3    3    0  502 -0.17425254998E+02 -0.19445143846E+02  0.37835589801E+03  0.37927880390E+03  0.41800000000E+01 0.  1.
        -11    1    1    2    0    0 -0.35958339940E+02  0.43628010522E+02  0.12989072159E+02  0.58009667375E+02  0.00000000000E+00 0.  1.
         11    1    1    2    0    0 -0.56763342589E+02 -0.45983713996E+02  0.52754804440E+02  0.90109091696E+02  0.00000000000E+00 0. -1.
</event>
<event>
 7    1  0.2334784E-009  0.9509257E+02  0.7561462E-02  0.1290968E+00
          2   -1    0    0  501    0  0.00000000000E+00  0.00000000000E+00  0.78737000330E+02  0.78737000330E+02  0.00000000000E+00 0. -1.
         -2   -1    0    0    0  501 -0.00000000000E+00 -0.00000000000E+00 -0.15307941014E+03  0.15307941014E+03  0.00000000000E+00 0.  1.
         25    2    1    2    0    0 -0.12722585308E+01  0.18488499311E+02 -0.63090884962E+02  0.14132248789E+03  0.12509253602E+03 0.  0.
          5    1    3    3  502    0  0.32703405977E+02  0.55137428885E+02 -0.64660154058E+02  0.91148542224E+02  0.41800000000E+01 0.  1.
         -5    1    3    3    0  502 -0.33975664508E+02 -0.36648929575E+02  0.15692690960E+01  0.50173945662E+02  0.41800000000E+01 0.  1.
        -11    1    1    2    0    0  0.35133760089E+02  0.36713514006E+01 -0.29574814903E+02  0.46070919196E+02  0.00000000000E+00 0.  1.
         11    1    1    2    0    0 -0.33861501558E+02 -0.22159850711E+02  0.18323290059E+02  0.44423003386E+02  0.00000000000E+00 0. -1.
</event>
<event>
 7    1  0.2334784E-009  0.8890227E+02  0.7561462E-02  0.1305532E+00
          1   -1    0    0  501    0  0.00000000000E+00  0.00000000000E+00  0.68668987043E+03  0.68668987043E+03  0.00000000000E+00 0. -1.
         -1   -1    0    0    0  501 -0.00000000000E+00 -0.00000000000E+00 -0.20154043452E+02  0.20154043452E+02  0.00000000000E+00 0.  1.
         25    2    1    2    0    0  0.28283297581E+02  0.32611939191E+02  0.33329981916E+03  0.35860747584E+03  0.12508824398E+03 0.  0.
          5    1    3    3  502    0  0.16078961421E+02  0.51462461645E+02  0.33129280788E+03  0.33567739708E+03  0.41800000000E+01 0.  1.
         -5    1    3    3    0  502  0.12204336160E+02 -0.18850522454E+02  0.20070112810E+01  0.22930078765E+02  0.41800000000E+01 0.  1.
        -11    1    1    2    0    0 -0.52186138399E+02  0.89418927366E+01  0.16336296256E+03  0.17172887941E+03  0.00000000000E+00 0.  1.
         11    1    1    2    0    0  0.23902840818E+02 -0.41553831928E+02  0.16987304526E+03  0.17650755863E+03  0.00000000000E+00 0. -1.
</event>
<event>
 7    1  0.2334784E-009  0.1373216E+03  0.7561462E-02  0.1216979E+00
          1   -1    0    0  501    0  0.00000000000E+00  0.00000000000E+00  0.15549830805E+03  0.15549830805E+03  0.00000000000E+00 0. -1.
         -1   -1    0    0    0  501 -0.00000000000E+00 -0.00000000000E+00 -0.18888618988E+03  0.18888618988E+03  0.00000000000E+00 0.  1.
         25    2    1    2    0    0  0.47032225264E+02  0.10744257487E+03  0.47415893497E+02  0.17790849324E+03  0.12508888000E+03 0.  0.
          5    1    3    3  502    0  0.16403851466E+01  0.10052758194E+03 -0.13481137673E+02  0.10152683914E+03  0.41800000000E+01 0. -1.
         -5    1    3    3    0  502  0.45391840117E+02  0.69149929352E+01  0.60897031170E+02  0.76381654092E+02  0.41800000000E+01 0. -1.
        -11    1    1    2    0    0  0.11121428146E+02 -0.14509916353E+02 -0.49043216866E+02  0.52339860117E+02  0.00000000000E+00 0.  1.
         11    1    1    2    0    0 -0.58153653409E+02 -0.92932658520E+02 -0.31760558464E+02  0.11413614457E+03  0.00000000000E+00 0. -1.
</event>
<event>
 7    1  0.2334784E-009  0.1410728E+03  0.7561462E-02  0.1211893E+00
          1   -1    0    0  501    0  0.00000000000E+00  0.00000000000E+00  0.35699577971E+02  0.35699577971E+02  0.00000000000E+00 0. -1.
         -1   -1    0    0    0  501 -0.00000000000E+00 -0.00000000000E+00 -0.71506461723E+03  0.71506461723E+03  0.00000000000E+00 0.  1.
         25    2    1    2    0    0  0.66991289325E+02  0.85441036678E+02 -0.27346864885E+03  0.31971943936E+03  0.12508962549E+03 0.  0.
          5    1    3    3  502    0  0.36200865499E+02 -0.29295638487E+02 -0.75651106679E+02  0.88934242218E+02  0.41800000000E+01 0. -1.
         -5    1    3    3    0  502  0.30790423826E+02  0.11473667517E+03 -0.19781754217E+03  0.23078519714E+03  0.41800000000E+01 0. -1.
        -11    1    1    2    0    0 -0.31066395107E+02 -0.71547344286E+02 -0.37086576585E+03  0.37897962961E+03  0.00000000000E+00 0.  1.
         11    1    1    2    0    0 -0.35924894218E+02 -0.13893692392E+02 -0.35030624560E+02  0.52065126236E+02  0.00000000000E+00 0. -1.
</event>
<event>
 7    1  0.2350309E-009  0.1815097E+03  0.7561462E-02  0.1166350E+00
         -2   -1    0    0    0  501 -0.00000000000E+00  0.00000000000E+00  0.67874847576E+02  0.67874847576E+02  0.00000000000E+00 0.  1.
          2   -1    0    0  501    0  0.00000000000E+00 -0.00000000000E+00 -0.51436579682E+03  0.51436579682E+03  0.00000000000E+00 0. -1.
         25    2    1    2    0    0  0.13454610465E+03  0.66612571943E+02 -0.26759006751E+03  0.33134203442E+03  0.12507282090E+03 0.  0.
          5    1    3    3  502    0  0.49500392781E+02  0.90832649563E+02 -0.11343851694E+03  0.15357938872E+03  0.41800000000E+01 0. -1.
         -5    1    3    3    0  502  0.85045711870E+02 -0.24220077620E+02 -0.15415155056E+03  0.17776264570E+03  0.41800000000E+01 0. -1.
        -11    1    1    2    0    0 -0.94501751745E+02 -0.14886675103E+01 -0.12776196266E+03  0.15892110092E+03  0.00000000000E+00 0. -1.
         11    1    1    2    0    0 -0.40044352906E+02 -0.65123904433E+02 -0.51138919078E+02  0.91977509059E+02  0.00000000000E+00 0.  1.
</event>
<event>
 7    1  0.2334784E-009  0.1148061E+03  0.7561462E-02  0.1251920E+00
         -3   -1    0    0    0  501 -0.00000000000E+00  0.00000000000E+00  0.18243765455E+03  0.18243765455E+03  0.00000000000E+00 0.  1.
          3   -1    0    0  501    0  0.00000000000E+00 -0.00000000000E+00 -0.80204974874E+02  0.80204974874E+02  0.00000000000E+00 0. -1.
         25    2    1    2    0    0 -0.38131239828E+02  0.87108016445E+01  0.23073036863E+02  0.13307895774E+03  0.12509106461E+03 0.  0.
          5    1    3    3  502    0  0.98727694578E+01 -0.50798322317E+02 -0.34807642181E+01  0.52033923997E+02  0.41800000000E+01 0.  1.
         -5    1    3    3    0  502 -0.48004009286E+02  0.59509123961E+02  0.26553801081E+02  0.81045033741E+02  0.41800000000E+01 0.  1.
        -11    1    1    2    0    0  0.85679991108E+01 -0.49784643123E+02  0.28705491593E+02  0.58102724094E+02  0.00000000000E+00 0. -1.
         11    1    1    2    0    0  0.29563240718E+02  0.41073841478E+02  0.50454151225E+02  0.71460947596E+02  0.00000000000E+00 0.  1.
</event>
<event>
 7    1  0.2334784E-009  0.1326832E+03  0.7561462E-02  0.1223528E+00
          4   -1    0    0  501    0  0.00000000000E+00  0.00000000000E+00  0.20788367634E+03  0.20788367634E+03  0.00000000000E+00 0.  1.
         -4   -1    0    0    0  501 -0.00000000000E+00 -0.00000000000E+00 -0.89045561649E+02  0.89045561649E+02  0.00000000000E+00 0. -1.
         25    2    1    2    0    0  0.68725109065E+02  0.45130028809E+02  0.67798198379E+02  0.16432838704E+03  0.12508941989E+03 0.  0.
          5    1    3    3  502    0 -0.31496878702E+02 -0.11571034968E+02  0.21963496337E+02  0.40321331693E+02  0.41800000000E+01 0. -1.
         -5    1    3    3    0  502  0.10022198777E+03  0.56701063778E+02  0.45834702042E+02  0.12400705535E+03  0.41800000000E+01 0. -1.
        -11    1    1    2    0    0  0.15861186964E+02  0.65959770285E+01  0.24570595852E+02  0.29979965734E+02  0.00000000000E+00 0.  1.
         11    1    1    2    0    0 -0.84586296029E+02 -0.51726005838E+02  0.26469320458E+02  0.10262088521E+03  0.00000000000E+00 0. -1.
</event>
<event>
 7    1  0.2334784E-009  0.1148568E+03  0.7561462E-02  0.1251831E+00
          4   -1    0    0  501    0  0.00000000000E+00  0.00000000000E+00  0.17572788440E+03  0.17572788440E+03  0.00000000000E+00 0. -1.
         -4   -1    0    0    0  501 -0.00000000000E+00 -0.00000000000E+00 -0.14434491760E+03  0.14434491760E+03  0.00000000000E+00 0.  1.
         25    2    1    2    0    0  0.10283380368E+02 -0.61016427177E+02  0.11572526805E+03  0.18129842559E+03  0.12509208273E+03 0.  0.
          5    1    3    3  502    0  0.63659361434E+02 -0.43090171765E+02  0.92246197445E+02  0.12015036639E+03  0.41800000000E+01 0.  1.
         -5    1    3    3    0  502 -0.53375981066E+02 -0.17926255413E+02  0.23479070600E+02  0.61148059202E+02  0.41800000000E+01 0.  1.
        -11    1    1    2    0    0 -0.36386251905E+02  0.81204039369E+01 -0.68027911826E+02  0.77573816943E+02  0.00000000000E+00 0.  1.
         11    1    1    2    0    0  0.26102871537E+02  0.52896023240E+02 -0.16314389414E+02  0.61200559467E+02  0.00000000000E+00 0. -1.
</event>
<event>
 7    1  0.2334784E-009  0.1161660E+03  0.7561462E-02  0.1249559E+00
          4   -1    0    0  501    0  0.00000000000E+00  0.00000000000E+00  0.75552643954E+02  0.75552643954E+02  0.00000000000E+00 0.  1.
         -4   -1    0    0    0  501 -0.00000000000E+00 -0.00000000000E+00 -0.19283666492E+03  0.19283666492E+03  0.00000000000E+00 0. -1.
         25    2    1    2    0    0 -0.15927711089E+02  0.51175258344E+02 -0.59549856526E+02  0.14856166014E+03  0.12510708375E+03 0.  0.
          5    1    3    3  502    0 -0.61794388645E+02  0.33633695425E+01 -0.53478260628E+02  0.81897835639E+02  0.41800000000E+01 0.  1.
         -5    1    3    3    0  502  0.45866677556E+02  0.47811888801E+02 -0.60715958979E+01  0.66663824504E+02  0.41800000000E+01 0.  1.
        -11    1    1    2    0    0  0.51064304290E+02 -0.14400051157E+02 -0.38047533947E+02  0.65288126680E+02  0.00000000000E+00 0. -1.
         11    1    1    2    0    0 -0.35136593201E+02 -0.36775207187E+02 -0.19686630492E+02  0.54539522050E+02  0.00000000000E+00 0.  1.
</event>
<event>
 7    1  0.2334784E-009  0.1041221E+03  0.7561462E-02  0.1271859E+00
         -1   -1    0    0    0  501 -0.00000000000E+00  0.00000000000E+00  0.14602700079E+02  0.14602700079E+02  0.00000000000E+00 0.  1.
          1   -1    0    0  501    0  0.00000000000E+00 -0.00000000000E+00 -0.97238090639E+03  0.97238090639E+03  0.00000000000E+00 0. -1.
         25    2    1    2    0    0  0.13606016685E+02 -0.35325366781E+02 -0.44872661935E+03  0.46737140869E+03  0.12508976584E+03 0.  0.
          5    1    3    3  502    0  0.28373391605E+02  0.27304724490E+02 -0.32908548931E+03  0.33145939269E+03  0.41800000000E+01 0.  1.
         -5    1    3    3    0  502 -0.14767374920E+02 -0.62630091271E+02 -0.11964113004E+03  0.13591201600E+03  0.41800000000E+01 0.  1.
        -11    1    1    2    0    0 -0.31506520040E+02  0.63439903458E+02 -0.35461047015E+03  0.36161563530E+03  0.00000000000E+00 0.  1.
         11    1    1    2    0    0  0.17900503355E+02 -0.28114536677E+02 -0.15444111681E+03  0.15799656247E+03  0.00000000000E+00 0. -1.
</event>
<event>
 7    1  0.2334784E-009  0.1898674E+03  0.7561462E-02  0.1158581E+00
          1   -1    0    0  501    0  0.00000000000E+00  0.00000000000E+00  0.47084943824E+03  0.47084943824E+03  0.00000000000E+00 0. -1.
         -1   -1    0    0    0  501 -0.00000000000E+00 -0.00000000000E+00 -0.91986597880E+02  0.91986597880E+02  0.00000000000E+00 0.  1.
         25    2    1    2    0    0 -0.11369033794E+03 -0.13618977344E+03  0.19358327832E+03  0.29085420104E+03  0.12509409774E+03 0.  0.
          5    1    3    3  502    0 -0.52725863654E+02 -0.90132286646E+02  0.27610484574E+02  0.10809096656E+03  0.41800000000E+01 0. -1.
         -5    1    3    3    0  502 -0.60964474281E+02 -0.46057486793E+02  0.16597279375E+03  0.18276323448E+03  0.41800000000E+01 0. -1.
        -11    1    1    2    0    0  0.83342269721E+02  0.30499272927E+02  0.74189874722E+02  0.11567314763E+03  0.00000000000E+00 0. -1.
         11    1    1    2    0    0  0.30348068214E+02  0.10569050051E+03  0.11108968731E+03  0.15630868744E+03  0.00000000000E+00 0.  1.
</event>
<event>
 7    1  0.2334784E-009  0.9551499E+02  0.7561462E-02  0.1290020E+00
          4   -1    0    0  501    0  0.00000000000E+00  0.00000000000E+00  0.38827602279E+03  0.38827602279E+03  0.00000000000E+00 0. -1.
         -4   -1    0    0    0  501 -0.00000000000E+00 -0.00000000000E+00 -0.40666100595E+02  0.40666100595E+02  0.00000000000E+00 0.  1.
         25    2    1    2    0    0 -0.32618925540E+02  0.11115098128E+02  0.26921683477E+03  0.29885170275E+03  0.12508835438E+03 0.  0.
          5    1    3    3  502    0 -0.26757896272E+02 -0.36352947225E+02  0.28842863852E+02  0.53729926298E+02  0.41800000000E+01 0.  1.
         -5    1    3    3    0  502 -0.58610292683E+01  0.47468045353E+02  0.24037397092E+03  0.24512177645E+03  0.41800000000E+01 0.  1.
        -11    1    1    2    0    0 -0.32133326451E+02 -0.63913336734E+01  0.68336948187E+01  0.33467883109E+02  0.00000000000E+00 0.  1.
         11    1    1    2    0    0  0.64752251991E+02 -0.47237644543E+01  0.71559392604E+02  0.96622537528E+02  0.00000000000E+00 0. -1.
</event>
<event>
 7    1  0.2334784E-009  0.1084694E+03  0.7561462E-02  0.1263431E+00
          3   -1    0    0  501    0  0.00000000000E+00  0.00000000000E+00  0.42399162459E+02  0.42399162459E+02  0.00000000000E+00 0. -1.
         -3   -1    0    0    0  501 -0.00000000000E+00 -0.00000000000E+00 -0.35523816509E+03  0.35523816509E+03  0.00000000000E+00 0.  1.
         25    2    1    2    0    0 -0.24558299659E+02  0.84441948074E+01 -0.93927319409E+02  0.15856953922E+03  0.12509013921E+03 0.  0.
          5    1    3    3  502    0  0.50773382672E+02 -0.27148940765E+01 -0.31043641387E+02  0.59720072910E+02  0.41800000000E+01 0.  1.
         -5    1    3    3    0  502 -0.75331682330E+02  0.11159088884E+02 -0.62883678022E+02  0.98849466306E+02  0.41800000000E+01 0.  1.
        -11    1    1    2    0    0  0.50861189717E+02  0.16432261364E+02 -0.17007072154E+03  0.17827206780E+03  0.00000000000E+00 0.  1.
         11    1    1    2    0    0 -0.26302890058E+02 -0.24876456172E+02 -0.48840961686E+02  0.60795720536E+02  0.00000000000E+00 0. -1.
</event>
<event>
 7    1  0.2334784E-009  0.7641879E+02  0.7561462E-02  0.1339533E+00
          1   -1    0    0  501    0  0.00000000000E+00  0.00000000000E+00  0.76809876621E+02  0.76809876621E+02  0.00000000000E+00 0. -1.
         -1   -1    0    0    0  501 -0.00000000000E+00 -0.00000000000E+00 -0.18301660512E+03  0.18301660512E+03  0.00000000000E+00 0.  1.
         25    2    1    2    0    0  0.17410541592E+02  0.19021689829E+02 -0.95741316071E+02  0.15961428601E+03  0.12508144968E+03 0.  0.
          5    1    3    3  502    0 -0.40931690248E+02 -0.71109572991E+01  0.30536409490E+01  0.41866049531E+02  0.41800000000E+01 0. -1.
         -5    1    3    3    0  502  0.58342231840E+02  0.26132647128E+02 -0.98794957020E+02  0.11774823648E+03  0.41800000000E+01 0. -1.
        -11    1    1    2    0    0 -0.21406315092E+02  0.55584334345E+01 -0.49325936858E+02  0.54057141573E+02  0.00000000000E+00 0.  1.
         11    1    1    2    0    0  0.39957735002E+01 -0.24580123264E+02  0.38860524428E+02  0.46155054158E+02  0.00000000000E+00 0. -1.
</event>
<event>
 7    1  0.2334784E-009  0.1126803E+03  0.7561462E-02  0.1255685E+00
          1   -1    0    0  501    0  0.00000000000E+00  0.00000000000E+00  0.25421482466E+03  0.25421482466E+03  0.00000000000E+00 0. -1.
         -1   -1    0    0    0  501 -0.00000000000E+00 -0.00000000000E+00 -0.74689333247E+02  0.74689333247E+02  0.00000000000E+00 0.  1.
         25    2    1    2    0    0  0.11540286598E+02  0.35743210418E+02  0.18849067522E+03  0.22931802878E+03  0.12508904179E+03 0.  0.
          5    1    3    3  502    0  0.34329374537E+02  0.73891919292E+02  0.91743841873E+02  0.12277184781E+03  0.41800000000E+01 0. -1.
         -5    1    3    3    0  502 -0.22789087940E+02 -0.38148708874E+02  0.96746833343E+02  0.10654618097E+03  0.41800000000E+01 0. -1.
        -11    1    1    2    0    0 -0.40927892952E+02 -0.51511981458E+02 -0.46304569649E+01  0.65954664634E+02  0.00000000000E+00 0.  1.
         11    1    1    2    0    0  0.29387606355E+02  0.15768771040E+02 -0.43347268356E+01  0.33631464495E+02  0.00000000000E+00 0. -1.
</event>
<event>
 7    1  0.2334784E-009  0.1303392E+03  0.7561462E-02  0.1226953E+00
          2   -1    0    0  501    0  0.00000000000E+00  0.00000000000E+00  0.10300008029E+04  0.10300008029E+04  0.00000000000E+00 0. -1.
         -2   -1    0    0    0  501 -0.00000000000E+00 -0.00000000000E+00 -0.25385097064E+02  0.25385097064E+02  0.00000000000E+00 0.  1.
         25    2    1    2    0    0  0.72380291582E+02 -0.49966273280E+02  0.80253132324E+03  0.81697001526E+03  0.12509175020E+03 0.  0.
          5    1    3    3  502    0  0.10686818546E+02 -0.73922376507E+02  0.26475996948E+03  0.27512549805E+03  0.41800000000E+01 0.  1.
         -5    1    3    3    0  502  0.61693473036E+02  0.23956103227E+02  0.53777135376E+03  0.54184451720E+03  0.41800000000E+01 0.  1.
        -11    1    1    2    0    0 -0.36863856825E+02 -0.19378145003E+02  0.11100073734E+03  0.11855640064E+03  0.00000000000E+00 0. -1.
         11    1    1    2    0    0 -0.35516434757E+02  0.69344418283E+02  0.91083645214E+02  0.11985948402E+03  0.00000000000E+00 0.  1.
</event>
<event>
 7    1  0.2334784E-009  0.1543383E+03  0.7561462E-02  0.1195241E+00
          1   -1    0    0  501    0  0.00000000000E+00  0.00000000000E+00  0.47801520967E+03  0.47801520967E+03  0.00000000000E+00 0. -1.
         -1   -1    0    0    0  501 -0.00000000000E+00 -0.00000000000E+00 -0.60941494497E+02  0.60941494497E+02  0.00000000000E+00 0.  1.
         25    2    1    2    0    0 -0.70240022223E+02 -0.11336126344E+03  0.21692315614E+03  0.28369600655E+03  0.12507330528E+03 0.  0.
          5    1    3    3  502    0 -0.28372103552E+02 -0.12763600783E+03  0.19321347070E+03  0.23333419041E+03  0.41800000000E+01 0.  1.
         -5    1    3    3    0  502 -0.41867918671E+02  0.14274744392E+02  0.23709685441E+02  0.50361816140E+02  0.41800000000E+01 0.  1.
        -11    1    1    2    0    0  0.32602692701E+02  0.56675737107E+02  0.16746096352E+03  0.17977277061E+03  0.00000000000E+00 0. -1.
         11    1    1    2    0    0  0.37637329522E+02  0.56685526336E+02  0.32689595515E+02  0.75487927011E+02  0.00000000000E+00 0.  1.
</event>
<event>
 7    1  0.2334784E-009  0.1420074E+03  0.7561462E-02  0.1210653E+00
         -1   -1    0    0    0  501 -0.00000000000E+00  0.00000000000E+00  0.16208222558E+02  0.16208222558E+02  0.00000000000E+00 0.  1.
          1   -1    0    0  501    0  0.00000000000E+00 -0.00000000000E+00 -0.13670866618E+04  0.13670866618E+04  0.00000000000E+00 0. -1.
         25    2    1    2    0    0 -0.10059323467E+03 -0.18196019261E+02 -0.79789234032E+03  0.81408225503E+03  0.12509051619E+03 0.  0.
          5    1    3    3  502    0 -0.72489659532E+02  0.47452723741E+02 -0.35457565956E+03  0.36503134452E+03  0.41800000000E+01 0.  1.
         -5    1    3    3    0  502 -0.28103575140E+02 -0.65648743002E+02 -0.44331668076E+03  0.44905091051E+03  0.41800000000E+01 0.  1.
        -11    1    1    2    0    0  0.28594968944E+02  0.41204906922E+02 -0.12649324498E+03  0.13607372130E+03  0.00000000000E+00 0.  1.
         11    1    1    2    0    0  0.71998265728E+02 -0.23008887662E+02 -0.42649285397E+03  0.43313890805E+03  0.00000000000E+00 0. -1.
</event>
<event>
 7    1  0.2334784E-009  0.1109356E+03  0.7561462E-02  0.1258847E+00
          1   -1    0    0  501    0  0.00000000000E+00  0.00000000000E+00  0.41556103562E+03  0.41556103562E+03  0.00000000000E+00 0. -1.
         -1   -1    0    0    0  501 -0.00000000000E+00 -0.00000000000E+00 -0.57549281925E+02  0.57549281925E+02  0.00000000000E+00 0.  1.
         25    2    1    2    0    0  0.50032772131E+02 -0.48088806412E+02  0.32546312618E+03  0.35551396397E+03  0.12509244777E+03 0.  0.
          5    1    3    3  502    0  0.28087418375E+02 -0.88719908378E+02  0.25173187163E+03  0.26841485206E+03  0.41800000000E+01 0.  1.
         -5    1    3    3    0  502  0.21945353756E+02  0.40631101966E+02  0.73731254550E+02  0.87099111913E+02  0.41800000000E+01 0.  1.
        -11    1    1    2    0    0 -0.12636111474E+02 -0.79866179091E+01  0.46432760067E+02  0.48779694405E+02  0.00000000000E+00 0. -1.
         11    1    1    2    0    0 -0.37396660658E+02  0.56075424321E+02 -0.13884132555E+02  0.68816659160E+02  0.00000000000E+00 0.  1.
</event>
<event>
 7    1  0.2334784E-009  0.9437029E+02  0.7561462E-02  0.1292601E+00
         -1   -1    0    0    0  501 -0.00000000000E+00  0.00000000000E+00  0.22565381645E+03  0.22565381645E+03  0.00000000000E+00 0.  1.
          1   -1    0    0  501    0  0.00000000000E+00 -0.00000000000E+00 -0.89578656039E+02  0.89578656039E+02  0.00000000000E+00 0. -1.
         25    2    1    2    0    0 -0.54453296915E+02 -0.46926171958E+02  0.13988772357E+03  0.20097910160E+03  0.12512712301E+03 0.  0.
          5    1    3    3  502    0 -0.54487059138E+02 -0.22346529652E+02  0.15540951052E+00  0.59039847164E+02  0.41800000000E+01 0.  1.
         -5    1    3    3    0  502  0.33762223140E-01 -0.24579642307E+02  0.13973231406E+03  0.14193925443E+03  0.41800000000E+01 0.  1.
        -11    1    1    2    0    0  0.28576396553E+02 -0.18749762539E+02 -0.22884608449E+02  0.41132339334E+02  0.00000000000E+00 0.  1.
         11    1    1    2    0    0  0.25876900362E+02  0.65675934498E+02  0.19072045285E+02  0.73121031556E+02  0.00000000000E+00 0. -1.
</event>
<event>
 7    1  0.2334784E-009  0.1238267E+03  0.7561462E-02  0.1236914E+00
         -1   -1    0    0    0  501 -0.00000000000E+00  0.00000000000E+00  0.98872694957E+02  0.98872694957E+02  0.00000000000E+00 0.  1.
          1   -1    0    0  501    0  0.00000000000E+00 -0.00000000000E+00 -0.29979462468E+03  0.29979462468E+03  0.00000000000E+00 0. -1.
         25    2    1    2    0    0  0.23215382160E+02 -0.87787384902E+02 -0.22335811678E+03  0.27162863253E+03  0.12509071411E+03 0.  0.
          5    1    3    3  502    0 -0.33925905588E+02 -0.50245315404E+02 -0.18138265229E+03  0.19129217899E+03  0.41800000000E+01 0.  1.
         -5    1    3    3    0  502  0.57141287748E+02 -0.37542069499E+02 -0.41975464495E+02  0.80336453540E+02  0.41800000000E+01 0.  1.
        -11    1    1    2    0    0 -0.48787894794E+02  0.75796074611E+02 -0.12924897483E+01  0.90149731750E+02  0.00000000000E+00 0. -1.
         11    1    1    2    0    0  0.25572512634E+02  0.11991310291E+02  0.23728676806E+02  0.36888955364E+02  0.00000000000E+00 0.  1.
</event>
<event>
 7    1  0.2334784E-009  0.1770998E+03  0.7561462E-02  0.1170640E+00
         -2   -1    0    0    0  501 -0.00000000000E+00  0.00000000000E+00  0.63196266848E+02  0.63196266848E+02  0.00000000000E+00 0.  1.
          2   -1    0    0  501    0  0.00000000000E+00 -0.00000000000E+00 -0.81083489269E+03  0.81083489269E+03  0.00000000000E+00 0. -1.
         25    2    1    2    0    0 -0.32157389268E+02 -0.16893696382E+03 -0.57811978186E+03  0.61598964212E+03  0.12508781551E+03 0.  0.
          5    1    3    3  502    0 -0.25610540013E+02 -0.40614789504E+02 -0.39721350058E+02  0.62455735819E+02  0.41800000000E+01 0. -1.
         -5    1    3    3    0  502 -0.65468492552E+01 -0.12832217432E+03 -0.53839843180E+03  0.55353390630E+03  0.41800000000E+01 0. -1.
        -11    1    1    2    0    0  0.31263240929E+02  0.53204514704E+02 -0.11410625023E+03  0.12972411865E+03  0.00000000000E+00 0.  1.
         11    1    1    2    0    0  0.89414833883E+00  0.11573244912E+03 -0.55412593751E+02  0.12831739877E+03  0.00000000000E+00 0. -1.
</event>
<event>
 7    1  0.2334784E-009  0.9158098E+02  0.7561462E-02  0.1299068E+00
         -2   -1    0    0    0  501 -0.00000000000E+00  0.00000000000E+00  0.60647941264E+02  0.60647941264E+02  0.00000000000E+00 0.  1.
          2   -1    0    0  501    0  0.00000000000E+00 -0.00000000000E+00 -0.22828833746E+03  0.22828833746E+03  0.00000000000E+00 0. -1.
         25    2    1    2    0    0  0.44457482667E+02 -0.12505990578E+02 -0.94682382518E+02  0.16354383064E+03  0.12509581694E+03 0.  0.
          5    1    3    3  502    0  0.52050008482E+02 -0.48240636430E+02 -0.10734809084E+02  0.71896251030E+02  0.41800000000E+01 0. -1.
         -5    1    3    3    0  502 -0.75925258147E+01  0.35734645852E+02 -0.83947573434E+02  0.91647579607E+02  0.41800000000E+01 0. -1.
        -11    1    1    2    0    0 -0.12632502345E+02  0.34417321238E+02  0.63168845607E+01  0.37202622855E+02  0.00000000000E+00 0.  1.
         11    1    1    2    0    0 -0.31824980323E+02 -0.21911330661E+02 -0.79274898243E+02  0.88189825237E+02  0.00000000000E+00 0. -1.
</event>
<event>
 7    1  0.2334784E-009  0.1080363E+03  0.7561462E-02  0.1264250E+00
          3   -1    0    0  501    0  0.00000000000E+00  0.00000000000E+00  0.16630355625E+02  0.16630355625E+02  0.00000000000E+00 0. -1.
         -3   -1    0    0    0  501 -0.00000000000E+00 -0.00000000000E+00 -0.18626272173E+04  0.18626272173E+04  0.00000000000E+00 0.  1.
         25    2    1    2    0    0 -0.21470053444E+02 -0.58253321837E+01 -0.16994114941E+04  0.17041545563E+04  0.12509367677E+03 0.  0.
          5    1    3    3  502    0 -0.67522022779E+02 -0.26238334450E+02 -0.78477219006E+03  0.78811962065E+03  0.41800000000E+01 0. -1.
         -5    1    3    3    0  502  0.46051969335E+02  0.20413002266E+02 -0.91463930403E+03  0.91603493570E+03  0.41800000000E+01 0. -1.
        -11    1    1    2    0    0  0.61867813496E+01 -0.42156302085E+02 -0.46535574842E+02  0.63095085346E+02  0.00000000000E+00 0. -1.
         11    1    1    2    0    0  0.15283272095E+02  0.47981634269E+02 -0.10004979278E+03  0.11200793127E+03  0.00000000000E+00 0.  1.
</event>
<event>
 7    1  0.2334784E-009  0.1356342E+03  0.7561462E-02  0.1219327E+00
         -1   -1    0    0    0  501 -0.00000000000E+00  0.00000000000E+00  0.76596711860E+03  0.76596711860E+03  0.00000000000E+00 0.  1.
          1   -1    0    0  501    0  0.00000000000E+00 -0.00000000000E+00 -0.24964796341E+02  0.24964796341E+02  0.00000000000E+00 0. -1.
         25    2    1    2    0    0  0.78695520037E+02  0.32448368052E+02  0.43707413406E+03  0.46251275311E+03  0.12505345522E+03 0.  0.
          5    1    3    3  502    0  0.11152645638E+03  0.20200360482E+02  0.29315774210E+03  0.31433284778E+03  0.41800000000E+01 0.  1.
         -5    1    3    3    0  502 -0.32830936346E+02  0.12248007569E+02  0.14391639196E+03  0.14817990533E+03  0.41800000000E+01 0.  1.
        -11    1    1    2    0    0 -0.53712605918E+02  0.25498519115E+02  0.17604274110E+03  0.18581244632E+03  0.00000000000E+00 0.  1.
         11    1    1    2    0    0 -0.24982914119E+02 -0.57946887167E+02  0.12788544710E+03  0.14260671551E+03  0.00000000000E+00 0. -1.
</event>
<event>
 7    1  0.2334784E-009  0.1020301E+03  0.7561462E-02  0.1276084E+00
         -1   -1    0    0    0  501 -0.00000000000E+00  0.00000000000E+00  0.23346300144E+03  0.23346300144E+03  0.00000000000E+00 0. -1.
          1   -1    0    0  501    0  0.00000000000E+00 -0.00000000000E+00 -0.15165546129E+03  0.15165546129E+03  0.00000000000E+00 0.  1.
         25    2    1    2    0    0 -0.13294751599E+02  0.36851451598E+02  0.19533529423E+03  0.23524037540E+03  0.12508947654E+03 0.  0.
          5    1    3    3  502    0  0.74422605775E+01 -0.33132952661E+02  0.13842275288E+03  0.14258860652E+03  0.41800000000E+01 0. -1.
         -5    1    3    3    0  502 -0.20737012176E+02  0.69984404258E+02  0.56912541353E+02  0.92651768881E+02  0.41800000000E+01 0. -1.
        -11    1    1    2    0    0 -0.19396748032E+02  0.22050548304E+02 -0.45380519071E+02  0.54054158266E+02  0.00000000000E+00 0.  1.
         11    1    1    2    0    0  0.32691499631E+02 -0.58901999902E+02 -0.68147235017E+02  0.95823929062E+02  0.00000000000E+00 0. -1.
</event>
<event>
 7    1  0.2334784E-009  0.2393648E+03  0.7561462E-02  0.1120217E+00
         -2   -1    0    0    0  501 -0.00000000000E+00  0.00000000000E+00  0.49915036651E+02  0.49915036651E+02  0.00000000000E+00 0.  1.
          2   -1    0    0  501    0  0.00000000000E+00 -0.00000000000E+00 -0.18531790036E+04  0.18531790036E+04  0.00000000000E+00 0. -1.
         25    2    1    2    0    0  0.20857623142E+03 -0.61741070412E+02 -0.14959192548E+04  0.15168181933E+04  0.12508801101E+03 0.  0.
          5    1    3    3  502    0 -0.25168465513E+01 -0.34207239686E+02 -0.13544837708E+03  0.13978628337E+03  0.41800000000E+01 0.  1.
         -5    1    3    3    0  502  0.21109307797E+03 -0.27533830726E+02 -0.13604708777E+04  0.13770319099E+04  0.41800000000E+01 0.  1.
        -11    1    1    2    0    0 -0.14010476110E+03  0.78724738803E+02 -0.23933956550E+03  0.28828866817E+03  0.00000000000E+00 0.  1.
         11    1    1    2    0    0 -0.68471470323E+02 -0.16983668392E+02 -0.68005146688E+02  0.97987178836E+02  0.00000000000E+00 0. -1.
</event>
<event>
 7    1  0.2334784E-009  0.1231349E+03  0.7561462E-02  0.1238013E+00
          1   -1    0    0  501    0  0.00000000000E+00  0.00000000000E+00  0.66353292469E+02  0.66353292469E+02  0.00000000000E+00 0. -1.
         -1   -1    0    0    0  501 -0.00000000000E+00 -0.00000000000E+00 -0.43995395210E+03  0.43995395210E+03  0.00000000000E+00 0.  1.
         25    2    1    2    0    0  0.82798172346E+02  0.84007449778E+02 -0.10939229958E+03  0.20377887011E+03  0.12508542574E+03 0.  0.
          5    1    3    3  502    0  0.33098267097E+02  0.14257070512E+02  0.25213767939E+02  0.44181057458E+02  0.41800000000E+01 0. -1.
         -5    1    3    3    0  502  0.49699905249E+02  0.69750379266E+02 -0.13460606752E+03  0.15959781265E+03  0.41800000000E+01 0. -1.
        -11    1    1    2    0    0 -0.61130718477E+02 -0.34483963325E+02 -0.63433943816E+02  0.94604300622E+02  0.00000000000E+00 0. -1.
         11    1    1    2    0    0 -0.21667453869E+02 -0.49523486453E+02 -0.20077441623E+03  0.20792407383E+03  0.00000000000E+00 0.  1.
</event>
<event>
 7    1  0.2334784E-009  0.1530570E+03  0.7561462E-02  0.1196766E+00
          2   -1    0    0  501    0  0.00000000000E+00  0.00000000000E+00  0.63770104341E+02  0.63770104341E+02  0.00000000000E+00 0. -1.
         -2   -1    0    0    0  501 -0.00000000000E+00 -0.00000000000E+00 -0.40420861220E+03  0.40420861220E+03  0.00000000000E+00 0.  1.
         25    2    1    2    0    0 -0.45795689801E+02 -0.96531403787E+02 -0.11153150304E+03  0.19875049151E+03  0.12508766759E+03 0.  0.
          5    1    3    3  502    0 -0.43409342254E+02 -0.12662006401E+03 -0.93708500681E+02  0.16344958582E+03  0.41800000000E+01 0. -1.
         -5    1    3    3    0  502 -0.23863475468E+01  0.30088660228E+02 -0.17823002360E+02  0.35300905683E+02  0.41800000000E+01 0. -1.
        -11    1    1    2    0    0  0.61002991149E+02  0.20756998285E+02 -0.10404951185E+03  0.12238675918E+03  0.00000000000E+00 0.  1.
         11    1    1    2    0    0 -0.15207301347E+02  0.75774405502E+02 -0.12485749298E+03  0.14684146586E+03  0.00000000000E+00 0. -1.
</event>
<event>
 7    1  0.2334784E-009  0.1199605E+03  0.7561462E-02  0.1243162E+00
          2   -1    0    0  501    0  0.00000000000E+00  0.00000000000E+00  0.86685202251E+03  0.86685202251E+03  0.00000000000E+00 0.  1.
         -2   -1    0    0    0  501 -0.00000000000E+00 -0.00000000000E+00 -0.18870493188E+02  0.18870493188E+02  0.00000000000E+00 0. -1.
         25    2    1    2    0    0 -0.26651587834E+02  0.58842340788E+02  0.40320283557E+03  0.42707538425E+03  0.12509248187E+03 0.  0.
          5    1    3    3  502    0 -0.52815688661E+02 -0.17829768453E+02  0.21471100215E+03  0.22186861981E+03  0.41800000000E+01 0. -1.
         -5    1    3    3    0  502  0.26164100827E+02  0.76672109241E+02  0.18849183341E+03  0.20520676444E+03  0.41800000000E+01 0. -1.
        -11    1    1    2    0    0  0.51991995957E+02 -0.57504238468E+02  0.39749858720E+03  0.40498769353E+03  0.00000000000E+00 0.  1.
         11    1    1    2    0    0 -0.25340408123E+02 -0.13381023196E+01  0.47280106558E+02  0.53659437919E+02  0.00000000000E+00 0. -1.
</event>
<event>
 7    1  0.2334784E-009  0.1493269E+03  0.7561462E-02  0.1201303E+00
         -2   -1    0    0    0  501 -0.00000000000E+00  0.00000000000E+00  0.40938167900E+02  0.40938167900E+02  0.00000000000E+00 0.  1.
          2   -1    0    0  501    0  0.00000000000E+00 -0.00000000000E+00 -0.77886791027E+03  0.77886791027E+03  0.00000000000E+00 0. -1.
         25    2    1    2    0    0 -0.86324430527E+02 -0.96388068404E+02 -0.51581815768E+03  0.54631291642E+03  0.12508742468E+03 0.  0.
          5    1    3    3  502    0 -0.35929681687E+02 -0.75622960430E+01 -0.34701134153E+03  0.34897345730E+03  0.41800000000E+01 0. -1.
         -5    1    3    3    0  502 -0.50394748840E+02 -0.88825772361E+02 -0.16880681615E+03  0.19733945912E+03  0.41800000000E+01 0. -1.
        -11    1    1    2    0    0  0.10669556508E+03  0.80875600650E+02 -0.18971932447E+03  0.23220298979E+03  0.00000000000E+00 0.  1.
         11    1    1    2    0    0 -0.20371134554E+02  0.15512467754E+02 -0.32392260209E+02  0.41290171957E+02  0.00000000000E+00 0. -1.
</event>
<event>
 7    1  0.2334784E-009  0.6541857E+02  0.7561462E-02  0.1376404E+00
          1   -1    0    0  501    0  0.00000000000E+00  0.00000000000E+00  0.26912129137E+02  0.26912129137E+02  0.00000000000E+00 0. -1.
         -1   -1    0    0    0  501 -0.00000000000E+00 -0.00000000000E+00 -0.75748064919E+03  0.75748064919E+03  0.00000000000E+00 0.  1.
         25    2    1    2    0    0 -0.19972550277E+02  0.10790314640E+02 -0.65319446172E+03  0.66545232578E+03  0.12509380244E+03 0.  0.
          5    1    3    3  502    0  0.19044480799E+02 -0.53347426934E+01 -0.13399238420E+02  0.24252086895E+02  0.41800000000E+01 0. -1.
         -5    1    3    3    0  502 -0.39017031077E+02  0.16125057333E+02 -0.63979522330E+03  0.64120023889E+03  0.41800000000E+01 0. -1.
        -11    1    1    2    0    0 -0.23211770531E+02  0.16142243329E+01 -0.69543328745E+02  0.73332575192E+02  0.00000000000E+00 0.  1.
         11    1    1    2    0    0  0.43184320809E+02 -0.12404538973E+02 -0.78307295873E+01  0.45607877354E+02  0.00000000000E+00 0. -1.
</event>
<event>
 7    1  0.2334784E-009  0.2218987E+03  0.7561462E-02  0.1132475E+00
         -2   -1    0    0    0  501 -0.00000000000E+00  0.00000000000E+00  0.12866225940E+03  0.12866225940E+03  0.00000000000E+00 0. -1.
          2   -1    0    0  501    0  0.00000000000E+00 -0.00000000000E+00 -0.48158693560E+03  0.48158693560E+03  0.00000000000E+00 0.  1.
         25    2    1    2    0    0  0.91643700897E+02 -0.19935233417E+03 -0.23511231795E+03  0.34505776457E+03  0.12508851979E+03 0.  0.
          5    1    3    3  502    0  0.81191871037E+02 -0.14924970501E+03 -0.92534025438E+02  0.19351385644E+03  0.41800000000E+01 0. -1.
         -5    1    3    3    0  502  0.10451829860E+02 -0.50102629157E+02 -0.14257829251E+03  0.15154390813E+03  0.41800000000E+01 0. -1.
        -11    1    1    2    0    0  0.32558425845E+01  0.12531968829E+02 -0.39376365275E+02  0.41450559658E+02  0.00000000000E+00 0.  1.
         11    1    1    2    0    0 -0.94899543481E+02  0.18682036534E+03 -0.78435992974E+02  0.22374087077E+03  0.00000000000E+00 0. -1.
</event>
<event>
 7    1  0.2334784E-009  0.7136676E+02  0.7561462E-02  0.1355506E+00
          2   -1    0    0  501    0  0.00000000000E+00  0.00000000000E+00  0.49541905954E+02  0.49541905954E+02  0.00000000000E+00 0. -1.
         -2   -1    0    0    0  501 -0.00000000000E+00 -0.00000000000E+00 -0.31417212321E+03  0.31417212321E+03  0.00000000000E+00 0.  1.
         25    2    1    2    0    0  0.29476633671E+02 -0.55345979898E+02 -0.17432604830E+03  0.22353575993E+03  0.12508643183E+03 0.  0.
          5    1    3    3  502    0  0.17687340480E+02 -0.20799637439E+02 -0.18358069033E+03  0.18564700157E+03  0.41800000000E+01 0.  1.
         -5    1    3    3    0  502  0.11789293192E+02 -0.34546342459E+02  0.92546420262E+01  0.37888758363E+02  0.41800000000E+01 0.  1.
        -11    1    1    2    0    0 -0.27843477380E+02  0.53554384741E+01 -0.85326320182E+02  0.89913963708E+02  0.00000000000E+00 0.  1.
         11    1    1    2    0    0 -0.16331562916E+01  0.49990541424E+02 -0.49778487737E+01  0.50264305523E+02  0.00000000000E+00 0. -1.
</event>
<event>
 7    1  0.2612056E-009  0.1028936E+03  0.7561462E-02  0.1274326E+00
         -2   -1    0    0    0  501 -0.00000000000E+00  0.00000000000E+00  0.29693484165E+02  0.29693484165E+02  0.00000000000E+00 0.  1.
          2   -1    0    0  501    0  0.00000000000E+00 -0.00000000000E+00 -0.59545194747E+03  0.59545194747E+03  0.00000000000E+00 0. -1.
         25    2    1    2    0    0  0.26597902459E+02  0.47156586688E+02 -0.43900767161E+03  0.45968185116E+03  0.12509387066E+03 0.  0.
          5    1    3    3  502    0  0.13707022775E+02  0.71160656188E+02 -0.41993242052E+03  0.42616010098E+03  0.41800000000E+01 0. -1.
         -5    1    3    3    0  502  0.12890879684E+02 -0.24004069500E+02 -0.19075251090E+02  0.33521750190E+02  0.41800000000E+01 0. -1.
        -11    1    1    2    0    0 -0.14903306308E+02 -0.74456579530E+02 -0.82039053699E+02  0.11178683780E+03  0.00000000000E+00 0.  1.
         11    1    1    2    0    0 -0.11694596152E+02  0.27299992842E+02 -0.44711737997E+02  0.53676742664E+02  0.00000000000E+00 0. -1.
</event>
<event>
 7    1  0.2334784E-009  0.7889692E+02  0.7561462E-02  0.1332211E+00
          2   -1    0    0  501    0  0.00000000000E+00  0.00000000000E+00  0.59958148118E+02  0.59958148118E+02  0.00000000000E+00 0. -1.
         -2   -1    0    0    0  501 -0.00000000000E+00 -0.00000000000E+00 -0.19158120090E+03  0.19158120090E+03  0.00000000000E+00 0.  1.
         25    2    1    2    0    0  0.19073240627E+02  0.12686325074E+02 -0.93694068450E+02  0.15795817980E+03  0.12508987469E+03 0.  0.
          5    1    3    3  502    0  0.44895861397E+02  0.97404251586E+01 -0.11511876605E+03  0.12401740584E+03  0.41800000000E+01 0. -1.
         -5    1    3    3    0  502 -0.25822620770E+02  0.29458999153E+01  0.21424697602E+02  0.33940773962E+02  0.41800000000E+01 0. -1.
        -11    1    1    2    0    0  0.49995449863E+01 -0.44870736337E+02 -0.16785778282E+02  0.48167839707E+02  0.00000000000E+00 0.  1.
         11    1    1    2    0    0 -0.24072785613E+02  0.32184411264E+02 -0.21143206054E+02  0.45413329517E+02  0.00000000000E+00 0. -1.
</event>
<event>
 7    1  0.2334784E-009  0.1176330E+03  0.7561462E-02  0.1247054E+00
          2   -1    0    0  501    0  0.00000000000E+00  0.00000000000E+00  0.39085830861E+03  0.39085830861E+03  0.00000000000E+00 0. -1.
         -2   -1    0    0    0  501 -0.00000000000E+00 -0.00000000000E+00 -0.56535145892E+02  0.56535145892E+02  0.00000000000E+00 0.  1.
         25    2    1    2    0    0 -0.10127260585E+03 -0.19551062779E+01  0.17253146812E+03  0.23595336844E+03  0.12508765506E+03 0.  0.
          5    1    3    3  502    0  0.13174355106E+02 -0.73579329246E+01 -0.11293065934E+02  0.19305661024E+02  0.41800000000E+01 0. -1.
         -5    1    3    3    0  502 -0.11444696095E+03  0.54028266467E+01  0.18382453406E+03  0.21664770742E+03  0.41800000000E+01 0. -1.
        -11    1    1    2    0    0  0.18690520291E+02 -0.10505159598E+02  0.11236745110E+03  0.11439465894E+03  0.00000000000E+00 0. -1.
         11    1    1    2    0    0  0.82582085555E+02  0.12460265876E+02  0.49424243489E+02  0.97045427119E+02  0.00000000000E+00 0.  1.
</event>
<event>
 7    1  0.2334784E-009  0.1198833E+03  0.7561462E-02  0.1243290E+00
         -1   -1    0    0    0  501 -0.00000000000E+00  0.00000000000E+00  0.29950075396E+02  0.29950075396E+02  0.00000000000E+00 0.  1.
          1   -1    0    0  501    0  0.00000000000E+00 -0.00000000000E+00 -0.63842592476E+03  0.63842592476E+03  0.00000000000E+00 0. -1.
         25    2    1    2    0    0  0.43520213831E+02  0.41585765262E+02 -0.48336645252E+03  0.50290546534E+03  0.12508954698E+03 0.  0.
          5    1    3    3  502    0 -0.35522443493E+02 -0.13363580617E+02 -0.19977875765E+03  0.20339482218E+03  0.41800000000E+01 0.  1.
         -5    1    3    3    0  502  0.79042657324E+02  0.54949345880E+02 -0.28358769487E+03  0.29951064317E+03  0.41800000000E+01 0.  1.
        -11    1    1    2    0    0 -0.65768292054E+02 -0.98976751662E+01 -0.97054958994E+02  0.11765669245E+03  0.00000000000E+00 0.  1.
         11    1    1    2    0    0  0.22248078222E+02 -0.31688090096E+02 -0.28054437852E+02  0.47813842365E+02  0.00000000000E+00 0. -1.
</event>
<event>
 7    1  0.2334784E-009  0.1116417E+03  0.7561462E-02  0.1257560E+00
         -3   -1    0    0    0  501 -0.00000000000E+00  0.00000000000E+00  0.42169245358E+03  0.42169245358E+03  0.00000000000E+00 0.  1.
          3   -1    0    0  501    0  0.00000000000E+00 -0.00000000000E+00 -0.46841614741E+02  0.46841614741E+02  0.00000000000E+00 0. -1.
         25    2    1    2    0    0  0.60875416190E+01 -0.85707118050E+02  0.24462746735E+03  0.28788882845E+03  0.12511839000E+03 0.  0.
          5    1    3    3  502    0 -0.34134044656E+02  0.16971250243E+01  0.12591624216E+02  0.36661077975E+02  0.41800000000E+01 0. -1.
         -5    1    3    3    0  502  0.40221586275E+02 -0.87404243074E+02  0.23203584313E+03  0.25122775047E+03  0.41800000000E+01 0. -1.
        -11    1    1    2    0    0 -0.15666952307E+02  0.79732370682E+02  0.14245453592E+03  0.16399999736E+03  0.00000000000E+00 0.  1.
         11    1    1    2    0    0  0.95794106883E+01  0.59747473685E+01 -0.12231164426E+02  0.16645242517E+02  0.00000000000E+00 0. -1.
</event>
<event>
 7    1  0.2334784E-009  0.2330216E+03  0.7561462E-02  0.1124531E+00
         -2   -1    0    0    0  501 -0.00000000000E+00  0.00000000000E+00  0.25969754153E+03  0.25969754153E+03  0.00000000000E+00 0.  1.
          2   -1    0    0  501    0  0.00000000000E+00 -0.00000000000E+00 -0.32883686449E+03  0.32883686449E+03  0.00000000000E+00 0. -1.
         25    2    1    2    0    0  0.14241887893E+03 -0.15000775826E+03  0.14193945489E+03  0.28032150095E+03  0.12509144824E+03 0.  0.
          5    1    3    3  502    0  0.40165516936E+01 -0.91040995722E+02  0.52598611151E+02  0.10530281043E+03  0.41800000000E+01 0. -1.
         -5    1    3    3    0  502  0.13840232724E+03 -0.58966762534E+02  0.89340843742E+02  0.17501869052E+03  0.41800000000E+01 0. -1.
        -11    1    1    2    0    0 -0.95612279679E+02  0.37930979103E+02 -0.89266703542E+02  0.13619475600E+03  0.00000000000E+00 0. -1.
         11    1    1    2    0    0 -0.46806599255E+02  0.11207677915E+03 -0.12181207431E+03  0.17201814907E+03  0.00000000000E+00 0.  1.
</event>
<event>
 7    1  0.2334784E-009  0.8709609E+02  0.7561462E-02  0.1310040E+00
          2   -1    0    0  501    0  0.00000000000E+00  0.00000000000E+00  0.74515197219E+03  0.74515197219E+03  0.00000000000E+00 0.  1.
         -2   -1    0    0    0  501 -0.00000000000E+00 -0.00000000000E+00 -0.19730071025E+02  0.19730071025E+02  0.00000000000E+00 0. -1.
         25    2    1    2    0    0  0.39965127392E+01  0.52727329271E+02  0.45537859132E+03  0.47519757050E+03  0.12508767407E+03 0.  0.
          5    1    3    3  502    0 -0.91245799965E+01 -0.42989624118E+01 -0.43411442284E+01  0.11749764727E+02  0.41800000000E+01 0. -1.
         -5    1    3    3    0  502  0.13121092736E+02  0.57026291683E+02  0.45971973555E+03  0.46344780577E+03  0.41800000000E+01 0. -1.
        -11    1    1    2    0    0 -0.40318251398E+02 -0.55023628474E+02  0.16652124712E+03  0.17995134573E+03  0.00000000000E+00 0.  1.
         11    1    1    2    0    0  0.36321738658E+02  0.22962992022E+01  0.10352206272E+03  0.10973312699E+03  0.00000000000E+00 0. -1.
</event>
<event>
 7    1  0.2334784E-009  0.1437184E+03  0.7561462E-02  0.1208411E+00
          2   -1    0    0  501    0  0.00000000000E+00  0.00000000000E+00  0.59328647266E+03  0.59328647266E+03  0.00000000000E+00 0.  1.
         -2   -1    0    0    0  501 -0.00000000000E+00 -0.00000000000E+00 -0.54906503022E+02  0.54906503022E+02  0.00000000000E+00 0. -1.
         25    2    1    2    0    0 -0.58380970374E+02  0.11597511526E+03  0.17546786978E+03  0.25158470878E+03  0.12508927734E+03 0.  0.
          5    1    3    3  502    0 -0.10115820941E+02  0.27328961538E+02 -0.17159371750E+02  0.34075187614E+02  0.41800000000E+01 0.  1.
         -5    1    3    3    0  502 -0.48265149433E+02  0.88646153724E+02  0.19262724153E+03  0.21750952117E+03  0.41800000000E+01 0.  1.
        -11    1    1    2    0    0 -0.10589642699E+02 -0.77062095628E+02  0.21812070611E+03  0.23157579656E+03  0.00000000000E+00 0. -1.
         11    1    1    2    0    0  0.68970613073E+02 -0.38913019634E+02  0.14479139374E+03  0.16503247034E+03  0.00000000000E+00 0.  1.
</event>
<event>
 7    1  0.2334784E-009  0.9990362E+02  0.7561462E-02  0.1280499E+00
         -1   -1    0    0    0  501 -0.00000000000E+00  0.00000000000E+00  0.25759611163E+02  0.25759611163E+02  0.00000000000E+00 0.  1.
          1   -1    0    0  501    0  0.00000000000E+00 -0.00000000000E+00 -0.52541975003E+03  0.52541975003E+03  0.00000000000E+00 0. -1.
         25    2    1    2    0    0 -0.12505105060E+00  0.34557365851E+02 -0.22559202400E+03  0.26025883705E+03  0.12509465935E+03 0.  0.
          5    1    3    3  502    0  0.34553851495E+02  0.52907421534E+02 -0.51138352016E+02  0.81398816659E+02  0.41800000000E+01 0. -1.
         -5    1    3    3    0  502 -0.34678902546E+02 -0.18350055682E+02 -0.17445367199E+03  0.17886002039E+03  0.41800000000E+01 0. -1.
        -11    1    1    2    0    0  0.44156482160E+02 -0.60551584372E+01 -0.11056340116E+03  0.11920874773E+03  0.00000000000E+00 0.  1.
         11    1    1    2    0    0 -0.44031431109E+02 -0.28502207414E+02 -0.16350471371E+03  0.17171177641E+03  0.00000000000E+00 0. -1.
</event>
<event>
 7    1  0.2334784E-009  0.8440793E+02  0.7561462E-02  0.1316988E+00
          2   -1    0    0  501    0  0.00000000000E+00  0.00000000000E+00  0.22583297209E+03  0.22583297209E+03  0.00000000000E+00 0. -1.
         -2   -1    0    0    0  501 -0.00000000000E+00 -0.00000000000E+00 -0.64683521967E+02  0.64683521967E+02  0.00000000000E+00 0.  1.
         25    2    1    2    0    0 -0.18721784580E+02 -0.56286591787E+01  0.30847498917E+02  0.13031033222E+03  0.12508807886E+03 0.  0.
          5    1    3    3  502    0  0.26941765286E+02  0.68430881872E+01 -0.37623623931E+02  0.46964838447E+02  0.41800000000E+01 0.  1.
         -5    1    3    3    0  502 -0.45663549866E+02 -0.12471747366E+02  0.68471122848E+02  0.83345493776E+02  0.41800000000E+01 0.  1.
        -11    1    1    2    0    0 -0.24224915920E+02 -0.29164982218E+02  0.51370233932E+02  0.63846250268E+02  0.00000000000E+00 0.  1.
         11    1    1    2    0    0  0.42946700499E+02  0.34793641397E+02  0.78931717279E+02  0.96359911571E+02  0.00000000000E+00 0. -1.
</event>
<event>
 7    1  0.2566818E-009  0.1908810E+03  0.7561462E-02  0.1157669E+00
          1   -1    0    0  501    0  0.00000000000E+00  0.00000000000E+00  0.33877663315E+03  0.33877663315E+03  0.00000000000E+00 0. -1.
         -1   -1    0    0    0  501 -0.00000000000E+00 -0.00000000000E+00 -0.14224501704E+03  0.14224501704E+03  0.00000000000E+00 0.  1.
         25    2    1    2    0    0 -0.18337357469E+03 -0.49258882968E+02  0.11644562645E+03  0.25545854895E+03  0.12508869200E+03 0.  0.
          5    1    3    3  502    0 -0.18680828352E+02 -0.10081894910E+02 -0.26247338209E+02  0.34014895502E+02  0.41800000000E+01 0.  1.
         -5    1    3    3    0  502 -0.16469274634E+03 -0.39176988058E+02  0.14269296466E+03  0.22144365345E+03  0.41800000000E+01 0.  1.
        -11    1    1    2    0    0  0.42475836343E+02  0.33907978013E+01 -0.19675140074E+02  0.46934052880E+02  0.00000000000E+00 0.  1.
         11    1    1    2    0    0  0.14089773835E+03  0.45868085167E+02  0.99761129737E+02  0.17862904835E+03  0.00000000000E+00 0. -1.
</event>
<event>
 7    1  0.2334784E-009  0.3339178E+03  0.7561462E-02  0.1069416E+00
          1   -1    0    0  501    0  0.00000000000E+00  0.00000000000E+00  0.15043020742E+04  0.15043020742E+04  0.00000000000E+00 0. -1.
         -1   -1    0    0    0  501 -0.00000000000E+00 -0.00000000000E+00 -0.86374199282E+02  0.86374199282E+02  0.00000000000E+00 0.  1.
         25    2    1    2    0    0  0.23863451421E+03  0.22530545582E+03  0.94356769558E+03  0.10068150916E+04  0.12509057816E+03 0.  0.
          5    1    3    3  502    0  0.14529926405E+02  0.14394039630E+02  0.21359975664E+03  0.21461741676E+03  0.41800000000E+01 0. -1.
         -5    1    3    3    0  502  0.22410458780E+03  0.21091141619E+03  0.72996793894E+03  0.79219767484E+03  0.41800000000E+01 0. -1.
        -11    1    1    2    0    0 -0.12685827079E+03 -0.17616156234E+03  0.32682035991E+03  0.39234865179E+03  0.00000000000E+00 0. -1.
         11    1    1    2    0    0 -0.11177624342E+03 -0.49143893481E+02  0.14753981939E+03  0.19151253005E+03  0.00000000000E+00 0.  1.
</event>
<event>
 7    1  0.2334784E-009  0.1562938E+03  0.7561462E-02  0.1192946E+00
          1   -1    0    0  501    0  0.00000000000E+00  0.00000000000E+00  0.23827306556E+04  0.23827306556E+04  0.00000000000E+00 0. -1.
         -1   -1    0    0    0  501 -0.00000000000E+00 -0.00000000000E+00 -0.17930115892E+02  0.17930115892E+02  0.00000000000E+00 0.  1.
         25    2    1    2    0    0  0.11394546342E+03 -0.77713045417E+02  0.18663196711E+04  0.18755847434E+04  0.12508448771E+03 0.  0.
          5    1    3    3  502    0 -0.45017389287E+01  0.13286420104E+02  0.32001075548E+02  0.35189996431E+02  0.41800000000E+01 0. -1.
         -5    1    3    3    0  502  0.11844720235E+03 -0.90999465521E+02  0.18343185955E+04  0.18403947470E+04  0.41800000000E+01 0. -1.
        -11    1    1    2    0    0 -0.34773881992E+02  0.56862449454E+02  0.34238737908E+03  0.34881467627E+03  0.00000000000E+00 0.  1.
         11    1    1    2    0    0 -0.79171581426E+02  0.20850595963E+02  0.15609348956E+03  0.17626135181E+03  0.00000000000E+00 0. -1.
</event>
<event>
 7    1  0.2334784E-009  0.1244506E+03  0.7561462E-02  0.1235930E+00
          1   -1    0    0  501    0  0.00000000000E+00  0.00000000000E+00  0.19960237962E+02  0.19960237962E+02  0.00000000000E+00 0. -1.
         -1   -1    0    0    0  501 -0.00000000000E+00 -0.00000000000E+00 -0.87610446153E+03  0.87610446153E+03  0.00000000000E+00 0.  1.
         25    2    1    2    0    0  0.67047333173E+02 -0.30318730319E+02 -0.53853467784E+03  0.55774682671E+03  0.12508938075E+03 0.  0.
          5    1    3    3  502    0  0.23151866181E+02  0.48082165769E+02 -0.24302837720E+03  0.24885370822E+03  0.41800000000E+01 0. -1.
         -5    1    3    3    0  502  0.43895466991E+02 -0.78400896089E+02 -0.29550630064E+03  0.30889311849E+03  0.41800000000E+01 0. -1.
        -11    1    1    2    0    0 -0.45215672622E+02 -0.20849432414E+02 -0.79572707186E+02  0.93866775866E+02  0.00000000000E+00 0. -1.
         11    1    1    2    0    0 -0.21831660551E+02  0.51168162733E+02 -0.23803683854E+03  0.24445109691E+03  0.00000000000E+00 0.  1.
</event>
<event>
 7    1  0.2334784E-009  0.2827531E+03  0.7561462E-02  0.1094195E+00
         -1   -1    0    0    0  501 -0.00000000000E+00  0.00000000000E+00  0.33076440754E+02  0.33076440754E+02  0.00000000000E+00 0.  1.
          1   -1    0    0  501    0  0.00000000000E+00 -0.00000000000E+00 -0.24678174768E+04  0.24678174768E+04  0.00000000000E+00 0. -1.
         25    2    1    2    0    0  0.96466077268E+02 -0.24629130271E+03 -0.12631548697E+04  0.12966003363E+04  0.12508835809E+03 0.  0.
          5    1    3    3  502    0 -0.28138732014E+02 -0.22475831065E+02 -0.14368646081E+03  0.14818981963E+03  0.41800000000E+01 0. -1.
         -5    1    3    3    0  502  0.12460480928E+03 -0.22381547165E+03 -0.11194684089E+04  0.11484105166E+04  0.41800000000E+01 0. -1.
        -11    1    1    2    0    0 -0.70291659954E+02  0.88070215632E+02 -0.60708824977E+03  0.61745722391E+03  0.00000000000E+00 0. -1.
         11    1    1    2    0    0 -0.26174417314E+02  0.15822108708E+03 -0.56449791661E+03  0.58683635741E+03  0.00000000000E+00 0.  1.
</event>
<event>
 7    1  0.2334784E-009  0.1253712E+03  0.7561462E-02  0.1234490E+00
          1   -1    0    0  501    0  0.00000000000E+00  0.00000000000E+00  0.96493396401E+02  0.96493396401E+02  0.00000000000E+00 0. -1.
         -1   -1    0    0    0  501 -0.00000000000E+00 -0.00000000000E+00 -0.34391933089E+03  0.34391933089E+03  0.00000000000E+00 0.  1.
         25    2    1    2    0    0  0.73293766936E+02  0.16669703657E+02 -0.35412705421E+02  0.15017170029E+03  0.12509046555E+03 0.  0.
          5    1    3    3  502    0 -0.70395466322E+01  0.32083884360E+01 -0.63351320890E+02  0.63958668151E+02  0.41800000000E+01 0. -1.
         -5    1    3    3    0  502  0.80333313568E+02  0.13461315221E+02  0.27938615469E+02  0.86213032139E+02  0.41800000000E+01 0. -1.
        -11    1    1    2    0    0  0.37977598833E+02 -0.29897519563E+02  0.23136792879E+01  0.48389180619E+02  0.00000000000E+00 0. -1.
         11    1    1    2    0    0 -0.11127136577E+03  0.13227815906E+02 -0.21432690836E+03  0.24185184639E+03  0.00000000000E+00 0.  1.
</event>
<event>
 7    1  0.2334784E-009  0.1006258E+03  0.7561462E-02  0.1278986E+00
         -2   -1    0    0    0  501 -0.00000000000E+00  0.00000000000E+00  0.17337634418E+02  0.17337634418E+02  0.00000000000E+00 0.  1.
          2   -1    0    0  501    0  0.00000000000E+00 -0.00000000000E+00 -0.13859883117E+04  0.13859883117E+04  0.00000000000E+00 0. -1.
         25    2    1    2    0    0  0.83538587230E+00 -0.63467527443E+02 -0.11502847794E+04  0.11588058936E+04  0.12508876972E+03 0.  0.
          5    1    3    3  502    0 -0.21591068175E+02 -0.65612327338E+02 -0.11122633391E+04  0.11144139086E+04  0.41800000000E+01 0.  1.
         -5    1    3    3    0  502  0.22426454047E+02  0.21447998944E+01 -0.38021440292E+02  0.44391984970E+02  0.41800000000E+01 0.  1.
        -11    1    1    2    0    0  0.42795133885E+02  0.43942973287E+02 -0.10710191719E+03  0.12342296809E+03  0.00000000000E+00 0. -1.
         11    1    1    2    0    0 -0.43630519757E+02  0.19524554157E+02 -0.11126398068E+03  0.12109708447E+03  0.00000000000E+00 0.  1.
</event>
<event>
 7    1  0.2334784E-009  0.1724386E+03  0.7561462E-02  0.1175328E+00
          3   -1    0    0  501    0  0.00000000000E+00  0.00000000000E+00  0.25505156724E+03  0.25505156724E+03  0.00000000000E+00 0. -1.
         -3   -1    0    0    0  501 -0.00000000000E+00 -0.00000000000E+00 -0.13788790553E+03  0.13788790553E+03  0.00000000000E+00 0.  1.
         25    2    1    2    0    0 -0.77139281421E+02  0.13149800944E+03  0.58990255591E+02  0.20582206993E+03  0.12506270023E+03 0.  0.
          5    1    3    3  502    0  0.29319035913E+02  0.13681296202E+02  0.30067666854E+02  0.44365760702E+02  0.41800000000E+01 0. -1.
         -5    1    3    3    0  502 -0.10645831733E+03  0.11781671324E+03  0.28922588737E+02  0.16145630922E+03  0.41800000000E+01 0. -1.
        -11    1    1    2    0    0  0.34070766954E+02 -0.41949244740E+02  0.68458869518E+02  0.87219109779E+02  0.00000000000E+00 0. -1.
         11    1    1    2    0    0  0.43068514467E+02 -0.89548764704E+02 -0.10285463399E+02  0.99898293058E+02  0.00000000000E+00 0.  1.
</event>
<event>
 7    1  0.2334784E-009  0.1106654E+03  0.7561462E-02  0.1259343E+00
         -2   -1    0    0    0  501 -0.00000000000E+00  0.00000000000E+00  0.47322632134E+02  0.47322632134E+02  0.00000000000E+00 0.  1.
          2   -1    0    0  501    0  0.00000000000E+00 -0.00000000000E+00 -0.37709047159E+03  0.37709047159E+03  0.00000000000E+00 0. -1.
         25    2    1    2    0    0  0.70259978442E+02 -0.63387874276E+01 -0.23439802568E+03  0.27489362014E+03  0.12508966047E+03 0.  0.
          5    1    3    3  502    0  0.81157914442E+02  0.35852338962E+02 -0.20126250625E+03  0.21999105916E+03  0.41800000000E+01 0. -1.
         -5    1    3    3    0  502 -0.10897936000E+02 -0.42191126389E+02 -0.33135519427E+02  0.54902560985E+02  0.41800000000E+01 0. -1.
        -11    1    1    2    0    0 -0.65888914220E+02  0.24314995990E+02 -0.21619883280E+02  0.73484606552E+02  0.00000000000E+00 0.  1.
         11    1    1    2    0    0 -0.43710642223E+01 -0.17976208563E+02 -0.73749930492E+02  0.76034877025E+02  0.00000000000E+00 0. -1.
</event>
<event>
 7    1  0.2334784E-009  0.1426900E+03  0.7561462E-02  0.1209754E+00
          1   -1    0    0  501    0  0.00000000000E+00  0.00000000000E+00  0.13905207100E+03  0.13905207100E+03  0.00000000000E+00 0. -1.
         -1   -1    0    0    0  501 -0.00000000000E+00 -0.00000000000E+00 -0.15918111764E+03  0.15918111764E+03  0.00000000000E+00 0.  1.
         25    2    1    2    0    0  0.97189088708E+02 -0.11150907601E+02  0.16123450708E+02  0.15961513814E+03  0.12508782897E+03 0.  0.
          5    1    3    3  502    0  0.55041575442E+02 -0.64356417768E+02  0.30502090336E+02  0.90106456205E+02  0.41800000000E+01 0. -1.
         -5    1    3    3    0  502  0.42147513266E+02  0.53205510168E+02 -0.14378639627E+02  0.69508681934E+02  0.41800000000E+01 0. -1.
        -11    1    1    2    0    0 -0.57851960304E+01  0.37118871659E+02 -0.20290265361E+01  0.37621750026E+02  0.00000000000E+00 0.  1.
         11    1    1    2    0    0 -0.91403892678E+02 -0.25967964059E+02 -0.34223470820E+02  0.10099630047E+03  0.00000000000E+00 0. -1.
</event>
<event>
 7    1  0.2334784E-009  0.7286802E+02  0.7561462E-02  0.1350603E+00
          2   -1    0    0  501    0  0.00000000000E+00  0.00000000000E+00  0.95028983983E+02  0.95028983983E+02  0.00000000000E+00 0. -1.
         -2   -1    0    0    0  501 -0.00000000000E+00 -0.00000000000E+00 -0.15831511099E+03  0.15831511099E+03  0.00000000000E+00 0.  1.
         25    2    1    2    0    0 -0.16286916371E+02 -0.51415095134E+02 -0.51198184155E+02  0.14552404358E+03  0.12508883862E+03 0.  0.
          5    1    3    3  502    0 -0.17889517569E+02  0.12159564584E+02  0.33151534285E+02  0.39804352465E+02  0.41800000000E+01 0.  1.
         -5    1    3    3    0  502  0.16026011975E+01 -0.63574659718E+02 -0.84349718440E+02  0.10571969112E+03  0.41800000000E+01 0.  1.
        -11    1    1    2    0    0  0.16866281682E+02  0.12351865585E+02 -0.49496678169E+02  0.53730449383E+02  0.00000000000E+00 0.  1.
         11    1    1    2    0    0 -0.57936531072E+00  0.39063229549E+02  0.37408735319E+02  0.54089602005E+02  0.00000000000E+00 0. -1.
</event>
<event>
 7    1  0.2334784E-009  0.1317312E+03  0.7561462E-02  0.1224909E+00
         -2   -1    0    0    0  501 -0.00000000000E+00  0.00000000000E+00  0.89881631239E+02  0.89881631239E+02  0.00000000000E+00 0.  1.
          2   -1    0    0  501    0  0.00000000000E+00 -0.00000000000E+00 -0.26595654619E+03  0.26595654619E+03  0.00000000000E+00 0. -1.
         25    2    1    2    0    0 -0.10469016839E+03 -0.21947580310E+02 -0.67737687313E+02  0.17798212078E+03  0.12509002117E+03 0.  0.
          5    1    3    3  502    0  0.46927397838E+01 -0.39127276517E+02  0.12074352825E+02  0.41427381892E+02  0.41800000000E+01 0. -1.
         -5    1    3    3    0  502 -0.10938290817E+03  0.17179696207E+02 -0.79812040138E+02  0.13655473889E+03  0.41800000000E+01 0. -1.
        -11    1    1    2    0    0  0.20649201660E+02 -0.10225241166E+02 -0.80390544431E+02  0.83627655234E+02  0.00000000000E+00 0. -1.
         11    1    1    2    0    0  0.84040966730E+02  0.32172821476E+02 -0.27946683207E+02  0.94228401413E+02  0.00000000000E+00 0.  1.
</event>
<event>
 7    1  0.2334784E-009  0.2145343E+03  0.7561462E-02  0.1138025E+00
          2   -1    0    0  501    0  0.00000000000E+00  0.00000000000E+00  0.92042600552E+03  0.92042600552E+03  0.00000000000E+00 0. -1.
         -2   -1    0    0    0  501 -0.00000000000E+00 -0.00000000000E+00 -0.53210017480E+02  0.53210017480E+02  0.00000000000E+00 0.  1.
         25    2    1    2    0    0  0.93303311319E+02 -0.15896405322E+03  0.44356519679E+03  0.49635945768E+03  0.12509016471E+03 0.  0.
          5    1    3    3  502    0  0.64235376674E+02 -0.15714412546E+02  0.76312173736E+02  0.10106506141E+03  0.41800000000E+01 0. -1.
         -5    1    3    3    0  502  0.29067934644E+02 -0.14324964067E+03  0.36725302306E+03  0.39529439627E+03  0.41800000000E+01 0. -1.
        -11    1    1    2    0    0 -0.93159019816E+02  0.17621596927E+03  0.40753057488E+03  0.45366489864E+03  0.00000000000E+00 0.  1.
         11    1    1    2    0    0 -0.14429150262E+00 -0.17251916050E+02  0.16120216368E+02  0.23611666675E+02  0.00000000000E+00 0. -1.
</event>
<event>
 7    1  0.2334784E-009  0.1965600E+03  0.7561462E-02  0.1152674E+00
          3   -1    0    0  501    0  0.00000000000E+00  0.00000000000E+00  0.39542306470E+03  0.39542306470E+03  0.00000000000E+00 0.  1.
         -3   -1    0    0    0  501 -0.00000000000E+00 -0.00000000000E+00 -0.12145980471E+03  0.12145980471E+03  0.00000000000E+00 0. -1.
         25    2    1    2    0    0  0.13533486134E+03  0.12795214776E+03  0.18906726710E+03  0.29339507735E+03  0.12508782160E+03 0.  0.
          5    1    3    3  502    0  0.48497807010E+02  0.10251164975E+03  0.16395059664E+03  0.19939394715E+03  0.41800000000E+01 0.  1.
         -5    1    3    3    0  502  0.86837054334E+02  0.25440498010E+02  0.25116670456E+02  0.94001130202E+02  0.41800000000E+01 0.  1.
        -11    1    1    2    0    0 -0.11772785935E+03 -0.93410414958E+02  0.25312543989E+02  0.15240104781E+03  0.00000000000E+00 0. -1.
         11    1    1    2    0    0 -0.17607001996E+02 -0.34541732804E+02  0.59583448906E+02  0.71086744249E+02  0.00000000000E+00 0.  1.
</event>
<event>
 7    1  0.2334784E-009  0.1124492E+03  0.7561462E-02  0.1256100E+00
          3   -1    0    0  501    0  0.00000000000E+00  0.00000000000E+00  0.77271587058E+02  0.77271587058E+02  0.00000000000E+00 0. -1.
         -3   -1    0    0    0  501 -0.00000000000E+00 -0.00000000000E+00 -0.29094522279E+03  0.29094522279E+03  0.00000000000E+00 0.  1.
         25    2    1    2    0    0  0.76175419516E+02 -0.66523920563E+02 -0.96201584020E+02  0.18743350287E+03  0.12509375158E+03 0.  0.
          5    1    3    3  502    0  0.11865542941E+02 -0.20972826874E+02 -0.10519837786E+03  0.10800380401E+03  0.41800000000E+01 0.  1.
         -5    1    3    3    0  502  0.64309876575E+02 -0.45551093690E+02  0.89967938371E+01  0.79429698858E+02  0.41800000000E+01 0.  1.
        -11    1    1    2    0    0 -0.52053231415E+02  0.13962528002E+01 -0.94024443843E+02  0.10748062366E+03  0.00000000000E+00 0.  1.
         11    1    1    2    0    0 -0.24122188101E+02  0.65127667763E+02 -0.23447607866E+02  0.73302683319E+02  0.00000000000E+00 0. -1.
</event>
<event>
 7    1  0.2334784E-009  0.1626498E+03  0.7561462E-02  0.1185737E+00
         -3   -1    0    0    0  501 -0.00000000000E+00  0.00000000000E+00  0.20126677572E+03  0.20126677572E+03  0.00000000000E+00 0.  1.
          3   -1    0    0  501    0  0.00000000000E+00 -0.00000000000E+00 -0.15425339552E+03  0.15425339552E+03  0.00000000000E+00 0. -1.
         25    2    1    2    0    0  0.13702576148E+03 -0.16549862010E+02  0.14241527654E+02  0.18681707495E+03  0.12509133120E+03 0.  0.
          5    1    3    3  502    0  0.64683391375E+02  0.43513051653E+02  0.42052638071E+02  0.88674819158E+02  0.41800000000E+01 0. -1.
         -5    1    3    3    0  502  0.72342370100E+02 -0.60062913663E+02 -0.27811110418E+02  0.98142255793E+02  0.41800000000E+01 0. -1.
        -11    1    1    2    0    0 -0.94807885874E+02 -0.20433767040E+02  0.51147441759E+02  0.10964549630E+03  0.00000000000E+00 0.  1.
         11    1    1    2    0    0 -0.42217875601E+02  0.36983629050E+02 -0.18375589212E+02  0.59057599992E+02  0.00000000000E+00 0. -1.
</event>
<event>
 7    1  0.2334784E-009  0.9335361E+02  0.7561462E-02  0.1294928E+00
         -2   -1    0    0    0  501 -0.00000000000E+00  0.00000000000E+00  0.28272301364E+02  0.28272301364E+02  0.00000000000E+00 0. -1.
          2   -1    0    0  501    0  0.00000000000E+00 -0.00000000000E+00 -0.49797198548E+03  0.49797198548E+03  0.00000000000E+00 0.  1.
         25    2    1    2    0    0 -0.40215370794E+00 -0.35358275414E+02 -0.34018762998E+03  0.36417772059E+03  0.12508964472E+03 0.  0.
          5    1    3    3  502    0 -0.54389622472E+01 -0.74335012756E+02 -0.29428080564E+03  0.30360161626E+03  0.41800000000E+01 0.  1.
         -5    1    3    3    0  502  0.50368085392E+01  0.38976737343E+02 -0.45906824341E+02  0.60576104325E+02  0.41800000000E+01 0.  1.
        -11    1    1    2    0    0  0.30668021880E+02  0.27672619106E+02 -0.15933969208E+02  0.44274064518E+02  0.00000000000E+00 0.  1.
         11    1    1    2    0    0 -0.30265868173E+02  0.76856563081E+01 -0.11357808493E+03  0.11779250174E+03  0.00000000000E+00 0. -1.
</event>
<event>
 7    1  0.2334784E-009  0.1137248E+03  0.7561462E-02  0.1253824E+00
          2   -1    0    0  501    0  0.00000000000E+00  0.00000000000E+00  0.25975553902E+03  0.25975553902E+03  0.00000000000E+00 0. -1.
         -2   -1    0    0    0  501 -0.00000000000E+00 -0.00000000000E+00 -0.11611245193E+03  0.11611245193E+03  0.00000000000E+00 0.  1.
         25    2    1    2    0    0 -0.57977152334E+02 -0.57320575850E+02  0.21404084564E+03  0.26097851092E+03  0.12509716605E+03 0.  0.
          5    1    3    3  502    0 -0.71798768281E+02  0.82675268199E+01  0.15691635187E+03  0.17281096322E+03  0.41800000000E+01 0.  1.
         -5    1    3    3    0  502  0.13821615946E+02 -0.65588102670E+02  0.57124493771E+02  0.88167547702E+02  0.41800000000E+01 0.  1.
        -11    1    1    2    0    0  0.33695394512E+02  0.10737289985E+02 -0.14617369509E+02  0.38266649956E+02  0.00000000000E+00 0. -1.
         11    1    1    2    0    0  0.24281757823E+02  0.46583285865E+02 -0.55780389040E+02  0.76622830060E+02  0.00000000000E+00 0.  1.
</event>
<event>
 7    1  0.2334784E-009  0.1408745E+03  0.7561462E-02  0.1212157E+00
         -2   -1    0    0    0  501 -0.00000000000E+00  0.00000000000E+00  0.97899020611E+02  0.97899020611E+02  0.00000000000E+00 0. -1.
          2   -1    0    0  501    0  0.00000000000E+00 -0.00000000000E+00 -0.27266703594E+03  0.27266703594E+03  0.00000000000E+00 0.  1.
         25    2    1    2    0    0  0.10386066531E+03  0.15950151261E+02 -0.15683118946E+03  0.22646251199E+03  0.12509117565E+03 0.  0.
          5    1    3    3  502    0 -0.25547937030E+02  0.21666336488E+02 -0.33336138432E+02  0.47443627063E+02  0.41800000000E+01 0. -1.
         -5    1    3    3    0  502  0.12940860234E+03 -0.57161852272E+01 -0.12349505103E+03  0.17901888493E+03  0.41800000000E+01 0. -1.
        -11    1    1    2    0    0 -0.48141941690E+02 -0.34981816105E+02 -0.49402942106E+02  0.77343549805E+02  0.00000000000E+00 0.  1.
         11    1    1    2    0    0 -0.55718723615E+02  0.19031664844E+02  0.31466116242E+02  0.66759994753E+02  0.00000000000E+00 0. -1.
</event>
<event>
 7    1  0.2334784E-009  0.1889140E+03  0.7561462E-02  0.1159445E+00
          2   -1    0    0  501    0  0.00000000000E+00  0.00000000000E+00  0.38509384262E+03  0.38509384262E+03  0.00000000000E+00 0. -1.
         -2   -1    0    0    0  501 -0.00000000000E+00 -0.00000000000E+00 -0.95653160340E+02  0.95653160340E+02  0.00000000000E+00 0.  1.
         25    2    1    2    0    0 -0.83672114309E+02 -0.13364486700E+03  0.17332967995E+03  0.26561955070E+03  0.12509434269E+03 0.  0.
          5    1    3    3  502    0  0.32539989372E+02 -0.22520808871E+02  0.43117507184E+02  0.58673925779E+02  0.41800000000E+01 0.  1.
         -5    1    3    3    0  502 -0.11621210368E+03 -0.11112405813E+03  0.13021217277E+03  0.20694562492E+03  0.41800000000E+01 0.  1.
        -11    1    1    2    0    0  0.68543838221E+02  0.34203983160E+02  0.72578036311E+02  0.10552602322E+03  0.00000000000E+00 0. -1.
         11    1    1    2    0    0  0.15128276088E+02  0.99440883845E+02  0.43532966022E+02  0.10960142904E+03  0.00000000000E+00 0.  1.
</event>
<event>
 7    1  0.2334784E-009  0.1232391E+03  0.7561462E-02  0.1237847E+00
          2   -1    0    0  501    0  0.00000000000E+00  0.00000000000E+00  0.87532484590E+03  0.87532484590E+03  0.00000000000E+00 0. -1.
         -2   -1    0    0    0  501 -0.00000000000E+00 -0.00000000000E+00 -0.32001239370E+02  0.32001239370E+02  0.00000000000E+00 0.  1.
         25    2    1    2    0    0  0.14820731090E+02 -0.11511312795E+03  0.30327974274E+03  0.34799010299E+03  0.12509125918E+03 0.  0.
          5    1    3    3  502    0  0.10599712600E+02 -0.79627257297E+02  0.30141333828E+03  0.31196206004E+03  0.41800000000E+01 0. -1.
         -5    1    3    3    0  502  0.42210184901E+01 -0.35485870651E+02  0.18664044638E+01  0.36028042947E+02  0.41800000000E+01 0. -1.
        -11    1    1    2    0    0 -0.22314553108E+02  0.96177530245E+01  0.30828125778E+02  0.39253201050E+02  0.00000000000E+00 0.  1.
         11    1    1    2    0    0  0.74938220184E+01  0.10549537492E+03  0.50921573801E+03  0.52008278123E+03  0.00000000000E+00 0. -1.
</event>
<event>
 7    1  0.2334784E-009  0.1055280E+03  0.7561462E-02  0.1269083E+00
         -2   -1    0    0    0  501 -0.00000000000E+00  0.00000000000E+00  0.37176045556E+02  0.37176045556E+02  0.00000000000E+00 0.  1.
          2   -1    0    0  501    0  0.00000000000E+00 -0.00000000000E+00 -0.41658976440E+03  0.41658976440E+03  0.00000000000E+00 0. -1.
         25    2    1    2    0    0  0.26331488892E+02  0.16361384382E+02 -0.30750448674E+03  0.33341635219E+03  0.12508562001E+03 0.  0.
          5    1    3    3  502    0 -0.33966199568E+02  0.38970505282E+02 -0.21130490457E+03  0.21757674069E+03  0.41800000000E+01 0. -1.
         -5    1    3    3    0  502  0.60297688460E+02 -0.22609120900E+02 -0.96199582175E+02  0.11583961150E+03  0.41800000000E+01 0. -1.
        -11    1    1    2    0    0  0.22393692711E+02 -0.35777657939E+02 -0.20567496424E+02  0.46952531242E+02  0.00000000000E+00 0. -1.
         11    1    1    2    0    0 -0.48725181603E+02  0.19416273557E+02 -0.51341735675E+02  0.73396926524E+02  0.00000000000E+00 0.  1.
</event>
<event>
 7    1  0.2334784E-009  0.8059386E+02  0.7561462E-02  0.1327375E+00
          1   -1    0    0  501    0  0.00000000000E+00  0.00000000000E+00  0.38798470390E+02  0.38798470390E+02  0.00000000000E+00 0. -1.
         -1   -1    0    0    0  501 -0.00000000000E+00 -0.00000000000E+00 -0.53321918710E+03  0.53321918710E+03  0.00000000000E+00 0.  1.
         25    2    1    2    0    0  0.13487332544E+02 -0.21682315418E+01 -0.45634580391E+03  0.47337829505E+03  0.12509559589E+03 0.  0.
          5    1    3    3  502    0 -0.34441228435E+02 -0.43202845407E+02 -0.13605320179E+03  0.14690347233E+03  0.41800000000E+01 0. -1.
         -5    1    3    3    0  502  0.47928560979E+02  0.41034613865E+02 -0.32029260212E+03  0.32647482271E+03  0.41800000000E+01 0. -1.
        -11    1    1    2    0    0 -0.26214096150E+02  0.94706180975E+01 -0.63464238743E+02  0.69315085251E+02  0.00000000000E+00 0.  1.
         11    1    1    2    0    0  0.12726763606E+02 -0.73023865556E+01  0.25389325938E+02  0.29324277193E+02  0.00000000000E+00 0. -1.
</event>
<event>
 7    1  0.2334784E-009  0.1291099E+03  0.7561462E-02  0.1228782E+00
         -1   -1    0    0    0  501 -0.00000000000E+00  0.00000000000E+00  0.75249867114E+02  0.75249867114E+02  0.00000000000E+00 0.  1.
          1   -1    0    0  501    0  0.00000000000E+00 -0.00000000000E+00 -0.29424609413E+03  0.29424609413E+03  0.00000000000E+00 0. -1.
         25    2    1    2    0    0  0.11820386542E+02 -0.10129180011E+03 -0.11647012119E+03  0.19904432425E+03  0.12511436199E+03 0.  0.
          5    1    3    3  502    0 -0.48647988940E+02 -0.24999216325E+02 -0.75543159929E+02  0.93358604621E+02  0.41800000000E+01 0. -1.
         -5    1    3    3    0  502  0.60468375483E+02 -0.76292583790E+02 -0.40926961263E+02  0.10568571963E+03  0.41800000000E+01 0. -1.
        -11    1    1    2    0    0 -0.18434679585E+02  0.37444557279E+02 -0.97510434447E+02  0.10606704063E+03  0.00000000000E+00 0. -1.
         11    1    1    2    0    0  0.66142930426E+01  0.63847242835E+02 -0.50156713747E+01  0.64384596368E+02  0.00000000000E+00 0.  1.
</event>
<event>
 7    1  0.2334784E-009  0.1174654E+03  0.7561462E-02  0.1247338E+00
          2   -1    0    0  501    0  0.00000000000E+00  0.00000000000E+00  0.42660379295E+02  0.42660379295E+02  0.00000000000E+00 0. -1.
         -2   -1    0    0    0  501 -0.00000000000E+00 -0.00000000000E+00 -0.54331805574E+03  0.54331805574E+03  0.00000000000E+00 0.  1.
         25    2    1    2    0    0  0.52892776682E+02 -0.87016592652E+02 -0.32704077535E+03  0.36465634835E+03  0.12509616471E+03 0.  0.
          5    1    3    3  502    0  0.31852944756E+02  0.81334218100E+01 -0.12631854798E+02  0.35465459191E+02  0.41800000000E+01 0. -1.
         -5    1    3    3    0  502  0.21039831926E+02 -0.95150014462E+02 -0.31440892055E+03  0.32919088916E+03  0.41800000000E+01 0. -1.
        -11    1    1    2    0    0 -0.21266067481E+02  0.56226539523E+02 -0.22988109544E+02  0.64359323747E+02  0.00000000000E+00 0. -1.
         11    1    1    2    0    0 -0.31626709201E+02  0.30790053129E+02 -0.15062879155E+03  0.15696276294E+03  0.00000000000E+00 0.  1.
</event>
<event>
 7    1  0.2334784E-009  0.9070274E+02  0.7561462E-02  0.1301159E+00
         -2   -1    0    0    0  501 -0.00000000000E+00  0.00000000000E+00  0.17793648790E+03  0.17793648790E+03  0.00000000000E+00 0.  1.
          2   -1    0    0  501    0  0.00000000000E+00 -0.00000000000E+00 -0.68715902429E+02  0.68715902429E+02  0.00000000000E+00 0. -1.
         25    2    1    2    0    0 -0.22247461336E+02  0.17564331004E+01  0.63274623890E+02  0.14194974283E+03  0.12509203359E+03 0.  0.
          5    1    3    3  502    0 -0.11473563841E+01  0.46340368402E+02 -0.15376973431E+02  0.49017036653E+02  0.41800000000E+01 0.  1.
         -5    1    3    3    0  502 -0.21100104952E+02 -0.44583935302E+02  0.78651597321E+02  0.92932706176E+02  0.41800000000E+01 0.  1.
        -11    1    1    2    0    0  0.34763081100E+02  0.33299146035E+02  0.47255900098E+02  0.67456838262E+02  0.00000000000E+00 0. -1.
         11    1    1    2    0    0 -0.12515619763E+02 -0.35055579135E+02 -0.13099385225E+01  0.37245809234E+02  0.00000000000E+00 0.  1.
</event>
<event>
 7    1  0.2334784E-009  0.1329210E+03  0.7561462E-02  0.1223185E+00
         -1   -1    0    0    0  501 -0.00000000000E+00  0.00000000000E+00  0.45061847337E+03  0.45061847337E+03  0.00000000000E+00 0.  1.
          1   -1    0    0  501    0  0.00000000000E+00 -0.00000000000E+00 -0.42841166666E+02  0.42841166666E+02  0.00000000000E+00 0. -1.
         25    2    1    2    0    0  0.39206584462E+02 -0.75516056344E+02  0.20170060831E+03  0.25213855965E+03  0.12510350450E+03 0.  0.
          5    1    3    3  502    0  0.78229507852E+02 -0.18418069280E+02  0.90373947445E+02  0.12101241239E+03  0.41800000000E+01 0. -1.
         -5    1    3    3    0  502 -0.39022923390E+02 -0.57097987064E+02  0.11132666087E+03  0.13112614726E+03  0.41800000000E+01 0. -1.
        -11    1    1    2    0    0 -0.19956129425E+02  0.89874962374E+02  0.19333185019E+03  0.21413304336E+03  0.00000000000E+00 0.  1.
         11    1    1    2    0    0 -0.19250455036E+02 -0.14358906030E+02  0.12744848211E+02  0.27188037027E+02  0.00000000000E+00 0. -1.
</event>
<event>
 7    1  0.2334784E-009  0.1725859E+03  0.7561462E-02  0.1175178E+00
          1   -1    0    0  501    0  0.00000000000E+00  0.00000000000E+00  0.64594590408E+03  0.64594590408E+03  0.00000000000E+00 0. -1.
         -1   -1    0    0    0  501 -0.00000000000E+00 -0.00000000000E+00 -0.66246823341E+02  0.66246823341E+02  0.00000000000E+00 0.  1.
         25    2    1    2    0    0 -0.12564397975E+03 -0.81761078910E+02  0.15173687397E+03  0.24727481696E+03  0.12509785174E+03 0.  0.
          5    1    3    3  502    0 -0.12902685913E+03 -0.10803592555E+03  0.13341194249E+03  0.21479271492E+03  0.41800000000E+01 0. -1.
         -5    1    3    3    0  502  0.33828793788E+01  0.26274846642E+02  0.18324931487E+02  0.32482102040E+02  0.41800000000E+01 0. -1.
        -11    1    1    2    0    0  0.48513682455E+02  0.28229794688E+02  0.49030427253E+02  0.74528393851E+02  0.00000000000E+00 0.  1.
         11    1    1    2    0    0  0.77130297293E+02  0.53531284222E+02  0.37893177951E+03  0.39038951661E+03  0.00000000000E+00 0. -1.
</event>
<event>
 7    1  0.2334784E-009  0.1606249E+03  0.7561462E-02  0.1187993E+00
         -2   -1    0    0    0  501 -0.00000000000E+00  0.00000000000E+00  0.24917918046E+02  0.24917918046E+02  0.00000000000E+00 0.  1.
          2   -1    0    0  501    0  0.00000000000E+00 -0.00000000000E+00 -0.11231955123E+04  0.11231955123E+04  0.00000000000E+00 0. -1.
         25    2    1    2    0    0  0.68047065949E+02 -0.10376497571E+03 -0.49414159724E+03  0.52461506854E+03  0.12508988226E+03 0.  0.
          5    1    3    3  502    0 -0.19290310594E+02 -0.81962849096E+02 -0.20188290411E+03  0.21877889315E+03  0.41800000000E+01 0. -1.
         -5    1    3    3    0  502  0.87337376543E+02 -0.21802126610E+02 -0.29225869313E+03  0.30583617539E+03  0.41800000000E+01 0. -1.
        -11    1    1    2    0    0 -0.42121347446E+02  0.23871141750E+01 -0.98608661052E+02  0.10725471672E+03  0.00000000000E+00 0.  1.
         11    1    1    2    0    0 -0.25925718502E+02  0.10137786153E+03 -0.50552733596E+03  0.51624364509E+03  0.00000000000E+00 0. -1.
</event>
<event>
 7    1  0.2334784E-009  0.6971922E+02  0.7561462E-02  0.1361050E+00
          1   -1    0    0  501    0  0.00000000000E+00  0.00000000000E+00  0.24601917633E+03  0.24601917633E+03  0.00000000000E+00 0. -1.
         -1   -1    0    0    0  501 -0.00000000000E+00 -0.00000000000E+00 -0.48945821507E+02  0.48945821507E+02  0.00000000000E+00 0.  1.
         25    2    1    2    0    0  0.13195238675E+02  0.10510923594E+02  0.12093104051E+03  0.17480344326E+03  0.12508930161E+03 0.  0.
          5    1    3    3  502    0 -0.30988928680E+02  0.18613254953E+02 -0.88107510141E+01  0.37441537016E+02  0.41800000000E+01 0. -1.
         -5    1    3    3    0  502  0.44184167355E+02 -0.81023313591E+01  0.12974179153E+03  0.13736190624E+03  0.41800000000E+01 0. -1.
        -11    1    1    2    0    0  0.14033818086E+02  0.15056124049E+02 -0.12423962013E+02  0.24041417462E+02  0.00000000000E+00 0.  1.
         11    1    1    2    0    0 -0.27229056762E+02 -0.25567047643E+02  0.88566276323E+02  0.96120137115E+02  0.00000000000E+00 0. -1.
</event>
<event>
 7    1  0.2334784E-009  0.3060160E+03  0.7561462E-02  0.1082271E+00
          2   -1    0    0  501    0  0.00000000000E+00  0.00000000000E+00  0.36096318648E+03  0.36096318648E+03  0.00000000000E+00 0. -1.
         -2   -1    0    0    0  501 -0.00000000000E+00 -0.00000000000E+00 -0.34854498064E+03  0.34854498064E+03  0.00000000000E+00 0.  1.
         25    2    1    2    0    0 -0.11909797775E+03 -0.27628101094E+03  0.15924616370E+03  0.36266014564E+03  0.12509002865E+03 0.  0.
          5    1    3    3  502    0 -0.22714044359E+02 -0.15177519291E+03  0.13271095521E+03  0.20293177925E+03  0.41800000000E+01 0. -1.
         -5    1    3    3    0  502 -0.96383933394E+02 -0.12450581803E+03  0.26535208483E+02  0.15972836639E+03  0.41800000000E+01 0. -1.
        -11    1    1    2    0    0  0.23987918428E+02  0.46759002907E+02 -0.68517358427E+02  0.86350755579E+02  0.00000000000E+00 0.  1.
         11    1    1    2    0    0  0.95110059325E+02  0.22952200804E+03 -0.78310599435E+02  0.26049726590E+03  0.00000000000E+00 0. -1.
</event>
<event>
 7    1  0.2334784E-009  0.9652658E+02  0.7561462E-02  0.1287774E+00
         -1   -1    0    0    0  501 -0.00000000000E+00  0.00000000000E+00  0.30408252223E+02  0.30408252223E+02  0.00000000000E+00 0.  1.
          1   -1    0    0  501    0  0.00000000000E+00 -0.00000000000E+00 -0.43708924128E+03  0.43708924128E+03  0.00000000000E+00 0. -1.
         25    2    1    2    0    0  0.34397104214E+02 -0.16963086540E+02 -0.25076267057E+03  0.28281993119E+03  0.12503715224E+03 0.  0.
          5    1    3    3  502    0  0.11630226735E+01 -0.55729850641E+02 -0.47983025434E+02  0.73668256420E+02  0.41800000000E+01 0.  1.
         -5    1    3    3    0  502  0.33234081540E+02  0.38766764100E+02 -0.20277964514E+03  0.20915167477E+03  0.41800000000E+01 0.  1.
        -11    1    1    2    0    0  0.13996503978E+02  0.32261925386E+02 -0.22043740734E+02  0.41504944992E+02  0.00000000000E+00 0.  1.
         11    1    1    2    0    0 -0.48393608192E+02 -0.15298838846E+02 -0.13387457774E+03  0.14317261732E+03  0.00000000000E+00 0. -1.
</event>
<event>
 7    1  0.2334784E-009  0.8614130E+02  0.7561462E-02  0.1312475E+00
          2   -1    0    0  501    0  0.00000000000E+00  0.00000000000E+00  0.28011701165E+03  0.28011701165E+03  0.00000000000E+00 0. -1.
         -2   -1    0    0    0  501 -0.00000000000E+00 -0.00000000000E+00 -0.52902404398E+02  0.52902404398E+02  0.00000000000E+00 0.  1.
         25    2    1    2    0    0  0.51087972545E+02  0.25742200341E+01  0.14536079962E+03  0.19847761928E+03  0.12508795203E+03 0.  0.
          5    1    3    3  502    0  0.57035703049E+02  0.16995041731E+02  0.80276207124E+01  0.60198155786E+02  0.41800000000E+01 0. -1.
         -5    1    3    3    0  502 -0.59477305036E+01 -0.14420821697E+02  0.13733317891E+03  0.13827946350E+03  0.41800000000E+01 0. -1.
        -11    1    1    2    0    0  0.19829889277E+01  0.32692322463E+02  0.26091843462E+01  0.32856171963E+02  0.00000000000E+00 0.  1.
         11    1    1    2    0    0 -0.53070961473E+02 -0.35266542497E+02  0.79244623289E+02  0.10168562480E+03  0.00000000000E+00 0. -1.
</event>
<event>
 7    1  0.2334784E-009  0.8390310E+02  0.7561462E-02  0.1318326E+00
          2   -1    0    0  501    0  0.00000000000E+00  0.00000000000E+00  0.63583041093E+02  0.63583041093E+02  0.00000000000E+00 0. -1.
         -2   -1    0    0    0  501 -0.00000000000E+00 -0.00000000000E+00 -0.19550386320E+03  0.19550386320E+03  0.00000000000E+00 0.  1.
         25    2    1    2    0    0  0.13766111851E+02  0.18492174211E+02 -0.52469147247E+02  0.13759238485E+03  0.12508871497E+03 0.  0.
          5    1    3    3  502    0  0.66962179520E+01 -0.50536636804E+02 -0.44172972415E+02  0.67583392089E+02  0.41800000000E+01 0.  1.
         -5    1    3    3    0  502  0.70698938988E+01  0.69028811015E+02 -0.82961748320E+01  0.70008992757E+02  0.41800000000E+01 0.  1.
        -11    1    1    2    0    0  0.13906202254E+02 -0.12776988138E+02 -0.89525899626E+02  0.91496014071E+02  0.00000000000E+00 0.  1.
         11    1    1    2    0    0 -0.27672314105E+02 -0.57151860735E+01  0.10074224771E+02  0.29998505372E+02  0.00000000000E+00 0. -1.
</event>
<event>
 7    1  0.2334784E-009  0.2954157E+03  0.7561462E-02  0.1087555E+00
         -1   -1    0    0    0  501 -0.00000000000E+00  0.00000000000E+00  0.98090036944E+02  0.98090036944E+02  0.00000000000E+00 0.  1.
          1   -1    0    0  501    0  0.00000000000E+00 -0.00000000000E+00 -0.99336452203E+03  0.99336452203E+03  0.00000000000E+00 0. -1.
         25    2    1    2    0    0 -0.52658813355E+02  0.27652982909E+03 -0.31827951748E+03  0.44293575903E+03  0.12509411808E+03 0.  0.
          5    1    3    3  502    0 -0.73586721072E+02  0.25475744340E+03 -0.31574162780E+03  0.41234282874E+03  0.41800000000E+01 0.  1.
         -5    1    3    3    0  502  0.20927907716E+02  0.21772385684E+02 -0.25378896841E+01  0.30592930291E+02  0.41800000000E+01 0.  1.
        -11    1    1    2    0    0  0.51743077645E+02 -0.62641266853E+02 -0.13675682115E+03  0.15907137558E+03  0.00000000000E+00 0. -1.
         11    1    1    2    0    0  0.91573571024E+00 -0.21388856223E+03 -0.44023814645E+03  0.48944742436E+03  0.00000000000E+00 0.  1.
</event>
<event>
 7    1  0.2334784E-009  0.8494333E+02  0.7561462E-02  0.1315581E+00
          2   -1    0    0  501    0  0.00000000000E+00  0.00000000000E+00  0.12641852768E+04  0.12641852768E+04  0.00000000000E+00 0. -1.
         -2   -1    0    0    0  501 -0.00000000000E+00 -0.00000000000E+00 -0.11014334836E+02  0.11014334836E+02  0.00000000000E+00 0.  1.
         25    2    1    2    0    0 -0.19159215904E+01 -0.39487972522E+02  0.85754318815E+03  0.86751984364E+03  0.12508952325E+03 0.  0.
          5    1    3    3  502    0  0.19686983185E+02 -0.52153510219E+02  0.15945649146E+03  0.16897162781E+03  0.41800000000E+01 0. -1.
         -5    1    3    3    0  502 -0.21602904775E+02  0.12665537697E+02  0.69808669669E+03  0.69854821583E+03  0.41800000000E+01 0. -1.
        -11    1    1    2    0    0 -0.72192236133E+01  0.62978996392E+02  0.34866503322E+03  0.35438083550E+03  0.00000000000E+00 0. -1.
         11    1    1    2    0    0  0.91351452037E+01 -0.23491023870E+02  0.46962720568E+02  0.53298932480E+02  0.00000000000E+00 0.  1.
</event>
<event>
 7    1  0.2334784E-009  0.8846388E+02  0.7561462E-02  0.1306615E+00
         -1   -1    0    0    0  501 -0.00000000000E+00  0.00000000000E+00  0.40604662610E+03  0.40604662610E+03  0.00000000000E+00 0.  1.
          1   -1    0    0  501    0  0.00000000000E+00 -0.00000000000E+00 -0.33502287207E+02  0.33502287207E+02  0.00000000000E+00 0. -1.
         25    2    1    2    0    0  0.27719740710E+02 -0.25409365992E+02  0.16897334792E+03  0.21357259689E+03  0.12508893609E+03 0.  0.
          5    1    3    3  502    0  0.63601816099E+02 -0.65810515316E+01  0.15929752843E+03  0.17170228948E+03  0.41800000000E+01 0.  1.
         -5    1    3    3    0  502 -0.35882075388E+02 -0.18828314460E+02  0.96758194852E+01  0.41870307406E+02  0.41800000000E+01 0.  1.
        -11    1    1    2    0    0  0.72478528476E+01 -0.16208398216E+02  0.27970794123E+01  0.17974070125E+02  0.00000000000E+00 0. -1.
         11    1    1    2    0    0 -0.34967593558E+02  0.41617764207E+02  0.20077391157E+03  0.20800224629E+03  0.00000000000E+00 0.  1.
</event>
<event>
 7    1  0.2334784E-009  0.6818070E+02  0.7561462E-02  0.1366391E+00
         -3   -1    0    0    0  501 -0.00000000000E+00  0.00000000000E+00  0.11561688803E+03  0.11561688803E+03  0.00000000000E+00 0.  1.
          3   -1    0    0  501    0  0.00000000000E+00 -0.00000000000E+00 -0.15812177865E+03  0.15812177865E+03  0.00000000000E+00 0. -1.
         25    2    1    2    0    0  0.27214109906E+02 -0.23692711301E+02  0.51571501209E+02  0.14003330740E+03  0.12509098728E+03 0.  0.
          5    1    3    3  502    0 -0.15460523565E+02 -0.24879817563E+02  0.82175176805E+02  0.87339940427E+02  0.41800000000E+01 0.  1.
         -5    1    3    3    0  502  0.42674633471E+02  0.11871062614E+01 -0.30603675596E+02  0.52693366975E+02  0.41800000000E+01 0.  1.
        -11    1    1    2    0    0 -0.41646259068E+02  0.77300728568E+01 -0.56912840419E+01  0.42738222176E+02  0.00000000000E+00 0.  1.
         11    1    1    2    0    0  0.14432149162E+02  0.15962638445E+02 -0.88385107782E+02  0.90967137105E+02  0.00000000000E+00 0. -1.
</event>
<event>
 7    1  0.2334784E-009  0.1067572E+03  0.7561462E-02  0.1266696E+00
          1   -1    0    0  501    0  0.00000000000E+00  0.00000000000E+00  0.90284191725E+03  0.90284191725E+03  0.00000000000E+00 0. -1.
         -1   -1    0    0    0  501 -0.00000000000E+00 -0.00000000000E+00 -0.37148535590E+02  0.37148535590E+02  0.00000000000E+00 0.  1.
         25    2    1    2    0    0 -0.26254232792E+02 -0.10213882680E+03  0.72024828459E+03  0.73859782149E+03  0.12509007063E+03 0.  0.
          5    1    3    3  502    0 -0.22332161909E+02 -0.92627483074E+02  0.72117515106E+03  0.72745422329E+03  0.41800000000E+01 0. -1.
         -5    1    3    3    0  502 -0.39220708831E+01 -0.95113437216E+01 -0.92686646583E+00  0.11143598200E+02  0.41800000000E+01 0. -1.
        -11    1    1    2    0    0  0.24146810286E+01  0.45769452184E+02  0.25057906833E+01  0.45901551441E+02  0.00000000000E+00 0.  1.
         11    1    1    2    0    0  0.23839551764E+02  0.56369374611E+02  0.14293930639E+03  0.15549107991E+03  0.00000000000E+00 0. -1.
</event>
<event>
 7    1  0.2334784E-009  0.7331266E+02  0.7561462E-02  0.1349177E+00
         -2   -1    0    0    0  501 -0.00000000000E+00  0.00000000000E+00  0.23422427281E+03  0.23422427281E+03  0.00000000000E+00 0.  1.
          2   -1    0    0  501    0  0.00000000000E+00 -0.00000000000E+00 -0.87794796211E+02  0.87794796211E+02  0.00000000000E+00 0. -1.
         25    2    1    2    0    0  0.32958440647E+02  0.30261526448E+02  0.17488245387E+03  0.21961928396E+03  0.12508692345E+03 0.  0.
          5    1    3    3  502    0  0.40656621363E+02 -0.29467498052E+01  0.18025806091E+03  0.18485693149E+03  0.41800000000E+01 0.  1.
         -5    1    3    3    0  502 -0.76981807161E+01  0.33208276253E+02 -0.53756070382E+01  0.34762352468E+02  0.41800000000E+01 0.  1.
        -11    1    1    2    0    0 -0.52495563283E+01 -0.41186164402E+02 -0.50475417699E+02  0.65357675691E+02  0.00000000000E+00 0. -1.
         11    1    1    2    0    0 -0.27708884319E+02  0.10924637954E+02  0.22022440421E+02  0.37042109372E+02  0.00000000000E+00 0.  1.
</event>
<event>
 7    1  0.2334784E-009  0.9397644E+02  0.7561462E-02  0.1293498E+00
         -1   -1    0    0    0  501 -0.00000000000E+00  0.00000000000E+00  0.16864973100E+02  0.16864973100E+02  0.00000000000E+00 0.  1.
          1   -1    0    0  501    0  0.00000000000E+00 -0.00000000000E+00 -0.86311127415E+03  0.86311127415E+03  0.00000000000E+00 0. -1.
         25    2    1    2    0    0  0.18722812463E+02 -0.46291616838E+01 -0.67732024613E+03  0.68904459382E+03  0.12509102125E+03 0.  0.
          5    1    3    3  502    0  0.32325006747E+02 -0.59055829067E+02 -0.29541016933E+03  0.30301342800E+03  0.41800000000E+01 0.  1.
         -5    1    3    3    0  502 -0.13602194284E+02  0.54426667383E+02 -0.38191007681E+03  0.38603116581E+03  0.41800000000E+01 0.  1.
        -11    1    1    2    0    0 -0.18806220957E+02 -0.26840633932E+02 -0.19304251796E+02  0.38036136948E+02  0.00000000000E+00 0.  1.
         11    1    1    2    0    0  0.83408493959E-01  0.31469795616E+02 -0.14962180312E+03  0.15289551648E+03  0.00000000000E+00 0. -1.
</event>
<event>
 6    1  0.2334784E-009  0.1084785E+03  0.7561462E-02  0.1263414E+00
          2   -1    0    0  501    0  0.00000000000E+00  0.00000000000E+00  0.18813567780E+03  0.18813567780E+03  0.00000000000E+00 0. -1.
         -2   -1    0    0    0  501 -0.00000000000E+00 -0.00000000000E+00 -0.95338615218E+02  0.95338615218E+02  0.00000000000E+00 0.  1.
          5    1    1    2  502    0 -0.48841754564E+02 -0.90865481484E+01 -0.24778148329E+02  0.55673255525E+02  0.41800000000E+01 0.  1.
         -5    1    1    2    0  502 -0.14598568752E+02  0.52909188880E+02  0.89331797630E+02  0.10492922827E+03  0.41800000000E+01 0.  1.
        -11    1    1    2    0    0  0.36594881672E+02 -0.67161524223E+02 -0.15062025003E+01  0.76499178731E+02  0.00000000000E+00 0.  1.
         11    1    1    2    0    0  0.26845441644E+02  0.23338883491E+02  0.29749615786E+02  0.46372630496E+02  0.00000000000E+00 0. -1.
</event>
<event>
 7    1  0.2334784E-009  0.1032353E+03  0.7561462E-02  0.1273636E+00
          2   -1    0    0  501    0  0.00000000000E+00  0.00000000000E+00  0.15332804035E+03  0.15332804035E+03  0.00000000000E+00 0. -1.
         -2   -1    0    0    0  501 -0.00000000000E+00 -0.00000000000E+00 -0.76553731084E+02  0.76553731084E+02  0.00000000000E+00 0.  1.
         25    2    1    2    0    0  0.16187696583E+02 -0.14388712776E+02  0.43017044873E+02  0.13404349636E+03  0.12509243059E+03 0.  0.
          5    1    3    3  502    0  0.20023446900E+02  0.49345009050E+02  0.45268154780E+02  0.70018187502E+02  0.41800000000E+01 0.  1.
         -5    1    3    3    0  502 -0.38357503174E+01 -0.63733721826E+02 -0.22511099077E+01  0.64025308856E+02  0.41800000000E+01 0.  1.
        -11    1    1    2    0    0 -0.41268857862E+02 -0.20515735300E+02  0.23116228383E+02  0.51559422405E+02  0.00000000000E+00 0. -1.
         11    1    1    2    0    0  0.25081161279E+02  0.34904448076E+02  0.10641036011E+02  0.44278852672E+02  0.00000000000E+00 0.  1.
</event>
<event>
 7    1  0.2334784E-009  0.1098111E+03  0.7561462E-02  0.1260920E+00
          2   -1    0    0  501    0  0.00000000000E+00  0.00000000000E+00  0.69450544483E+03  0.69450544483E+03  0.00000000000E+00 0. -1.
         -2   -1    0    0    0  501 -0.00000000000E+00 -0.00000000000E+00 -0.30875580431E+02  0.30875580431E+02  0.00000000000E+00 0.  1.
         25    2    1    2    0    0  0.21526641362E+02 -0.38338867490E+02  0.57149557124E+03  0.58667509708E+03  0.12508883459E+03 0.  0.
          5    1    3    3  502    0 -0.50325196055E+02 -0.23942333745E+02  0.18442665424E+03  0.19270839083E+03  0.41800000000E+01 0.  1.
         -5    1    3    3    0  502  0.71851837417E+02 -0.14396533745E+02  0.38706891700E+03  0.39396670625E+03  0.41800000000E+01 0.  1.
        -11    1    1    2    0    0  0.26709598370E+02  0.32005076283E+02  0.77334788448E+02  0.87854408297E+02  0.00000000000E+00 0. -1.
         11    1    1    2    0    0 -0.48236239732E+02  0.63337912071E+01  0.14799504708E+02  0.50851519880E+02  0.00000000000E+00 0.  1.
</event>
<event>
 7    1  0.2334784E-009  0.1912770E+03  0.7561462E-02  0.1157315E+00
          2   -1    0    0  501    0  0.00000000000E+00  0.00000000000E+00  0.12087739302E+03  0.12087739302E+03  0.00000000000E+00 0. -1.
         -2   -1    0    0    0  501 -0.00000000000E+00 -0.00000000000E+00 -0.70450134019E+03  0.70450134019E+03  0.00000000000E+00 0.  1.
         25    2    1    2    0    0 -0.16220717785E+03  0.70186529905E+02 -0.58741997644E+03  0.62605771820E+03  0.12509484506E+03 0.  0.
          5    1    3    3  502    0 -0.33878767447E+02 -0.27919821485E+02 -0.60155716804E+02  0.74588671926E+02  0.41800000000E+01 0. -1.
         -5    1    3    3    0  502 -0.12832841041E+03  0.98106351390E+02 -0.52726425964E+03  0.55146904627E+03  0.41800000000E+01 0. -1.
        -11    1    1    2    0    0  0.10266485580E+03 -0.40898999354E+02  0.47052498728E+02  0.12011135833E+03  0.00000000000E+00 0. -1.
         11    1    1    2    0    0  0.59542322055E+02 -0.29287530551E+02 -0.43256469451E+02  0.79209656676E+02  0.00000000000E+00 0.  1.
</event>
<event>
 7    1  0.2334784E-009  0.8352745E+02  0.7561462E-02  0.1319329E+00
          2   -1    0    0  501    0  0.00000000000E+00  0.00000000000E+00  0.48313207135E+03  0.48313207135E+03  0.00000000000E+00 0. -1.
         -2   -1    0    0    0  501 -0.00000000000E+00 -0.00000000000E+00 -0.27526874113E+02  0.27526874113E+02  0.00000000000E+00 0.  1.
         25    2    1    2    0    0 -0.13456185246E+02  0.33276403907E+02  0.24056007153E+03  0.27350452903E+03  0.12508873413E+03 0.  0.
          5    1    3    3  502    0 -0.35741650874E+02  0.23927475389E+02  0.13716218568E+02  0.45338689190E+02  0.41800000000E+01 0.  1.
         -5    1    3    3    0  502  0.22285465628E+02  0.93489285182E+01  0.22684385296E+03  0.22816583984E+03  0.41800000000E+01 0.  1.
        -11    1    1    2    0    0  0.35150439171E+02  0.20942922860E+02  0.75315815939E+02  0.85712493386E+02  0.00000000000E+00 0. -1.
         11    1    1    2    0    0 -0.21694253925E+02 -0.54219326767E+02  0.13972930977E+03  0.15144192305E+03  0.00000000000E+00 0.  1.
</event>
<event>
 7    1  0.2334784E-009  0.1148937E+03  0.7561462E-02  0.1251767E+00
         -2   -1    0    0    0  501 -0.00000000000E+00  0.00000000000E+00  0.41627950757E+02  0.41627950757E+02  0.00000000000E+00 0.  1.
          2   -1    0    0  501    0  0.00000000000E+00 -0.00000000000E+00 -0.40509298381E+03  0.40509298381E+03  0.00000000000E+00 0. -1.
         25    2    1    2    0    0  0.25109434088E+02 -0.51592497538E+02 -0.27054167097E+03  0.30353259874E+03  0.12508786227E+03 0.  0.
          5    1    3    3  502    0  0.27660187729E+02 -0.90461995323E+02 -0.22056362302E+03  0.24002967063E+03  0.41800000000E+01 0. -1.
         -5    1    3    3    0  502 -0.25507536404E+01  0.38869497785E+02 -0.49978047947E+02  0.63502928112E+02  0.41800000000E+01 0. -1.
        -11    1    1    2    0    0 -0.30320777838E+02  0.70269294781E+02 -0.39023273881E+02  0.85906572869E+02  0.00000000000E+00 0.  1.
         11    1    1    2    0    0  0.52113437494E+01 -0.18676797243E+02 -0.53900088208E+02  0.57281762960E+02  0.00000000000E+00 0. -1.
</event>
<event>
 7    1  0.2334784E-009  0.1216689E+03  0.7561462E-02  0.1240369E+00
          2   -1    0    0  501    0  0.00000000000E+00  0.00000000000E+00  0.14538336950E+04  0.14538336950E+04  0.00000000000E+00 0. -1.
         -2   -1    0    0    0  501 -0.00000000000E+00 -0.00000000000E+00 -0.12600092091E+02  0.12600092091E+02  0.00000000000E+00 0.  1.
         25    2    1    2    0    0 -0.66125293480E+02  0.51116847399E+02  0.75989975615E+03  0.77464913553E+03  0.12509259471E+03 0.  0.
          5    1    3    3  502    0 -0.75427905990E+02  0.69605770269E+02  0.73436698101E+03  0.74151646472E+03  0.41800000000E+01 0. -1.
         -5    1    3    3    0  502  0.93026125098E+01 -0.18488922870E+02  0.25532775145E+02  0.33132670810E+02  0.41800000000E+01 0. -1.
        -11    1    1    2    0    0  0.61396123395E+01  0.23198006529E+02  0.11845299107E+03  0.12085922985E+03  0.00000000000E+00 0.  1.
         11    1    1    2    0    0  0.59985681141E+02 -0.74314853927E+02  0.56288085568E+03  0.57092542170E+03  0.00000000000E+00 0. -1.
</event>
<event>
 7    1  0.2334784E-009  0.1041613E+03  0.7561462E-02  0.1271781E+00
          2   -1    0    0  501    0  0.00000000000E+00  0.00000000000E+00  0.32794065646E+03  0.32794065646E+03  0.00000000000E+00 0. -1.
         -2   -1    0    0    0  501 -0.00000000000E+00 -0.00000000000E+00 -0.49569090477E+02  0.49569090477E+02  0.00000000000E+00 0.  1.
         25    2    1    2    0    0  0.42498993166E+02 -0.48281354164E+01  0.77633364755E+02  0.15330699834E+03  0.12508645452E+03 0.  0.
          5    1    3    3  502    0  0.31777844662E+02 -0.53954251764E+02  0.25028901737E+01  0.62806285944E+02  0.41800000000E+01 0.  1.
         -5    1    3    3    0  502  0.10721148504E+02  0.49126116348E+02  0.75130474582E+02  0.90500712392E+02  0.41800000000E+01 0.  1.
        -11    1    1    2    0    0  0.24897686204E+02 -0.86914790850E+01  0.90725203928E+02  0.94480152491E+02  0.00000000000E+00 0. -1.
         11    1    1    2    0    0 -0.67396679370E+02  0.13519614501E+02  0.11001299729E+03  0.12972259610E+03  0.00000000000E+00 0.  1.
</event>
<event>
 7    1  0.2334784E-009  0.2927709E+03  0.7561462E-02  0.1088911E+00
          2   -1    0    0  501    0  0.00000000000E+00  0.00000000000E+00  0.58497038948E+03  0.58497038948E+03  0.00000000000E+00 0.  1.
         -2   -1    0    0    0  501 -0.00000000000E+00 -0.00000000000E+00 -0.15904084088E+03  0.15904084088E+03  0.00000000000E+00 0. -1.
         25    2    1    2    0    0 -0.63734918025E+02 -0.27202212196E+03  0.14898409328E+03  0.34044428196E+03  0.12509146435E+03 0.  0.
          5    1    3    3  502    0 -0.75255381787E+02 -0.75510003504E+02  0.31847284572E+02  0.11134116513E+03  0.41800000000E+01 0.  1.
         -5    1    3    3    0  502  0.11520463762E+02 -0.19651211846E+03  0.11713680871E+03  0.22910311683E+03  0.41800000000E+01 0.  1.
        -11    1    1    2    0    0  0.34873951684E+02  0.21741113491E+03  0.25750732985E+03  0.33881236550E+03  0.00000000000E+00 0.  1.
         11    1    1    2    0    0  0.28860966341E+02  0.54610987052E+02  0.19438125467E+02  0.64754582901E+02  0.00000000000E+00 0. -1.
</event>
<event>
 7    1  0.2334784E-009  0.9434825E+02  0.7561462E-02  0.1292651E+00
          1   -1    0    0  501    0  0.00000000000E+00  0.00000000000E+00  0.99169728216E+02  0.99169728216E+02  0.00000000000E+00 0. -1.
         -1   -1    0    0    0  501 -0.00000000000E+00 -0.00000000000E+00 -0.15324747701E+03  0.15324747701E+03  0.00000000000E+00 0.  1.
         25    2    1    2    0    0  0.24620322349E+01  0.26044471824E+02  0.21059287033E+02  0.12952000284E+03  0.12509021325E+03 0.  0.
          5    1    3    3  502    0 -0.17139121023E+02  0.63609124670E+02 -0.21398024933E+02  0.69391772435E+02  0.41800000000E+01 0.  1.
         -5    1    3    3    0  502  0.19601153258E+02 -0.37564652845E+02  0.42457311966E+02  0.60128230407E+02  0.41800000000E+01 0.  1.
        -11    1    1    2    0    0  0.19890096580E+02 -0.46018653575E+02 -0.78066748819E+02  0.92777959074E+02  0.00000000000E+00 0.  1.
         11    1    1    2    0    0 -0.22352128815E+02  0.19974181750E+02  0.29297129939E+01  0.30119243307E+02  0.00000000000E+00 0. -1.
</event>
<event>
 7    1  0.2334784E-009  0.7952624E+02  0.7561462E-02  0.1330401E+00
         -1   -1    0    0    0  501 -0.00000000000E+00  0.00000000000E+00  0.23411554199E+03  0.23411554199E+03  0.00000000000E+00 0.  1.
          1   -1    0    0  501    0  0.00000000000E+00 -0.00000000000E+00 -0.63030111474E+02  0.63030111474E+02  0.00000000000E+00 0. -1.
         25    2    1    2    0    0 -0.42215317078E+01  0.54042795886E+02  0.86796203488E+02  0.16161534142E+03  0.12508993775E+03 0.  0.
          5    1    3    3  502    0 -0.85599829866E+01  0.30970325084E+02  0.11798588013E+03  0.12235429970E+03  0.41800000000E+01 0.  1.
         -5    1    3    3    0  502  0.43384512788E+01  0.23072470802E+02 -0.31189676640E+02  0.39261041725E+02  0.41800000000E+01 0.  1.
        -11    1    1    2    0    0 -0.29204384697E+02 -0.61920955926E+02  0.71209428357E+02  0.98782000158E+02  0.00000000000E+00 0.  1.
         11    1    1    2    0    0  0.33425916405E+02  0.78781600406E+01  0.13079798671E+02  0.36748311885E+02  0.00000000000E+00 0. -1.
</event>
<event>
 7    1  0.2334784E-009  0.1684036E+03  0.7561462E-02  0.1179523E+00
         -2   -1    0    0    0  501 -0.00000000000E+00  0.00000000000E+00  0.16195595212E+02  0.16195595212E+02  0.00000000000E+00 0.  1.
          2   -1    0    0  501    0  0.00000000000E+00 -0.00000000000E+00 -0.19828117641E+04  0.19828117641E+04  0.00000000000E+00 0. -1.
         25    2    1    2    0    0  0.10604684313E+03 -0.79862767190E+02 -0.13336204606E+04  0.13460369953E+04  0.12509222708E+03 0.  0.
          5    1    3    3  502    0 -0.22039808055E+02 -0.43558348296E+02 -0.33051528166E+03  0.33412708159E+03  0.41800000000E+01 0.  1.
         -5    1    3    3    0  502  0.12808665119E+03 -0.36304418895E+02 -0.10031051789E+04  0.10119099137E+04  0.41800000000E+01 0.  1.
        -11    1    1    2    0    0 -0.71962999613E+02  0.47380750787E+01 -0.21093491868E+03  0.22292299699E+03  0.00000000000E+00 0. -1.
         11    1    1    2    0    0 -0.34083843521E+02  0.75124692111E+02 -0.42206078958E+03  0.43004736699E+03  0.00000000000E+00 0.  1.
</event>
<event>
 7    1  0.2334784E-009  0.1251014E+03  0.7561462E-02  0.1234911E+00
         -1   -1    0    0    0  501 -0.00000000000E+00  0.00000000000E+00  0.10068253144E+03  0.10068253144E+03  0.00000000000E+00 0.  1.
          1   -1    0    0  501    0  0.00000000000E+00 -0.00000000000E+00 -0.17937329047E+03  0.17937329047E+03  0.00000000000E+00 0. -1.
         25    2    1    2    0    0 -0.68229404974E+02 -0.34220533612E+02 -0.20615734895E+02  0.14798618230E+03  0.12509438438E+03 0.  0.
          5    1    3    3  502    0 -0.89439678867E+02  0.16807726194E+02 -0.14096643121E+02  0.92185376079E+02  0.41800000000E+01 0. -1.
         -5    1    3    3    0  502  0.21210273893E+02 -0.51028259806E+02 -0.65190917742E+01  0.55800806222E+02  0.41800000000E+01 0. -1.
        -11    1    1    2    0    0  0.74153921916E+02  0.48239224237E+02 -0.69940286428E+02  0.11277176312E+03  0.00000000000E+00 0. -1.
         11    1    1    2    0    0 -0.59245169424E+01 -0.14018690624E+02  0.11865262299E+02  0.19297876496E+02  0.00000000000E+00 0.  1.
</event>
<event>
 7    1  0.2334784E-009  0.1327872E+03  0.7561462E-02  0.1223378E+00
          2   -1    0    0  501    0  0.00000000000E+00  0.00000000000E+00  0.75777922931E+03  0.75777922931E+03  0.00000000000E+00 0. -1.
         -2   -1    0    0    0  501 -0.00000000000E+00 -0.00000000000E+00 -0.30992772089E+02  0.30992772089E+02  0.00000000000E+00 0.  1.
         25    2    1    2    0    0 -0.82858765467E+02 -0.72515357019E+02  0.39601082572E+03  0.42964648434E+03  0.12508986930E+03 0.  0.
          5    1    3    3  502    0  0.23911392018E+01 -0.69888158479E+02  0.10390433305E+03  0.12531422532E+03  0.41800000000E+01 0.  1.
         -5    1    3    3    0  502 -0.85249904669E+02 -0.26271985403E+01  0.29210649268E+03  0.30433225902E+03  0.41800000000E+01 0.  1.
        -11    1    1    2    0    0  0.41483053464E+02  0.34964522791E+02  0.27454635987E+03  0.27985543643E+03  0.00000000000E+00 0. -1.
         11    1    1    2    0    0  0.41375712003E+02  0.37550834228E+02  0.56229271626E+02  0.79270080627E+02  0.00000000000E+00 0.  1.
</event>
<event>
 7    1  0.2334784E-009  0.1344368E+03  0.7561462E-02  0.1221017E+00
          2   -1    0    0  501    0  0.00000000000E+00  0.00000000000E+00  0.29339627271E+03  0.29339627271E+03  0.00000000000E+00 0. -1.
         -2   -1    0    0    0  501 -0.00000000000E+00 -0.00000000000E+00 -0.72303833102E+02  0.72303833102E+02  0.00000000000E+00 0.  1.
         25    2    1    2    0    0 -0.71457525330E+02  0.41094093134E+01  0.54284567215E+02  0.15400775142E+03  0.12509399701E+03 0.  0.
          5    1    3    3  502    0 -0.33168192709E+02  0.61164582244E+02  0.60802724325E+01  0.69969116340E+02  0.41800000000E+01 0. -1.
         -5    1    3    3    0  502 -0.38289332621E+02 -0.57055172930E+02  0.48204294783E+02  0.84038635080E+02  0.41800000000E+01 0. -1.
        -11    1    1    2    0    0  0.64817174498E+02  0.46191704031E+02  0.10051419725E+03  0.12821093355E+03  0.00000000000E+00 0. -1.
         11    1    1    2    0    0  0.66403508319E+01 -0.50301113345E+02  0.66293675143E+02  0.83481420848E+02  0.00000000000E+00 0.  1.
</event>
<event>
 7    1  0.2334784E-009  0.1448289E+03  0.7561462E-02  0.1206975E+00
         -2   -1    0    0    0  501 -0.00000000000E+00  0.00000000000E+00  0.76514694316E+03  0.76514694316E+03  0.00000000000E+00 0. -1.
          2   -1    0    0  501    0  0.00000000000E+00 -0.00000000000E+00 -0.33887741129E+02  0.33887741129E+02  0.00000000000E+00 0.  1.
         25    2    1    2    0    0  0.64124039492E+02 -0.83283728828E+02  0.25415813961E+03  0.30214596545E+03  0.12509097721E+03 0.  0.
          5    1    3    3  502    0  0.87217484270E+02 -0.91398856091E+02  0.24498573672E+03  0.27567394519E+03  0.41800000000E+01 0. -1.
         -5    1    3    3    0  502 -0.23093444778E+02  0.81151272626E+01  0.91724028873E+01  0.26472020265E+02  0.41800000000E+01 0. -1.
        -11    1    1    2    0    0  0.20063647032E+02  0.37646752518E+02  0.13002706313E+03  0.13684613642E+03  0.00000000000E+00 0. -1.
         11    1    1    2    0    0 -0.84187686524E+02  0.45636976310E+02  0.34707399928E+03  0.36004258241E+03  0.00000000000E+00 0.  1.
</event>
<event>
 7    1  0.2334784E-009  0.9971578E+02  0.7561462E-02  0.1280895E+00
         -2   -1    0    0    0  501 -0.00000000000E+00  0.00000000000E+00  0.28021733425E+02  0.28021733425E+02  0.00000000000E+00 0. -1.
          2   -1    0    0  501    0  0.00000000000E+00 -0.00000000000E+00 -0.43331360047E+03  0.43331360047E+03  0.00000000000E+00 0.  1.
         25    2    1    2    0    0  0.11128643482E+02 -0.43449508934E+01 -0.20299611387E+03  0.23874216933E+03  0.12509067058E+03 0.  0.
          5    1    3    3  502    0  0.15439289328E+02  0.53807357141E+02 -0.50815108087E+02  0.75718233916E+02  0.41800000000E+01 0.  1.
         -5    1    3    3    0  502 -0.43106458458E+01 -0.58152308035E+02 -0.15218100579E+03  0.16302393542E+03  0.41800000000E+01 0.  1.
        -11    1    1    2    0    0 -0.31422206991E+02  0.35654398837E+02 -0.15630930689E+03  0.16337438804E+03  0.00000000000E+00 0. -1.
         11    1    1    2    0    0  0.20293563509E+02 -0.31309447944E+02 -0.45986446285E+02  0.59218776518E+02  0.00000000000E+00 0.  1.
</event>
<event>
 7    1  0.2334784E-009  0.1491553E+03  0.7561462E-02  0.1201515E+00
         -1   -1    0    0    0  501 -0.00000000000E+00  0.00000000000E+00  0.14040054910E+03  0.14040054910E+03  0.00000000000E+00 0.  1.
          1   -1    0    0  501    0  0.00000000000E+00 -0.00000000000E+00 -0.16796617107E+03  0.16796617107E+03  0.00000000000E+00 0. -1.
         25    2    1    2    0    0  0.65819681096E+02 -0.83896739656E+02 -0.99908244564E+00  0.16437556839E+03  0.12508971170E+03 0.  0.
          5    1    3    3  502    0 -0.19248708424E+02  0.21267139974E+02 -0.18334963508E+01  0.29045449343E+02  0.41800000000E+01 0. -1.
         -5    1    3    3    0  502  0.85068389520E+02 -0.10516387963E+03  0.83441390516E+00  0.13533011905E+03  0.41800000000E+01 0. -1.
        -11    1    1    2    0    0 -0.16842873812E+02 -0.15688855836E+02 -0.23610975493E+02  0.32974243880E+02  0.00000000000E+00 0. -1.
         11    1    1    2    0    0 -0.48976807284E+02  0.99585595492E+02 -0.29555640401E+01  0.11101690790E+03  0.00000000000E+00 0.  1.
</event>
<event>
 7    1  0.2334784E-009  0.1034407E+03  0.7561462E-02  0.1273223E+00
          2   -1    0    0  501    0  0.00000000000E+00  0.00000000000E+00  0.23420128028E+03  0.23420128028E+03  0.00000000000E+00 0. -1.
         -2   -1    0    0    0  501 -0.00000000000E+00 -0.00000000000E+00 -0.49986721220E+02  0.49986721220E+02  0.00000000000E+00 0.  1.
         25    2    1    2    0    0 -0.20837148552E+01  0.39328952458E+01  0.10064679813E+03  0.16061348953E+03  0.12508839079E+03 0.  0.
          5    1    3    3  502    0 -0.48044019998E+02 -0.31858240014E+02  0.20249860683E+02  0.61242996106E+02  0.41800000000E+01 0.  1.
         -5    1    3    3    0  502  0.45960305142E+02  0.35791135260E+02  0.80396937445E+02  0.99370493420E+02  0.41800000000E+01 0.  1.
        -11    1    1    2    0    0  0.29637914763E+02 -0.37149262536E+02  0.38353016551E+02  0.61069039431E+02  0.00000000000E+00 0. -1.
         11    1    1    2    0    0 -0.27554199908E+02  0.33216367290E+02  0.45214744380E+02  0.62505472543E+02  0.00000000000E+00 0.  1.
</event>
<event>
 7    1  0.2334784E-009  0.2115766E+03  0.7561462E-02  0.1140324E+00
         -2   -1    0    0    0  501 -0.00000000000E+00  0.00000000000E+00  0.10435870350E+03  0.10435870350E+03  0.00000000000E+00 0.  1.
          2   -1    0    0  501    0  0.00000000000E+00 -0.00000000000E+00 -0.81895797938E+03  0.81895797938E+03  0.00000000000E+00 0. -1.
         25    2    1    2    0    0 -0.18139301785E+03  0.20929289917E+02 -0.68289384525E+03  0.71786606121E+03  0.12508483464E+03 0.  0.
          5    1    3    3  502    0 -0.98466839830E+02 -0.50567816032E+02 -0.30941130551E+03  0.32864213203E+03  0.41800000000E+01 0.  1.
         -5    1    3    3    0  502 -0.82926178015E+02  0.71497105949E+02 -0.37348253973E+03  0.38922392918E+03  0.41800000000E+01 0.  1.
        -11    1    1    2    0    0  0.94046090099E+02  0.33566654155E+02 -0.19932865192E+02  0.10182684542E+03  0.00000000000E+00 0.  1.
         11    1    1    2    0    0  0.87346927746E+02 -0.54495944072E+02 -0.11772565436E+02  0.10362377625E+03  0.00000000000E+00 0. -1.
</event>
<event>
 7    1  0.2334784E-009  0.1087856E+03  0.7561462E-02  0.1262835E+00
         -1   -1    0    0    0  501 -0.00000000000E+00  0.00000000000E+00  0.52823623626E+03  0.52823623626E+03  0.00000000000E+00 0.  1.
          1   -1    0    0  501    0  0.00000000000E+00 -0.00000000000E+00 -0.34378487231E+02  0.34378487231E+02  0.00000000000E+00 0. -1.
         25    2    1    2    0    0  0.57379639127E+02  0.49557757565E+02  0.17882177355E+03  0.23102628825E+03  0.12509006694E+03 0.  0.
          5    1    3    3  502    0  0.53889247052E+02 -0.26522434381E+02  0.38947275456E+02  0.71706716135E+02  0.41800000000E+01 0.  1.
         -5    1    3    3    0  502  0.34903920746E+01  0.76080191946E+02  0.13987449809E+03  0.15931957212E+03  0.41800000000E+01 0.  1.
        -11    1    1    2    0    0  0.54603456659E+00 -0.12088438924E+02  0.36317442592E+01  0.12634004739E+02  0.00000000000E+00 0. -1.
         11    1    1    2    0    0 -0.57925673693E+02 -0.37469318641E+02  0.31140423122E+03  0.31895443050E+03  0.00000000000E+00 0.  1.
</event>
<event>
 7    1  0.2334784E-009  0.1227202E+03  0.7561462E-02  0.1238676E+00
          1   -1    0    0  501    0  0.00000000000E+00  0.00000000000E+00  0.18070440630E+03  0.18070440630E+03  0.00000000000E+00 0. -1.
         -1   -1    0    0    0  501 -0.00000000000E+00 -0.00000000000E+00 -0.99364201828E+02  0.99364201828E+02  0.00000000000E+00 0.  1.
         25    2    1    2    0    0 -0.20008730352E+02 -0.60415869489E+02  0.93463586636E+02  0.16862150396E+03  0.12508934006E+03 0.  0.
          5    1    3    3  502    0 -0.47994996025E+02 -0.86700955344E+02  0.80938699572E+02  0.12802000152E+03  0.41800000000E+01 0. -1.
         -5    1    3    3    0  502  0.27986265673E+02  0.26285085855E+02  0.12524887064E+02  0.40601502443E+02  0.41800000000E+01 0. -1.
        -11    1    1    2    0    0 -0.38533342886E+01  0.77934481893E+02 -0.20509020106E+02  0.80679932813E+02  0.00000000000E+00 0.  1.
         11    1    1    2    0    0  0.23862064641E+02 -0.17518612404E+02  0.83856379470E+01  0.30767171356E+02  0.00000000000E+00 0. -1.
</event>
<event>
 7    1  0.2334784E-009  0.1226827E+03  0.7561462E-02  0.1238736E+00
          2   -1    0    0  501    0  0.00000000000E+00  0.00000000000E+00  0.43469301851E+03  0.43469301851E+03  0.00000000000E+00 0. -1.
         -2   -1    0    0    0  501 -0.00000000000E+00 -0.00000000000E+00 -0.40268788623E+02  0.40268788623E+02  0.00000000000E+00 0.  1.
         25    2    1    2    0    0  0.22500346773E+02  0.62218164144E+02  0.14635255437E+03  0.20357735193E+03  0.12508917816E+03 0.  0.
          5    1    3    3  502    0 -0.46408710324E+02  0.45949119836E+01  0.76576700386E+02  0.89757144852E+02  0.41800000000E+01 0.  1.
         -5    1    3    3    0  502  0.68909057097E+02  0.57623252161E+02  0.69775853984E+02  0.11382020708E+03  0.41800000000E+01 0.  1.
        -11    1    1    2    0    0 -0.53501991922E+02 -0.22024067231E+02  0.15366442790E+03  0.16419585585E+03  0.00000000000E+00 0. -1.
         11    1    1    2    0    0  0.31001645149E+02 -0.40194096913E+02  0.94407247615E+02  0.10718859935E+03  0.00000000000E+00 0.  1.
</event>
<event>
 7    1  0.2334784E-009  0.1281845E+03  0.7561462E-02  0.1230175E+00
          1   -1    0    0  501    0  0.00000000000E+00  0.00000000000E+00  0.52610805786E+03  0.52610805786E+03  0.00000000000E+00 0. -1.
         -1   -1    0    0    0  501 -0.00000000000E+00 -0.00000000000E+00 -0.37442169923E+02  0.37442169923E+02  0.00000000000E+00 0.  1.
         25    2    1    2    0    0  0.35799333005E+02 -0.77539097328E+02  0.30326546965E+03  0.33898589138E+03  0.12509030984E+03 0.  0.
          5    1    3    3  502    0 -0.41678312785E+02 -0.56076249832E+02  0.12210387074E+03  0.14074251384E+03  0.41800000000E+01 0. -1.
         -5    1    3    3    0  502  0.77477645790E+02 -0.21462847496E+02  0.18116159891E+03  0.19824337754E+03  0.41800000000E+01 0. -1.
        -11    1    1    2    0    0 -0.48085095578E+02  0.80002254221E+02  0.18961504042E+03  0.21134427045E+03  0.00000000000E+00 0.  1.
         11    1    1    2    0    0  0.12285762573E+02 -0.24631568921E+01 -0.42146221408E+01  0.13220065948E+02  0.00000000000E+00 0. -1.
</event>
<event>
 7    1  0.2334784E-009  0.6517112E+02  0.7561462E-02  0.1377329E+00
         -3   -1    0    0    0  501 -0.00000000000E+00  0.00000000000E+00  0.16393307442E+03  0.16393307442E+03  0.00000000000E+00 0.  1.
          3   -1    0    0  501    0  0.00000000000E+00 -0.00000000000E+00 -0.13698658090E+03  0.13698658090E+03  0.00000000000E+00 0. -1.
         25    2    1    2    0    0 -0.28861960291E+02  0.38424712353E+02  0.10622610280E+03  0.17099757481E+03  0.12508682746E+03 0.  0.
          5    1    3    3  502    0 -0.19875359205E+02  0.16842855245E+02 -0.25770058235E+02  0.36881973616E+02  0.41800000000E+01 0.  1.
         -5    1    3    3    0  502 -0.89866010858E+01  0.21581857108E+02  0.13199616104E+03  0.13411560120E+03  0.41800000000E+01 0.  1.
        -11    1    1    2    0    0  0.78812073913E+01  0.18193682231E+02  0.99491091680E+01  0.22183513615E+02  0.00000000000E+00 0.  1.
         11    1    1    2    0    0  0.20980752900E+02 -0.56618394584E+02 -0.89228718459E+02  0.10773856689E+03  0.00000000000E+00 0. -1.
</event>
<event>
 7    1  0.2334784E-009  0.1317633E+03  0.7561462E-02  0.1224863E+00
         -1   -1    0    0    0  501 -0.00000000000E+00  0.00000000000E+00  0.10627520089E+03  0.10627520089E+03  0.00000000000E+00 0.  1.
          1   -1    0    0  501    0  0.00000000000E+00 -0.00000000000E+00 -0.38303363529E+03  0.38303363529E+03  0.00000000000E+00 0. -1.
         25    2    1    2    0    0 -0.50934292105E+02 -0.10654407680E+03  0.27910612291E+01  0.17205974899E+03  0.12510325649E+03 0.  0.
          5    1    3    3  502    0 -0.20615003215E+02 -0.18666245785E+02  0.57574739310E+02  0.64075971283E+02  0.41800000000E+01 0. -1.
         -5    1    3    3    0  502 -0.30319288890E+02 -0.87877831018E+02 -0.54783678081E+02  0.10798377770E+03  0.41800000000E+01 0. -1.
        -11    1    1    2    0    0  0.44940094005E+02  0.10542188764E+02 -0.14267367923E+03  0.14995508840E+03  0.00000000000E+00 0.  1.
         11    1    1    2    0    0  0.59941981001E+01  0.96001888038E+02 -0.13687581640E+03  0.16729399879E+03  0.00000000000E+00 0. -1.
</event>
<event>
 7    1  0.2334784E-009  0.1262056E+03  0.7561462E-02  0.1233197E+00
          3   -1    0    0  501    0  0.00000000000E+00  0.00000000000E+00  0.27994463643E+03  0.27994463643E+03  0.00000000000E+00 0. -1.
         -3   -1    0    0    0  501 -0.00000000000E+00 -0.00000000000E+00 -0.76256857578E+02  0.76256857578E+02  0.00000000000E+00 0.  1.
         25    2    1    2    0    0 -0.12599219680E+02 -0.69999973319E+02  0.29907113287E+02  0.14696464751E+03  0.12508171565E+03 0.  0.
          5    1    3    3  502    0 -0.53966565525E+02 -0.83948363510E+02  0.17698816355E+02  0.10144179824E+03  0.41800000000E+01 0.  1.
         -5    1    3    3    0  502  0.41367345845E+02  0.13948390191E+02  0.12208296933E+02  0.45522849264E+02  0.41800000000E+01 0.  1.
        -11    1    1    2    0    0  0.42495109680E+02  0.13225940497E+02  0.35981454371E+02  0.57231328024E+02  0.00000000000E+00 0.  1.
         11    1    1    2    0    0 -0.29895890000E+02  0.56774032822E+02  0.13779921119E+03  0.15200551847E+03  0.00000000000E+00 0. -1.
</event>
<event>
 7    1  0.2334784E-009  0.1502329E+03  0.7561462E-02  0.1200187E+00
         -1   -1    0    0    0  501 -0.00000000000E+00  0.00000000000E+00  0.32376413655E+03  0.32376413655E+03  0.00000000000E+00 0.  1.
          1   -1    0    0  501    0  0.00000000000E+00 -0.00000000000E+00 -0.81542070529E+02  0.81542070529E+02  0.00000000000E+00 0. -1.
         25    2    1    2    0    0  0.44414355294E+02  0.97142650181E+02  0.61785498121E+02  0.17570804708E+03  0.12508613269E+03 0.  0.
          5    1    3    3  502    0  0.87933908663E+02  0.55308124890E+02  0.38101135239E+02  0.11072727703E+03  0.41800000000E+01 0. -1.
         -5    1    3    3    0  502 -0.43519553369E+02  0.41834525291E+02  0.23684362882E+02  0.64980770055E+02  0.41800000000E+01 0. -1.
        -11    1    1    2    0    0  0.18868136341E+02 -0.59358996171E+02  0.11615278664E+03  0.13179896373E+03  0.00000000000E+00 0.  1.
         11    1    1    2    0    0 -0.63282491635E+02 -0.37783654010E+02  0.64283781262E+02  0.97799196270E+02  0.00000000000E+00 0. -1.
</event>
<event>
 7    1  0.2334784E-009  0.1292639E+03  0.7561462E-02  0.1228552E+00
         -1   -1    0    0    0  501 -0.00000000000E+00  0.00000000000E+00  0.14415619137E+03  0.14415619137E+03  0.00000000000E+00 0.  1.
          1   -1    0    0  501    0  0.00000000000E+00 -0.00000000000E+00 -0.19495022655E+03  0.19495022655E+03  0.00000000000E+00 0. -1.
         25    2    1    2    0    0 -0.34845340214E+02  0.65325424200E+02 -0.13300634034E+03  0.19702549115E+03  0.12508696499E+03 0.  0.
          5    1    3    3  502    0  0.11548472314E+02 -0.32517610766E+02 -0.18518794883E+02  0.39385027442E+02  0.41800000000E+01 0. -1.
         -5    1    3    3    0  502 -0.46393812528E+02  0.97843034966E+02 -0.11448754546E+03  0.15764046371E+03  0.41800000000E+01 0. -1.
        -11    1    1    2    0    0  0.18480893221E+02  0.20749132248E+02  0.25486168373E+02  0.37704305876E+02  0.00000000000E+00 0. -1.
         11    1    1    2    0    0  0.16364446993E+02 -0.86074556448E+02  0.56726136790E+02  0.10437662089E+03  0.00000000000E+00 0.  1.
</event>
<event>
 7    1  0.2334784E-009  0.8785847E+02  0.7561462E-02  0.1308122E+00
          1   -1    0    0  501    0  0.00000000000E+00  0.00000000000E+00  0.29186700713E+03  0.29186700713E+03  0.00000000000E+00 0. -1.
         -1   -1    0    0    0  501 -0.00000000000E+00 -0.00000000000E+00 -0.44268895470E+02  0.44268895470E+02  0.00000000000E+00 0.  1.
         25    2    1    2    0    0  0.27380542094E+02  0.19316361126E+02  0.14963773660E+03  0.19789407739E+03  0.12509115779E+03 0.  0.
          5    1    3    3  502    0  0.55693916307E+02  0.18314727576E+02  0.15757204973E+03  0.16817748011E+03  0.41800000000E+01 0.  1.
         -5    1    3    3    0  502 -0.28313374214E+02  0.10016335498E+01 -0.79343131282E+01  0.29716597281E+02  0.41800000000E+01 0.  1.
        -11    1    1    2    0    0 -0.46222190949E+02 -0.39420374910E+02  0.91682554488E+02  0.10998248811E+03  0.00000000000E+00 0. -1.
         11    1    1    2    0    0  0.18841648856E+02  0.20104013784E+02  0.62778205649E+01  0.28259337092E+02  0.00000000000E+00 0.  1.
</event>
<event>
 7    1  0.2334784E-009  0.2433909E+03  0.7561462E-02  0.1117554E+00
         -1   -1    0    0    0  501 -0.00000000000E+00  0.00000000000E+00  0.84444247800E+02  0.84444247800E+02  0.00000000000E+00 0.  1.
          1   -1    0    0  501    0  0.00000000000E+00 -0.00000000000E+00 -0.86438470789E+03  0.86438470789E+03  0.00000000000E+00 0. -1.
         25    2    1    2    0    0 -0.23207922936E+03  0.51438426005E+02 -0.52486363062E+03  0.58960655629E+03  0.12508948838E+03 0.  0.
          5    1    3    3  502    0 -0.13989613945E+03  0.67488266279E+02 -0.21082264381E+03  0.26189550485E+03  0.41800000000E+01 0.  1.
         -5    1    3    3    0  502 -0.92183089907E+02 -0.16049840274E+02 -0.31404098681E+03  0.32771105144E+03  0.41800000000E+01 0.  1.
        -11    1    1    2    0    0  0.25571258953E+02 -0.68208888563E+01  0.19152752235E+01  0.26534545190E+02  0.00000000000E+00 0.  1.
         11    1    1    2    0    0  0.20650797041E+03 -0.44617537149E+02 -0.25699210469E+03  0.33268785421E+03  0.00000000000E+00 0. -1.
</event>
<event>
 7    1  0.2334784E-009  0.1280984E+03  0.7561462E-02  0.1230305E+00
         -2   -1    0    0    0  501 -0.00000000000E+00  0.00000000000E+00  0.47403917095E+02  0.47403917095E+02  0.00000000000E+00 0.  1.
          2   -1    0    0  501    0  0.00000000000E+00 -0.00000000000E+00 -0.38805266459E+03  0.38805266459E+03  0.00000000000E+00 0. -1.
         25    2    1    2    0    0  0.20548365198E+02  0.71302655825E+02 -0.12213576012E+03  0.18992500437E+03  0.12509220337E+03 0.  0.
          5    1    3    3  502    0  0.34743286457E+02  0.10363232680E+03 -0.85117128871E+02  0.13859708921E+03  0.41800000000E+01 0. -1.
         -5    1    3    3    0  502 -0.14194921258E+02 -0.32329670972E+02 -0.37018631254E+02  0.51327915159E+02  0.41800000000E+01 0. -1.
        -11    1    1    2    0    0 -0.45709363660E+02 -0.72904017689E+02 -0.17984477716E+03  0.19937022243E+03  0.00000000000E+00 0.  1.
         11    1    1    2    0    0  0.25160998462E+02  0.16013618641E+01 -0.38668210205E+02  0.46161354875E+02  0.00000000000E+00 0. -1.
</event>
<event>
 7    1  0.2334784E-009  0.1338180E+03  0.7561462E-02  0.1221898E+00
          2   -1    0    0  501    0  0.00000000000E+00  0.00000000000E+00  0.13296376301E+03  0.13296376301E+03  0.00000000000E+00 0. -1.
         -2   -1    0    0    0  501 -0.00000000000E+00 -0.00000000000E+00 -0.17538304362E+03  0.17538304362E+03  0.00000000000E+00 0.  1.
         25    2    1    2    0    0  0.33134697702E+02  0.99572261419E+02 -0.28427764016E+01  0.16330370254E+03  0.12508986549E+03 0.  0.
          5    1    3    3  502    0 -0.13964147242E+02 -0.10202500232E+02  0.33877195468E+02  0.38265195569E+02  0.41800000000E+01 0. -1.
         -5    1    3    3    0  502  0.47098844944E+02  0.10977476165E+03 -0.36719971869E+02  0.12503850697E+03  0.41800000000E+01 0. -1.
        -11    1    1    2    0    0 -0.30534348929E+02  0.17761040574E+00  0.11890383973E+02  0.32768265761E+02  0.00000000000E+00 0.  1.
         11    1    1    2    0    0 -0.26003487733E+01 -0.99749871825E+02 -0.51466888176E+02  0.11227483833E+03  0.00000000000E+00 0. -1.
</event>
<event>
 7    1  0.2334784E-009  0.1406250E+03  0.7561462E-02  0.1212490E+00
          2   -1    0    0  501    0  0.00000000000E+00  0.00000000000E+00  0.48884577048E+03  0.48884577048E+03  0.00000000000E+00 0. -1.
         -2   -1    0    0    0  501 -0.00000000000E+00 -0.00000000000E+00 -0.69109647372E+02  0.69109647372E+02  0.00000000000E+00 0.  1.
         25    2    1    2    0    0  0.30162913091E+02  0.11442593128E+03  0.35674195365E+03  0.39612603288E+03  0.12509163585E+03 0.  0.
          5    1    3    3  502    0  0.50701161955E+02  0.87896345811E+02  0.12099602972E+03  0.15796799371E+03  0.41800000000E+01 0. -1.
         -5    1    3    3    0  502 -0.20538248864E+02  0.26529585469E+02  0.23574592393E+03  0.23815803917E+03  0.41800000000E+01 0. -1.
        -11    1    1    2    0    0 -0.58866812711E+02 -0.92996924112E+02  0.32428346900E+02  0.11474025979E+03  0.00000000000E+00 0. -1.
         11    1    1    2    0    0  0.28703899621E+02 -0.21429007167E+02  0.30565822560E+02  0.47089125182E+02  0.00000000000E+00 0.  1.
</event>
<event>
 7    1  0.2334784E-009  0.1076313E+03  0.7561462E-02  0.1265020E+00
         -1   -1    0    0    0  501 -0.00000000000E+00  0.00000000000E+00  0.59756499108E+02  0.59756499108E+02  0.00000000000E+00 0.  1.
          1   -1    0    0  501    0  0.00000000000E+00 -0.00000000000E+00 -0.29126398450E+03  0.29126398450E+03  0.00000000000E+00 0. -1.
         25    2    1    2    0    0 -0.75417962016E+02  0.68096545768E+01 -0.14454861257E+03  0.20561161692E+03  0.12509034825E+03 0.  0.
          5    1    3    3  502    0 -0.92961133211E+02 -0.21660954878E+02 -0.14286384437E+03  0.17186773892E+03  0.41800000000E+01 0.  1.
         -5    1    3    3    0  502  0.17543171195E+02  0.28470609455E+02 -0.16847681977E+01  0.33743877995E+02  0.41800000000E+01 0.  1.
        -11    1    1    2    0    0  0.31096642824E+02  0.17277547838E+02  0.92682358730E+01  0.36761597496E+02  0.00000000000E+00 0.  1.
         11    1    1    2    0    0  0.44321319192E+02 -0.24087202414E+02 -0.96227108698E+02  0.10864726919E+03  0.00000000000E+00 0. -1.
</event>
<event>
 7    1  0.2334784E-009  0.1350170E+03  0.7561462E-02  0.1220196E+00
         -1   -1    0    0    0  501 -0.00000000000E+00  0.00000000000E+00  0.12498092554E+03  0.12498092554E+03  0.00000000000E+00 0.  1.
          1   -1    0    0  501    0  0.00000000000E+00 -0.00000000000E+00 -0.20519177835E+03  0.20519177835E+03  0.00000000000E+00 0. -1.
         25    2    1    2    0    0 -0.61848042402E+02  0.74475228316E+02 -0.11171547686E+03  0.19363585107E+03  0.12507100010E+03 0.  0.
          5    1    3    3  502    0  0.21534158154E+02 -0.15244544453E+02 -0.49371694013E+02  0.56135128687E+02  0.41800000000E+01 0.  1.
         -5    1    3    3    0  502 -0.83382200556E+02  0.89719772769E+02 -0.62343782848E+02  0.13750072238E+03  0.41800000000E+01 0.  1.
        -11    1    1    2    0    0  0.64140456504E+02 -0.21363385954E+02  0.45590965304E+02  0.81540962327E+02  0.00000000000E+00 0.  1.
         11    1    1    2    0    0 -0.22924141019E+01 -0.53111842362E+02 -0.14086341260E+02  0.54995890498E+02  0.00000000000E+00 0. -1.
</event>
<event>
 7    1  0.2334784E-009  0.1551622E+03  0.7561462E-02  0.1194269E+00
         -2   -1    0    0    0  501 -0.00000000000E+00  0.00000000000E+00  0.65360588950E+02  0.65360588950E+02  0.00000000000E+00 0.  1.
          2   -1    0    0  501    0  0.00000000000E+00 -0.00000000000E+00 -0.45394637532E+03  0.45394637532E+03  0.00000000000E+00 0. -1.
         25    2    1    2    0    0  0.78610831876E+02  0.10604436967E+03 -0.17163573173E+03  0.25006289515E+03  0.12509019106E+03 0.  0.
          5    1    3    3  502    0  0.87193039373E+02  0.11535495274E+03 -0.96828511977E+02  0.17407648999E+03  0.41800000000E+01 0.  1.
         -5    1    3    3    0  502 -0.85822074975E+01 -0.93105830642E+01 -0.74807219752E+02  0.75986405162E+02  0.41800000000E+01 0.  1.
        -11    1    1    2    0    0  0.11689753442E+02  0.16279917360E+01 -0.13350145502E+01  0.11877834671E+02  0.00000000000E+00 0.  1.
         11    1    1    2    0    0 -0.90300585317E+02 -0.10767236141E+03 -0.21561504009E+03  0.25736623445E+03  0.00000000000E+00 0. -1.
</event>
<event>
 7    1  0.2334784E-009  0.2516640E+03  0.7561462E-02  0.1112258E+00
         -1   -1    0    0    0  501 -0.00000000000E+00  0.00000000000E+00  0.31878161691E+03  0.31878161691E+03  0.00000000000E+00 0.  1.
          1   -1    0    0  501    0  0.00000000000E+00 -0.00000000000E+00 -0.37530156941E+03  0.37530156941E+03  0.00000000000E+00 0. -1.
         25    2    1    2    0    0  0.90712766551E+02  0.22148606857E+03  0.19655355774E+03  0.33401398218E+03  0.12508858718E+03 0.  0.
          5    1    3    3  502    0  0.35672327101E+02  0.20239873823E+03  0.18019716504E+03  0.27336103388E+03  0.41800000000E+01 0.  1.
         -5    1    3    3    0  502  0.55040439450E+02  0.19087330343E+02  0.16356392703E+02  0.60652948294E+02  0.41800000000E+01 0.  1.
        -11    1    1    2    0    0 -0.65565296767E+02 -0.16356327441E+03 -0.12124508823E+03  0.21389746211E+03  0.00000000000E+00 0.  1.
         11    1    1    2    0    0 -0.25147469784E+02 -0.57922794158E+02 -0.13182842201E+03  0.14617174203E+03  0.00000000000E+00 0. -1.
</event>
<event>
 7    1  0.2334784E-009  0.5673390E+02  0.7561462E-02  0.1412073E+00
          3   -1    0    0  501    0  0.00000000000E+00  0.00000000000E+00  0.25243992571E+03  0.25243992571E+03  0.00000000000E+00 0. -1.
         -3   -1    0    0    0  501 -0.00000000000E+00 -0.00000000000E+00 -0.51501311298E+02  0.51501311298E+02  0.00000000000E+00 0.  1.
         25    2    1    2    0    0 -0.16322597891E+01 -0.32335445873E+02  0.12845226923E+03  0.18219549067E+03  0.12508783321E+03 0.  0.
          5    1    3    3  502    0  0.68955192065E+01 -0.42544542077E+02  0.15022462589E+03  0.15634096351E+03  0.41800000000E+01 0. -1.
         -5    1    3    3    0  502 -0.85277789956E+01  0.10209096203E+02 -0.21772356666E+02  0.25854527160E+02  0.41800000000E+01 0. -1.
        -11    1    1    2    0    0 -0.96789767165E+00 -0.11885594272E+02 -0.17656786200E+02  0.21306484365E+02  0.00000000000E+00 0.  1.
         11    1    1    2    0    0  0.26001574608E+01  0.44221040145E+02  0.90143131382E+02  0.10043926197E+03  0.00000000000E+00 0. -1.
</event>
<event>
 7    1  0.2334784E-009  0.2350858E+03  0.7561462E-02  0.1123111E+00
          1   -1    0    0  501    0  0.00000000000E+00  0.00000000000E+00  0.98693522108E+02  0.98693522108E+02  0.00000000000E+00 0. -1.
         -1   -1    0    0    0  501 -0.00000000000E+00 -0.00000000000E+00 -0.71025549840E+03  0.71025549840E+03  0.00000000000E+00 0.  1.
         25    2    1    2    0    0  0.22457841200E+03 -0.17336256088E+02 -0.18199252670E+03  0.31544399478E+03  0.12509046790E+03 0.  0.
          5    1    3    3  502    0  0.20810777430E+03  0.49130019742E+01 -0.19437020355E+03  0.28483369137E+03  0.41800000000E+01 0.  1.
         -5    1    3    3    0  502  0.16470637692E+02 -0.22249258062E+02  0.12377676852E+02  0.30610303405E+02  0.41800000000E+01 0.  1.
        -11    1    1    2    0    0 -0.10646139245E+02  0.16972445147E+02 -0.89699720723E+02  0.91909978092E+02  0.00000000000E+00 0.  1.
         11    1    1    2    0    0 -0.21393227275E+03  0.36381094097E+00 -0.33986972888E+03  0.40159504764E+03  0.00000000000E+00 0. -1.
</event>
<event>
 7    1  0.2334784E-009  0.1086460E+03  0.7561462E-02  0.1263098E+00
          2   -1    0    0  501    0  0.00000000000E+00  0.00000000000E+00  0.16056670109E+03  0.16056670109E+03  0.00000000000E+00 0. -1.
         -2   -1    0    0    0  501 -0.00000000000E+00 -0.00000000000E+00 -0.86090036438E+02  0.86090036438E+02  0.00000000000E+00 0.  1.
         25    2    1    2    0    0 -0.44190582766E+02 -0.12628991816E+02  0.33745769930E+02  0.13747442039E+03  0.12509252669E+03 0.  0.
          5    1    3    3  502    0  0.32601505567E+02 -0.27125152256E+02  0.40670820470E+02  0.58908573976E+02  0.41800000000E+01 0. -1.
         -5    1    3    3    0  502 -0.76792088333E+02  0.14496160441E+02 -0.69250505397E+01  0.78565846416E+02  0.41800000000E+01 0. -1.
        -11    1    1    2    0    0 -0.25070056823E+02  0.10336957742E+02 -0.29317730437E+01  0.27275552013E+02  0.00000000000E+00 0.  1.
         11    1    1    2    0    0  0.69260639589E+02  0.22920340736E+01  0.43662667762E+02  0.81906765120E+02  0.00000000000E+00 0. -1.
</event>
<event>
 7    1  0.2334784E-009  0.1010876E+03  0.7561462E-02  0.1278025E+00
          1   -1    0    0  501    0  0.00000000000E+00  0.00000000000E+00  0.13134113042E+04  0.13134113042E+04  0.00000000000E+00 0. -1.
         -1   -1    0    0    0  501 -0.00000000000E+00 -0.00000000000E+00 -0.15034081792E+02  0.15034081792E+02  0.00000000000E+00 0.  1.
         25    2    1    2    0    0  0.58730431841E+02 -0.21806454238E+02  0.10198804979E+04  0.10294307851E+04  0.12508687481E+03 0.  0.
          5    1    3    3  502    0 -0.14115678824E+02  0.14935037721E+02  0.66250059452E+03  0.66283242066E+03  0.41800000000E+01 0. -1.
         -5    1    3    3    0  502  0.72846110665E+02 -0.36741491959E+02  0.35737990333E+03  0.36659836440E+03  0.41800000000E+01 0. -1.
        -11    1    1    2    0    0 -0.73709016899E+02  0.80413645953E+00  0.24970012716E+03  0.26035325869E+03  0.00000000000E+00 0. -1.
         11    1    1    2    0    0  0.14978585058E+02  0.21002317779E+02  0.28796597388E+02  0.38661342237E+02  0.00000000000E+00 0.  1.
</event>
<event>
 7    1  0.2334784E-009  0.7344733E+02  0.7561462E-02  0.1348748E+00
         -4   -1    0    0    0  501 -0.00000000000E+00  0.00000000000E+00  0.90417183058E+02  0.90417183058E+02  0.00000000000E+00 0.  1.
          4   -1    0    0  501    0  0.00000000000E+00 -0.00000000000E+00 -0.13023009695E+03  0.13023009695E+03  0.00000000000E+00 0. -1.
         25    2    1    2    0    0 -0.11464834229E+02 -0.88633876265E+01 -0.74192236694E+01  0.12614129208E+03  0.12508628472E+03 0.  0.
          5    1    3    3  502    0 -0.26874136712E+02  0.47138762133E+02  0.24557132205E+02  0.59706006914E+02  0.41800000000E+01 0. -1.
         -5    1    3    3    0  502  0.15409302482E+02 -0.56002149760E+02 -0.31976355874E+02  0.66435285171E+02  0.41800000000E+01 0. -1.
        -11    1    1    2    0    0 -0.28329783589E+01  0.17371652439E+02  0.27330409853E+02  0.32507712586E+02  0.00000000000E+00 0.  1.
         11    1    1    2    0    0  0.14297812588E+02 -0.85082648124E+01 -0.59724100076E+02  0.61998275338E+02  0.00000000000E+00 0. -1.
</event>
<event>
 7    1  0.2334784E-009  0.1168104E+03  0.7561462E-02  0.1248454E+00
         -2   -1    0    0    0  501 -0.00000000000E+00  0.00000000000E+00  0.21983137983E+02  0.21983137983E+02  0.00000000000E+00 0.  1.
          2   -1    0    0  501    0  0.00000000000E+00 -0.00000000000E+00 -0.96242963042E+03  0.96242963042E+03  0.00000000000E+00 0. -1.
         25    2    1    2    0    0 -0.40096475499E+02  0.83353307907E+02 -0.45013701112E+03  0.47626314488E+03  0.12509097930E+03 0.  0.
          5    1    3    3  502    0 -0.50592356391E+02  0.77911420110E+02 -0.45377580792E+03  0.46320592846E+03  0.41800000000E+01 0. -1.
         -5    1    3    3    0  502  0.10495880893E+02  0.54418877970E+01  0.36387967967E+01  0.13057216420E+02  0.41800000000E+01 0. -1.
        -11    1    1    2    0    0  0.34912426315E+02 -0.10248510816E+03 -0.45452594355E+03  0.46724287931E+03  0.00000000000E+00 0. -1.
         11    1    1    2    0    0  0.51840491840E+01  0.19131800257E+02 -0.35783537771E+02  0.40906744217E+02  0.00000000000E+00 0.  1.
</event>
<event>
 7    1  0.2334784E-009  0.1098834E+03  0.7561462E-02  0.1260786E+00
         -1   -1    0    0    0  501 -0.00000000000E+00  0.00000000000E+00  0.15591921099E+02  0.15591921099E+02  0.00000000000E+00 0.  1.
          1   -1    0    0  501    0  0.00000000000E+00 -0.00000000000E+00 -0.12253669468E+04  0.12253669468E+04  0.00000000000E+00 0. -1.
         25    2    1    2    0    0  0.58734148159E+02 -0.73572144478E+01 -0.90906975319E+03  0.91954309089E+03  0.12509137088E+03 0.  0.
          5    1    3    3  502    0  0.36810307521E+02 -0.57861633238E+02 -0.29051410701E+03  0.29852786489E+03  0.41800000000E+01 0.  1.
         -5    1    3    3    0  502  0.21923840638E+02  0.50504418790E+02 -0.61855564618E+03  0.62101522600E+03  0.41800000000E+01 0.  1.
        -11    1    1    2    0    0 -0.18759543995E+02  0.40036013582E+02 -0.56140550588E+02  0.71460228762E+02  0.00000000000E+00 0.  1.
         11    1    1    2    0    0 -0.39974604164E+02 -0.32678799134E+02 -0.24456472190E+03  0.24995554823E+03  0.00000000000E+00 0. -1.
</event>
<event>
 7    1  0.2334784E-009  0.1058446E+03  0.7561462E-02  0.1268464E+00
         -2   -1    0    0    0  501 -0.00000000000E+00  0.00000000000E+00  0.34329048317E+02  0.34329048317E+02  0.00000000000E+00 0.  1.
          2   -1    0    0  501    0  0.00000000000E+00 -0.00000000000E+00 -0.33521046652E+03  0.33521046652E+03  0.00000000000E+00 0. -1.
         25    2    1    2    0    0  0.32512691644E+00 -0.67927502791E+01 -0.16484408477E+03  0.20704085319E+03  0.12508435331E+03 0.  0.
          5    1    3    3  502    0  0.41384519114E+02 -0.49982853800E+02 -0.95153678021E+02  0.11525041838E+03  0.41800000000E+01 0.  1.
         -5    1    3    3    0  502 -0.41059392198E+02  0.43190103521E+02 -0.69690406750E+02  0.91790434811E+02  0.41800000000E+01 0.  1.
        -11    1    1    2    0    0 -0.21208737022E+02  0.41392805496E+02 -0.89493464987E+02  0.10085759837E+03  0.00000000000E+00 0. -1.
         11    1    1    2    0    0  0.20883610106E+02 -0.34600055217E+02 -0.46543868443E+02  0.61641063275E+02  0.00000000000E+00 0.  1.
</event>
<event>
 7    1  0.2334784E-009  0.8332318E+02  0.7561462E-02  0.1319877E+00
         -2   -1    0    0    0  501 -0.00000000000E+00  0.00000000000E+00  0.14938123719E+03  0.14938123719E+03  0.00000000000E+00 0.  1.
          2   -1    0    0  501    0  0.00000000000E+00 -0.00000000000E+00 -0.95450429990E+02  0.95450429990E+02  0.00000000000E+00 0. -1.
         25    2    1    2    0    0 -0.19487799932E+02 -0.26786941874E+02  0.35817395168E+02  0.13426506384E+03  0.12508759719E+03 0.  0.
          5    1    3    3  502    0  0.20056223939E+02 -0.18316115553E+02 -0.39826472291E+02  0.48387524248E+02  0.41800000000E+01 0.  1.
         -5    1    3    3    0  502 -0.39544023871E+02 -0.84708263207E+01  0.75643867460E+02  0.85877539594E+02  0.41800000000E+01 0.  1.
        -11    1    1    2    0    0 -0.20367588037E+02  0.48869970539E+02 -0.14070297044E+02  0.54782167918E+02  0.00000000000E+00 0. -1.
         11    1    1    2    0    0  0.39855387969E+02 -0.22083028665E+02  0.32183709075E+02  0.55784435418E+02  0.00000000000E+00 0.  1.
</event>
<event>
 6    1  0.2334784E-009  0.1059290E+03  0.7561462E-02  0.1268300E+00
         -2   -1    0    0    0  501 -0.00000000000E+00  0.00000000000E+00  0.29523468385E+02  0.29523468385E+02  0.00000000000E+00 0. -1.
          2   -1    0    0  501    0  0.00000000000E+00 -0.00000000000E+00 -0.75505096411E+03  0.75505096411E+03  0.00000000000E+00 0.  1.
          5    1    1    2  502    0 -0.99899407794E+02 -0.22379748955E+02 -0.27213001984E+03  0.29077992526E+03  0.41800000000E+01 0. -1.
         -5    1    1    2    0  502  0.22450343159E+02 -0.16558717686E+01 -0.28674266395E+03  0.28765532769E+03  0.41800000000E+01 0. -1.
        -11    1    1    2    0    0  0.52681520421E+02  0.30539998876E+02 -0.31459372935E+02  0.68539961122E+02  0.00000000000E+00 0. -1.
         11    1    1    2    0    0  0.24767544214E+02 -0.65043781523E+01 -0.13519543901E+03  0.13759921843E+03  0.00000000000E+00 0.  1.
</event>
<event>
 7    1  0.2334784E-009  0.4106339E+03  0.7561462E-02  0.1040158E+00
          2   -1    0    0  501    0  0.00000000000E+00  0.00000000000E+00  0.25329918838E+04  0.25329918838E+04  0.00000000000E+00 0. -1.
         -2   -1    0    0    0  501 -0.00000000000E+00 -0.00000000000E+00 -0.81241723959E+02  0.81241723959E+02  0.00000000000E+00 0.  1.
         25    2    1    2    0    0 -0.39655382766E+03  0.72763319950E+02  0.72721016953E+03  0.84085180631E+03  0.12509072924E+03 0.  0.
          5    1    3    3  502    0 -0.41279710380E+02  0.28451136400E+02  0.34266353220E+02  0.60869836656E+02  0.41800000000E+01 0. -1.
         -5    1    3    3    0  502 -0.35527411728E+03  0.44312183550E+02  0.69294381631E+03  0.77998196965E+03  0.41800000000E+01 0. -1.
        -11    1    1    2    0    0  0.17579764855E+03  0.12538686219E+02  0.77616320025E+03  0.79592169546E+03  0.00000000000E+00 0. -1.
         11    1    1    2    0    0  0.22075617911E+03 -0.85302006170E+02  0.94837679006E+03  0.97746010598E+03  0.00000000000E+00 0.  1.
</event>
<event>
 7    1  0.2334784E-009  0.1353752E+03  0.7561462E-02  0.1219691E+00
         -1   -1    0    0    0  501 -0.00000000000E+00  0.00000000000E+00  0.25588134486E+02  0.25588134486E+02  0.00000000000E+00 0.  1.
          1   -1    0    0  501    0  0.00000000000E+00 -0.00000000000E+00 -0.80838709924E+03  0.80838709924E+03  0.00000000000E+00 0. -1.
         25    2    1    2    0    0  0.52046377195E+02 -0.76269173142E+02 -0.36798832416E+03  0.39948573226E+03  0.12509049289E+03 0.  0.
          5    1    3    3  502    0  0.52162906588E+02  0.18795104066E+02 -0.18583766161E+03  0.19397766272E+03  0.41800000000E+01 0.  1.
         -5    1    3    3    0  502 -0.11652939331E+00 -0.95064277208E+02 -0.18215066255E+03  0.20550806955E+03  0.41800000000E+01 0.  1.
        -11    1    1    2    0    0 -0.49203497981E+02  0.58901436805E+01 -0.96514338847E+02  0.10849283667E+03  0.00000000000E+00 0.  1.
         11    1    1    2    0    0 -0.28428792140E+01  0.70379029461E+02 -0.31829630174E+03  0.32599666479E+03  0.00000000000E+00 0. -1.
</event>
<event>
 7    1  0.2334784E-009  0.1144660E+03  0.7561462E-02  0.1252516E+00
         -4   -1    0    0    0  501 -0.00000000000E+00  0.00000000000E+00  0.31467649225E+02  0.31467649225E+02  0.00000000000E+00 0.  1.
          4   -1    0    0  501    0  0.00000000000E+00 -0.00000000000E+00 -0.45521413233E+03  0.45521413233E+03  0.00000000000E+00 0. -1.
         25    2    1    2    0    0 -0.46959715760E+02  0.51739932272E+01 -0.21449917629E+03  0.25276276890E+03  0.12508851107E+03 0.  0.
          5    1    3    3  502    0 -0.87244011050E+02 -0.11140957738E+02 -0.16285235977E+03  0.18513239016E+03  0.41800000000E+01 0. -1.
         -5    1    3    3    0  502  0.40284295290E+02  0.16314950965E+02 -0.51646816521E+02  0.67630378742E+02  0.41800000000E+01 0. -1.
        -11    1    1    2    0    0  0.32277819891E+02  0.39024684718E+02 -0.65375127755E+02  0.82696378417E+02  0.00000000000E+00 0.  1.
         11    1    1    2    0    0  0.14681895869E+02 -0.44198677945E+02 -0.14387217906E+03  0.15122263424E+03  0.00000000000E+00 0. -1.
</event>
<event>
 7    1  0.2334784E-009  0.9373496E+02  0.7561462E-02  0.1294051E+00
          3   -1    0    0  501    0  0.00000000000E+00  0.00000000000E+00  0.16551824547E+04  0.16551824547E+04  0.00000000000E+00 0. -1.
         -3   -1    0    0    0  501 -0.00000000000E+00 -0.00000000000E+00 -0.11626287239E+02  0.11626287239E+02  0.00000000000E+00 0.  1.
         25    2    1    2    0    0 -0.21061442729E+02  0.67218988351E+02  0.11781562709E+04  0.11868699779E+04  0.12508464781E+03 0.  0.
          5    1    3    3  502    0 -0.15229261560E+02  0.63756139508E+02  0.24418461457E+03  0.25286433937E+03  0.41800000000E+01 0.  1.
         -5    1    3    3    0  502 -0.58321811688E+01  0.34628488434E+01  0.93397165629E+03  0.93400563853E+03  0.41800000000E+01 0.  1.
        -11    1    1    2    0    0  0.46808591601E+02 -0.57303203057E+01  0.25181835510E+03  0.25619594998E+03  0.00000000000E+00 0. -1.
         11    1    1    2    0    0 -0.25747148872E+02 -0.61488668045E+02  0.21358154150E+03  0.22374281406E+03  0.00000000000E+00 0.  1.
</event>
<event>
 7    1  0.2334784E-009  0.1414135E+03  0.7561462E-02  0.1211440E+00
          1   -1    0    0  501    0  0.00000000000E+00  0.00000000000E+00  0.39451561346E+03  0.39451561346E+03  0.00000000000E+00 0. -1.
         -1   -1    0    0    0  501 -0.00000000000E+00 -0.00000000000E+00 -0.69273364050E+02  0.69273364050E+02  0.00000000000E+00 0.  1.
         25    2    1    2    0    0  0.76507335014E+02 -0.85766812854E+02  0.11190209916E+03  0.20341780150E+03  0.12508958260E+03 0.  0.
          5    1    3    3  502    0 -0.16231436184E+02 -0.57810973748E+02  0.82466521224E+02  0.10209685465E+03  0.41800000000E+01 0.  1.
         -5    1    3    3    0  502  0.92738771199E+02 -0.27955839107E+02  0.29435577932E+02  0.10132094686E+03  0.41800000000E+01 0.  1.
        -11    1    1    2    0    0 -0.57874546994E+02  0.89595646460E+02  0.10256406944E+03  0.14797375238E+03  0.00000000000E+00 0.  1.
         11    1    1    2    0    0 -0.18632788020E+02 -0.38288336053E+01  0.11077608082E+03  0.11239742363E+03  0.00000000000E+00 0. -1.
</event>
<event>
 7    1  0.2334784E-009  0.1323627E+03  0.7561462E-02  0.1223991E+00
          1   -1    0    0  501    0  0.00000000000E+00  0.00000000000E+00  0.10628861215E+03  0.10628861215E+03  0.00000000000E+00 0. -1.
         -1   -1    0    0    0  501 -0.00000000000E+00 -0.00000000000E+00 -0.22922916805E+03  0.22922916805E+03  0.00000000000E+00 0.  1.
         25    2    1    2    0    0  0.67336050998E+02 -0.72762295950E+02 -0.20302199193E+02  0.16089837561E+03  0.12509041733E+03 0.  0.
          5    1    3    3  502    0  0.34528821001E+02  0.20274557841E+02  0.29882083087E+02  0.50136897241E+02  0.41800000000E+01 0.  1.
         -5    1    3    3    0  502  0.32807229997E+02 -0.93036853791E+02 -0.50184282280E+02  0.11076147837E+03  0.41800000000E+01 0.  1.
        -11    1    1    2    0    0 -0.84188535141E+02  0.51872283910E+02 -0.10885966732E+03  0.14706757106E+03  0.00000000000E+00 0.  1.
         11    1    1    2    0    0  0.16852484143E+02  0.20890012040E+02  0.62213106125E+01  0.27551833525E+02  0.00000000000E+00 0. -1.
</event>
<event>
 7    1  0.2334784E-009  0.1098287E+03  0.7561462E-02  0.1260887E+00
         -2   -1    0    0    0  501 -0.00000000000E+00  0.00000000000E+00  0.56198818207E+02  0.56198818207E+02  0.00000000000E+00 0. -1.
          2   -1    0    0  501    0  0.00000000000E+00 -0.00000000000E+00 -0.31494877596E+03  0.31494877596E+03  0.00000000000E+00 0.  1.
         25    2    1    2    0    0 -0.33999587865E+02 -0.64580828384E+02 -0.12443111296E+03  0.19094939265E+03  0.12510760692E+03 0.  0.
          5    1    3    3  502    0  0.26321974416E+02 -0.36956084004E+02  0.46046126882E+01  0.45795996988E+02  0.41800000000E+01 0. -1.
         -5    1    3    3    0  502 -0.60321562281E+02 -0.27624744380E+02 -0.12903572565E+03  0.14515339566E+03  0.41800000000E+01 0. -1.
        -11    1    1    2    0    0  0.15780472121E+02  0.81342547221E+02 -0.61222906815E+02  0.10302367499E+03  0.00000000000E+00 0. -1.
         11    1    1    2    0    0  0.18219115744E+02 -0.16761718837E+02 -0.73095937982E+02  0.77174526538E+02  0.00000000000E+00 0.  1.
</event>
<event>
 7    1  0.2334784E-009  0.1208429E+03  0.7561462E-02  0.1241713E+00
          1   -1    0    0  501    0  0.00000000000E+00  0.00000000000E+00  0.10637203055E+03  0.10637203055E+03  0.00000000000E+00 0. -1.
         -1   -1    0    0    0  501 -0.00000000000E+00 -0.00000000000E+00 -0.19451853997E+03  0.19451853997E+03  0.00000000000E+00 0.  1.
         25    2    1    2    0    0 -0.24231797640E+01 -0.79566262569E+02 -0.99931041911E+02  0.17880240685E+03  0.12508967031E+03 0.  0.
          5    1    3    3  502    0  0.23089929562E+02  0.23498855899E+02 -0.53218394130E+02  0.62729665626E+02  0.41800000000E+01 0. -1.
         -5    1    3    3    0  502 -0.25513109326E+02 -0.10306511847E+03 -0.46712647781E+02  0.11607274122E+03  0.41800000000E+01 0. -1.
        -11    1    1    2    0    0  0.21522507675E+02  0.11968521658E+01 -0.25360154945E+02  0.33283453104E+02  0.00000000000E+00 0.  1.
         11    1    1    2    0    0 -0.19099327911E+02  0.78369410403E+02  0.37144687433E+02  0.88804710563E+02  0.00000000000E+00 0. -1.
</event>
<event>
 7    1  0.2864309E-009  0.1082909E+03  0.7561462E-02  0.1263768E+00
          2   -1    0    0  501    0  0.00000000000E+00  0.00000000000E+00  0.69771741506E+03  0.69771741506E+03  0.00000000000E+00 0. -1.
         -2   -1    0    0    0  501 -0.00000000000E+00 -0.00000000000E+00 -0.41252623457E+02  0.41252623457E+02  0.00000000000E+00 0.  1.
         25    2    1    2    0    0  0.69409374204E+02  0.34973093096E+02  0.57547515059E+03  0.59402014880E+03  0.12509000666E+03 0.  0.
          5    1    3    3  502    0  0.53719283936E+01 -0.17727247724E+02  0.39390186866E+03  0.39435931263E+03  0.41800000000E+01 0.  1.
         -5    1    3    3    0  502  0.64037445810E+02  0.52700340820E+02  0.18157328193E+03  0.19966083617E+03  0.41800000000E+01 0.  1.
        -11    1    1    2    0    0 -0.19437821978E+02  0.28047353413E+02  0.45912263618E+02  0.57205060154E+02  0.00000000000E+00 0. -1.
         11    1    1    2    0    0 -0.49971552226E+02 -0.63020446510E+02  0.35077377396E+02  0.87744829563E+02  0.00000000000E+00 0.  1.
</event>
<event>
 7    1  0.2334784E-009  0.1149508E+03  0.7561462E-02  0.1251667E+00
         -3   -1    0    0    0  501 -0.00000000000E+00  0.00000000000E+00  0.29524466944E+02  0.29524466944E+02  0.00000000000E+00 0.  1.
          3   -1    0    0  501    0  0.00000000000E+00 -0.00000000000E+00 -0.57525356659E+03  0.57525356659E+03  0.00000000000E+00 0. -1.
         25    2    1    2    0    0 -0.39480448355E+02 -0.44797413675E+02 -0.37438674227E+03  0.39922205549E+03  0.12508917910E+03 0.  0.
          5    1    3    3  502    0  0.27533467193E+02 -0.63120999735E+02 -0.18303999476E+03  0.19561049181E+03  0.41800000000E+01 0.  1.
         -5    1    3    3    0  502 -0.67013915548E+02  0.18323586060E+02 -0.19134674751E+03  0.20361156368E+03  0.41800000000E+01 0.  1.
        -11    1    1    2    0    0  0.54224390239E+02  0.12266734873E+02 -0.15788802389E+03  0.16738992015E+03  0.00000000000E+00 0. -1.
         11    1    1    2    0    0 -0.14743941884E+02  0.32530678803E+02 -0.13454333496E+02  0.38166057898E+02  0.00000000000E+00 0.  1.
</event>
<event>
 6    1  0.2334784E-009  0.8485285E+02  0.7561462E-02  0.1315818E+00
         -2   -1    0    0    0  501 -0.00000000000E+00  0.00000000000E+00  0.41080675786E+02  0.41080675786E+02  0.00000000000E+00 0.  1.
          2   -1    0    0  501    0  0.00000000000E+00 -0.00000000000E+00 -0.30166753464E+03  0.30166753464E+03  0.00000000000E+00 0. -1.
          5    1    1    2  502    0 -0.14993329153E+02 -0.63047425580E+02 -0.13065984558E+03  0.14590834602E+03  0.41800000000E+01 0.  1.
         -5    1    1    2    0  502  0.27523597594E+02  0.46641514174E+02 -0.44470369901E+02  0.70200181397E+02  0.41800000000E+01 0.  1.
        -11    1    1    2    0    0 -0.21918974182E+02 -0.87465613991E+01  0.11344273102E+02  0.26184657678E+02  0.00000000000E+00 0.  1.
         11    1    1    2    0    0  0.93887057420E+01  0.25152472804E+02 -0.96800916477E+02  0.10045502533E+03  0.00000000000E+00 0. -1.
</event>
<event>
 7    1  0.2334784E-009  0.9465141E+02  0.7561462E-02  0.1291963E+00
          2   -1    0    0  501    0  0.00000000000E+00  0.00000000000E+00  0.39821786587E+03  0.39821786587E+03  0.00000000000E+00 0. -1.
         -2   -1    0    0    0  501 -0.00000000000E+00 -0.00000000000E+00 -0.34202829667E+02  0.34202829667E+02  0.00000000000E+00 0.  1.
         25    2    1    2    0    0  0.36629372260E+02  0.78849199510E+01  0.24622407690E+03  0.27871074918E+03  0.12509797274E+03 0.  0.
          5    1    3    3  502    0 -0.37149291217E+02 -0.64425178469E+01  0.15916151145E+03  0.16361978792E+03  0.41800000000E+01 0.  1.
         -5    1    3    3    0  502  0.73778663476E+02  0.14327437798E+02  0.87062565457E+02  0.11509096125E+03  0.41800000000E+01 0.  1.
        -11    1    1    2    0    0 -0.54914860741E+02 -0.14249432098E+02  0.30728809879E+02  0.64520911353E+02  0.00000000000E+00 0.  1.
         11    1    1    2    0    0  0.18285488481E+02  0.63645121467E+01  0.87062149421E+02  0.89189035008E+02  0.00000000000E+00 0. -1.
</event>
<event>
 7    1  0.2334784E-009  0.2025625E+03  0.7561462E-02  0.1147595E+00
          1   -1    0    0  501    0  0.00000000000E+00  0.00000000000E+00  0.37014583178E+03  0.37014583178E+03  0.00000000000E+00 0. -1.
         -1   -1    0    0    0  501 -0.00000000000E+00 -0.00000000000E+00 -0.12999146126E+03  0.12999146126E+03  0.00000000000E+00 0.  1.
         25    2    1    2    0    0  0.60962116003E+02  0.18218581316E+03  0.12717494085E+03  0.26216330976E+03  0.12509230711E+03 0.  0.
          5    1    3    3  502    0 -0.13046220477E+01  0.13084878500E+03  0.12546806601E+03  0.18133619210E+03  0.41800000000E+01 0. -1.
         -5    1    3    3    0  502  0.62266738051E+02  0.51337028160E+02  0.17068748411E+01  0.80827117662E+02  0.41800000000E+01 0. -1.
        -11    1    1    2    0    0 -0.10225928366E+02 -0.63503381080E+02 -0.30805609390E+01  0.64395177422E+02  0.00000000000E+00 0.  1.
         11    1    1    2    0    0 -0.50736187637E+02 -0.11868243208E+03  0.11605999061E+03  0.17357880585E+03  0.00000000000E+00 0. -1.
</event>
<event>
 7    1  0.2334784E-009  0.9996175E+02  0.7561462E-02  0.1280376E+00
          2   -1    0    0  501    0  0.00000000000E+00  0.00000000000E+00  0.12477249682E+03  0.12477249682E+03  0.00000000000E+00 0.  1.
         -2   -1    0    0    0  501 -0.00000000000E+00 -0.00000000000E+00 -0.18197668271E+03  0.18197668271E+03  0.00000000000E+00 0. -1.
         25    2    1    2    0    0 -0.68348498142E+02  0.48599963134E+02 -0.93582513737E+02  0.17730885695E+03  0.12508904932E+03 0.  0.
          5    1    3    3  502    0 -0.17709414691E+02  0.64839754764E+00 -0.10495633338E+03  0.10652393208E+03  0.41800000000E+01 0.  1.
         -5    1    3    3    0  502 -0.50639083451E+02  0.47951565586E+02  0.11373819647E+02  0.70784924866E+02  0.41800000000E+01 0.  1.
        -11    1    1    2    0    0  0.80559737794E+02 -0.55498003713E+02  0.50022636063E+02  0.10987339937E+03  0.00000000000E+00 0.  1.
         11    1    1    2    0    0 -0.12211239653E+02  0.68980405795E+01 -0.13644308212E+02  0.19566923220E+02  0.00000000000E+00 0. -1.
</event>
<event>
 7    1  0.2334784E-009  0.1580365E+03  0.7561462E-02  0.1190932E+00
         -3   -1    0    0    0  501 -0.00000000000E+00  0.00000000000E+00  0.44476039687E+03  0.44476039687E+03  0.00000000000E+00 0.  1.
          3   -1    0    0  501    0  0.00000000000E+00 -0.00000000000E+00 -0.10616841103E+03  0.10616841103E+03  0.00000000000E+00 0. -1.
         25    2    1    2    0    0 -0.11927980767E+03  0.27178928771E+02 -0.52612312719E+01  0.17505000436E+03  0.12509379196E+03 0.  0.
          5    1    3    3  502    0 -0.70683702660E+02 -0.40122933853E+02 -0.32424258705E+02  0.87606167565E+02  0.41800000000E+01 0. -1.
         -5    1    3    3    0  502 -0.48596105005E+02  0.67301862624E+02  0.27163027434E+02  0.87443836796E+02  0.41800000000E+01 0. -1.
        -11    1    1    2    0    0  0.15239657438E+02  0.29418764289E+02  0.66536229189E+02  0.74328868186E+02  0.00000000000E+00 0.  1.
         11    1    1    2    0    0  0.10404015023E+03 -0.56597693060E+02  0.27731698792E+03  0.30154993535E+03  0.00000000000E+00 0. -1.
</event>
<event>
 7    1  0.2334784E-009  0.1697724E+03  0.7561462E-02  0.1178085E+00
          1   -1    0    0  501    0  0.00000000000E+00  0.00000000000E+00  0.13408393134E+03  0.13408393134E+03  0.00000000000E+00 0. -1.
         -1   -1    0    0    0  501 -0.00000000000E+00 -0.00000000000E+00 -0.27338853269E+03  0.27338853269E+03  0.00000000000E+00 0.  1.
         25    2    1    2    0    0  0.13829937215E+03 -0.52267356890E+02 -0.13022738780E+03  0.23337765011E+03  0.12508941644E+03 0.  0.
          5    1    3    3  502    0  0.41687044430E+02 -0.59199692716E+02 -0.19074207043E+01  0.72550147792E+02  0.41800000000E+01 0.  1.
         -5    1    3    3    0  502  0.96612327719E+02  0.69323358258E+01 -0.12831996709E+03  0.16082750232E+03  0.41800000000E+01 0.  1.
        -11    1    1    2    0    0 -0.54352146328E+02 -0.21369136603E+02  0.14027017145E+02  0.60062908850E+02  0.00000000000E+00 0. -1.
         11    1    1    2    0    0 -0.83947225821E+02  0.73636493493E+02 -0.23104230708E+02  0.11403190507E+03  0.00000000000E+00 0.  1.
</event>
<event>
 7    1  0.2334784E-009  0.1343500E+03  0.7561462E-02  0.1221140E+00
          1   -1    0    0  501    0  0.00000000000E+00  0.00000000000E+00  0.17888489842E+03  0.17888489842E+03  0.00000000000E+00 0. -1.
         -1   -1    0    0    0  501 -0.00000000000E+00 -0.00000000000E+00 -0.22660750236E+03  0.22660750236E+03  0.00000000000E+00 0.  1.
         25    2    1    2    0    0 -0.55161047696E+02  0.94595924015E+02  0.10822983718E+03  0.19837791472E+03  0.12509584073E+03 0.  0.
          5    1    3    3  502    0  0.25720656675E+02  0.66037060035E+02  0.16823733867E+02  0.72958590304E+02  0.41800000000E+01 0. -1.
         -5    1    3    3    0  502 -0.80881704370E+02  0.28558863980E+02  0.91406103316E+02  0.12541932442E+03  0.41800000000E+01 0. -1.
        -11    1    1    2    0    0  0.13907569018E+02 -0.46147905132E+02 -0.12954425837E+03  0.13821998589E+03  0.00000000000E+00 0.  1.
         11    1    1    2    0    0  0.41253478677E+02 -0.48448018884E+02 -0.26408182754E+02  0.68894500166E+02  0.00000000000E+00 0. -1.
</event>
<event>
 7    1  0.2334784E-009  0.1144275E+03  0.7561462E-02  0.1252584E+00
         -2   -1    0    0    0  501 -0.00000000000E+00  0.00000000000E+00  0.16667952822E+02  0.16667952822E+02  0.00000000000E+00 0.  1.
          2   -1    0    0  501    0  0.00000000000E+00 -0.00000000000E+00 -0.12029154532E+04  0.12029154532E+04  0.00000000000E+00 0. -1.
         25    2    1    2    0    0  0.64210801127E+02 -0.64716869758E+02 -0.65847198484E+03  0.67641743541E+03  0.12507554477E+03 0.  0.
          5    1    3    3  502    0  0.57778692763E+02 -0.26161991416E+02 -0.61309347444E+03  0.61637967839E+03  0.41800000000E+01 0.  1.
         -5    1    3    3    0  502  0.64321083648E+01 -0.38554878343E+02 -0.45378510398E+02  0.60037757020E+02  0.41800000000E+01 0.  1.
        -11    1    1    2    0    0  0.21480118972E+02  0.19883563288E+02 -0.83364055413E+02  0.88353366292E+02  0.00000000000E+00 0. -1.
         11    1    1    2    0    0 -0.85690920100E+02  0.44833306470E+02 -0.44441146011E+03  0.45481260431E+03  0.00000000000E+00 0.  1.
</event>
<event>
 7    1  0.2334784E-009  0.1953274E+03  0.7561462E-02  0.1153742E+00
          3   -1    0    0  501    0  0.00000000000E+00  0.00000000000E+00  0.13255121948E+04  0.13255121948E+04  0.00000000000E+00 0. -1.
         -3   -1    0    0    0  501 -0.00000000000E+00 -0.00000000000E+00 -0.52692779853E+02  0.52692779853E+02  0.00000000000E+00 0.  1.
         25    2    1    2    0    0 -0.18236853742E+03 -0.16678463493E+02  0.10611700578E+04  0.10840973483E+04  0.12509482118E+03 0.  0.
          5    1    3    3  502    0  0.37286397519E+01 -0.31071516643E+01  0.31074895843E+03  0.31081496861E+03  0.41800000000E+01 0. -1.
         -5    1    3    3    0  502 -0.18609717717E+03 -0.13571311829E+02  0.75042109939E+03  0.77328237965E+03  0.41800000000E+01 0. -1.
        -11    1    1    2    0    0  0.36092233199E+02 -0.26863225755E+02  0.20331044615E+02  0.49372396847E+02  0.00000000000E+00 0.  1.
         11    1    1    2    0    0  0.14627630422E+03  0.43541689249E+02  0.19131831249E+03  0.24473522953E+03  0.00000000000E+00 0. -1.
</event>
<event>
 7    1  0.2334784E-009  0.9748850E+02  0.7561462E-02  0.1285668E+00
         -1   -1    0    0    0  501 -0.00000000000E+00  0.00000000000E+00  0.12001924584E+02  0.12001924584E+02  0.00000000000E+00 0.  1.
          1   -1    0    0  501    0  0.00000000000E+00 -0.00000000000E+00 -0.14174136040E+04  0.14174136040E+04  0.00000000000E+00 0. -1.
         25    2    1    2    0    0 -0.24741230545E+02  0.68363189749E+02 -0.79135119952E+03  0.80446881498E+03  0.12509076339E+03 0.  0.
          5    1    3    3  502    0 -0.26452324229E+02  0.29987027804E+02 -0.60765536743E+02  0.72861993861E+02  0.41800000000E+01 0. -1.
         -5    1    3    3    0  502  0.17110936846E+01  0.38376161944E+02 -0.73058566278E+03  0.73160682111E+03  0.41800000000E+01 0. -1.
        -11    1    1    2    0    0 -0.24157850026E+02 -0.62346726828E+02 -0.35696949528E+03  0.36317755523E+03  0.00000000000E+00 0.  1.
         11    1    1    2    0    0  0.48899080571E+02 -0.60164629206E+01 -0.25709098467E+03  0.26176915843E+03  0.00000000000E+00 0. -1.
</event>
<event>
 7    1  0.2334784E-009  0.9827062E+02  0.7561462E-02  0.1283975E+00
          1   -1    0    0  501    0  0.00000000000E+00  0.00000000000E+00  0.83026464876E+03  0.83026464876E+03  0.00000000000E+00 0. -1.
         -1   -1    0    0    0  501 -0.00000000000E+00 -0.00000000000E+00 -0.18915612042E+02  0.18915612042E+02  0.00000000000E+00 0.  1.
         25    2    1    2    0    0  0.51487658650E+02  0.16753787574E+02  0.58979615898E+03  0.60534140571E+03  0.12508812867E+03 0.  0.
          5    1    3    3  502    0  0.67876520654E+02 -0.47732985718E+01  0.56272832797E+03  0.56684270299E+03  0.41800000000E+01 0. -1.
         -5    1    3    3    0  502 -0.16388862004E+02  0.21527086146E+02  0.27067831010E+02  0.38498702723E+02  0.41800000000E+01 0. -1.
        -11    1    1    2    0    0 -0.61659727709E+02 -0.41440702172E+02  0.17600383964E+03  0.19104084743E+03  0.00000000000E+00 0. -1.
         11    1    1    2    0    0  0.10172069060E+02  0.24686914598E+02  0.45549038102E+02  0.52798007664E+02  0.00000000000E+00 0.  1.
</event>
<event>
 7    1  0.2334784E-009  0.2015909E+03  0.7561462E-02  0.1148404E+00
          1   -1    0    0  501    0  0.00000000000E+00  0.00000000000E+00  0.17633942152E+03  0.17633942152E+03  0.00000000000E+00 0. -1.
         -1   -1    0    0    0  501 -0.00000000000E+00 -0.00000000000E+00 -0.27400001654E+03  0.27400001654E+03  0.00000000000E+00 0.  1.
         25    2    1    2    0    0 -0.17957086788E+03 -0.62764557391E+02 -0.55788196059E+02  0.23440644903E+03  0.12509586033E+03 0.  0.
          5    1    3    3  502    0 -0.18846742773E+03 -0.47896349660E+02 -0.74759463507E+02  0.20837581771E+03  0.41800000000E+01 0.  1.
         -5    1    3    3    0  502  0.88965598453E+01 -0.14868207731E+02  0.18971267448E+02  0.26030631318E+02  0.41800000000E+01 0.  1.
        -11    1    1    2    0    0  0.15301962335E+03  0.59170299986E+02 -0.68839339818E+02  0.17791847638E+03  0.00000000000E+00 0.  1.
         11    1    1    2    0    0  0.26551244529E+02  0.35942574045E+01  0.26966940858E+02  0.38014512644E+02  0.00000000000E+00 0. -1.
</event>
<event>
 7    1  0.2334784E-009  0.1070648E+03  0.7561462E-02  0.1266104E+00
          1   -1    0    0  501    0  0.00000000000E+00  0.00000000000E+00  0.44216722753E+02  0.44216722753E+02  0.00000000000E+00 0. -1.
         -1   -1    0    0    0  501 -0.00000000000E+00 -0.00000000000E+00 -0.38763665045E+03  0.38763665045E+03  0.00000000000E+00 0.  1.
         25    2    1    2    0    0 -0.90410852070E+01 -0.50306645328E+02 -0.27633060315E+03  0.30760032132E+03  0.12508739206E+03 0.  0.
          5    1    3    3  502    0 -0.54717357453E+02 -0.60673209443E+02 -0.12724587259E+03  0.15127528563E+03  0.41800000000E+01 0.  1.
         -5    1    3    3    0  502  0.45676272246E+02  0.10366564115E+02 -0.14908473056E+03  0.15632503569E+03  0.41800000000E+01 0.  1.
        -11    1    1    2    0    0 -0.20616139974E+02 -0.61589181228E+01 -0.55371956398E+02  0.59405480010E+02  0.00000000000E+00 0.  1.
         11    1    1    2    0    0  0.29657225181E+02  0.56465563451E+02 -0.11717368145E+02  0.64847571870E+02  0.00000000000E+00 0. -1.
</event>
<event>
 7    1  0.2334784E-009  0.8102279E+02  0.7561462E-02  0.1326174E+00
          2   -1    0    0  501    0  0.00000000000E+00  0.00000000000E+00  0.66007124487E+03  0.66007124487E+03  0.00000000000E+00 0.  1.
         -2   -1    0    0    0  501 -0.00000000000E+00 -0.00000000000E+00 -0.21328205829E+02  0.21328205829E+02  0.00000000000E+00 0. -1.
         25    2    1    2    0    0 -0.26427329755E+02  0.27463410068E+01  0.48139682503E+03  0.49809075257E+03  0.12508216699E+03 0.  0.
          5    1    3    3  502    0 -0.84675076065E+01  0.33206209917E+02  0.31336231167E+02  0.46623844177E+02  0.41800000000E+01 0. -1.
         -5    1    3    3    0  502 -0.17959822149E+02 -0.30459868910E+02  0.45006059387E+03  0.45146690840E+03  0.41800000000E+01 0. -1.
        -11    1    1    2    0    0 -0.15208863290E+02  0.33450486379E+02  0.44598138378E+02  0.57786144606E+02  0.00000000000E+00 0.  1.
         11    1    1    2    0    0  0.41636193045E+02 -0.36196827386E+02  0.11274807563E+03  0.12552255352E+03  0.00000000000E+00 0. -1.
</event>
<event>
 7    1  0.2334784E-009  0.1181396E+03  0.7561462E-02  0.1246198E+00
         -2   -1    0    0    0  501 -0.00000000000E+00  0.00000000000E+00  0.17877041434E+03  0.17877041434E+03  0.00000000000E+00 0.  1.
          2   -1    0    0  501    0  0.00000000000E+00 -0.00000000000E+00 -0.94561248948E+02  0.94561248948E+02  0.00000000000E+00 0. -1.
         25    2    1    2    0    0  0.45274042546E+02  0.52053720583E+02  0.24549223895E+02  0.14494509695E+03  0.12508832072E+03 0.  0.
          5    1    3    3  502    0 -0.42375237851E+02  0.27324751851E+02  0.17382634256E+02  0.53497020668E+02  0.41800000000E+01 0.  1.
         -5    1    3    3    0  502  0.87649280397E+02  0.24728968732E+02  0.71665896397E+01  0.91448076282E+02  0.41800000000E+01 0.  1.
        -11    1    1    2    0    0  0.79690618220E+01 -0.38854594916E+02 -0.88330017306E+01  0.40635051519E+02  0.00000000000E+00 0. -1.
         11    1    1    2    0    0 -0.53243104368E+02 -0.13199125667E+02  0.68492943223E+02  0.87751514815E+02  0.00000000000E+00 0.  1.
</event>
<event>
 7    1  0.2334784E-009  0.1139543E+03  0.7561462E-02  0.1253417E+00
          1   -1    0    0  501    0  0.00000000000E+00  0.00000000000E+00  0.19121317887E+03  0.19121317887E+03  0.00000000000E+00 0. -1.
         -1   -1    0    0    0  501 -0.00000000000E+00 -0.00000000000E+00 -0.78282397983E+02  0.78282397983E+02  0.00000000000E+00 0.  1.
         25    2    1    2    0    0 -0.41215026876E+02  0.39870695718E+02  0.57419017239E+02  0.14911155051E+03  0.12509580384E+03 0.  0.
          5    1    3    3  502    0  0.12106792957E+02  0.73229810910E+02  0.35410077166E+02  0.82343946994E+02  0.41800000000E+01 0. -1.
         -5    1    3    3    0  502 -0.53321819832E+02 -0.33359115192E+02  0.22008940073E+02  0.66767603519E+02  0.41800000000E+01 0. -1.
        -11    1    1    2    0    0  0.28461105063E+02 -0.60167844971E+02  0.78340386366E+01  0.67019222849E+02  0.00000000000E+00 0.  1.
         11    1    1    2    0    0  0.12753921812E+02  0.20297149253E+02  0.47677725006E+02  0.53364803486E+02  0.00000000000E+00 0. -1.
</event>
<event>
 7    1  0.2334784E-009  0.1992203E+03  0.7561462E-02  0.1150398E+00
         -2   -1    0    0    0  501 -0.00000000000E+00  0.00000000000E+00  0.36080818978E+02  0.36080818978E+02  0.00000000000E+00 0. -1.
          2   -1    0    0  501    0  0.00000000000E+00 -0.00000000000E+00 -0.11700367490E+04  0.11700367490E+04  0.00000000000E+00 0.  1.
         25    2    1    2    0    0  0.16906288593E+03  0.20486552231E+02 -0.49775590789E+03  0.54074947683E+03  0.12508834733E+03 0.  0.
          5    1    3    3  502    0  0.18537530127E+03  0.11091130836E+02 -0.47938900624E+03  0.51411896212E+03  0.41800000000E+01 0.  1.
         -5    1    3    3    0  502 -0.16312415349E+02  0.93954213954E+01 -0.18366901643E+02  0.26630514709E+02  0.41800000000E+01 0.  1.
        -11    1    1    2    0    0 -0.71930436672E+02 -0.54759077831E+02 -0.33797610743E+03  0.34985767609E+03  0.00000000000E+00 0.  1.
         11    1    1    2    0    0 -0.97132449254E+02  0.34272525600E+02 -0.29822391472E+03  0.31551041508E+03  0.00000000000E+00 0. -1.
</event>
<event>
 7    1  0.2334784E-009  0.1818647E+03  0.7561462E-02  0.1166010E+00
          1   -1    0    0  501    0  0.00000000000E+00  0.00000000000E+00  0.14051290786E+04  0.14051290786E+04  0.00000000000E+00 0. -1.
         -1   -1    0    0    0  501 -0.00000000000E+00 -0.00000000000E+00 -0.28268206967E+02  0.28268206967E+02  0.00000000000E+00 0.  1.
         25    2    1    2    0    0  0.57244325265E+02  0.14489147868E+03  0.93845240375E+03  0.95948457258E+03  0.12508907843E+03 0.  0.
          5    1    3    3  502    0  0.91908917450E+02  0.13521332464E+03  0.77285465282E+03  0.78996941653E+03  0.41800000000E+01 0.  1.
         -5    1    3    3    0  502 -0.34664592184E+02  0.96781540400E+01  0.16559775093E+03  0.16951515605E+03  0.41800000000E+01 0.  1.
        -11    1    1    2    0    0  0.73005028985E+01 -0.40978902885E+02  0.21702803166E+03  0.22098356127E+03  0.00000000000E+00 0.  1.
         11    1    1    2    0    0 -0.64544828164E+02 -0.10391257579E+03  0.22138043626E+03  0.25292915176E+03  0.00000000000E+00 0. -1.
</event>
<event>
 7    1  0.2334784E-009  0.2125665E+03  0.7561462E-02  0.1139550E+00
         -1   -1    0    0    0  501 -0.00000000000E+00  0.00000000000E+00  0.18383010121E+03  0.18383010121E+03  0.00000000000E+00 0.  1.
          1   -1    0    0  501    0  0.00000000000E+00 -0.00000000000E+00 -0.28072055645E+03  0.28072055645E+03  0.00000000000E+00 0. -1.
         25    2    1    2    0    0  0.11147582110E+03  0.15908211865E+03 -0.55955597997E+01  0.23110854823E+03  0.12508345858E+03 0.  0.
          5    1    3    3  502    0 -0.11280888429E+02  0.61980278842E+02 -0.34410178866E+02  0.71905119558E+02  0.41800000000E+01 0. -1.
         -5    1    3    3    0  502  0.12275670953E+03  0.97101839809E+02  0.28814619067E+02  0.15920342867E+03  0.41800000000E+01 0. -1.
        -11    1    1    2    0    0 -0.78210581820E+02 -0.53590156669E+02 -0.83326619918E+01  0.95174751149E+02  0.00000000000E+00 0. -1.
         11    1    1    2    0    0 -0.33265239282E+02 -0.10549196198E+03 -0.82962233444E+02  0.13826735828E+03  0.00000000000E+00 0.  1.
</event>
<event>
 7    1  0.2334784E-009  0.9592713E+02  0.7561462E-02  0.1289102E+00
          1   -1    0    0  501    0  0.00000000000E+00  0.00000000000E+00  0.28629763690E+03  0.28629763690E+03  0.00000000000E+00 0. -1.
         -1   -1    0    0    0  501 -0.00000000000E+00 -0.00000000000E+00 -0.54563948941E+02  0.54563948941E+02  0.00000000000E+00 0.  1.
         25    2    1    2    0    0 -0.39232509177E+02  0.22347327906E+02  0.72328315683E+02  0.15138229690E+03  0.12508645699E+03 0.  0.
          5    1    3    3  502    0  0.38271896299E+02  0.36484180302E+02  0.19872169477E+02  0.56641053825E+02  0.41800000000E+01 0. -1.
         -5    1    3    3    0  502 -0.77504405476E+02 -0.14136852396E+02  0.52456146206E+02  0.94741243071E+02  0.41800000000E+01 0. -1.
        -11    1    1    2    0    0 -0.79435064583E+01 -0.61310215741E+01 -0.92216352079E+01  0.13628179493E+02  0.00000000000E+00 0.  1.
         11    1    1    2    0    0  0.47176015636E+02 -0.16216306332E+02  0.16862700748E+03  0.17585110945E+03  0.00000000000E+00 0. -1.
</event>
<event>
 7    1  0.2334784E-009  0.1423935E+03  0.7561462E-02  0.1210144E+00
          2   -1    0    0  501    0  0.00000000000E+00  0.00000000000E+00  0.67336685595E+02  0.67336685595E+02  0.00000000000E+00 0. -1.
         -2   -1    0    0    0  501 -0.00000000000E+00 -0.00000000000E+00 -0.35174660805E+03  0.35174660805E+03  0.00000000000E+00 0.  1.
         25    2    1    2    0    0  0.84005383358E+02 -0.42097738513E+02 -0.22946552273E+03  0.27772524065E+03  0.12509100346E+03 0.  0.
          5    1    3    3  502    0  0.79417892127E+02  0.29193477671E+02 -0.13088034438E+03  0.15590573329E+03  0.41800000000E+01 0.  1.
         -5    1    3    3    0  502  0.45874912316E+01 -0.71291216184E+02 -0.98585178351E+02  0.12181950735E+03  0.41800000000E+01 0.  1.
        -11    1    1    2    0    0  0.46208402487E+01  0.39578546064E+02 -0.27968157872E+02  0.48682967534E+02  0.00000000000E+00 0.  1.
         11    1    1    2    0    0 -0.88626223607E+02  0.25191924489E+01 -0.26976241848E+02  0.92675085464E+02  0.00000000000E+00 0. -1.
</event>
<event>
 7    1  0.2334784E-009  0.1049094E+03  0.7561462E-02  0.1270298E+00
          1   -1    0    0  501    0  0.00000000000E+00  0.00000000000E+00  0.43187672839E+02  0.43187672839E+02  0.00000000000E+00 0. -1.
         -1   -1    0    0    0  501 -0.00000000000E+00 -0.00000000000E+00 -0.51730615483E+03  0.51730615483E+03  0.00000000000E+00 0.  1.
         25    2    1    2    0    0  0.20912747769E+02  0.16426875911E+02 -0.44662217514E+03  0.46457098013E+03  0.12509053914E+03 0.  0.
          5    1    3    3  502    0  0.67881509518E+02  0.19678226960E+02 -0.17350915218E+03  0.18739805292E+03  0.41800000000E+01 0. -1.
         -5    1    3    3    0  502 -0.46968761749E+02 -0.32513510484E+01 -0.27311302297E+03  0.27717292721E+03  0.41800000000E+01 0. -1.
        -11    1    1    2    0    0  0.20202729750E+02 -0.39672976857E+02 -0.10653706502E+02  0.45777689372E+02  0.00000000000E+00 0.  1.
         11    1    1    2    0    0 -0.41115477520E+02  0.23246100945E+02 -0.16842600347E+02  0.50145158164E+02  0.00000000000E+00 0. -1.
</event>
<event>
 7    1  0.2334784E-009  0.1451907E+03  0.7561462E-02  0.1206510E+00
         -2   -1    0    0    0  501 -0.00000000000E+00  0.00000000000E+00  0.60892662340E+02  0.60892662340E+02  0.00000000000E+00 0.  1.
          2   -1    0    0  501    0  0.00000000000E+00 -0.00000000000E+00 -0.57123089472E+03  0.57123089472E+03  0.00000000000E+00 0. -1.
         25    2    1    2    0    0 -0.60490483077E+02 -0.12928795533E+03 -0.18253043844E+03  0.26332161488E+03  0.12508572247E+03 0.  0.
          5    1    3    3  502    0 -0.43565519675E+02 -0.10069374845E+03 -0.19802162932E+03  0.22642266574E+03  0.41800000000E+01 0. -1.
         -5    1    3    3    0  502 -0.16924963402E+02 -0.28594206879E+02  0.15491190872E+02  0.36898949143E+02  0.41800000000E+01 0. -1.
        -11    1    1    2    0    0  0.57686408227E+02  0.85029581976E+02 -0.29838745848E+03  0.31558331211E+03  0.00000000000E+00 0. -1.
         11    1    1    2    0    0  0.28040748498E+01  0.44258373357E+02 -0.29420335453E+02  0.53218630066E+02  0.00000000000E+00 0.  1.
</event>
<event>
 7    1  0.2334784E-009  0.9952004E+02  0.7561462E-02  0.1281308E+00
          2   -1    0    0  501    0  0.00000000000E+00  0.00000000000E+00  0.24469991342E+03  0.24469991342E+03  0.00000000000E+00 0. -1.
         -2   -1    0    0    0  501 -0.00000000000E+00 -0.00000000000E+00 -0.61814667585E+02  0.61814667585E+02  0.00000000000E+00 0.  1.
         25    2    1    2    0    0  0.38348110600E+02  0.26577399958E+02  0.15325199554E+03  0.20325380333E+03  0.12509595780E+03 0.  0.
          5    1    3    3  502    0  0.13321549589E+02 -0.33459766522E+02  0.12852741112E+03  0.13354320450E+03  0.41800000000E+01 0.  1.
         -5    1    3    3    0  502  0.25026561011E+02  0.60037166480E+02  0.24724584423E+02  0.69710598835E+02  0.41800000000E+01 0.  1.
        -11    1    1    2    0    0  0.58408121308E+01  0.27303815520E+02  0.10465817567E+01  0.27941166075E+02  0.00000000000E+00 0.  1.
         11    1    1    2    0    0 -0.44188922731E+02 -0.53881215478E+02  0.28586668542E+02  0.75319611601E+02  0.00000000000E+00 0. -1.
</event>
<event>
 7    1  0.2334784E-009  0.1165486E+03  0.7561462E-02  0.1248902E+00
          1   -1    0    0  501    0  0.00000000000E+00  0.00000000000E+00  0.12923298416E+03  0.12923298416E+03  0.00000000000E+00 0.  1.
         -1   -1    0    0    0  501 -0.00000000000E+00 -0.00000000000E+00 -0.17694737676E+03  0.17694737676E+03  0.00000000000E+00 0. -1.
         25    2    1    2    0    0  0.13795926798E+02  0.10397660624E+03 -0.31695621275E+02  0.16629412110E+03  0.12509060741E+03 0.  0.
          5    1    3    3  502    0 -0.17887397487E+02  0.78439517259E+02 -0.72597284559E+02  0.10844609252E+03  0.41800000000E+01 0.  1.
         -5    1    3    3    0  502  0.31683324285E+02  0.25537088984E+02  0.40901663283E+02  0.57848028583E+02  0.41800000000E+01 0.  1.
        -11    1    1    2    0    0  0.52156695983E+01 -0.83587747316E+02  0.27547263658E+02  0.88164428461E+02  0.00000000000E+00 0.  1.
         11    1    1    2    0    0 -0.19011596397E+02 -0.20388858927E+02 -0.43566034988E+02  0.51721811361E+02  0.00000000000E+00 0. -1.
</event>
<event>
 7    1  0.2334784E-009  0.1323882E+03  0.7561462E-02  0.1223955E+00
         -3   -1    0    0    0  501 -0.00000000000E+00  0.00000000000E+00  0.12470492686E+03  0.12470492686E+03  0.00000000000E+00 0.  1.
          3   -1    0    0  501    0  0.00000000000E+00 -0.00000000000E+00 -0.21017537675E+03  0.21017537675E+03  0.00000000000E+00 0. -1.
         25    2    1    2    0    0  0.58078440856E+02  0.85874547777E+02  0.16714103185E+02  0.16332178970E+03  0.12508837874E+03 0.  0.
          5    1    3    3  502    0 -0.23960765175E+02 -0.16077986014E+02 -0.76559662533E+01  0.30144752799E+02  0.41800000000E+01 0.  1.
         -5    1    3    3    0  502  0.82039206031E+02  0.10195253379E+03  0.24370069439E+02  0.13317703690E+03  0.41800000000E+01 0.  1.
        -11    1    1    2    0    0 -0.57757216275E+01 -0.18609100932E+02  0.16446851503E+02  0.25498167035E+02  0.00000000000E+00 0.  1.
         11    1    1    2    0    0 -0.52302719229E+02 -0.67265446845E+02 -0.11863140458E+03  0.14606034688E+03  0.00000000000E+00 0. -1.
</event>
<event>
 7    1  0.2334784E-009  0.1359682E+03  0.7561462E-02  0.1218859E+00
          2   -1    0    0  501    0  0.00000000000E+00  0.00000000000E+00  0.16312932597E+04  0.16312932597E+04  0.00000000000E+00 0. -1.
         -2   -1    0    0    0  501 -0.00000000000E+00 -0.00000000000E+00 -0.15040458465E+02  0.15040458465E+02  0.00000000000E+00 0.  1.
         25    2    1    2    0    0 -0.80974398907E+02  0.57185420808E+02  0.11261563908E+04  0.11374125097E+04  0.12510785402E+03 0.  0.
          5    1    3    3  502    0 -0.97667197777E+02  0.29623699355E+00  0.60025037094E+03  0.60815865487E+03  0.41800000000E+01 0. -1.
         -5    1    3    3    0  502  0.16692798869E+02  0.56889183814E+02  0.52590601984E+03  0.52925385485E+03  0.41800000000E+01 0. -1.
        -11    1    1    2    0    0  0.33472911116E+01 -0.33382601162E+02  0.43143240230E+02  0.54652919370E+02  0.00000000000E+00 0.  1.
         11    1    1    2    0    0  0.77627107796E+02 -0.23802819646E+02  0.44695317026E+03  0.45426828912E+03  0.00000000000E+00 0. -1.
</event>
<event>
 7    1  0.2334784E-009  0.9010772E+02  0.7561462E-02  0.1302591E+00
          1   -1    0    0  501    0  0.00000000000E+00  0.00000000000E+00  0.38922221673E+03  0.38922221673E+03  0.00000000000E+00 0. -1.
         -1   -1    0    0    0  501 -0.00000000000E+00 -0.00000000000E+00 -0.56952185291E+02  0.56952185291E+02  0.00000000000E+00 0.  1.
         25    2    1    2    0    0  0.13072920932E+02  0.86388983206E+02  0.23243303020E+03  0.27803910022E+03  0.12508665012E+03 0.  0.
          5    1    3    3  502    0  0.18157048838E+02  0.81982416457E+02  0.24729646777E+03  0.26119688054E+03  0.41800000000E+01 0.  1.
         -5    1    3    3    0  502 -0.50841279064E+01  0.44065667490E+01 -0.14863437573E+02  0.16842219675E+02  0.41800000000E+01 0.  1.
        -11    1    1    2    0    0  0.15951605019E+01 -0.27038278883E+02  0.10340640541E+03  0.10689479754E+03  0.00000000000E+00 0. -1.
         11    1    1    2    0    0 -0.14668081434E+02 -0.59350704322E+02 -0.35694041697E+01  0.61240504265E+02  0.00000000000E+00 0.  1.
</event>
<event>
 7    1  0.2334784E-009  0.2216702E+03  0.7561462E-02  0.1132644E+00
          2   -1    0    0  501    0  0.00000000000E+00  0.00000000000E+00  0.47017286185E+03  0.47017286185E+03  0.00000000000E+00 0.  1.
         -2   -1    0    0    0  501 -0.00000000000E+00 -0.00000000000E+00 -0.24026865529E+03  0.24026865529E+03  0.00000000000E+00 0. -1.
         25    2    1    2    0    0 -0.18374483489E+03  0.66035599237E+02 -0.14599919431E+03  0.27401543620E+03  0.12508329153E+03 0.  0.
          5    1    3    3  502    0 -0.15303663867E+02  0.49925975599E+02 -0.72594856167E+02  0.89522570948E+02  0.41800000000E+01 0. -1.
         -5    1    3    3    0  502 -0.16844117103E+03  0.16109623638E+02 -0.73404338138E+02  0.18449286525E+03  0.41800000000E+01 0. -1.
        -11    1    1    2    0    0  0.64784110328E+02 -0.78842991955E+02  0.16905233323E+03  0.19746364146E+03  0.00000000000E+00 0.  1.
         11    1    1    2    0    0  0.11896072457E+03  0.12807392718E+02  0.20685106764E+03  0.23896243948E+03  0.00000000000E+00 0. -1.
</event>
<event>
 7    1  0.2334784E-009  0.1001171E+03  0.7561462E-02  0.1280050E+00
          2   -1    0    0  501    0  0.00000000000E+00  0.00000000000E+00  0.74179501814E+02  0.74179501814E+02  0.00000000000E+00 0. -1.
         -2   -1    0    0    0  501 -0.00000000000E+00 -0.00000000000E+00 -0.18173222866E+03  0.18173222866E+03  0.00000000000E+00 0.  1.
         25    2    1    2    0    0 -0.22447928182E+02 -0.16114204454E+02 -0.10454315532E+03  0.16535306633E+03  0.12509511643E+03 0.  0.
          5    1    3    3  502    0 -0.35687106409E+02  0.39426569854E+02 -0.92607988950E+02  0.10687252215E+03  0.41800000000E+01 0.  1.
         -5    1    3    3    0  502  0.13239178227E+02 -0.55540774308E+02 -0.11935166370E+02  0.58480544176E+02  0.41800000000E+01 0.  1.
        -11    1    1    2    0    0  0.49510955851E+02  0.31333082723E+02 -0.79150966832E+01  0.59124830466E+02  0.00000000000E+00 0. -1.
         11    1    1    2    0    0 -0.27063027669E+02 -0.15218878269E+02  0.49055251614E+01  0.31433833674E+02  0.00000000000E+00 0.  1.
</event>
<event>
 7    1  0.2334784E-009  0.1002277E+03  0.7561462E-02  0.1279818E+00
          1   -1    0    0  501    0  0.00000000000E+00  0.00000000000E+00  0.72189420046E+02  0.72189420046E+02  0.00000000000E+00 0. -1.
         -1   -1    0    0    0  501 -0.00000000000E+00 -0.00000000000E+00 -0.30418477726E+03  0.30418477726E+03  0.00000000000E+00 0.  1.
         25    2    1    2    0    0 -0.75108848808E+02 -0.24501505548E+02 -0.46693093790E+02  0.15514456219E+03  0.12509167528E+03 0.  0.
          5    1    3    3  502    0 -0.35347960453E+02  0.34149148731E+02  0.24096364457E+02  0.54897630617E+02  0.41800000000E+01 0. -1.
         -5    1    3    3    0  502 -0.39760888354E+02 -0.58650654280E+02 -0.70789458247E+02  0.10024693157E+03  0.41800000000E+01 0. -1.
        -11    1    1    2    0    0  0.14683510295E+02  0.10693721378E+02  0.67842044192E+01  0.19390373413E+02  0.00000000000E+00 0. -1.
         11    1    1    2    0    0  0.60425338513E+02  0.13807784170E+02 -0.19208646784E+03  0.20183926171E+03  0.00000000000E+00 0.  1.
</event>
<event>
 7    1  0.2334784E-009  0.9952202E+02  0.7561462E-02  0.1281304E+00
         -1   -1    0    0    0  501 -0.00000000000E+00  0.00000000000E+00  0.59822679827E+02  0.59822679827E+02  0.00000000000E+00 0.  1.
          1   -1    0    0  501    0  0.00000000000E+00 -0.00000000000E+00 -0.20253624653E+03  0.20253624653E+03  0.00000000000E+00 0. -1.
         25    2    1    2    0    0  0.35468797766E+01  0.16074031233E+02 -0.81817675385E+02  0.15037342725E+03  0.12508829195E+03 0.  0.
          5    1    3    3  502    0 -0.25359496170E+02  0.52490349465E+02 -0.26961204973E+01  0.58507113232E+02  0.41800000000E+01 0. -1.
         -5    1    3    3    0  502  0.28906375946E+02 -0.36416318232E+02 -0.79121554887E+02  0.91866314021E+02  0.41800000000E+01 0. -1.
        -11    1    1    2    0    0 -0.40161057740E+02 -0.34484661680E+02 -0.36365079427E+02  0.64222437292E+02  0.00000000000E+00 0. -1.
         11    1    1    2    0    0  0.36614177964E+02  0.18410630448E+02 -0.24530811888E+02  0.47763061808E+02  0.00000000000E+00 0.  1.
</event>
<event>
 7    1  0.2334784E-009  0.1224902E+03  0.7561462E-02  0.1239045E+00
          1   -1    0    0  501    0  0.00000000000E+00  0.00000000000E+00  0.55526916515E+03  0.55526916515E+03  0.00000000000E+00 0.  1.
         -1   -1    0    0    0  501 -0.00000000000E+00 -0.00000000000E+00 -0.60255128685E+02  0.60255128685E+02  0.00000000000E+00 0. -1.
         25    2    1    2    0    0  0.78983944704E+02  0.26881148692E+01  0.46872173846E+03  0.49152162392E+03  0.12509096367E+03 0.  0.
          5    1    3    3  502    0  0.73117988142E+02 -0.46515738351E+02  0.19659282538E+03  0.21488640137E+03  0.41800000000E+01 0.  1.
         -5    1    3    3    0  502  0.58659565622E+01  0.49203853220E+02  0.27212891309E+03  0.27663522255E+03  0.41800000000E+01 0.  1.
        -11    1    1    2    0    0 -0.28496044334E+02  0.35257703519E+02  0.38738036025E+02  0.59630240946E+02  0.00000000000E+00 0.  1.
         11    1    1    2    0    0 -0.50487900370E+02 -0.37945818388E+02 -0.12445738020E+02  0.64372428973E+02  0.00000000000E+00 0. -1.
</event>
<event>
 7    1  0.2334784E-009  0.1162338E+03  0.7561462E-02  0.1249443E+00
         -2   -1    0    0    0  501 -0.00000000000E+00  0.00000000000E+00  0.39595482448E+02  0.39595482448E+02  0.00000000000E+00 0.  1.
          2   -1    0    0  501    0  0.00000000000E+00 -0.00000000000E+00 -0.46363775768E+03  0.46363775768E+03  0.00000000000E+00 0. -1.
         25    2    1    2    0    0  0.62124518958E+02  0.26653279219E+02 -0.15078985504E+03  0.20725603491E+03  0.12509048915E+03 0.  0.
          5    1    3    3  502    0  0.32920393686E+02 -0.44190942305E+02 -0.10289084343E+03  0.11679293542E+03  0.41800000000E+01 0.  1.
         -5    1    3    3    0  502  0.29204125272E+02  0.70844221524E+02 -0.47899011610E+02  0.90463099491E+02  0.41800000000E+01 0.  1.
        -11    1    1    2    0    0 -0.16559907400E+02 -0.47537910434E+02 -0.67479439602E+02  0.84187637041E+02  0.00000000000E+00 0.  1.
         11    1    1    2    0    0 -0.45564611559E+02  0.20884631215E+02 -0.20577298058E+03  0.21178956817E+03  0.00000000000E+00 0. -1.
</event>
<event>
 7    1  0.2334784E-009  0.2117678E+03  0.7561462E-02  0.1140174E+00
         -2   -1    0    0    0  501 -0.00000000000E+00  0.00000000000E+00  0.35250214326E+03  0.35250214326E+03  0.00000000000E+00 0.  1.
          2   -1    0    0  501    0  0.00000000000E+00 -0.00000000000E+00 -0.14701935728E+03  0.14701935728E+03  0.00000000000E+00 0. -1.
         25    2    1    2    0    0 -0.17761415585E+02  0.19252292928E+03  0.50949827427E+02  0.23584612287E+03  0.12508781944E+03 0.  0.
          5    1    3    3  502    0 -0.17363256290E+02 -0.14518837826E+01  0.37258753016E+02  0.41343411952E+02  0.41800000000E+01 0.  1.
         -5    1    3    3    0  502 -0.39815929534E+00  0.19397481307E+03  0.13691074411E+02  0.19450271091E+03  0.41800000000E+01 0.  1.
        -11    1    1    2    0    0 -0.16546633074E+02 -0.16944116192E+03  0.10891262761E+03  0.20210407930E+03  0.00000000000E+00 0. -1.
         11    1    1    2    0    0  0.34308048659E+02 -0.23081767368E+02  0.45620330947E+02  0.61571298373E+02  0.00000000000E+00 0.  1.
</event>
<event>
 7    1  0.2334784E-009  0.1283040E+03  0.7561462E-02  0.1229994E+00
          1   -1    0    0  501    0  0.00000000000E+00  0.00000000000E+00  0.65788234184E+03  0.65788234184E+03  0.00000000000E+00 0. -1.
         -1   -1    0    0    0  501 -0.00000000000E+00 -0.00000000000E+00 -0.36618921539E+02  0.36618921539E+02  0.00000000000E+00 0.  1.
         25    2    1    2    0    0  0.71687323291E+02  0.54087912786E+02  0.19370334951E+03  0.24745247798E+03  0.12508863504E+03 0.  0.
          5    1    3    3  502    0  0.20794553352E+02 -0.33732991136E+02  0.10600603905E+03  0.11324787352E+03  0.41800000000E+01 0. -1.
         -5    1    3    3    0  502  0.50892769939E+02  0.87820903922E+02  0.87697310453E+02  0.13420460446E+03  0.41800000000E+01 0. -1.
        -11    1    1    2    0    0 -0.86477476017E+02 -0.42346691654E+02  0.41036063419E+03  0.42150616395E+03  0.00000000000E+00 0. -1.
         11    1    1    2    0    0  0.14790152726E+02 -0.11741221133E+02  0.17199436603E+02  0.25542621455E+02  0.00000000000E+00 0.  1.
</event>
<event>
 7    1  0.2334784E-009  0.1270434E+03  0.7561462E-02  0.1231910E+00
          1   -1    0    0  501    0  0.00000000000E+00  0.00000000000E+00  0.21364390721E+03  0.21364390721E+03  0.00000000000E+00 0. -1.
         -1   -1    0    0    0  501 -0.00000000000E+00 -0.00000000000E+00 -0.15310280471E+03  0.15310280471E+03  0.00000000000E+00 0.  1.
         25    2    1    2    0    0  0.37950244811E+02 -0.89891373988E+02  0.14078944613E+03  0.21210751779E+03  0.12508897138E+03 0.  0.
          5    1    3    3  502    0  0.20852437830E+00  0.13772338060E+02 -0.15244970273E+02  0.20966694939E+02  0.41800000000E+01 0. -1.
         -5    1    3    3    0  502  0.37741720433E+02 -0.10366371205E+03  0.15603441640E+03  0.19114082285E+03  0.41800000000E+01 0. -1.
        -11    1    1    2    0    0 -0.59854338961E+02  0.33040073039E+02 -0.26268362558E+02  0.73240802770E+02  0.00000000000E+00 0. -1.
         11    1    1    2    0    0  0.21904094150E+02  0.56851300950E+02 -0.53979981075E+02  0.81398391366E+02  0.00000000000E+00 0.  1.
</event>
<event>
 7    1  0.2334784E-009  0.5779178E+02  0.7561462E-02  0.1407339E+00
         -1   -1    0    0    0  501 -0.00000000000E+00  0.00000000000E+00  0.12252395038E+03  0.12252395038E+03  0.00000000000E+00 0.  1.
          1   -1    0    0  501    0  0.00000000000E+00 -0.00000000000E+00 -0.12301400165E+03  0.12301400165E+03  0.00000000000E+00 0. -1.
         25    2    1    2    0    0  0.36018930059E+02  0.82334728666E+01 -0.43924448460E+02  0.13763352408E+03  0.12509387028E+03 0.  0.
          5    1    3    3  502    0  0.19794794346E+02 -0.26298228172E+02  0.36007807851E+02  0.48963918495E+02  0.41800000000E+01 0.  1.
         -5    1    3    3    0  502  0.16224135712E+02  0.34531701038E+02 -0.79932256311E+02  0.88669605589E+02  0.41800000000E+01 0.  1.
        -11    1    1    2    0    0 -0.25251357900E+02 -0.16743233491E+02  0.70954217524E+02  0.77152238645E+02  0.00000000000E+00 0.  1.
         11    1    1    2    0    0 -0.10767572159E+02  0.85097606244E+01 -0.27519820332E+02  0.30752189307E+02  0.00000000000E+00 0. -1.
</event>
<event>
 7    1  0.2334784E-009  0.1095942E+03  0.7561462E-02  0.1261323E+00
         -2   -1    0    0    0  501 -0.00000000000E+00  0.00000000000E+00  0.13413178382E+02  0.13413178382E+02  0.00000000000E+00 0.  1.
          2   -1    0    0  501    0  0.00000000000E+00 -0.00000000000E+00 -0.17430616194E+04  0.17430616194E+04  0.00000000000E+00 0. -1.
         25    2    1    2    0    0 -0.25411610605E+02 -0.48141490717E+02 -0.14718878229E+04  0.14781972964E+04  0.12510048358E+03 0.  0.
          5    1    3    3  502    0  0.37388781855E+02 -0.48600432704E+01 -0.94918573660E+03  0.94994345936E+03  0.41800000000E+01 0. -1.
         -5    1    3    3    0  502 -0.62800392460E+02 -0.43281447447E+02 -0.52270208627E+03  0.52825383707E+03  0.41800000000E+01 0. -1.
        -11    1    1    2    0    0  0.34862237305E+02 -0.17181496336E+02 -0.96197567990E+02  0.10375235657E+03  0.00000000000E+00 0.  1.
         11    1    1    2    0    0 -0.94506267002E+01  0.65322987053E+02 -0.16156305012E+03  0.17452514474E+03  0.00000000000E+00 0. -1.
</event>
<event>
 7    1  0.2653755E-009  0.8033644E+02  0.7561462E-02  0.1328099E+00
          1   -1    0    0  501    0  0.00000000000E+00  0.00000000000E+00  0.34946515190E+03  0.34946515190E+03  0.00000000000E+00 0. -1.
         -1   -1    0    0    0  501 -0.00000000000E+00 -0.00000000000E+00 -0.40657431279E+02  0.40657431279E+02  0.00000000000E+00 0.  1.
         25    2    1    2    0    0  0.15103361262E+02  0.46622249733E+02  0.18376376801E+03  0.22763715326E+03  0.12509118842E+03 0.  0.
          5    1    3    3  502    0  0.21954215145E+02  0.10033646078E+02 -0.12727983566E+02  0.27606803181E+02  0.41800000000E+01 0. -1.
         -5    1    3    3    0  502 -0.68508538829E+01  0.36588603654E+02  0.19649175158E+03  0.20003035008E+03  0.41800000000E+01 0. -1.
        -11    1    1    2    0    0  0.35906792749E+02 -0.16978146280E+02  0.26890663012E+02  0.47965226716E+02  0.00000000000E+00 0.  1.
         11    1    1    2    0    0 -0.51010154011E+02 -0.29644103453E+02  0.98153289598E+02  0.11452020320E+03  0.00000000000E+00 0. -1.
</event>
<event>
 7    1  0.2334784E-009  0.2115014E+03  0.7561462E-02  0.1140382E+00
         -1   -1    0    0    0  501 -0.00000000000E+00  0.00000000000E+00  0.49542797807E+02  0.49542797807E+02  0.00000000000E+00 0.  1.
          1   -1    0    0  501    0  0.00000000000E+00 -0.00000000000E+00 -0.10372358323E+04  0.10372358323E+04  0.00000000000E+00 0. -1.
         25    2    1    2    0    0  0.16232308598E+03  0.11260708838E+03 -0.56632739594E+03  0.61270103029E+03  0.12508674005E+03 0.  0.
          5    1    3    3  502    0  0.11107884035E+03  0.11999382762E+02 -0.19742459808E+03  0.22688419576E+03  0.41800000000E+01 0.  1.
         -5    1    3    3    0  502  0.51244245630E+02  0.10060770562E+03 -0.36890279785E+03  0.38581683453E+03  0.41800000000E+01 0.  1.
        -11    1    1    2    0    0 -0.65199390883E+02 -0.35724852873E+02 -0.72377639036E+02  0.10375812410E+03  0.00000000000E+00 0.  1.
         11    1    1    2    0    0 -0.97123695092E+02 -0.76882235507E+02 -0.34898799950E+03  0.37031947570E+03  0.00000000000E+00 0. -1.
</event>
<event>
 7    1  0.2334784E-009  0.9459962E+02  0.7561462E-02  0.1292080E+00
          3   -1    0    0  501    0  0.00000000000E+00  0.00000000000E+00  0.19867392838E+03  0.19867392838E+03  0.00000000000E+00 0.  1.
         -3   -1    0    0    0  501 -0.00000000000E+00 -0.00000000000E+00 -0.87434113848E+02  0.87434113848E+02  0.00000000000E+00 0. -1.
         25    2    1    2    0    0 -0.50929584801E+02  0.10004440918E+01  0.11910904910E+03  0.18008310835E+03  0.12509251312E+03 0.  0.
          5    1    3    3  502    0 -0.33731664810E+02 -0.57227466025E+02  0.91768544986E+02  0.11336554295E+03  0.41800000000E+01 0.  1.
         -5    1    3    3    0  502 -0.17197919991E+02  0.58227910117E+02  0.27340504117E+02  0.66717565408E+02  0.41800000000E+01 0.  1.
        -11    1    1    2    0    0  0.29015061900E+02  0.16817501295E+02  0.38917586976E+02  0.51373930577E+02  0.00000000000E+00 0.  1.
         11    1    1    2    0    0  0.21914522901E+02 -0.17817945387E+02 -0.46786821543E+02  0.54651003301E+02  0.00000000000E+00 0. -1.
</event>
<event>
 7    1  0.2334784E-009  0.6792158E+02  0.7561462E-02  0.1367307E+00
         -2   -1    0    0    0  501 -0.00000000000E+00  0.00000000000E+00  0.82255339545E+02  0.82255339545E+02  0.00000000000E+00 0.  1.
          2   -1    0    0  501    0  0.00000000000E+00 -0.00000000000E+00 -0.15196602210E+03  0.15196602210E+03  0.00000000000E+00 0. -1.
         25    2    1    2    0    0  0.22748841540E+02  0.92013246240E+01 -0.57500594451E+02  0.13983972621E+03  0.12508659600E+03 0.  0.
          5    1    3    3  502    0 -0.93642274076E+01  0.37549128199E+02  0.25368167107E+02  0.46461189027E+02  0.41800000000E+01 0. -1.
         -5    1    3    3    0  502  0.32113068948E+02 -0.28347803575E+02 -0.82868761558E+02  0.93378537186E+02  0.41800000000E+01 0. -1.
        -11    1    1    2    0    0 -0.28743113931E+02 -0.24297950597E+02 -0.44472396886E+02  0.58261059778E+02  0.00000000000E+00 0. -1.
         11    1    1    2    0    0  0.59942723911E+01  0.15096625973E+02  0.32262308785E+02  0.36120575652E+02  0.00000000000E+00 0.  1.
</event>
<event>
 7    1  0.2334784E-009  0.1009879E+03  0.7561462E-02  0.1278232E+00
          1   -1    0    0  501    0  0.00000000000E+00  0.00000000000E+00  0.74502793609E+02  0.74502793609E+02  0.00000000000E+00 0. -1.
         -1   -1    0    0    0  501 -0.00000000000E+00 -0.00000000000E+00 -0.17505823280E+03  0.17505823280E+03  0.00000000000E+00 0.  1.
         25    2    1    2    0    0 -0.22916214099E+02 -0.37265515029E+02 -0.56105801634E+02  0.14390801819E+03  0.12509110777E+03 0.  0.
          5    1    3    3  502    0 -0.87005243650E+01  0.46426391042E+02 -0.22886708269E+02  0.52653420827E+02  0.41800000000E+01 0.  1.
         -5    1    3    3    0  502 -0.14215689734E+02 -0.83691906071E+02 -0.33219093365E+02  0.91254597366E+02  0.41800000000E+01 0.  1.
        -11    1    1    2    0    0 -0.10538518413E+02 -0.80322565160E+01  0.17489249249E+02  0.21941999780E+02  0.00000000000E+00 0. -1.
         11    1    1    2    0    0  0.33454732513E+02  0.45297771545E+02 -0.61938886801E+02  0.83711008431E+02  0.00000000000E+00 0.  1.
</event>
<event>
 7    1  0.2334784E-009  0.2112893E+03  0.7561462E-02  0.1140549E+00
         -1   -1    0    0    0  501 -0.00000000000E+00  0.00000000000E+00  0.93108445102E+02  0.93108445102E+02  0.00000000000E+00 0.  1.
          1   -1    0    0  501    0  0.00000000000E+00 -0.00000000000E+00 -0.49853455908E+03  0.49853455908E+03  0.00000000000E+00 0. -1.
         25    2    1    2    0    0  0.15522879139E+03 -0.96388958487E+02 -0.25865339153E+03  0.34049683223E+03  0.12509878822E+03 0.  0.
          5    1    3    3  502    0  0.99106396599E+02 -0.12396855048E+03 -0.18549767893E+03  0.24416621520E+03  0.41800000000E+01 0.  1.
         -5    1    3    3    0  502  0.56122394789E+02  0.27579591997E+02 -0.73155712599E+02  0.96330617030E+02  0.41800000000E+01 0.  1.
        -11    1    1    2    0    0 -0.65289042180E+02  0.89705076275E+02 -0.10087378592E+03  0.14995059328E+03  0.00000000000E+00 0. -1.
         11    1    1    2    0    0 -0.89939749208E+02  0.66838822117E+01 -0.45898936525E+02  0.10119557867E+03  0.00000000000E+00 0.  1.
</event>
<event>
 7    1  0.2334784E-009  0.1221449E+03  0.7561462E-02  0.1239600E+00
         -1   -1    0    0    0  501 -0.00000000000E+00  0.00000000000E+00  0.30009621459E+03  0.30009621459E+03  0.00000000000E+00 0.  1.
          1   -1    0    0  501    0  0.00000000000E+00 -0.00000000000E+00 -0.59480594869E+02  0.59480594869E+02  0.00000000000E+00 0. -1.
         25    2    1    2    0    0 -0.19732908338E+02  0.71271234156E+02  0.19624852496E+03  0.24419262590E+03  0.12509028142E+03 0.  0.
          5    1    3    3  502    0 -0.50675770796E+02  0.93690777673E+02  0.15071247312E+03  0.18460151007E+03  0.41800000000E+01 0. -1.
         -5    1    3    3    0  502  0.30942862459E+02 -0.22419543517E+02  0.45536051842E+02  0.59591115831E+02  0.41800000000E+01 0. -1.
        -11    1    1    2    0    0  0.24186022838E+02  0.34204568844E+01 -0.60429251739E+01  0.25163071567E+02  0.00000000000E+00 0. -1.
         11    1    1    2    0    0 -0.44531145005E+01 -0.74691691041E+02  0.50410019938E+02  0.90221111994E+02  0.00000000000E+00 0.  1.
</event>
<event>
 7    1  0.2334784E-009  0.9181718E+02  0.7561462E-02  0.1298510E+00
         -1   -1    0    0    0  501 -0.00000000000E+00  0.00000000000E+00  0.16370593335E+02  0.16370593335E+02  0.00000000000E+00 0.  1.
          1   -1    0    0  501    0  0.00000000000E+00 -0.00000000000E+00 -0.76431965260E+03  0.76431965260E+03  0.00000000000E+00 0. -1.
         25    2    1    2    0    0  0.25942677494E+02 -0.43940007929E+01 -0.43203919424E+03  0.45055286415E+03  0.12509072017E+03 0.  0.
          5    1    3    3  502    0 -0.87796194289E+01 -0.40250343764E+02 -0.36247538818E+03  0.36483290878E+03  0.41800000000E+01 0. -1.
         -5    1    3    3    0  502  0.34722296923E+02  0.35856342971E+02 -0.69563806059E+02  0.85719955368E+02  0.41800000000E+01 0. -1.
        -11    1    1    2    0    0  0.32604055912E+02 -0.45233913345E+01 -0.72430663949E+02  0.79559327619E+02  0.00000000000E+00 0.  1.
         11    1    1    2    0    0 -0.58546733407E+02  0.89173921274E+01 -0.24347920107E+03  0.25057805417E+03  0.00000000000E+00 0. -1.
</event>
<event>
 7    1  0.2334784E-009  0.1410837E+03  0.7561462E-02  0.1211878E+00
          2   -1    0    0  501    0  0.00000000000E+00  0.00000000000E+00  0.31159756944E+03  0.31159756944E+03  0.00000000000E+00 0. -1.
         -2   -1    0    0    0  501 -0.00000000000E+00 -0.00000000000E+00 -0.90794800526E+02  0.90794800526E+02  0.00000000000E+00 0.  1.
         25    2    1    2    0    0 -0.11254564162E+03 -0.78040168164E+01  0.50562503138E+02  0.17587335559E+03  0.12508975320E+03 0.  0.
          5    1    3    3  502    0 -0.71963834455E+02 -0.64620099191E+02  0.16994177808E+02  0.98289496735E+02  0.41800000000E+01 0.  1.
         -5    1    3    3    0  502 -0.40581807166E+02  0.56816082375E+02  0.33568325330E+02  0.77583858854E+02  0.41800000000E+01 0.  1.
        -11    1    1    2    0    0  0.74072514718E+01  0.71162969960E+01 -0.12201471187E+02  0.15949450035E+02  0.00000000000E+00 0.  1.
         11    1    1    2    0    0  0.10513839015E+03  0.68771982042E+00  0.18244173697E+03  0.21056956435E+03  0.00000000000E+00 0. -1.
</event>
<event>
 7    1  0.2334784E-009  0.1583001E+03  0.7561462E-02  0.1190629E+00
          2   -1    0    0  501    0  0.00000000000E+00  0.00000000000E+00  0.16234747041E+03  0.16234747041E+03  0.00000000000E+00 0. -1.
         -2   -1    0    0    0  501 -0.00000000000E+00 -0.00000000000E+00 -0.19206453078E+03  0.19206453078E+03  0.00000000000E+00 0.  1.
         25    2    1    2    0    0  0.98529158333E+02  0.90265743079E+02  0.18928338861E+02  0.18401785847E+03  0.12509352824E+03 0.  0.
          5    1    3    3  502    0  0.12586787672E+03  0.53167046067E+02  0.16328210500E+02  0.13767185637E+03  0.41800000000E+01 0. -1.
         -5    1    3    3    0  502 -0.27338718388E+02  0.37098697012E+02  0.26001283604E+01  0.46346002099E+02  0.41800000000E+01 0. -1.
        -11    1    1    2    0    0 -0.81450872408E+02 -0.74353123570E+02 -0.76374477627E+02  0.13414802434E+03  0.00000000000E+00 0.  1.
         11    1    1    2    0    0 -0.17078285924E+02 -0.15912619509E+02  0.27729078392E+02  0.36246118388E+02  0.00000000000E+00 0. -1.
</event>
<event>
 7    1  0.2334784E-009  0.9488794E+02  0.7561462E-02  0.1291429E+00
         -2   -1    0    0    0  501 -0.00000000000E+00  0.00000000000E+00  0.18643725790E+02  0.18643725790E+02  0.00000000000E+00 0.  1.
          2   -1    0    0  501    0  0.00000000000E+00 -0.00000000000E+00 -0.82258298155E+03  0.82258298155E+03  0.00000000000E+00 0. -1.
         25    2    1    2    0    0 -0.45683651579E+02 -0.20599028776E+02 -0.55619990742E+03  0.57229111145E+03  0.12508982063E+03 0.  0.
          5    1    3    3  502    0 -0.25515586901E+02  0.27594591476E+02 -0.46922028821E+03  0.47074160419E+03  0.41800000000E+01 0.  1.
         -5    1    3    3    0  502 -0.20168064677E+02 -0.48193620253E+02 -0.86979619212E+02  0.10154950726E+03  0.41800000000E+01 0.  1.
        -11    1    1    2    0    0 -0.15704901264E+02  0.33339902800E+02 -0.13494993454E+03  0.13989166478E+03  0.00000000000E+00 0. -1.
         11    1    1    2    0    0  0.61388552842E+02 -0.12740874023E+02 -0.11278941380E+03  0.12904393111E+03  0.00000000000E+00 0.  1.
</event>
<event>
 7    1  0.2334784E-009  0.1619255E+03  0.7561462E-02  0.1186540E+00
         -1   -1    0    0    0  501 -0.00000000000E+00  0.00000000000E+00  0.42851992197E+02  0.42851992197E+02  0.00000000000E+00 0.  1.
          1   -1    0    0  501    0  0.00000000000E+00 -0.00000000000E+00 -0.61387766155E+03  0.61387766155E+03  0.00000000000E+00 0. -1.
         25    2    1    2    0    0 -0.65227508330E+02  0.97645050970E+02 -0.32001523341E+03  0.36310737482E+03  0.12509209492E+03 0.  0.
          5    1    3    3  502    0  0.11217472396E+02  0.94151927987E+02 -0.17402257041E+03  0.19822145354E+03  0.41800000000E+01 0.  1.
         -5    1    3    3    0  502 -0.76444980726E+02  0.34931229829E+01 -0.14599266301E+03  0.16488592129E+03  0.41800000000E+01 0.  1.
        -11    1    1    2    0    0 -0.33378306895E+01 -0.81879865727E+02 -0.13175162976E+03  0.15515780828E+03  0.00000000000E+00 0. -1.
         11    1    1    2    0    0  0.68565339019E+02 -0.15765185242E+02 -0.11925880618E+03  0.13846447065E+03  0.00000000000E+00 0.  1.
</event>
<event>
 7    1  0.2334784E-009  0.1125751E+03  0.7561462E-02  0.1255874E+00
          1   -1    0    0  501    0  0.00000000000E+00  0.00000000000E+00  0.17784340626E+03  0.17784340626E+03  0.00000000000E+00 0. -1.
         -1   -1    0    0    0  501 -0.00000000000E+00 -0.00000000000E+00 -0.10212718163E+03  0.10212718163E+03  0.00000000000E+00 0.  1.
         25    2    1    2    0    0  0.72042895842E+02 -0.64142585519E+01  0.78873010658E+01  0.14470880379E+03  0.12508839603E+03 0.  0.
          5    1    3    3  502    0  0.54754283681E+02 -0.58579866513E+02 -0.20277494339E+02  0.82814742158E+02  0.41800000000E+01 0. -1.
         -5    1    3    3    0  502  0.17288612161E+02  0.52165607961E+02  0.28164795405E+02  0.61894061627E+02  0.41800000000E+01 0. -1.
        -11    1    1    2    0    0 -0.77976788868E+02 -0.36459557986E+01  0.12919476818E+02  0.79123861616E+02  0.00000000000E+00 0.  1.
         11    1    1    2    0    0  0.59338930257E+01  0.10060214351E+02  0.54909446743E+02  0.56137922485E+02  0.00000000000E+00 0. -1.
</event>
<event>
 7    1  0.2334784E-009  0.2705824E+03  0.7561462E-02  0.1100947E+00
          1   -1    0    0  501    0  0.00000000000E+00  0.00000000000E+00  0.15910285982E+04  0.15910285982E+04  0.00000000000E+00 0. -1.
         -1   -1    0    0    0  501 -0.00000000000E+00 -0.00000000000E+00 -0.53962300582E+02  0.53962300582E+02  0.00000000000E+00 0.  1.
         25    2    1    2    0    0 -0.21762008127E+03 -0.14401401272E+03  0.56776857495E+03  0.63726618363E+03  0.12509395856E+03 0.  0.
          5    1    3    3  502    0 -0.76896534478E+02 -0.22533382391E+02  0.72131586830E+02  0.10789471051E+03  0.41800000000E+01 0. -1.
         -5    1    3    3    0  502 -0.14072354679E+03 -0.12148063033E+03  0.49563698812E+03  0.52937147313E+03  0.41800000000E+01 0. -1.
        -11    1    1    2    0    0  0.10703813536E+03  0.12186032535E+03  0.60547356960E+03  0.62682162120E+03  0.00000000000E+00 0. -1.
         11    1    1    2    0    0  0.11058194591E+03  0.22153687365E+02  0.36382415303E+03  0.38090309391E+03  0.00000000000E+00 0.  1.
</event>
<event>
 7    1  0.2334784E-009  0.2443540E+03  0.7561462E-02  0.1116926E+00
          2   -1    0    0  501    0  0.00000000000E+00  0.00000000000E+00  0.11644861871E+04  0.11644861871E+04  0.00000000000E+00 0. -1.
         -2   -1    0    0    0  501 -0.00000000000E+00 -0.00000000000E+00 -0.56751922410E+02  0.56751922410E+02  0.00000000000E+00 0.  1.
         25    2    1    2    0    0  0.20625045902E+03  0.10512420076E+03  0.50681626142E+03  0.57105176359E+03  0.12508814667E+03 0.  0.
          5    1    3    3  502    0  0.63976236113E+02  0.84470628799E+02  0.13029458676E+03  0.16799523105E+03  0.41800000000E+01 0. -1.
         -5    1    3    3    0  502  0.14227422290E+03  0.20653571958E+02  0.37652167466E+03  0.40305653255E+03  0.41800000000E+01 0. -1.
        -11    1    1    2    0    0 -0.15103524497E+02 -0.29750567664E+02  0.36106421452E+02  0.49161838845E+02  0.00000000000E+00 0.  1.
         11    1    1    2    0    0 -0.19114693452E+03 -0.75373633092E+02  0.56481158180E+03  0.60102450705E+03  0.00000000000E+00 0. -1.
</event>
<event>
 7    1  0.2334784E-009  0.9357553E+02  0.7561462E-02  0.1294417E+00
         -2   -1    0    0    0  501 -0.00000000000E+00  0.00000000000E+00  0.29259698180E+02  0.29259698180E+02  0.00000000000E+00 0.  1.
          2   -1    0    0  501    0  0.00000000000E+00 -0.00000000000E+00 -0.38893465558E+03  0.38893465558E+03  0.00000000000E+00 0. -1.
         25    2    1    2    0    0  0.24589719389E+02  0.84124174455E+01 -0.21890843731E+03  0.25346218304E+03  0.12508697469E+03 0.  0.
          5    1    3    3  502    0  0.67573013851E+02  0.26457332992E+02 -0.17410858256E+03  0.18867266255E+03  0.41800000000E+01 0.  1.
         -5    1    3    3    0  502 -0.42983294462E+02 -0.18044915546E+02 -0.44799854748E+02  0.64789520490E+02  0.41800000000E+01 0.  1.
        -11    1    1    2    0    0 -0.18721595589E+02 -0.35397063109E+02 -0.28578468640E+02  0.49195315712E+02  0.00000000000E+00 0.  1.
         11    1    1    2    0    0 -0.58681237996E+01  0.26984645664E+02 -0.11218805145E+03  0.11553685501E+03  0.00000000000E+00 0. -1.
</event>
<event>
 7    1  0.2334784E-009  0.2475931E+03  0.7561462E-02  0.1114835E+00
          2   -1    0    0  501    0  0.00000000000E+00  0.00000000000E+00  0.20146049859E+04  0.20146049859E+04  0.00000000000E+00 0. -1.
         -2   -1    0    0    0  501 -0.00000000000E+00 -0.00000000000E+00 -0.34817278509E+02  0.34817278509E+02  0.00000000000E+00 0.  1.
         25    2    1    2    0    0 -0.10297158643E+03  0.21630867100E+03  0.11273596054E+04  0.11593018490E+04  0.12509399848E+03 0.  0.
          5    1    3    3  502    0 -0.23707818760E+02  0.41915543638E+02  0.52456698630E+03  0.52678930227E+03  0.41800000000E+01 0. -1.
         -5    1    3    3    0  502 -0.79263767673E+02  0.17439312736E+03  0.60279261909E+03  0.63251254672E+03  0.41800000000E+01 0. -1.
        -11    1    1    2    0    0  0.83425863648E+02 -0.22005753498E+03  0.80474077625E+03  0.83844672484E+03  0.00000000000E+00 0.  1.
         11    1    1    2    0    0  0.19545722785E+02  0.37488639747E+01  0.47687325704E+02  0.51673690531E+02  0.00000000000E+00 0. -1.
</event>
<event>
 7    1  0.2334784E-009  0.9726345E+02  0.7561462E-02  0.1286158E+00
         -1   -1    0    0    0  501 -0.00000000000E+00  0.00000000000E+00  0.23929105467E+02  0.23929105467E+02  0.00000000000E+00 0.  1.
          1   -1    0    0  501    0  0.00000000000E+00 -0.00000000000E+00 -0.68651375169E+03  0.68651375169E+03  0.00000000000E+00 0. -1.
         25    2    1    2    0    0 -0.12742601994E+01 -0.20567035861E+01 -0.56592033767E+03  0.57958576340E+03  0.12509186537E+03 0.  0.
          5    1    3    3  502    0 -0.67691140214E+01  0.60931669067E+02 -0.25855534571E+03  0.26575708531E+03  0.41800000000E+01 0. -1.
         -5    1    3    3    0  502  0.54948538220E+01 -0.62988372653E+02 -0.30736499197E+03  0.31382867809E+03  0.41800000000E+01 0. -1.
        -11    1    1    2    0    0 -0.33481831060E+02  0.80683566758E+01 -0.78903715406E+01  0.35332553738E+02  0.00000000000E+00 0.  1.
         11    1    1    2    0    0  0.34756091260E+02 -0.60116530897E+01 -0.88773937014E+02  0.95524540017E+02  0.00000000000E+00 0. -1.
</event>
<event>
 7    1  0.2334784E-009  0.1990345E+03  0.7561462E-02  0.1150556E+00
         -2   -1    0    0    0  501 -0.00000000000E+00  0.00000000000E+00  0.31521088279E+02  0.31521088279E+02  0.00000000000E+00 0. -1.
          2   -1    0    0  501    0  0.00000000000E+00 -0.00000000000E+00 -0.17692321663E+04  0.17692321663E+04  0.00000000000E+00 0.  1.
         25    2    1    2    0    0  0.11042587225E+03 -0.15247783102E+03 -0.12405196996E+04  0.12609441151E+04  0.12509026370E+03 0.  0.
          5    1    3    3  502    0  0.25769644454E+02 -0.27777487606E+02 -0.61737794091E+02  0.72558190524E+02  0.41800000000E+01 0. -1.
         -5    1    3    3    0  502  0.84656227792E+02 -0.12470034341E+03 -0.11787819055E+04  0.11883859246E+04  0.41800000000E+01 0. -1.
        -11    1    1    2    0    0  0.14143013196E+02  0.35796519803E+02 -0.72059584164E+02  0.81694548913E+02  0.00000000000E+00 0.  1.
         11    1    1    2    0    0 -0.12456888544E+03  0.11668131121E+03 -0.42513179420E+03  0.45811459052E+03  0.00000000000E+00 0. -1.
</event>
<event>
 7    1  0.2334784E-009  0.1642178E+03  0.7561462E-02  0.1184016E+00
         -1   -1    0    0    0  501 -0.00000000000E+00  0.00000000000E+00  0.53447723922E+02  0.53447723922E+02  0.00000000000E+00 0.  1.
          1   -1    0    0  501    0  0.00000000000E+00 -0.00000000000E+00 -0.67899478804E+03  0.67899478804E+03  0.00000000000E+00 0. -1.
         25    2    1    2    0    0 -0.14987723841E+03  0.44227130365E+02 -0.34477914243E+03  0.39867159680E+03  0.12508860616E+03 0.  0.
          5    1    3    3  502    0 -0.29555996600E+02  0.39005514069E+02 -0.21414129432E+02  0.53581941007E+02  0.41800000000E+01 0.  1.
         -5    1    3    3    0  502 -0.12032124181E+03  0.52216162965E+01 -0.32336501299E+03  0.34508965580E+03  0.41800000000E+01 0.  1.
        -11    1    1    2    0    0  0.12904616425E+03 -0.47919317280E+02 -0.28067586423E+03  0.31261496163E+03  0.00000000000E+00 0. -1.
         11    1    1    2    0    0  0.20831074167E+02  0.36921869153E+01 -0.92057465979E-01  0.21155953530E+02  0.00000000000E+00 0.  1.
</event>
<event>
 7    1  0.2334784E-009  0.8668286E+02  0.7561462E-02  0.1311089E+00
          2   -1    0    0  501    0  0.00000000000E+00  0.00000000000E+00  0.42568502437E+02  0.42568502437E+02  0.00000000000E+00 0. -1.
         -2   -1    0    0    0  501 -0.00000000000E+00 -0.00000000000E+00 -0.24252403168E+03  0.24252403168E+03  0.00000000000E+00 0.  1.
         25    2    1    2    0    0 -0.69630403893E+01  0.84080463527E+01 -0.14406401312E+03  0.19110440695E+03  0.12508906948E+03 0.  0.
          5    1    3    3  502    0  0.25154995143E+02 -0.47098348692E+02 -0.33357733967E+02  0.63097060514E+02  0.41800000000E+01 0. -1.
         -5    1    3    3    0  502 -0.32118035532E+02  0.55506395045E+02 -0.11070627915E+03  0.12800734643E+03  0.41800000000E+01 0. -1.
        -11    1    1    2    0    0  0.30013767405E+02  0.23480746833E+01  0.25874939636E+01  0.30216465935E+02  0.00000000000E+00 0. -1.
         11    1    1    2    0    0 -0.23050727016E+02 -0.10756121036E+02 -0.58479010090E+02  0.63771661236E+02  0.00000000000E+00 0.  1.
</event>
<event>
 7    1  0.2334784E-009  0.1236982E+03  0.7561462E-02  0.1237118E+00
         -2   -1    0    0    0  501 -0.00000000000E+00  0.00000000000E+00  0.16383381384E+02  0.16383381384E+02  0.00000000000E+00 0. -1.
          2   -1    0    0  501    0  0.00000000000E+00 -0.00000000000E+00 -0.10596805398E+04  0.10596805398E+04  0.00000000000E+00 0.  1.
         25    2    1    2    0    0  0.50718150485E+02  0.47260779873E+02 -0.58250240363E+03  0.59980246378E+03  0.12509209892E+03 0.  0.
          5    1    3    3  502    0  0.25419987871E+02  0.86317380005E+02 -0.45905207943E+03  0.46780674419E+03  0.41800000000E+01 0.  1.
         -5    1    3    3    0  502  0.25298162614E+02 -0.39056600132E+02 -0.12345032420E+03  0.13199571959E+03  0.41800000000E+01 0.  1.
        -11    1    1    2    0    0 -0.31481199022E+02 -0.72395418985E+02 -0.40005394365E+03  0.40776870946E+03  0.00000000000E+00 0.  1.
         11    1    1    2    0    0 -0.19236951463E+02  0.25134639111E+02 -0.60740811156E+02  0.68492747972E+02  0.00000000000E+00 0. -1.
</event>
<event>
 7    1  0.2334784E-009  0.1043203E+03  0.7561462E-02  0.1271465E+00
         -1   -1    0    0    0  501 -0.00000000000E+00  0.00000000000E+00  0.11932718005E+03  0.11932718005E+03  0.00000000000E+00 0.  1.
          1   -1    0    0  501    0  0.00000000000E+00 -0.00000000000E+00 -0.10263890062E+03  0.10263890062E+03  0.00000000000E+00 0. -1.
         25    2    1    2    0    0 -0.20472439141E+02  0.71106167217E+01  0.84287848088E+01  0.12723618909E+03  0.12509325228E+03 0.  0.
          5    1    3    3  502    0  0.93022394252E+01  0.56008986581E+02 -0.23456024940E+02  0.61572686657E+02  0.41800000000E+01 0. -1.
         -5    1    3    3    0  502 -0.29774678566E+02 -0.48898369859E+02  0.31884809749E+02  0.65663502430E+02  0.41800000000E+01 0. -1.
        -11    1    1    2    0    0  0.27349574292E+02  0.39029629848E+02  0.58752732188E+01  0.48019059294E+02  0.00000000000E+00 0. -1.
         11    1    1    2    0    0 -0.68771351514E+01 -0.46140246570E+02  0.23842214025E+01  0.46710832289E+02  0.00000000000E+00 0.  1.
</event>
<event>
 7    1  0.2334784E-009  0.8408139E+02  0.7561462E-02  0.1317852E+00
          2   -1    0    0  501    0  0.00000000000E+00  0.00000000000E+00  0.29239745590E+03  0.29239745590E+03  0.00000000000E+00 0. -1.
         -2   -1    0    0    0  501 -0.00000000000E+00 -0.00000000000E+00 -0.52332290591E+02  0.52332290591E+02  0.00000000000E+00 0.  1.
         25    2    1    2    0    0 -0.94104075320E+01 -0.19208833150E+02  0.21349405229E+03  0.24836073537E+03  0.12508321017E+03 0.  0.
          5    1    3    3  502    0  0.25742468773E+02  0.24632841299E+02  0.17841168021E+03  0.18198255852E+03  0.41800000000E+01 0. -1.
         -5    1    3    3    0  502 -0.35152876305E+02 -0.43841674449E+02  0.35082372077E+02  0.66378176847E+02  0.41800000000E+01 0. -1.
        -11    1    1    2    0    0 -0.13208756643E+02  0.41880374350E+02 -0.12682484298E+02  0.45708668934E+02  0.00000000000E+00 0.  1.
         11    1    1    2    0    0  0.22619164175E+02 -0.22671541201E+02  0.39253597318E+02  0.50660342190E+02  0.00000000000E+00 0. -1.
</event>
<event>
 7    1  0.2334784E-009  0.1411213E+03  0.7561462E-02  0.1211828E+00
          1   -1    0    0  501    0  0.00000000000E+00  0.00000000000E+00  0.11612028764E+04  0.11612028764E+04  0.00000000000E+00 0. -1.
         -1   -1    0    0    0  501 -0.00000000000E+00 -0.00000000000E+00 -0.23064500759E+02  0.23064500759E+02  0.00000000000E+00 0.  1.
         25    2    1    2    0    0 -0.11286976009E+03  0.11692716867E+02  0.76151308604E+03  0.78001694121E+03  0.12509175031E+03 0.  0.
          5    1    3    3  502    0 -0.98382218534E+02 -0.43652103262E+02  0.41301233062E+03  0.42682692592E+03  0.41800000000E+01 0. -1.
         -5    1    3    3    0  502 -0.14487541554E+02  0.55344820129E+02  0.34850075542E+03  0.35319001530E+03  0.41800000000E+01 0. -1.
        -11    1    1    2    0    0  0.24459959351E+02 -0.15005401910E+02  0.15842946444E+02  0.32778814041E+02  0.00000000000E+00 0.  1.
         11    1    1    2    0    0  0.88409800738E+02  0.33126850428E+01  0.36078234315E+03  0.37147162190E+03  0.00000000000E+00 0. -1.
</event>
<event>
 7    1  0.2334784E-009  0.8777137E+02  0.7561462E-02  0.1308340E+00
         -2   -1    0    0    0  501 -0.00000000000E+00  0.00000000000E+00  0.28063532256E+03  0.28063532256E+03  0.00000000000E+00 0.  1.
          2   -1    0    0  501    0  0.00000000000E+00 -0.00000000000E+00 -0.39491240932E+02  0.39491240932E+02  0.00000000000E+00 0. -1.
         25    2    1    2    0    0 -0.26375034031E+02 -0.91686846362E+01  0.13940207769E+03  0.18933505638E+03  0.12504046191E+03 0.  0.
          5    1    3    3  502    0 -0.67239492592E+02 -0.25589926747E+02  0.44682018963E+02  0.84793566581E+02  0.41800000000E+01 0.  1.
         -5    1    3    3    0  502  0.40864458561E+02  0.16421242111E+02  0.94720058722E+02  0.10454148980E+03  0.41800000000E+01 0.  1.
        -11    1    1    2    0    0  0.29971996259E+01  0.28650818793E+02  0.95468548861E+02  0.99720090477E+02  0.00000000000E+00 0.  1.
         11    1    1    2    0    0  0.23377834405E+02 -0.19482134157E+02  0.62734550830E+01  0.31071416631E+02  0.00000000000E+00 0. -1.
</event>
<event>
 7    1  0.2334784E-009  0.1055268E+03  0.7561462E-02  0.1269085E+00
         -1   -1    0    0    0  501 -0.00000000000E+00  0.00000000000E+00  0.75610683678E+03  0.75610683678E+03  0.00000000000E+00 0.  1.
          1   -1    0    0  501    0  0.00000000000E+00 -0.00000000000E+00 -0.38762025071E+02  0.38762025071E+02  0.00000000000E+00 0. -1.
         25    2    1    2    0    0  0.35086068221E+02  0.84777511632E+02  0.61087605312E+03  0.63026848503E+03  0.12510216739E+03 0.  0.
          5    1    3    3  502    0  0.28342209160E+02  0.89432548648E+02  0.21901149691E+03  0.23829597092E+03  0.41800000000E+01 0. -1.
         -5    1    3    3    0  502  0.67438590612E+01 -0.46550370158E+01  0.39186455621E+03  0.39197251411E+03  0.41800000000E+01 0. -1.
        -11    1    1    2    0    0 -0.27566291570E+02 -0.52482684894E+01 -0.39254969904E+01  0.28334683335E+02  0.00000000000E+00 0. -1.
         11    1    1    2    0    0 -0.75197766515E+01 -0.79529243143E+02  0.11039425558E+03  0.13626569348E+03  0.00000000000E+00 0.  1.
</event>
<event>
 7    1  0.2334784E-009  0.1502009E+03  0.7561462E-02  0.1200226E+00
         -1   -1    0    0    0  501 -0.00000000000E+00  0.00000000000E+00  0.75877886111E+02  0.75877886111E+02  0.00000000000E+00 0.  1.
          1   -1    0    0  501    0  0.00000000000E+00 -0.00000000000E+00 -0.37230420089E+03  0.37230420089E+03  0.00000000000E+00 0. -1.
         25    2    1    2    0    0  0.19728013838E+01 -0.12789554203E+03 -0.18012256480E+03  0.25387551379E+03  0.12508987382E+03 0.  0.
          5    1    3    3  502    0  0.48070162009E+02 -0.73742466805E+02 -0.15506657410E+03  0.17835864624E+03  0.41800000000E+01 0. -1.
         -5    1    3    3    0  502 -0.46097360625E+02 -0.54153075230E+02 -0.25055990702E+02  0.75516867543E+02  0.41800000000E+01 0. -1.
        -11    1    1    2    0    0 -0.25881489602E+02  0.27215608952E+02  0.13998064376E+01  0.37583245373E+02  0.00000000000E+00 0.  1.
         11    1    1    2    0    0  0.23908688219E+02  0.10067993308E+03 -0.11770355641E+03  0.15672332784E+03  0.00000000000E+00 0. -1.
</event>
<event>
 7    1  0.2334784E-009  0.1190295E+03  0.7561462E-02  0.1244707E+00
         -2   -1    0    0    0  501 -0.00000000000E+00  0.00000000000E+00  0.10597584107E+03  0.10597584107E+03  0.00000000000E+00 0.  1.
          2   -1    0    0  501    0  0.00000000000E+00 -0.00000000000E+00 -0.16869361383E+03  0.16869361383E+03  0.00000000000E+00 0. -1.
         25    2    1    2    0    0  0.89435209970E+01  0.51930018420E+02  0.20724066553E+02  0.13731562861E+03  0.12509748817E+03 0.  0.
          5    1    3    3  502    0 -0.16992476846E+02  0.86087848620E+02 -0.34313072986E+01  0.87915346892E+02  0.41800000000E+01 0. -1.
         -5    1    3    3    0  502  0.25935997843E+02 -0.34157830200E+02  0.24155373851E+02  0.49400281720E+02  0.41800000000E+01 0. -1.
        -11    1    1    2    0    0  0.26458724298E+02 -0.64369052485E+02 -0.41298551988E+02  0.80925950137E+02  0.00000000000E+00 0.  1.
         11    1    1    2    0    0 -0.35402245295E+02  0.12439034065E+02 -0.42143287324E+02  0.56427876150E+02  0.00000000000E+00 0. -1.
</event>
<event>
 7    1  0.2334784E-009  0.1450124E+03  0.7561462E-02  0.1206739E+00
          2   -1    0    0  501    0  0.00000000000E+00  0.00000000000E+00  0.18154787272E+03  0.18154787272E+03  0.00000000000E+00 0. -1.
         -2   -1    0    0    0  501 -0.00000000000E+00 -0.00000000000E+00 -0.14008689809E+03  0.14008689809E+03  0.00000000000E+00 0.  1.
         25    2    1    2    0    0  0.23913836345E+01 -0.10364967357E+03  0.75653491724E+02  0.17920871997E+03  0.12507334231E+03 0.  0.
          5    1    3    3  502    0 -0.34431088161E+02 -0.10974662504E+03  0.27853730032E+02  0.11841927299E+03  0.41800000000E+01 0.  1.
         -5    1    3    3    0  502  0.36822471795E+02  0.60969514665E+01  0.47799761691E+02  0.60789446979E+02  0.41800000000E+01 0.  1.
        -11    1    1    2    0    0 -0.12624792644E+02 -0.14244109494E+02  0.71713499390E+00  0.19047160607E+02  0.00000000000E+00 0.  1.
         11    1    1    2    0    0  0.10233409009E+02  0.11789378307E+03 -0.34909652094E+02  0.12337889023E+03  0.00000000000E+00 0. -1.
</event>
<event>
 7    1  0.2334784E-009  0.7927663E+02  0.7561462E-02  0.1331117E+00
         -2   -1    0    0    0  501 -0.00000000000E+00  0.00000000000E+00  0.28349142195E+02  0.28349142195E+02  0.00000000000E+00 0. -1.
          2   -1    0    0  501    0  0.00000000000E+00 -0.00000000000E+00 -0.54898165474E+03  0.54898165474E+03  0.00000000000E+00 0.  1.
         25    2    1    2    0    0 -0.19555535479E+00 -0.28626889091E+02 -0.42104989179E+03  0.44017106237E+03  0.12509202914E+03 0.  0.
          5    1    3    3  502    0 -0.22424759289E+02 -0.57091041298E+02 -0.38160903714E+03  0.38652967086E+03  0.41800000000E+01 0.  1.
         -5    1    3    3    0  502  0.22229203934E+02  0.28464152207E+02 -0.39440854653E+02  0.53641391519E+02  0.41800000000E+01 0.  1.
        -11    1    1    2    0    0 -0.25478282138E+02  0.52898139029E+01  0.54142822586E+01  0.26578928575E+02  0.00000000000E+00 0. -1.
         11    1    1    2    0    0  0.25673837493E+02  0.23337075188E+02 -0.10499690301E+03  0.11058080599E+03  0.00000000000E+00 0.  1.
</event>
<event>
 7    1  0.2334784E-009  0.1095124E+03  0.7561462E-02  0.1261475E+00
          2   -1    0    0  501    0  0.00000000000E+00  0.00000000000E+00  0.34107691644E+03  0.34107691644E+03  0.00000000000E+00 0.  1.
         -2   -1    0    0    0  501 -0.00000000000E+00 -0.00000000000E+00 -0.91504899078E+02  0.91504899078E+02  0.00000000000E+00 0. -1.
         25    2    1    2    0    0  0.83213393505E+01 -0.62659567709E+02 -0.20982956622E+02  0.14172368097E+03  0.12509936517E+03 0.  0.
          5    1    3    3  502    0  0.17141742090E+02 -0.87318621385E+02 -0.50208995095E+02  0.10225847911E+03  0.41800000000E+01 0. -1.
         -5    1    3    3    0  502 -0.88204027400E+01  0.24659053676E+02  0.29226038473E+02  0.39465201856E+02  0.41800000000E+01 0. -1.
        -11    1    1    2    0    0 -0.23740653203E+02 -0.12406924339E+02  0.42166653126E+02  0.49955750639E+02  0.00000000000E+00 0.  1.
         11    1    1    2    0    0  0.15419313852E+02  0.75066492048E+02  0.22838832085E+03  0.24090238390E+03  0.00000000000E+00 0. -1.
</event>
<event>
 7    1  0.2334784E-009  0.1434245E+03  0.7561462E-02  0.1208794E+00
          2   -1    0    0  501    0  0.00000000000E+00  0.00000000000E+00  0.50059935832E+02  0.50059935832E+02  0.00000000000E+00 0. -1.
         -2   -1    0    0    0  501 -0.00000000000E+00 -0.00000000000E+00 -0.49005876137E+03  0.49005876137E+03  0.00000000000E+00 0.  1.
         25    2    1    2    0    0  0.43331132762E+02  0.10189524749E+03 -0.20511615819E+03  0.26453921292E+03  0.12509247896E+03 0.  0.
          5    1    3    3  502    0 -0.36940013385E+02  0.39795756038E+02 -0.30205461745E+02  0.62274465929E+02  0.41800000000E+01 0.  1.
         -5    1    3    3    0  502  0.80271146146E+02  0.62099491448E+02 -0.17491069645E+03  0.20226474699E+03  0.41800000000E+01 0.  1.
        -11    1    1    2    0    0  0.19171683175E+02 -0.29381319074E+02 -0.20113205893E+02  0.40439540027E+02  0.00000000000E+00 0.  1.
         11    1    1    2    0    0 -0.62502815936E+02 -0.72513928412E+02 -0.21476946145E+03  0.23513994426E+03  0.00000000000E+00 0. -1.
</event>
<event>
 7    1  0.2334784E-009  0.1119615E+03  0.7561462E-02  0.1256980E+00
         -1   -1    0    0    0  501 -0.00000000000E+00  0.00000000000E+00  0.17635037195E+02  0.17635037195E+02  0.00000000000E+00 0.  1.
          1   -1    0    0  501    0  0.00000000000E+00 -0.00000000000E+00 -0.83918333617E+03  0.83918333617E+03  0.00000000000E+00 0. -1.
         25    2    1    2    0    0 -0.54589276495E+02  0.92253340311E+01 -0.49153829509E+03  0.51021740036E+03  0.12508718636E+03 0.  0.
          5    1    3    3  502    0 -0.51410119039E+02 -0.44935479143E+02 -0.38006071040E+03  0.38616811574E+03  0.41800000000E+01 0.  1.
         -5    1    3    3    0  502 -0.31791574559E+01  0.54160813174E+02 -0.11147758470E+03  0.12404928462E+03  0.41800000000E+01 0.  1.
        -11    1    1    2    0    0  0.41275666692E+02  0.35495794028E+02 -0.22826254412E+03  0.23466448624E+03  0.00000000000E+00 0. -1.
         11    1    1    2    0    0  0.13313609803E+02 -0.44721128059E+02 -0.10174745976E+03  0.11193648676E+03  0.00000000000E+00 0.  1.
</event>
<event>
 7    1  0.2334784E-009  0.1042589E+03  0.7561462E-02  0.1271587E+00
         -2   -1    0    0    0  501 -0.00000000000E+00  0.00000000000E+00  0.69100694464E+02  0.69100694464E+02  0.00000000000E+00 0.  1.
          2   -1    0    0  501    0  0.00000000000E+00 -0.00000000000E+00 -0.22383198986E+03  0.22383198986E+03  0.00000000000E+00 0. -1.
         25    2    1    2    0    0 -0.25809337075E+02  0.36522537561E+02 -0.13657574097E+03  0.19052635719E+03  0.12508933661E+03 0.  0.
          5    1    3    3  502    0  0.41054155744E+02  0.22350967525E+02 -0.12110775462E+02  0.48468058919E+02  0.41800000000E+01 0.  1.
         -5    1    3    3    0  502 -0.66863492819E+02  0.14171570037E+02 -0.12446496551E+03  0.14205829828E+03  0.41800000000E+01 0.  1.
        -11    1    1    2    0    0  0.13427744848E+02 -0.62716426753E+02  0.63612221852E+01  0.64452460496E+02  0.00000000000E+00 0. -1.
         11    1    1    2    0    0  0.12381592228E+02  0.26193889191E+02 -0.24516776604E+02  0.37953866629E+02  0.00000000000E+00 0.  1.
</event>
<event>
 7    1  0.2334784E-009  0.1006186E+03  0.7561462E-02  0.1279001E+00
          2   -1    0    0  501    0  0.00000000000E+00  0.00000000000E+00  0.13586772869E+03  0.13586772869E+03  0.00000000000E+00 0. -1.
         -2   -1    0    0    0  501 -0.00000000000E+00 -0.00000000000E+00 -0.12255823844E+03  0.12255823844E+03  0.00000000000E+00 0.  1.
         25    2    1    2    0    0  0.39895521043E+02 -0.54293576594E+02  0.18050421952E+02  0.14323204077E+03  0.12510057838E+03 0.  0.
          5    1    3    3  502    0  0.13039914534E+01 -0.66767978114E+02 -0.35643001961E+02  0.75812659128E+02  0.41800000000E+01 0.  1.
         -5    1    3    3    0  502  0.38591529589E+02  0.12474401520E+02  0.53693423913E+02  0.67419381641E+02  0.41800000000E+01 0.  1.
        -11    1    1    2    0    0 -0.42143541109E+02  0.30427706007E+01 -0.35665792892E+02  0.55293627958E+02  0.00000000000E+00 0.  1.
         11    1    1    2    0    0  0.22480200659E+01  0.51250805993E+02  0.30924861197E+02  0.59900298407E+02  0.00000000000E+00 0. -1.
</event>
<event>
 7    1  0.2811068E-009  0.1247696E+03  0.7561462E-02  0.1235430E+00
          2   -1    0    0  501    0  0.00000000000E+00  0.00000000000E+00  0.58652958666E+03  0.58652958666E+03  0.00000000000E+00 0. -1.
         -2   -1    0    0    0  501 -0.00000000000E+00 -0.00000000000E+00 -0.29799692539E+02  0.29799692539E+02  0.00000000000E+00 0.  1.
         25    2    1    2    0    0  0.66683619388E+02 -0.28650334748E+02  0.35624897837E+03  0.38448519837E+03  0.12509191181E+03 0.  0.
          5    1    3    3  502    0  0.85272481769E+02  0.23945582347E+02  0.21601241736E+03  0.23350294199E+03  0.41800000000E+01 0.  1.
         -5    1    3    3    0  502 -0.18588862381E+02 -0.52595917095E+02  0.14023656101E+03  0.15098225638E+03  0.41800000000E+01 0.  1.
        -11    1    1    2    0    0 -0.34573145217E+02  0.53930856304E+02  0.68978114242E+02  0.94137239583E+02  0.00000000000E+00 0.  1.
         11    1    1    2    0    0 -0.32110474171E+02 -0.25280521556E+02  0.13150280151E+03  0.13770684125E+03  0.00000000000E+00 0. -1.
</event>
<event>
 7    1  0.2680190E-009  0.2275484E+03  0.7561462E-02  0.1128377E+00
          1   -1    0    0  501    0  0.00000000000E+00  0.00000000000E+00  0.31103411200E+03  0.31103411200E+03  0.00000000000E+00 0. -1.
         -1   -1    0    0    0  501 -0.00000000000E+00 -0.00000000000E+00 -0.22108969368E+03  0.22108969368E+03  0.00000000000E+00 0.  1.
         25    2    1    2    0    0 -0.14496798375E+03  0.14838454607E+03  0.16533953643E+03  0.29329101535E+03  0.12509503410E+03 0.  0.
          5    1    3    3  502    0 -0.14641835600E+03  0.16520927637E+03  0.13640959472E+03  0.25953321541E+03  0.41800000000E+01 0.  1.
         -5    1    3    3    0  502  0.14503722500E+01 -0.16824730302E+02  0.28929941711E+02  0.33757799940E+02  0.41800000000E+01 0.  1.
        -11    1    1    2    0    0  0.38183552472E+02 -0.83853330580E+02  0.17249574109E+01  0.92153894149E+02  0.00000000000E+00 0.  1.
         11    1    1    2    0    0  0.10678443127E+03 -0.64531215487E+02 -0.77120075521E+02  0.14667889618E+03  0.00000000000E+00 0. -1.
</event>
<event>
 7    1  0.2334784E-009  0.6638552E+02  0.7561462E-02  0.1372834E+00
         -3   -1    0    0    0  501 -0.00000000000E+00  0.00000000000E+00  0.39866298850E+03  0.39866298850E+03  0.00000000000E+00 0.  1.
          3   -1    0    0  501    0  0.00000000000E+00 -0.00000000000E+00 -0.33733575572E+02  0.33733575572E+02  0.00000000000E+00 0. -1.
         25    2    1    2    0    0  0.75228137393E+01 -0.20456759106E+02  0.26813468040E+03  0.29667911023E+03  0.12508883203E+03 0.  0.
          5    1    3    3  502    0  0.13098174594E+02  0.30295488541E+02  0.11837867820E+02  0.35312693442E+02  0.41800000000E+01 0.  1.
         -5    1    3    3    0  502 -0.55753608548E+01 -0.50752247647E+02  0.25629681258E+03  0.26136641679E+03  0.41800000000E+01 0.  1.
        -11    1    1    2    0    0 -0.58332337256E+01 -0.13274563676E+02 -0.13838705282E+02  0.20043712739E+02  0.00000000000E+00 0. -1.
         11    1    1    2    0    0 -0.16895800136E+01  0.33731322782E+02  0.11063343781E+03  0.11567374110E+03  0.00000000000E+00 0.  1.
</event>
<event>
 7    1  0.2334784E-009  0.1586174E+03  0.7561462E-02  0.1190267E+00
          2   -1    0    0  501    0  0.00000000000E+00  0.00000000000E+00  0.12015501851E+04  0.12015501851E+04  0.00000000000E+00 0. -1.
         -2   -1    0    0    0  501 -0.00000000000E+00 -0.00000000000E+00 -0.23284557663E+02  0.23284557663E+02  0.00000000000E+00 0.  1.
         25    2    1    2    0    0  0.12728137427E+03  0.17637868603E+02  0.60314523822E+03  0.62924057265E+03  0.12509147549E+03 0.  0.
          5    1    3    3  502    0  0.10509134368E+03  0.67024597970E+02  0.40273340385E+03  0.42160189068E+03  0.41800000000E+01 0.  1.
         -5    1    3    3    0  502  0.22190030591E+02 -0.49386729367E+02  0.20041183437E+03  0.20763868197E+03  0.41800000000E+01 0.  1.
        -11    1    1    2    0    0 -0.12560784814E+03 -0.52527793233E+01  0.56681259673E+03  0.58058715368E+03  0.00000000000E+00 0. -1.
         11    1    1    2    0    0 -0.16735261304E+01 -0.12385089280E+02  0.83077924912E+01  0.15007016434E+02  0.00000000000E+00 0.  1.
</event>
<event>
 7    1  0.2334784E-009  0.1668069E+03  0.7561462E-02  0.1181219E+00
         -2   -1    0    0    0  501 -0.00000000000E+00  0.00000000000E+00  0.67496739079E+02  0.67496739079E+02  0.00000000000E+00 0.  1.
          2   -1    0    0  501    0  0.00000000000E+00 -0.00000000000E+00 -0.51292006914E+03  0.51292006914E+03  0.00000000000E+00 0. -1.
         25    2    1    2    0    0 -0.12893596503E+03 -0.54491299038E+02 -0.32366632928E+03  0.37416702534E+03  0.12508910980E+03 0.  0.
          5    1    3    3  502    0 -0.11692509834E+03 -0.77923584428E+02 -0.18175815870E+03  0.22977611775E+03  0.41800000000E+01 0.  1.
         -5    1    3    3    0  502 -0.12010866687E+02  0.23432285389E+02 -0.14190817058E+03  0.14439090759E+03  0.41800000000E+01 0.  1.
        -11    1    1    2    0    0  0.10626670338E+03  0.79433937884E+02 -0.99878054915E+02  0.16606621748E+03  0.00000000000E+00 0.  1.
         11    1    1    2    0    0  0.22669261643E+02 -0.24942638846E+02 -0.21878945864E+02  0.40183565399E+02  0.00000000000E+00 0. -1.
</event>
<event>
 7    1  0.2334784E-009  0.1103897E+03  0.7561462E-02  0.1259850E+00
          1   -1    0    0  501    0  0.00000000000E+00  0.00000000000E+00  0.98324828967E+03  0.98324828967E+03  0.00000000000E+00 0. -1.
         -1   -1    0    0    0  501 -0.00000000000E+00 -0.00000000000E+00 -0.12564884696E+02  0.12564884696E+02  0.00000000000E+00 0.  1.
         25    2    1    2    0    0  0.81462699275E+01  0.19258310629E+02  0.53277487024E+03  0.54766176017E+03  0.12508835659E+03 0.  0.
          5    1    3    3  502    0  0.33160712474E+02 -0.45917154130E+02  0.22827886830E+03  0.23523760755E+03  0.41800000000E+01 0. -1.
         -5    1    3    3    0  502 -0.25014442547E+02  0.65175464760E+02  0.30449600194E+03  0.31242415262E+03  0.41800000000E+01 0. -1.
        -11    1    1    2    0    0  0.33573855624E+01 -0.55717753646E+02  0.29394818759E+03  0.29920106466E+03  0.00000000000E+00 0.  1.
         11    1    1    2    0    0 -0.11503655490E+02  0.36459443017E+02  0.14396034714E+03  0.14895034953E+03  0.00000000000E+00 0. -1.
</event>
<event>
 7    1  0.2334784E-009  0.1353928E+03  0.7561462E-02  0.1219666E+00
         -1   -1    0    0    0  501 -0.00000000000E+00  0.00000000000E+00  0.33284528923E+02  0.33284528923E+02  0.00000000000E+00 0.  1.
          1   -1    0    0  501    0  0.00000000000E+00 -0.00000000000E+00 -0.63933208248E+03  0.63933208248E+03  0.00000000000E+00 0. -1.
         25    2    1    2    0    0 -0.82170293054E+02  0.27427232480E+02 -0.23644799711E+03  0.28117792603E+03  0.12509660511E+03 0.  0.
          5    1    3    3  502    0 -0.40999191277E+02 -0.48458767427E+02 -0.12382036691E+03  0.13920539317E+03  0.41800000000E+01 0. -1.
         -5    1    3    3    0  502 -0.41171101777E+02  0.75885999907E+02 -0.11262763020E+03  0.14197253287E+03  0.41800000000E+01 0. -1.
        -11    1    1    2    0    0  0.81240857453E+02  0.11277758096E+02 -0.17829669057E+03  0.19625741926E+03  0.00000000000E+00 0.  1.
         11    1    1    2    0    0  0.92943560081E+00 -0.38704990576E+02 -0.19130286588E+03  0.19518126611E+03  0.00000000000E+00 0. -1.
</event>
<event>
 7    1  0.2334784E-009  0.1242386E+03  0.7561462E-02  0.1236264E+00
          2   -1    0    0  501    0  0.00000000000E+00  0.00000000000E+00  0.28728017072E+03  0.28728017072E+03  0.00000000000E+00 0.  1.
         -2   -1    0    0    0  501 -0.00000000000E+00 -0.00000000000E+00 -0.76813755794E+02  0.76813755794E+02  0.00000000000E+00 0. -1.
         25    2    1    2    0    0  0.21683711939E+02 -0.91820610613E+02  0.15913176516E+03  0.22331966898E+03  0.12509015939E+03 0.  0.
          5    1    3    3  502    0 -0.50424622237E+02 -0.28849455480E+02  0.41092525855E+02  0.71281145406E+02  0.41800000000E+01 0. -1.
         -5    1    3    3    0  502  0.72108334176E+02 -0.62971155133E+02  0.11803923930E+03  0.15203852358E+03  0.41800000000E+01 0. -1.
        -11    1    1    2    0    0 -0.16953126182E+02  0.77254358528E+02  0.77322534082E+02  0.11060930646E+03  0.00000000000E+00 0.  1.
         11    1    1    2    0    0 -0.47305857574E+01  0.14566252085E+02 -0.25987884319E+02  0.30164951065E+02  0.00000000000E+00 0. -1.
</event>
<event>
 7    1  0.2334784E-009  0.9380622E+02  0.7561462E-02  0.1293888E+00
          1   -1    0    0  501    0  0.00000000000E+00  0.00000000000E+00  0.19533264583E+03  0.19533264583E+03  0.00000000000E+00 0. -1.
         -1   -1    0    0    0  501 -0.00000000000E+00 -0.00000000000E+00 -0.73499450888E+02  0.73499450888E+02  0.00000000000E+00 0.  1.
         25    2    1    2    0    0 -0.61934985204E+01  0.49123597923E+02  0.69779558927E+02  0.15152853492E+03  0.12506087619E+03 0.  0.
          5    1    3    3  502    0 -0.63256019970E+02  0.39218170356E+02  0.51679844592E+02  0.90706491970E+02  0.41800000000E+01 0. -1.
         -5    1    3    3    0  502  0.57062521450E+02  0.99054275668E+01  0.18099714335E+02  0.60822042949E+02  0.41800000000E+01 0. -1.
        -11    1    1    2    0    0 -0.88543060714E+01 -0.25489562978E+02 -0.24087708011E+02  0.36170903141E+02  0.00000000000E+00 0.  1.
         11    1    1    2    0    0  0.15047804592E+02 -0.23634034945E+02  0.76141344025E+02  0.81132658657E+02  0.00000000000E+00 0. -1.
</event>
<event>
 7    1  0.2334784E-009  0.9544629E+02  0.7561462E-02  0.1290174E+00
         -4   -1    0    0    0  501 -0.00000000000E+00  0.00000000000E+00  0.34674821207E+03  0.34674821207E+03  0.00000000000E+00 0.  1.
          4   -1    0    0  501    0  0.00000000000E+00 -0.00000000000E+00 -0.50806346727E+02  0.50806346727E+02  0.00000000000E+00 0. -1.
         25    2    1    2    0    0 -0.27810919085E+02 -0.19198765087E+02  0.61440855668E+02  0.14339944697E+03  0.12508550213E+03 0.  0.
          5    1    3    3  502    0 -0.61652841953E+01 -0.61067115393E+02  0.72219035985E+02  0.94869725784E+02  0.41800000000E+01 0.  1.
         -5    1    3    3    0  502 -0.21645634889E+02  0.41868350306E+02 -0.10778180318E+02  0.48529721183E+02  0.41800000000E+01 0.  1.
        -11    1    1    2    0    0 -0.25416902695E+02 -0.15674906322E+00  0.15183526641E+03  0.15394801603E+03  0.00000000000E+00 0.  1.
         11    1    1    2    0    0  0.53227821780E+02  0.19355514150E+02  0.82665743262E+02  0.10020709580E+03  0.00000000000E+00 0. -1.
</event>
<event>
 7    1  0.2334784E-009  0.1028107E+03  0.7561462E-02  0.1274494E+00
          1   -1    0    0  501    0  0.00000000000E+00  0.00000000000E+00  0.17310832887E+04  0.17310832887E+04  0.00000000000E+00 0. -1.
         -1   -1    0    0    0  501 -0.00000000000E+00 -0.00000000000E+00 -0.11289376820E+02  0.11289376820E+02  0.00000000000E+00 0.  1.
         25    2    1    2    0    0 -0.49601512751E+02 -0.33254940849E+02  0.13382871265E+04  0.13454458350E+04  0.12508341574E+03 0.  0.
          5    1    3    3  502    0  0.18961034078E+02 -0.23272698801E+02  0.98159592014E+03  0.98206372612E+03  0.41800000000E+01 0. -1.
         -5    1    3    3    0  502 -0.68562546829E+02 -0.99822420482E+01  0.35669120631E+03  0.36338210887E+03  0.41800000000E+01 0. -1.
        -11    1    1    2    0    0  0.72783382824E+02  0.38198657891E+02  0.33220255806E+03  0.34222083201E+03  0.00000000000E+00 0.  1.
         11    1    1    2    0    0 -0.23181870073E+02 -0.49437170422E+01  0.49304227368E+02  0.54705998525E+02  0.00000000000E+00 0. -1.
</event>
<event>
 7    1  0.2334784E-009  0.1332501E+03  0.7561462E-02  0.1222711E+00
         -1   -1    0    0    0  501 -0.00000000000E+00  0.00000000000E+00  0.21853301151E+02  0.21853301151E+02  0.00000000000E+00 0.  1.
          1   -1    0    0  501    0  0.00000000000E+00 -0.00000000000E+00 -0.12171116631E+04  0.12171116631E+04  0.00000000000E+00 0. -1.
         25    2    1    2    0    0 -0.92069786905E+02 -0.77927586702E+02 -0.59010240881E+03  0.61515684250E+03  0.12509010173E+03 0.  0.
          5    1    3    3  502    0 -0.78718345559E+02 -0.78794110267E+02 -0.23831716856E+03  0.26309244567E+03  0.41800000000E+01 0.  1.
         -5    1    3    3    0  502 -0.13351441346E+02  0.86652356495E+00 -0.35178524026E+03  0.35206439682E+03  0.41800000000E+01 0.  1.
        -11    1    1    2    0    0  0.10306765725E+03  0.79161497137E+02 -0.59416147834E+03  0.60820830885E+03  0.00000000000E+00 0. -1.
         11    1    1    2    0    0 -0.10997870347E+02 -0.12339104353E+01 -0.10994474816E+02  0.15599812935E+02  0.00000000000E+00 0.  1.
</event>
<event>
 7    1  0.2334784E-009  0.9128252E+02  0.7561462E-02  0.1299775E+00
          2   -1    0    0  501    0  0.00000000000E+00  0.00000000000E+00  0.13971913853E+03  0.13971913853E+03  0.00000000000E+00 0. -1.
         -2   -1    0    0    0  501 -0.00000000000E+00 -0.00000000000E+00 -0.15171559338E+03  0.15171559338E+03  0.00000000000E+00 0.  1.
         25    2    1    2    0    0 -0.14497542857E+02  0.48400654645E+02  0.74079068815E+02  0.15390843137E+03  0.12508914698E+03 0.  0.
          5    1    3    3  502    0  0.15534903291E+02 -0.17419253444E+02 -0.22819456122E+02  0.32908412124E+02  0.41800000000E+01 0. -1.
         -5    1    3    3    0  502 -0.30032446148E+02  0.65819908088E+02  0.96898524937E+02  0.12100001925E+03  0.41800000000E+01 0. -1.
        -11    1    1    2    0    0 -0.38949612612E+01  0.17519431170E+02 -0.62681894401E+02  0.65200621757E+02  0.00000000000E+00 0.  1.
         11    1    1    2    0    0  0.18392504118E+02 -0.65920085815E+02 -0.23393629258E+02  0.72325678783E+02  0.00000000000E+00 0. -1.
</event>
<event>
 7    1  0.2334784E-009  0.9462083E+02  0.7561462E-02  0.1292032E+00
         -3   -1    0    0    0  501 -0.00000000000E+00  0.00000000000E+00  0.16535551426E+03  0.16535551426E+03  0.00000000000E+00 0.  1.
          3   -1    0    0  501    0  0.00000000000E+00 -0.00000000000E+00 -0.11629471895E+03  0.11629471895E+03  0.00000000000E+00 0. -1.
         25    2    1    2    0    0 -0.53599986025E+02 -0.65213223680E+02  0.93307525701E+01  0.15119678145E+03  0.12509069003E+03 0.  0.
          5    1    3    3  502    0 -0.53749658702E+02 -0.32122533314E+02 -0.51922470177E+02  0.81451201749E+02  0.41800000000E+01 0.  1.
         -5    1    3    3    0  502  0.14967267633E+00 -0.33090690366E+02  0.61253222747E+02  0.69745579700E+02  0.41800000000E+01 0.  1.
        -11    1    1    2    0    0  0.37371955795E+02  0.67088444270E+02 -0.10613967132E+02  0.77525342519E+02  0.00000000000E+00 0. -1.
         11    1    1    2    0    0  0.16228030230E+02 -0.18752205899E+01  0.50344009875E+02  0.52928109240E+02  0.00000000000E+00 0.  1.
</event>
<event>
 7    1  0.2334784E-009  0.1706960E+03  0.7561462E-02  0.1177124E+00
          1   -1    0    0  501    0  0.00000000000E+00  0.00000000000E+00  0.14050817390E+04  0.14050817390E+04  0.00000000000E+00 0. -1.
         -1   -1    0    0    0  501 -0.00000000000E+00 -0.00000000000E+00 -0.24050022035E+02  0.24050022035E+02  0.00000000000E+00 0.  1.
         25    2    1    2    0    0 -0.13648503817E+03 -0.16961579130E+02  0.93217627615E+03  0.95053469090E+03  0.12509087886E+03 0.  0.
          5    1    3    3  502    0 -0.12398704566E+03 -0.54680642949E+02  0.82672995109E+03  0.83777243010E+03  0.41800000000E+01 0. -1.
         -5    1    3    3    0  502 -0.12497992510E+02  0.37719063818E+02  0.10544632506E+03  0.11276226080E+03  0.41800000000E+01 0. -1.
        -11    1    1    2    0    0  0.12537844831E+03  0.46952704945E+02  0.37168247946E+03  0.39505971364E+03  0.00000000000E+00 0.  1.
         11    1    1    2    0    0  0.11106589864E+02 -0.29991125815E+02  0.77172961329E+02  0.83537356472E+02  0.00000000000E+00 0. -1.
</event>
<event>
 7    1  0.2334784E-009  0.8362205E+02  0.7561462E-02  0.1319076E+00
         -2   -1    0    0    0  501 -0.00000000000E+00  0.00000000000E+00  0.10391755577E+03  0.10391755577E+03  0.00000000000E+00 0.  1.
          2   -1    0    0  501    0  0.00000000000E+00 -0.00000000000E+00 -0.39246258276E+03  0.39246258276E+03  0.00000000000E+00 0. -1.
         25    2    1    2    0    0 -0.19914238601E+02  0.35383176148E+02 -0.35339754542E+03  0.37707499790E+03  0.12508870004E+03 0.  0.
          5    1    3    3  502    0 -0.99444244439E+01  0.55987945763E+02 -0.34870775340E+03  0.35333852229E+03  0.41800000000E+01 0.  1.
         -5    1    3    3    0  502 -0.99698141567E+01 -0.20604769615E+02 -0.46897920157E+01  0.23736475609E+02  0.41800000000E+01 0.  1.
        -11    1    1    2    0    0  0.39246289231E+02  0.74655047444E+01  0.93249893595E+00  0.39960912574E+02  0.00000000000E+00 0. -1.
         11    1    1    2    0    0 -0.19332050631E+02 -0.42848680892E+02  0.63920019487E+02  0.79344228064E+02  0.00000000000E+00 0.  1.
</event>
<event>
 7    1  0.2334784E-009  0.9996219E+02  0.7561462E-02  0.1280375E+00
         -4   -1    0    0    0  501 -0.00000000000E+00  0.00000000000E+00  0.33335430651E+03  0.33335430651E+03  0.00000000000E+00 0.  1.
          4   -1    0    0  501    0  0.00000000000E+00 -0.00000000000E+00 -0.51098141151E+02  0.51098141151E+02  0.00000000000E+00 0. -1.
         25    2    1    2    0    0 -0.50989948015E+02  0.27013077954E+02  0.91657561268E+02  0.16546465556E+03  0.12509101696E+03 0.  0.
          5    1    3    3  502    0 -0.83357463516E+02 -0.12783152710E+02  0.69790283969E+02  0.10954465689E+03  0.41800000000E+01 0. -1.
         -5    1    3    3    0  502  0.32367515501E+02  0.39796230664E+02  0.21867277299E+02  0.55919998670E+02  0.41800000000E+01 0. -1.
        -11    1    1    2    0    0  0.18386830003E+02 -0.25429119726E+02  0.18273842262E+03  0.18541317847E+03  0.00000000000E+00 0.  1.
         11    1    1    2    0    0  0.32603118012E+02 -0.15839582283E+01  0.78601814702E+01  0.33574613632E+02  0.00000000000E+00 0. -1.
</event>
<event>
 7    1  0.2334784E-009  0.8474333E+02  0.7561462E-02  0.1316105E+00
          2   -1    0    0  501    0  0.00000000000E+00  0.00000000000E+00  0.34628519677E+03  0.34628519677E+03  0.00000000000E+00 0. -1.
         -2   -1    0    0    0  501 -0.00000000000E+00 -0.00000000000E+00 -0.43821725340E+02  0.43821725340E+02  0.00000000000E+00 0.  1.
         25    2    1    2    0    0 -0.71367005275E+00 -0.11020612302E+02  0.26188808397E+03  0.29043970581E+03  0.12509153034E+03 0.  0.
          5    1    3    3  502    0  0.13890868914E+02 -0.62378594622E+02  0.19193921167E+03  0.20234173737E+03  0.41800000000E+01 0.  1.
         -5    1    3    3    0  502 -0.14604538966E+02  0.51357982320E+02  0.69948872302E+02  0.88097968437E+02  0.41800000000E+01 0.  1.
        -11    1    1    2    0    0  0.96523262182E+01 -0.18594982786E+02  0.59719255807E+02  0.63287678899E+02  0.00000000000E+00 0. -1.
         11    1    1    2    0    0 -0.89386561654E+01  0.29615595088E+02 -0.19143868347E+02  0.36379537404E+02  0.00000000000E+00 0.  1.
</event>
<event>
 7    1  0.2334784E-009  0.9332237E+02  0.7561462E-02  0.1295000E+00
          1   -1    0    0  501    0  0.00000000000E+00  0.00000000000E+00  0.11517319688E+03  0.11517319688E+03  0.00000000000E+00 0. -1.
         -1   -1    0    0    0  501 -0.00000000000E+00 -0.00000000000E+00 -0.11153876914E+03  0.11153876914E+03  0.00000000000E+00 0.  1.
         25    2    1    2    0    0 -0.24617661898E+02  0.25802440527E+02 -0.46328214983E+01  0.13015540088E+03  0.12508864908E+03 0.  0.
          5    1    3    3  502    0  0.31296600256E+02  0.10515727608E+02 -0.47458408910E+02  0.57964046537E+02  0.41800000000E+01 0. -1.
         -5    1    3    3    0  502 -0.55914262154E+02  0.15286712919E+02  0.42825587412E+02  0.72191354339E+02  0.41800000000E+01 0. -1.
        -11    1    1    2    0    0 -0.30766377762E+02 -0.25346514499E+02 -0.32187307502E+01  0.39992199558E+02  0.00000000000E+00 0.  1.
         11    1    1    2    0    0  0.55384039661E+02 -0.45592602771E+00  0.11485979989E+02  0.56564365585E+02  0.00000000000E+00 0. -1.
</event>
<event>
 7    1  0.2334784E-009  0.6941566E+02  0.7561462E-02  0.1362091E+00
         -2   -1    0    0    0  501 -0.00000000000E+00  0.00000000000E+00  0.62478118085E+02  0.62478118085E+02  0.00000000000E+00 0.  1.
          2   -1    0    0  501    0  0.00000000000E+00 -0.00000000000E+00 -0.28408222185E+03  0.28408222185E+03  0.00000000000E+00 0. -1.
         25    2    1    2    0    0 -0.22465968371E+02 -0.33000248753E+02 -0.21264049245E+03  0.24991638649E+03  0.12509390494E+03 0.  0.
          5    1    3    3  502    0 -0.11624357929E+02 -0.29748127708E+02  0.44269936453E+01  0.32513804332E+02  0.41800000000E+01 0. -1.
         -5    1    3    3    0  502 -0.10841610442E+02 -0.32521210450E+01 -0.21706748609E+03  0.21740258216E+03  0.41800000000E+01 0. -1.
        -11    1    1    2    0    0  0.15496209635E+02  0.62422801295E+02  0.23486336117E+01  0.64360350484E+02  0.00000000000E+00 0.  1.
         11    1    1    2    0    0  0.69697587362E+01 -0.29422552541E+02 -0.11312244923E+02  0.32283602960E+02  0.00000000000E+00 0. -1.
</event>
<event>
 7    1  0.2334784E-009  0.1128743E+03  0.7561462E-02  0.1255338E+00
          2   -1    0    0  501    0  0.00000000000E+00  0.00000000000E+00  0.42084256003E+03  0.42084256003E+03  0.00000000000E+00 0. -1.
         -2   -1    0    0    0  501 -0.00000000000E+00 -0.00000000000E+00 -0.38664321663E+02  0.38664321663E+02  0.00000000000E+00 0.  1.
         25    2    1    2    0    0  0.52647146188E+02 -0.23726663555E+02  0.15894799008E+03  0.21034908483E+03  0.12509035682E+03 0.  0.
          5    1    3    3  502    0  0.16002229486E+02 -0.62278243794E+02  0.30559643793E+02  0.71316304078E+02  0.41800000000E+01 0.  1.
         -5    1    3    3    0  502  0.36644916702E+02  0.38551580239E+02  0.12838834629E+03  0.13903278075E+03  0.41800000000E+01 0.  1.
        -11    1    1    2    0    0  0.10144547355E+02  0.41482314364E+02  0.11626356403E+03  0.12385842954E+03  0.00000000000E+00 0. -1.
         11    1    1    2    0    0 -0.62791693542E+02 -0.17755650809E+02  0.10696668425E+03  0.12529936732E+03  0.00000000000E+00 0.  1.
</event>
<event>
 7    1  0.2334784E-009  0.1507792E+03  0.7561462E-02  0.1199519E+00
          2   -1    0    0  501    0  0.00000000000E+00  0.00000000000E+00  0.34955740506E+03  0.34955740506E+03  0.00000000000E+00 0. -1.
         -2   -1    0    0    0  501 -0.00000000000E+00 -0.00000000000E+00 -0.76602745691E+02  0.76602745691E+02  0.00000000000E+00 0.  1.
         25    2    1    2    0    0 -0.39074094884E+02 -0.11114506861E+03  0.10118795188E+03  0.19941697958E+03  0.12509244171E+03 0.  0.
          5    1    3    3  502    0 -0.53377662845E+02 -0.13409250525E+02  0.81782373626E+02  0.98665150516E+02  0.41800000000E+01 0.  1.
         -5    1    3    3    0  502  0.14303567961E+02 -0.97735818084E+02  0.19405578253E+02  0.10075182907E+03  0.41800000000E+01 0.  1.
        -11    1    1    2    0    0  0.66998449794E+02  0.63709152863E+02  0.11667681949E+03  0.14886614336E+03  0.00000000000E+00 0. -1.
         11    1    1    2    0    0 -0.27924354910E+02  0.47435915746E+02  0.55089887997E+02  0.77877027803E+02  0.00000000000E+00 0.  1.
</event>
<event>
 7    1  0.2334784E-009  0.1315154E+03  0.7561462E-02  0.1225224E+00
          2   -1    0    0  501    0  0.00000000000E+00  0.00000000000E+00  0.20535402002E+03  0.20535402002E+03  0.00000000000E+00 0. -1.
         -2   -1    0    0    0  501 -0.00000000000E+00 -0.00000000000E+00 -0.90230674099E+02  0.90230674099E+02  0.00000000000E+00 0.  1.
         25    2    1    2    0    0  0.64921914674E+02 -0.42325674071E+02  0.30007190060E+02  0.15018362437E+03  0.12509345260E+03 0.  0.
          5    1    3    3  502    0  0.96689009172E+02 -0.57350526516E+01  0.30209866152E+02  0.10154685488E+03  0.41800000000E+01 0. -1.
         -5    1    3    3    0  502 -0.31767094498E+02 -0.36590621419E+02 -0.20267609216E+00  0.48636769489E+02  0.41800000000E+01 0. -1.
        -11    1    1    2    0    0  0.51866163785E+01  0.46901673680E+02  0.28113160533E+02  0.54927386417E+02  0.00000000000E+00 0.  1.
         11    1    1    2    0    0 -0.70108531052E+02 -0.45759996099E+01  0.57002995325E+02  0.90473683327E+02  0.00000000000E+00 0. -1.
</event>
<event>
 7    1  0.2334784E-009  0.7189967E+02  0.7561462E-02  0.1353750E+00
          2   -1    0    0  501    0  0.00000000000E+00  0.00000000000E+00  0.99712640691E+02  0.99712640691E+02  0.00000000000E+00 0. -1.
         -2   -1    0    0    0  501 -0.00000000000E+00 -0.00000000000E+00 -0.14462147440E+03  0.14462147440E+03  0.00000000000E+00 0.  1.
         25    2    1    2    0    0 -0.60639579474E+02  0.47118204127E+01 -0.37127070297E+02  0.14396581329E+03  0.12509346984E+03 0.  0.
          5    1    3    3  502    0 -0.34698365681E+02  0.57407742933E+01 -0.83474966785E+02  0.90677866926E+02  0.41800000000E+01 0. -1.
         -5    1    3    3    0  502 -0.25941213793E+02 -0.10289538805E+01  0.46347896488E+02  0.53287946367E+02  0.41800000000E+01 0. -1.
        -11    1    1    2    0    0  0.40635609913E+01  0.19956266335E+02 -0.28707138956E+02  0.35197512994E+02  0.00000000000E+00 0.  1.
         11    1    1    2    0    0  0.56576018483E+02 -0.24668086748E+02  0.20925375547E+02  0.65170788801E+02  0.00000000000E+00 0. -1.
</event>
<event>
 7    1  0.2334784E-009  0.1247490E+03  0.7561462E-02  0.1235462E+00
          1   -1    0    0  501    0  0.00000000000E+00  0.00000000000E+00  0.10458228115E+03  0.10458228115E+03  0.00000000000E+00 0. -1.
         -1   -1    0    0    0  501 -0.00000000000E+00 -0.00000000000E+00 -0.17209844989E+03  0.17209844989E+03  0.00000000000E+00 0.  1.
         25    2    1    2    0    0 -0.38648532672E+02  0.67378891983E+02 -0.54232971611E+02  0.15691570001E+03  0.12509075720E+03 0.  0.
          5    1    3    3  502    0  0.40849042084E+02  0.18251901594E+02 -0.43866367297E+02  0.62797346527E+02  0.41800000000E+01 0. -1.
         -5    1    3    3    0  502 -0.79497574756E+02  0.49126990389E+02 -0.10366604314E+02  0.94118353480E+02  0.41800000000E+01 0. -1.
        -11    1    1    2    0    0  0.49160472498E+02 -0.80426298939E+02 -0.27065400894E+02  0.98069758553E+02  0.00000000000E+00 0.  1.
         11    1    1    2    0    0 -0.10511939825E+02  0.13047406956E+02  0.13782203764E+02  0.21695272475E+02  0.00000000000E+00 0. -1.
</event>
<event>
 6    1  0.2334784E-009  0.9282365E+02  0.7561462E-02  0.1296154E+00
         -2   -1    0    0    0  501 -0.00000000000E+00  0.00000000000E+00  0.21062691809E+02  0.21062691809E+02  0.00000000000E+00 0.  1.
          2   -1    0    0  501    0  0.00000000000E+00 -0.00000000000E+00 -0.15931660823E+04  0.15931660823E+04  0.00000000000E+00 0. -1.
          5    1    1    2  502    0 -0.11838706560E+01  0.54848629049E+02 -0.45750018712E+03  0.46079677437E+03  0.41800000000E+01 0. -1.
         -5    1    1    2    0  502  0.23009711958E+02 -0.63425063872E+02 -0.10167671115E+04  0.10190117846E+04  0.41800000000E+01 0. -1.
        -11    1    1    2    0    0 -0.10825330377E+02 -0.25241833654E+02  0.28744818098E+01  0.27615223874E+02  0.00000000000E+00 0.  1.
         11    1    1    2    0    0 -0.11000510925E+02  0.33818268476E+02 -0.10071057367E+03  0.10680499133E+03  0.00000000000E+00 0. -1.
</event>
<event>
 7    1  0.2334784E-009  0.1381057E+03  0.7561462E-02  0.1215901E+00
         -1   -1    0    0    0  501 -0.00000000000E+00  0.00000000000E+00  0.17236512737E+02  0.17236512737E+02  0.00000000000E+00 0.  1.
          1   -1    0    0  501    0  0.00000000000E+00 -0.00000000000E+00 -0.14377401324E+04  0.14377401324E+04  0.00000000000E+00 0. -1.
         25    2    1    2    0    0  0.10513316751E+02 -0.10864885315E+03 -0.91168430616E+03  0.92667678466E+03  0.12508591452E+03 0.  0.
          5    1    3    3  502    0 -0.56553121117E+02 -0.39041981461E+02 -0.34697470298E+03  0.35373923833E+03  0.41800000000E+01 0.  1.
         -5    1    3    3    0  502  0.67066437869E+02 -0.69606871689E+02 -0.56470960318E+03  0.57293754633E+03  0.41800000000E+01 0.  1.
        -11    1    1    2    0    0  0.42336530691E+01  0.98585266034E+01 -0.10284639346E+01  0.10778316342E+02  0.00000000000E+00 0.  1.
         11    1    1    2    0    0 -0.14746969821E+02  0.98790326546E+02 -0.50779084956E+03  0.51752154413E+03  0.00000000000E+00 0. -1.
</event>
<event>
 7    1  0.2334784E-009  0.1123719E+03  0.7561462E-02  0.1256239E+00
         -1   -1    0    0    0  501 -0.00000000000E+00  0.00000000000E+00  0.51545592644E+02  0.51545592644E+02  0.00000000000E+00 0.  1.
          1   -1    0    0  501    0  0.00000000000E+00 -0.00000000000E+00 -0.28700900686E+03  0.28700900686E+03  0.00000000000E+00 0. -1.
         25    2    1    2    0    0 -0.39596265670E+02 -0.36316143788E+02 -0.14749153544E+03  0.20071309413E+03  0.12508104003E+03 0.  0.
          5    1    3    3  502    0  0.44436415597E+02 -0.21088108494E+02 -0.67509635819E+02  0.83632091205E+02  0.41800000000E+01 0. -1.
         -5    1    3    3    0  502 -0.84032681266E+02 -0.15228035294E+02 -0.79981899620E+02  0.11708100293E+03  0.41800000000E+01 0. -1.
        -11    1    1    2    0    0 -0.20684899499E+02  0.16377613579E+02 -0.65289053545E+02  0.70418405312E+02  0.00000000000E+00 0.  1.
         11    1    1    2    0    0  0.60281165169E+02  0.19938530209E+02 -0.22682825232E+02  0.67423100059E+02  0.00000000000E+00 0. -1.
</event>
<event>
 7    1  0.2548209E-009  0.1139408E+03  0.7561462E-02  0.1253441E+00
          2   -1    0    0  501    0  0.00000000000E+00  0.00000000000E+00  0.32830812971E+03  0.32830812971E+03  0.00000000000E+00 0. -1.
         -2   -1    0    0    0  501 -0.00000000000E+00 -0.00000000000E+00 -0.73312801183E+02  0.73312801183E+02  0.00000000000E+00 0.  1.
         25    2    1    2    0    0 -0.56161093061E+02 -0.87688057540E+02  0.89956438295E+02  0.18596546442E+03  0.12509088440E+03 0.  0.
          5    1    3    3  502    0  0.32606034940E+01 -0.30130261380E+02  0.98074757985E+02  0.10273555733E+03  0.41800000000E+01 0.  1.
         -5    1    3    3    0  502 -0.59421696555E+02 -0.57557796160E+02 -0.81183196905E+01  0.83229907094E+02  0.41800000000E+01 0.  1.
        -11    1    1    2    0    0  0.12374550512E+02  0.62969102278E+02  0.28622388828E+02  0.70267193513E+02  0.00000000000E+00 0.  1.
         11    1    1    2    0    0  0.43786542549E+02  0.24718955262E+02  0.13641650140E+03  0.14538827295E+03  0.00000000000E+00 0. -1.
</event>
<event>
 7    1  0.2334784E-009  0.1945777E+03  0.7561462E-02  0.1154396E+00
         -2   -1    0    0    0  501 -0.00000000000E+00  0.00000000000E+00  0.92093261279E+02  0.92093261279E+02  0.00000000000E+00 0.  1.
          2   -1    0    0  501    0  0.00000000000E+00 -0.00000000000E+00 -0.64540851173E+03  0.64540851173E+03  0.00000000000E+00 0. -1.
         25    2    1    2    0    0 -0.17043620710E+03 -0.55359243018E+02 -0.47228383153E+03  0.52039730791E+03  0.12509274191E+03 0.  0.
          5    1    3    3  502    0 -0.12382339839E+03 -0.88572123339E+02 -0.40059123370E+03  0.42856512217E+03  0.41800000000E+01 0.  1.
         -5    1    3    3    0  502 -0.46612808707E+02  0.33212880321E+02 -0.71692597829E+02  0.91832185742E+02  0.41800000000E+01 0.  1.
        -11    1    1    2    0    0  0.10102003305E+03  0.37863586752E+02 -0.95488699800E+02  0.14407216965E+03  0.00000000000E+00 0. -1.
         11    1    1    2    0    0  0.69416174043E+02  0.17495656266E+02  0.14457280880E+02  0.73032295441E+02  0.00000000000E+00 0.  1.
</event>
<event>
 7    1  0.2334784E-009  0.7486835E+02  0.7561462E-02  0.1344279E+00
         -3   -1    0    0    0  501 -0.00000000000E+00  0.00000000000E+00  0.23503327098E+02  0.23503327098E+02  0.00000000000E+00 0.  1.
          3   -1    0    0  501    0  0.00000000000E+00 -0.00000000000E+00 -0.53536832685E+03  0.53536832685E+03  0.00000000000E+00 0. -1.
         25    2    1    2    0    0  0.12401519745E+02  0.11931766105E+02 -0.34689824973E+03  0.36916370378E+03  0.12508908742E+03 0.  0.
          5    1    3    3  502    0  0.47090771064E+02  0.26605922223E+02 -0.64704557671E+02  0.84436769242E+02  0.41800000000E+01 0. -1.
         -5    1    3    3    0  502 -0.34689251318E+02 -0.14674156118E+02 -0.28219369206E+03  0.28472693454E+03  0.41800000000E+01 0. -1.
        -11    1    1    2    0    0  0.12080014971E+02  0.16258473196E+02  0.31911720280E+00  0.20257505971E+02  0.00000000000E+00 0.  1.
         11    1    1    2    0    0 -0.24481534716E+02 -0.28190239300E+02 -0.16528586722E+03  0.16945044420E+03  0.00000000000E+00 0. -1.
</event>
<event>
 7    1  0.2334784E-009  0.1127125E+03  0.7561462E-02  0.1255628E+00
         -3   -1    0    0    0  501 -0.00000000000E+00  0.00000000000E+00  0.11657920781E+03  0.11657920781E+03  0.00000000000E+00 0.  1.
          3   -1    0    0  501    0  0.00000000000E+00 -0.00000000000E+00 -0.12264514261E+03  0.12264514261E+03  0.00000000000E+00 0. -1.
         25    2    1    2    0    0  0.15153721017E+01 -0.50567215413E+02 -0.37508648698E+01  0.13498468188E+03  0.12508979066E+03 0.  0.
          5    1    3    3  502    0  0.55086957429E+02  0.14791716149E+01  0.16147181580E+02  0.57575730134E+02  0.41800000000E+01 0. -1.
         -5    1    3    3    0  502 -0.53571585328E+02 -0.52046387028E+02 -0.19898046450E+02  0.77408951741E+02  0.41800000000E+01 0. -1.
        -11    1    1    2    0    0  0.32716792424E+02  0.51607252286E+02  0.18891449229E+02  0.63957672324E+02  0.00000000000E+00 0.  1.
         11    1    1    2    0    0 -0.34232164526E+02 -0.10400368737E+01 -0.21206519155E+02  0.40281996220E+02  0.00000000000E+00 0. -1.
</event>
<event>
 7    1  0.2334784E-009  0.1223800E+03  0.7561462E-02  0.1239222E+00
         -1   -1    0    0    0  501 -0.00000000000E+00  0.00000000000E+00  0.75143778583E+02  0.75143778583E+02  0.00000000000E+00 0.  1.
          1   -1    0    0  501    0  0.00000000000E+00 -0.00000000000E+00 -0.28982990853E+03  0.28982990853E+03  0.00000000000E+00 0. -1.
         25    2    1    2    0    0 -0.82187857982E+02  0.39072537018E+02 -0.10852912309E+03  0.18896721051E+03  0.12509408036E+03 0.  0.
          5    1    3    3  502    0 -0.35457408895E+02  0.81754406193E+02 -0.78328485433E+02  0.11871745789E+03  0.41800000000E+01 0.  1.
         -5    1    3    3    0  502 -0.46730449087E+02 -0.42681869175E+02 -0.30200637655E+02  0.70249752619E+02  0.41800000000E+01 0.  1.
        -11    1    1    2    0    0  0.38809152295E+02 -0.10586182544E+02  0.15992847993E+02  0.43289591701E+02  0.00000000000E+00 0.  1.
         11    1    1    2    0    0  0.43378705688E+02 -0.28486354473E+02 -0.12214985485E+03  0.13271688491E+03  0.00000000000E+00 0. -1.
</event>
<event>
 7    1  0.2334784E-009  0.1153136E+03  0.7561462E-02  0.1251035E+00
          1   -1    0    0  501    0  0.00000000000E+00  0.00000000000E+00  0.39150614774E+03  0.39150614774E+03  0.00000000000E+00 0. -1.
         -1   -1    0    0    0  501 -0.00000000000E+00 -0.00000000000E+00 -0.64206906174E+02  0.64206906174E+02  0.00000000000E+00 0.  1.
         25    2    1    2    0    0  0.91914370254E+01  0.10147910535E+03  0.98142482903E+02  0.18884386105E+03  0.12509022970E+03 0.  0.
          5    1    3    3  502    0  0.32654088345E+02  0.16781297749E+02 -0.19623709421E+02  0.41838544564E+02  0.41800000000E+01 0.  1.
         -5    1    3    3    0  502 -0.23462651319E+02  0.84697807603E+02  0.11776619232E+03  0.14700531648E+03  0.41800000000E+01 0.  1.
        -11    1    1    2    0    0 -0.97464594599E+01 -0.91810176173E+01 -0.56801870356E+01  0.14544726923E+02  0.00000000000E+00 0.  1.
         11    1    1    2    0    0  0.55502243453E+00 -0.92298087734E+02  0.23483694570E+03  0.25232446595E+03  0.00000000000E+00 0. -1.
</event>
<event>
 7    1  0.2334784E-009  0.5665351E+02  0.7561462E-02  0.1412437E+00
         -4   -1    0    0    0  501 -0.00000000000E+00  0.00000000000E+00  0.38202678146E+03  0.38202678146E+03  0.00000000000E+00 0.  1.
          4   -1    0    0  501    0  0.00000000000E+00 -0.00000000000E+00 -0.26619693223E+02  0.26619693223E+02  0.00000000000E+00 0. -1.
         25    2    1    2    0    0  0.17986340128E+02  0.97187018405E+01  0.24428665594E+03  0.27520871690E+03  0.12508359602E+03 0.  0.
          5    1    3    3  502    0 -0.15299209530E+02  0.10853576931E+02 -0.79141972780E+01  0.20783956866E+02  0.41800000000E+01 0.  1.
         -5    1    3    3    0  502  0.33285549658E+02 -0.11348750908E+01  0.25220085321E+03  0.25442476004E+03  0.41800000000E+01 0.  1.
        -11    1    1    2    0    0  0.16217812829E+02  0.11850071942E+02  0.79802421399E+02  0.82291361145E+02  0.00000000000E+00 0.  1.
         11    1    1    2    0    0 -0.34204152957E+02 -0.21568773783E+02  0.31318010905E+02  0.51146396638E+02  0.00000000000E+00 0. -1.
</event>
<event>
 7    1  0.2334784E-009  0.9794301E+02  0.7561462E-02  0.1284682E+00
          1   -1    0    0  501    0  0.00000000000E+00  0.00000000000E+00  0.72424058000E+03  0.72424058000E+03  0.00000000000E+00 0. -1.
         -1   -1    0    0    0  501 -0.00000000000E+00 -0.00000000000E+00 -0.27612124401E+02  0.27612124401E+02  0.00000000000E+00 0.  1.
         25    2    1    2    0    0 -0.33571145091E+02  0.64597453795E+02  0.23935572909E+03  0.27971212738E+03  0.12509139195E+03 0.  0.
          5    1    3    3  502    0 -0.18382022116E+02  0.85146392052E+01 -0.10470541231E+02  0.23184099110E+02  0.41800000000E+01 0. -1.
         -5    1    3    3    0  502 -0.15189122975E+02  0.56082814590E+02  0.24982627032E+03  0.25652802827E+03  0.41800000000E+01 0. -1.
        -11    1    1    2    0    0 -0.28680493183E+02 -0.21327847365E+01  0.13426491875E+03  0.13731055264E+03  0.00000000000E+00 0. -1.
         11    1    1    2    0    0  0.62251638274E+02 -0.62464669059E+02  0.32300780776E+03  0.33483002438E+03  0.00000000000E+00 0.  1.
</event>
<event>
 7    1  0.2334784E-009  0.1948269E+03  0.7561462E-02  0.1154178E+00
          3   -1    0    0  501    0  0.00000000000E+00  0.00000000000E+00  0.35537465527E+03  0.35537465527E+03  0.00000000000E+00 0. -1.
         -3   -1    0    0    0  501 -0.00000000000E+00 -0.00000000000E+00 -0.11507521125E+03  0.11507521125E+03  0.00000000000E+00 0.  1.
         25    2    1    2    0    0  0.16536399311E+03 -0.49478073530E+02  0.13877551978E+03  0.25436140317E+03  0.12509096112E+03 0.  0.
          5    1    3    3  502    0 -0.18270599312E+02  0.45905641735E+01  0.25188340521E+02  0.31730316368E+02  0.41800000000E+01 0.  1.
         -5    1    3    3    0  502  0.18363459243E+03 -0.54068637703E+02  0.11358717926E+03  0.22263108680E+03  0.41800000000E+01 0.  1.
        -11    1    1    2    0    0 -0.65546585977E+02  0.43939410809E+02  0.82153069984E+01  0.79337998617E+02  0.00000000000E+00 0.  1.
         11    1    1    2    0    0 -0.99817407136E+02  0.55386627206E+01  0.93308617243E+02  0.13675046473E+03  0.00000000000E+00 0. -1.
</event>
<event>
 7    1  0.2334784E-009  0.1213473E+03  0.7561462E-02  0.1240891E+00
         -1   -1    0    0    0  501 -0.00000000000E+00  0.00000000000E+00  0.14692665380E+03  0.14692665380E+03  0.00000000000E+00 0.  1.
          1   -1    0    0  501    0  0.00000000000E+00 -0.00000000000E+00 -0.10354853159E+03  0.10354853159E+03  0.00000000000E+00 0. -1.
         25    2    1    2    0    0 -0.62640222678E+02  0.13079999745E+02  0.41669222501E+02  0.14655430952E+03  0.12508779975E+03 0.  0.
          5    1    3    3  502    0 -0.68125888581E+02 -0.44084317406E+02  0.13187216920E+02  0.82316090932E+02  0.41800000000E+01 0.  1.
         -5    1    3    3    0  502  0.54856659037E+01  0.57164317151E+02  0.28482005581E+02  0.64238218590E+02  0.41800000000E+01 0.  1.
        -11    1    1    2    0    0  0.69369553777E+02 -0.37274658139E+02  0.11678834058E-02  0.78749826235E+02  0.00000000000E+00 0.  1.
         11    1    1    2    0    0 -0.67293310993E+01  0.24194658394E+02  0.17077318307E+01  0.25171049637E+02  0.00000000000E+00 0. -1.
</event>
<event>
 7    1  0.2334784E-009  0.1139598E+03  0.7561462E-02  0.1253408E+00
          2   -1    0    0  501    0  0.00000000000E+00  0.00000000000E+00  0.22743081569E+03  0.22743081569E+03  0.00000000000E+00 0. -1.
         -2   -1    0    0    0  501 -0.00000000000E+00 -0.00000000000E+00 -0.80698279108E+02  0.80698279108E+02  0.00000000000E+00 0.  1.
         25    2    1    2    0    0  0.55299351980E+02 -0.91104564018E+00  0.15026078725E+03  0.20318968272E+03  0.12509554207E+03 0.  0.
          5    1    3    3  502    0 -0.32228041228E+02 -0.27247879761E+02  0.29416227660E+02  0.51612793401E+02  0.41800000000E+01 0.  1.
         -5    1    3    3    0  502  0.87527393208E+02  0.26336834121E+02  0.12084455959E+03  0.15157688932E+03  0.41800000000E+01 0.  1.
        -11    1    1    2    0    0 -0.25234041966E+02  0.38403709780E+02  0.21523776881E+02  0.50743223883E+02  0.00000000000E+00 0. -1.
         11    1    1    2    0    0 -0.30065310014E+02 -0.37492664140E+02 -0.25052027549E+02  0.54196188195E+02  0.00000000000E+00 0.  1.
</event>
<event>
 7    1  0.2827725E-009  0.1383008E+03  0.7561462E-02  0.1215634E+00
         -1   -1    0    0    0  501 -0.00000000000E+00  0.00000000000E+00  0.54583384465E+02  0.54583384465E+02  0.00000000000E+00 0.  1.
          1   -1    0    0  501    0  0.00000000000E+00 -0.00000000000E+00 -0.43210367827E+03  0.43210367827E+03  0.00000000000E+00 0. -1.
         25    2    1    2    0    0  0.10273777178E+03 -0.26460093378E+02 -0.16724301102E+03  0.23424454739E+03  0.12508036198E+03 0.  0.
          5    1    3    3  502    0  0.76073058604E+02  0.36847027877E+02 -0.50004568990E+02  0.98299252431E+02  0.41800000000E+01 0.  1.
         -5    1    3    3    0  502  0.26664713174E+02 -0.63307121255E+02 -0.11723844203E+03  0.13594529496E+03  0.41800000000E+01 0.  1.
        -11    1    1    2    0    0 -0.64648639610E+02 -0.15500504212E+02 -0.17106452000E+03  0.18352869595E+03  0.00000000000E+00 0. -1.
         11    1    1    2    0    0 -0.38089132168E+02  0.41960597590E+02 -0.39212762787E+02  0.68913819404E+02  0.00000000000E+00 0.  1.
</event>
<event>
 7    1  0.2334784E-009  0.1200247E+03  0.7561462E-02  0.1243056E+00
          3   -1    0    0  501    0  0.00000000000E+00  0.00000000000E+00  0.17529927529E+03  0.17529927529E+03  0.00000000000E+00 0. -1.
         -3   -1    0    0    0  501 -0.00000000000E+00 -0.00000000000E+00 -0.11866145253E+03  0.11866145253E+03  0.00000000000E+00 0.  1.
         25    2    1    2    0    0 -0.63992118166E+02 -0.17340382439E+02 -0.36115923354E+02  0.14610802723E+03  0.12509003018E+03 0.  0.
          5    1    3    3  502    0 -0.10134717540E+03 -0.21711194326E+02 -0.26151684444E+02  0.10697667465E+03  0.41800000000E+01 0. -1.
         -5    1    3    3    0  502  0.37355057232E+02  0.43708118868E+01 -0.99642389109E+01  0.39131352576E+02  0.41800000000E+01 0. -1.
        -11    1    1    2    0    0  0.70233600895E+01  0.37419804204E+02  0.76262513810E+02  0.85238139036E+02  0.00000000000E+00 0. -1.
         11    1    1    2    0    0  0.56968758077E+02 -0.20079421765E+02  0.16491232307E+02  0.62614561551E+02  0.00000000000E+00 0.  1.
</event>
<event>
 7    1  0.2334784E-009  0.9043771E+02  0.7561462E-02  0.1301795E+00
         -4   -1    0    0    0  501 -0.00000000000E+00  0.00000000000E+00  0.41916808756E+02  0.41916808756E+02  0.00000000000E+00 0. -1.
          4   -1    0    0  501    0  0.00000000000E+00 -0.00000000000E+00 -0.45518856407E+03  0.45518856407E+03  0.00000000000E+00 0.  1.
         25    2    1    2    0    0 -0.26703152153E+02 -0.24024680307E+02 -0.36578647934E+03  0.38825139402E+03  0.12509657426E+03 0.  0.
          5    1    3    3  502    0  0.37288596042E+02  0.23318549105E+02 -0.19259828778E+03  0.19760001767E+03  0.41800000000E+01 0. -1.
         -5    1    3    3    0  502 -0.63991748196E+02 -0.47343229412E+02 -0.17318819155E+03  0.19065137634E+03  0.41800000000E+01 0. -1.
        -11    1    1    2    0    0  0.34536759768E+02  0.31066706455E+02  0.12375326195E+02  0.48073659354E+02  0.00000000000E+00 0. -1.
         11    1    1    2    0    0 -0.78336076144E+01 -0.70420261480E+01 -0.59860602171E+02  0.60780319453E+02  0.00000000000E+00 0.  1.
</event>
<event>
 7    1  0.2334784E-009  0.1155891E+03  0.7561462E-02  0.1250556E+00
         -2   -1    0    0    0  501 -0.00000000000E+00  0.00000000000E+00  0.19713506479E+02  0.19713506479E+02  0.00000000000E+00 0. -1.
          2   -1    0    0  501    0  0.00000000000E+00 -0.00000000000E+00 -0.88403292261E+03  0.88403292261E+03  0.00000000000E+00 0.  1.
         25    2    1    2    0    0 -0.68343632957E+02  0.21449187403E+02 -0.55452696773E+03  0.57295462879E+03  0.12508368763E+03 0.  0.
          5    1    3    3  502    0 -0.75391310717E+02 -0.36462190778E+02 -0.28096513465E+03  0.29321019829E+03  0.41800000000E+01 0.  1.
         -5    1    3    3    0  502  0.70476777596E+01  0.57911378181E+02 -0.27356183308E+03  0.27974443051E+03  0.41800000000E+01 0.  1.
        -11    1    1    2    0    0  0.74028259031E+02 -0.82719264274E+01 -0.30733328237E+03  0.31623148855E+03  0.00000000000E+00 0.  1.
         11    1    1    2    0    0 -0.56846260743E+01 -0.13177260975E+02 -0.24591660342E+01  0.14560311741E+02  0.00000000000E+00 0. -1.
</event>
<event>
 7    1  0.2334784E-009  0.1298530E+03  0.7561462E-02  0.1227674E+00
         -1   -1    0    0    0  501 -0.00000000000E+00  0.00000000000E+00  0.54474174084E+02  0.54474174084E+02  0.00000000000E+00 0.  1.
          1   -1    0    0  501    0  0.00000000000E+00 -0.00000000000E+00 -0.45909082784E+03  0.45909082784E+03  0.00000000000E+00 0. -1.
         25    2    1    2    0    0 -0.94028120054E+02 -0.64166274159E+02 -0.19314605740E+03  0.25672766570E+03  0.12508036115E+03 0.  0.
          5    1    3    3  502    0  0.14780117687E+02 -0.14866267919E-01  0.93848851438E+01  0.18000015806E+02  0.41800000000E+01 0.  1.
         -5    1    3    3    0  502 -0.10880823774E+03 -0.64151407891E+02 -0.20253094254E+03  0.23872764989E+03  0.41800000000E+01 0.  1.
        -11    1    1    2    0    0  0.91749964593E+02  0.51742501873E+02 -0.21836811085E+03  0.24244581732E+03  0.00000000000E+00 0. -1.
         11    1    1    2    0    0  0.22781554613E+01  0.12423772286E+02  0.68975144926E+01  0.14391518902E+02  0.00000000000E+00 0.  1.
</event>
<event>
 7    1  0.2334784E-009  0.1684913E+03  0.7561462E-02  0.1179430E+00
         -3   -1    0    0    0  501 -0.00000000000E+00  0.00000000000E+00  0.39559561880E+02  0.39559561880E+02  0.00000000000E+00 0.  1.
          3   -1    0    0  501    0  0.00000000000E+00 -0.00000000000E+00 -0.10932380446E+04  0.10932380446E+04  0.00000000000E+00 0. -1.
         25    2    1    2    0    0 -0.11547201444E+03 -0.10639726746E+03 -0.32327335566E+03  0.38054413255E+03  0.12511598496E+03 0.  0.
          5    1    3    3  502    0 -0.44502072946E+02 -0.49554215192E+02 -0.29449030089E+02  0.72943625582E+02  0.41800000000E+01 0. -1.
         -5    1    3    3    0  502 -0.70969941499E+02 -0.56843052266E+02 -0.29382432557E+03  0.30760050696E+03  0.41800000000E+01 0. -1.
        -11    1    1    2    0    0 -0.12998416400E+02  0.21866041945E+02 -0.81687735150E+02  0.85556815586E+02  0.00000000000E+00 0.  1.
         11    1    1    2    0    0  0.12847043084E+03  0.84531225514E+02 -0.64871739195E+03  0.66669665839E+03  0.00000000000E+00 0. -1.
</event>
<event>
 7    1  0.2334784E-009  0.9404242E+02  0.7561462E-02  0.1293347E+00
          2   -1    0    0  501    0  0.00000000000E+00  0.00000000000E+00  0.52319507936E+03  0.52319507936E+03  0.00000000000E+00 0.  1.
         -2   -1    0    0    0  501 -0.00000000000E+00 -0.00000000000E+00 -0.55328176880E+02  0.55328176880E+02  0.00000000000E+00 0. -1.
         25    2    1    2    0    0  0.38831152980E+02  0.44249266947E+02  0.50150529732E+02  0.14706790685E+03  0.12509211616E+03 0.  0.
          5    1    3    3  502    0  0.42665074512E+02 -0.99339691412E+01 -0.27737561793E+02  0.52017661042E+02  0.41800000000E+01 0. -1.
         -5    1    3    3    0  502 -0.38339215321E+01  0.54183236088E+02  0.77888091525E+02  0.95050245811E+02  0.41800000000E+01 0. -1.
        -11    1    1    2    0    0  0.19539752128E+02 -0.11282584563E+02  0.27732954218E+02  0.35752138081E+02  0.00000000000E+00 0. -1.
         11    1    1    2    0    0 -0.58370905108E+02 -0.32966682384E+02  0.38998341853E+03  0.39570321131E+03  0.00000000000E+00 0.  1.
</event>
<event>
 7    1  0.2334784E-009  0.2886457E+03  0.7561462E-02  0.1091058E+00
         -2   -1    0    0    0  501 -0.00000000000E+00  0.00000000000E+00  0.12279424602E+03  0.12279424602E+03  0.00000000000E+00 0. -1.
          2   -1    0    0  501    0  0.00000000000E+00 -0.00000000000E+00 -0.70243789297E+03  0.70243789297E+03  0.00000000000E+00 0.  1.
         25    2    1    2    0    0 -0.73999772944E+02  0.26310976986E+03 -0.31633014597E+03  0.43636656598E+03  0.12509317032E+03 0.  0.
          5    1    3    3  502    0  0.28548497091E+02  0.98759227416E+02 -0.77442208988E+02  0.12877565693E+03  0.41800000000E+01 0. -1.
         -5    1    3    3    0  502 -0.10254827004E+03  0.16435054244E+03 -0.23888793698E+03  0.30759090904E+03  0.41800000000E+01 0. -1.
        -11    1    1    2    0    0  0.12096576163E+02 -0.15940887951E+03 -0.18691986112E+03  0.24596046939E+03  0.00000000000E+00 0.  1.
         11    1    1    2    0    0  0.61903196781E+02 -0.10370089035E+03 -0.76393639857E+02  0.14290510362E+03  0.00000000000E+00 0. -1.
</event>
<event>
 7    1  0.2334784E-009  0.1034341E+03  0.7561462E-02  0.1273236E+00
         -3   -1    0    0    0  501 -0.00000000000E+00  0.00000000000E+00  0.11006401632E+02  0.11006401632E+02  0.00000000000E+00 0.  1.
          3   -1    0    0  501    0  0.00000000000E+00 -0.00000000000E+00 -0.12929880626E+04  0.12929880626E+04  0.00000000000E+00 0. -1.
         25    2    1    2    0    0  0.21894015673E+02  0.11778808939E+02 -0.98159166574E+03  0.98984221768E+03  0.12508928560E+03 0.  0.
          5    1    3    3  502    0  0.44209201824E+02 -0.40840657479E+02 -0.31043041935E+03  0.31623872389E+03  0.41800000000E+01 0.  1.
         -5    1    3    3    0  502 -0.22315186151E+02  0.52619466418E+02 -0.67116124640E+03  0.67360349379E+03  0.41800000000E+01 0.  1.
        -11    1    1    2    0    0 -0.35780337575E+02 -0.42475195837E+02 -0.22175408581E+03  0.22860282018E+03  0.00000000000E+00 0.  1.
         11    1    1    2    0    0  0.13886321902E+02  0.30696386897E+02 -0.78635909385E+02  0.85549426353E+02  0.00000000000E+00 0. -1.
</event>
<event>
 7    1  0.2334784E-009  0.1102734E+03  0.7561462E-02  0.1260064E+00
          2   -1    0    0  501    0  0.00000000000E+00  0.00000000000E+00  0.24818715627E+03  0.24818715627E+03  0.00000000000E+00 0.  1.
         -2   -1    0    0    0  501 -0.00000000000E+00 -0.00000000000E+00 -0.59531796226E+02  0.59531796226E+02  0.00000000000E+00 0. -1.
         25    2    1    2    0    0  0.36613863779E+00  0.53583455881E+02  0.10195124909E+03  0.17002443190E+03  0.12507169724E+03 0.  0.
          5    1    3    3  502    0  0.61465944706E+01  0.87127608111E+02  0.33834197193E+02  0.93761538055E+02  0.41800000000E+01 0.  1.
         -5    1    3    3    0  502 -0.57804558328E+01 -0.33544152230E+02  0.68117051899E+02  0.76262893846E+02  0.41800000000E+01 0.  1.
        -11    1    1    2    0    0 -0.41691777941E+02 -0.27031938365E+02  0.69937720418E+02  0.85791694102E+02  0.00000000000E+00 0.  1.
         11    1    1    2    0    0  0.41325639304E+02 -0.26551517516E+02  0.16766390532E+02  0.51902826491E+02  0.00000000000E+00 0. -1.
</event>
<event>
 7    1  0.2334784E-009  0.1320671E+03  0.7561462E-02  0.1224420E+00
         -1   -1    0    0    0  501 -0.00000000000E+00  0.00000000000E+00  0.92935882048E+03  0.92935882048E+03  0.00000000000E+00 0.  1.
          1   -1    0    0  501    0  0.00000000000E+00 -0.00000000000E+00 -0.33223612677E+02  0.33223612677E+02  0.00000000000E+00 0. -1.
         25    2    1    2    0    0 -0.13528895457E+02 -0.76086587467E+02  0.78475926218E+03  0.79841535503E+03  0.12509108593E+03 0.  0.
          5    1    3    3  502    0  0.52810403772E+02 -0.49028174031E+02  0.47485493215E+03  0.48030967051E+03  0.41800000000E+01 0. -1.
         -5    1    3    3    0  502 -0.66339299229E+02 -0.27058413436E+02  0.30990433003E+03  0.31810568453E+03  0.41800000000E+01 0. -1.
        -11    1    1    2    0    0 -0.39713626248E+02  0.34950068239E+02  0.55886032117E+02  0.76954063995E+02  0.00000000000E+00 0.  1.
         11    1    1    2    0    0  0.53242521705E+02  0.41136519229E+02  0.55489913512E+02  0.87213014128E+02  0.00000000000E+00 0. -1.
</event>
<event>
 7    1  0.2334784E-009  0.2271093E+03  0.7561462E-02  0.1128691E+00
          2   -1    0    0  501    0  0.00000000000E+00  0.00000000000E+00  0.14063795408E+03  0.14063795408E+03  0.00000000000E+00 0. -1.
         -2   -1    0    0    0  501 -0.00000000000E+00 -0.00000000000E+00 -0.47096051381E+03  0.47096051381E+03  0.00000000000E+00 0.  1.
         25    2    1    2    0    0 -0.98685338500E+02 -0.20409572068E+03 -0.10580477964E+03  0.27970643762E+03  0.12508869100E+03 0.  0.
          5    1    3    3  502    0 -0.46856025145E+02 -0.85598061728E+02 -0.11390644692E+03  0.15004887975E+03  0.41800000000E+01 0. -1.
         -5    1    3    3    0  502 -0.51829313356E+02 -0.11849765895E+03  0.81016672774E+01  0.12965755787E+03  0.41800000000E+01 0. -1.
        -11    1    1    2    0    0  0.56235426262E+02  0.10008294442E+03 -0.17459911953E+03  0.20895901864E+03  0.00000000000E+00 0.  1.
         11    1    1    2    0    0  0.42449912238E+02  0.10401277626E+03 -0.49918660560E+02  0.12293301163E+03  0.00000000000E+00 0. -1.
</event>
<event>
 7    1  0.2334784E-009  0.1142299E+03  0.7561462E-02  0.1252931E+00
          2   -1    0    0  501    0  0.00000000000E+00  0.00000000000E+00  0.32344000150E+02  0.32344000150E+02  0.00000000000E+00 0. -1.
         -2   -1    0    0    0  501 -0.00000000000E+00 -0.00000000000E+00 -0.53009632485E+03  0.53009632485E+03  0.00000000000E+00 0.  1.
         25    2    1    2    0    0 -0.25235860690E+02 -0.58523304401E+02 -0.34252978936E+03  0.37018382390E+03  0.12509029160E+03 0.  0.
          5    1    3    3  502    0 -0.61498764756E+02  0.73551240457E+01 -0.19332982257E+03  0.20305193575E+03  0.41800000000E+01 0.  1.
         -5    1    3    3    0  502  0.36262904066E+02 -0.65878428447E+02 -0.14919996679E+03  0.16713188815E+03  0.41800000000E+01 0.  1.
        -11    1    1    2    0    0  0.40950742959E+02  0.13090133840E+02 -0.13208217238E+03  0.13890289851E+03  0.00000000000E+00 0.  1.
         11    1    1    2    0    0 -0.15714882269E+02  0.45433170561E+02 -0.23140362958E+02  0.53353602594E+02  0.00000000000E+00 0. -1.
</event>
<event>
 7    1  0.2334784E-009  0.2878099E+03  0.7561462E-02  0.1091498E+00
         -2   -1    0    0    0  501 -0.00000000000E+00  0.00000000000E+00  0.26368474645E+03  0.26368474645E+03  0.00000000000E+00 0.  1.
          2   -1    0    0  501    0  0.00000000000E+00 -0.00000000000E+00 -0.37466665539E+03  0.37466665539E+03  0.00000000000E+00 0. -1.
         25    2    1    2    0    0  0.21857434928E+03  0.16078196492E+03 -0.17783993347E+03  0.34770728645E+03  0.12509088180E+03 0.  0.
          5    1    3    3  502    0  0.10011435626E+03  0.60370033026E+01 -0.36024710067E+02  0.10665168481E+03  0.41800000000E+01 0.  1.
         -5    1    3    3    0  502  0.11845999302E+03  0.15474496162E+03 -0.14181522340E+03  0.24105560164E+03  0.41800000000E+01 0.  1.
        -11    1    1    2    0    0 -0.15115383837E+03 -0.14827798291E+03  0.66954778141E+02  0.22207382869E+03  0.00000000000E+00 0.  1.
         11    1    1    2    0    0 -0.67420510911E+02 -0.12503982007E+02 -0.96753613316E-01  0.68570286705E+02  0.00000000000E+00 0. -1.
</event>
<event>
 7    1  0.2334784E-009  0.8229616E+02  0.7561462E-02  0.1322659E+00
         -1   -1    0    0    0  501 -0.00000000000E+00  0.00000000000E+00  0.41903709449E+02  0.41903709449E+02  0.00000000000E+00 0.  1.
          1   -1    0    0  501    0  0.00000000000E+00 -0.00000000000E+00 -0.37763915020E+03  0.37763915020E+03  0.00000000000E+00 0. -1.
         25    2    1    2    0    0  0.20571228492E+01  0.61340545452E+02 -0.19852963415E+03  0.24254600641E+03  0.12509058846E+03 0.  0.
          5    1    3    3  502    0 -0.20602792665E+02  0.39968636856E+02 -0.38256431986E+01  0.45321903574E+02  0.41800000000E+01 0.  1.
         -5    1    3    3    0  502  0.22659915514E+02  0.21371908596E+02 -0.19470399095E+03  0.19722410284E+03  0.41800000000E+01 0.  1.
        -11    1    1    2    0    0  0.30463169123E+02 -0.32389409002E+02 -0.14458305763E+02  0.46755973886E+02  0.00000000000E+00 0.  1.
         11    1    1    2    0    0 -0.32520291972E+02 -0.28951136450E+02 -0.12274750084E+03  0.13024087935E+03  0.00000000000E+00 0. -1.
</event>
<event>
 7    1  0.2334784E-009  0.8381408E+02  0.7561462E-02  0.1318563E+00
          2   -1    0    0  501    0  0.00000000000E+00  0.00000000000E+00  0.69637681048E+03  0.69637681048E+03  0.00000000000E+00 0. -1.
         -2   -1    0    0    0  501 -0.00000000000E+00 -0.00000000000E+00 -0.22092015958E+02  0.22092015958E+02  0.00000000000E+00 0.  1.
         25    2    1    2    0    0 -0.32573393958E+02  0.23597704116E+02  0.50187366544E+03  0.51878919902E+03  0.12508868585E+03 0.  0.
          5    1    3    3  502    0  0.32479331442E+02  0.11674793039E+02  0.43673032043E+02  0.55821267374E+02  0.41800000000E+01 0.  1.
         -5    1    3    3    0  502 -0.65052725400E+02  0.11922911077E+02  0.45820063339E+03  0.46296793165E+03  0.41800000000E+01 0.  1.
        -11    1    1    2    0    0 -0.58664727397E+00 -0.32304439495E+02  0.10194884827E+02  0.33880033098E+02  0.00000000000E+00 0.  1.
         11    1    1    2    0    0  0.33160041232E+02  0.87067353790E+01  0.16221624426E+03  0.16579959432E+03  0.00000000000E+00 0. -1.
</event>
<event>
 7    1  0.2334784E-009  0.1251028E+03  0.7561462E-02  0.1234909E+00
          1   -1    0    0  501    0  0.00000000000E+00  0.00000000000E+00  0.12595062905E+04  0.12595062905E+04  0.00000000000E+00 0. -1.
         -1   -1    0    0    0  501 -0.00000000000E+00 -0.00000000000E+00 -0.16103282386E+02  0.16103282386E+02  0.00000000000E+00 0.  1.
         25    2    1    2    0    0  0.41674540851E+02 -0.63205700153E+02  0.90985603201E+03  0.92153036093E+03  0.12509388171E+03 0.  0.
          5    1    3    3  502    0 -0.39898858836E+02 -0.28355783177E+02  0.19128786880E+03  0.19749554559E+03  0.41800000000E+01 0.  1.
         -5    1    3    3    0  502  0.81573399688E+02 -0.34849916976E+02  0.71856816321E+03  0.72403481534E+03  0.41800000000E+01 0.  1.
        -11    1    1    2    0    0  0.22625688502E+02  0.35859702751E+02  0.18672217117E+03  0.19147587124E+03  0.00000000000E+00 0. -1.
         11    1    1    2    0    0 -0.64300229353E+02  0.27345997402E+02  0.14682480497E+03  0.16260334075E+03  0.00000000000E+00 0.  1.
</event>
<event>
 7    1  0.2334784E-009  0.1158832E+03  0.7561462E-02  0.1250047E+00
         -1   -1    0    0    0  501 -0.00000000000E+00  0.00000000000E+00  0.12431429931E+02  0.12431429931E+02  0.00000000000E+00 0.  1.
          1   -1    0    0  501    0  0.00000000000E+00 -0.00000000000E+00 -0.11269875950E+04  0.11269875950E+04  0.00000000000E+00 0. -1.
         25    2    1    2    0    0  0.37167425471E+02 -0.13994611741E+02 -0.66373903920E+03  0.67659000140E+03  0.12508897300E+03 0.  0.
          5    1    3    3  502    0  0.34246530229E+02  0.51497577993E+02 -0.24446988101E+03  0.25220590891E+03  0.41800000000E+01 0.  1.
         -5    1    3    3    0  502  0.29208952421E+01 -0.65492189734E+02 -0.41926915819E+03  0.42438409249E+03  0.41800000000E+01 0.  1.
        -11    1    1    2    0    0 -0.21933125790E+02  0.55607081673E+02 -0.28431242587E+03  0.29052842381E+03  0.00000000000E+00 0. -1.
         11    1    1    2    0    0 -0.15234299681E+02 -0.41612469933E+02 -0.16650470000E+03  0.17230059972E+03  0.00000000000E+00 0.  1.
</event>
<event>
 7    1  0.2334784E-009  0.3461585E+03  0.7561462E-02  0.1064203E+00
         -1   -1    0    0    0  501 -0.00000000000E+00  0.00000000000E+00  0.37543419344E+03  0.37543419344E+03  0.00000000000E+00 0.  1.
          1   -1    0    0  501    0  0.00000000000E+00 -0.00000000000E+00 -0.33976679034E+03  0.33976679034E+03  0.00000000000E+00 0. -1.
         25    2    1    2    0    0  0.11341499027E+03 -0.32009861987E+03  0.42671842770E+02  0.36440902239E+03  0.12508782104E+03 0.  0.
          5    1    3    3  502    0  0.12368954622E+03 -0.26719335229E+03  0.71679022446E+02  0.30306228075E+03  0.41800000000E+01 0. -1.
         -5    1    3    3    0  502 -0.10274555950E+02 -0.52905267574E+02 -0.29007179676E+02  0.61346741640E+02  0.41800000000E+01 0. -1.
        -11    1    1    2    0    0 -0.54535352610E+02  0.81654167100E+02  0.29409161192E+02  0.10250076317E+03  0.00000000000E+00 0.  1.
         11    1    1    2    0    0 -0.58879637660E+02  0.23844445277E+03 -0.36413600862E+02  0.24829119822E+03  0.00000000000E+00 0. -1.
</event>
<event>
 7    1  0.2334784E-009  0.1874411E+03  0.7561462E-02  0.1160790E+00
         -1   -1    0    0    0  501 -0.00000000000E+00  0.00000000000E+00  0.72862450749E+02  0.72862450749E+02  0.00000000000E+00 0.  1.
          1   -1    0    0  501    0  0.00000000000E+00 -0.00000000000E+00 -0.71269641762E+03  0.71269641762E+03  0.00000000000E+00 0. -1.
         25    2    1    2    0    0 -0.38878971789E+02  0.15545142312E+03 -0.53457837880E+03  0.57192594595E+03  0.12509406534E+03 0.  0.
          5    1    3    3  502    0 -0.83080912171E+02  0.11350947867E+03 -0.33955134853E+03  0.36755874415E+03  0.41800000000E+01 0. -1.
         -5    1    3    3    0  502  0.44201940382E+02  0.41941944446E+02 -0.19502703027E+03  0.20436720180E+03  0.41800000000E+01 0. -1.
        -11    1    1    2    0    0  0.10302746415E+02 -0.14040373044E+03 -0.11288205057E+03  0.18044863936E+03  0.00000000000E+00 0.  1.
         11    1    1    2    0    0  0.28576225374E+02 -0.15047692675E+02  0.76264624983E+01  0.33184283053E+02  0.00000000000E+00 0. -1.
</event>
<event>
 7    1  0.2334784E-009  0.1126056E+03  0.7561462E-02  0.1255819E+00
         -2   -1    0    0    0  501 -0.00000000000E+00  0.00000000000E+00  0.31692194902E+03  0.31692194902E+03  0.00000000000E+00 0.  1.
          2   -1    0    0  501    0  0.00000000000E+00 -0.00000000000E+00 -0.67476938408E+02  0.67476938408E+02  0.00000000000E+00 0. -1.
         25    2    1    2    0    0 -0.89885382148E+02  0.33734296701E+02  0.13119605939E+03  0.20512694727E+03  0.12508906346E+03 0.  0.
          5    1    3    3  502    0 -0.44505462922E+01  0.29691410491E+02  0.11377042512E+03  0.11773941248E+03  0.41800000000E+01 0. -1.
         -5    1    3    3    0  502 -0.85434835856E+02  0.40428862097E+01  0.17425634272E+02  0.87387534789E+02  0.41800000000E+01 0. -1.
        -11    1    1    2    0    0  0.70587019924E+02 -0.47918683461E+02  0.12765558783E+03  0.15354047255E+03  0.00000000000E+00 0.  1.
         11    1    1    2    0    0  0.19298362225E+02  0.14184386760E+02 -0.94066366219E+01  0.25731467600E+02  0.00000000000E+00 0. -1.
</event>
<event>
 7    1  0.2334784E-009  0.1608363E+03  0.7561462E-02  0.1187756E+00
         -1   -1    0    0    0  501 -0.00000000000E+00  0.00000000000E+00  0.82794240750E+02  0.82794240750E+02  0.00000000000E+00 0.  1.
          1   -1    0    0  501    0  0.00000000000E+00 -0.00000000000E+00 -0.36534771601E+03  0.36534771601E+03  0.00000000000E+00 0. -1.
         25    2    1    2    0    0 -0.92616157932E+02  0.89038916254E+02 -0.95400646458E+02  0.20311124589E+03  0.12508882262E+03 0.  0.
          5    1    3    3  502    0 -0.85394025723E+02  0.11737485411E+03 -0.60297107845E+02  0.15723297880E+03  0.41800000000E+01 0. -1.
         -5    1    3    3    0  502 -0.72221322081E+01 -0.28335937859E+02 -0.35103538613E+02  0.45878267089E+02  0.41800000000E+01 0. -1.
        -11    1    1    2    0    0  0.62241919499E+02 -0.11034726508E+02 -0.12728174745E+03  0.14211426728E+03  0.00000000000E+00 0.  1.
         11    1    1    2    0    0  0.30374238432E+02 -0.78004189746E+02 -0.59871081350E+02  0.10291644359E+03  0.00000000000E+00 0. -1.
</event>
<event>
 7    1  0.2334784E-009  0.1144130E+03  0.7561462E-02  0.1252609E+00
          1   -1    0    0  501    0  0.00000000000E+00  0.00000000000E+00  0.16221092375E+03  0.16221092375E+03  0.00000000000E+00 0. -1.
         -1   -1    0    0    0  501 -0.00000000000E+00 -0.00000000000E+00 -0.88529178712E+02  0.88529178712E+02  0.00000000000E+00 0.  1.
         25    2    1    2    0    0 -0.20550743136E+02 -0.33983044538E+02  0.98143708991E+01  0.13160760698E+03  0.12508820879E+03 0.  0.
          5    1    3    3  502    0  0.51694147641E+02 -0.21875485233E+02 -0.58235302838E+01  0.56588052268E+02  0.41800000000E+01 0.  1.
         -5    1    3    3    0  502 -0.72244890776E+02 -0.12107559305E+02  0.15637901183E+02  0.75019554711E+02  0.41800000000E+01 0.  1.
        -11    1    1    2    0    0  0.56363535959E+02  0.13682543840E+02  0.27443103410E+02  0.64165287474E+02  0.00000000000E+00 0.  1.
         11    1    1    2    0    0 -0.35812792824E+02  0.20300500698E+02  0.36424270732E+02  0.54967208013E+02  0.00000000000E+00 0. -1.
</event>
<event>
 7    1  0.2334784E-009  0.1431706E+03  0.7561462E-02  0.1209125E+00
         -3   -1    0    0    0  501 -0.00000000000E+00  0.00000000000E+00  0.15869698799E+02  0.15869698799E+02  0.00000000000E+00 0.  1.
          3   -1    0    0  501    0  0.00000000000E+00 -0.00000000000E+00 -0.13420978959E+04  0.13420978959E+04  0.00000000000E+00 0. -1.
         25    2    1    2    0    0  0.81707127535E+02 -0.50456361494E+02 -0.80837106356E+03  0.82360926415E+03  0.12508614825E+03 0.  0.
          5    1    3    3  502    0 -0.30168284210E+02 -0.26014625091E+02 -0.14578795009E+03  0.15119022747E+03  0.41800000000E+01 0. -1.
         -5    1    3    3    0  502  0.11187541175E+03 -0.24441736402E+02 -0.66258311347E+03  0.67241903668E+03  0.41800000000E+01 0. -1.
        -11    1    1    2    0    0  0.19947595955E+02  0.69633173338E+01 -0.89746835338E+02  0.92200264782E+02  0.00000000000E+00 0.  1.
         11    1    1    2    0    0 -0.10165472349E+03  0.43493044160E+02 -0.42811029818E+03  0.44215806575E+03  0.00000000000E+00 0. -1.
</event>
<event>
 7    1  0.2334784E-009  0.3109850E+03  0.7561462E-02  0.1079875E+00
          1   -1    0    0  501    0  0.00000000000E+00  0.00000000000E+00  0.28570059456E+04  0.28570059456E+04  0.00000000000E+00 0. -1.
         -1   -1    0    0    0  501 -0.00000000000E+00 -0.00000000000E+00 -0.38289855296E+02  0.38289855296E+02  0.00000000000E+00 0.  1.
         25    2    1    2    0    0 -0.21893367223E+03 -0.22028184659E+03  0.15271310153E+04  0.15634043721E+04  0.12509215789E+03 0.  0.
          5    1    3    3  502    0 -0.82459488781E+02 -0.89617462439E+02  0.90603642408E+03  0.91419381480E+03  0.41800000000E+01 0. -1.
         -5    1    3    3    0  502 -0.13647418345E+03 -0.13066438415E+03  0.62109459123E+03  0.64921055728E+03  0.41800000000E+01 0. -1.
        -11    1    1    2    0    0  0.11313820333E+03  0.10065136443E+03  0.82366010827E+03  0.83746458084E+03  0.00000000000E+00 0.  1.
         11    1    1    2    0    0  0.10579546890E+03  0.11963048216E+03  0.46792496670E+03  0.49442684794E+03  0.00000000000E+00 0. -1.
</event>
<event>
 7    1  0.2334784E-009  0.8878534E+02  0.7561462E-02  0.1305820E+00
          3   -1    0    0  501    0  0.00000000000E+00  0.00000000000E+00  0.14583384046E+03  0.14583384046E+03  0.00000000000E+00 0. -1.
         -3   -1    0    0    0  501 -0.00000000000E+00 -0.00000000000E+00 -0.83024763467E+02  0.83024763467E+02  0.00000000000E+00 0.  1.
         25    2    1    2    0    0  0.10821555601E+02 -0.57745162057E+00  0.11461881846E+02  0.12608016696E+03  0.12508954493E+03 0.  0.
          5    1    3    3  502    0 -0.49624343035E+02 -0.28758590801E+02 -0.34587071072E+01  0.57611344554E+02  0.41800000000E+01 0.  1.
         -5    1    3    3    0  502  0.60445898635E+02  0.28181139180E+02  0.14920588953E+02  0.68468822409E+02  0.41800000000E+01 0.  1.
        -11    1    1    2    0    0  0.46623427362E+01 -0.23859319292E+02 -0.16256402948E+02  0.29245088369E+02  0.00000000000E+00 0.  1.
         11    1    1    2    0    0 -0.15483898337E+02  0.24436770913E+02  0.67603598096E+02  0.73533348597E+02  0.00000000000E+00 0. -1.
</event>
<event>
 7    1  0.2334784E-009  0.1000647E+03  0.7561462E-02  0.1280160E+00
          2   -1    0    0  501    0  0.00000000000E+00  0.00000000000E+00  0.55015271670E+03  0.55015271670E+03  0.00000000000E+00 0. -1.
         -2   -1    0    0    0  501 -0.00000000000E+00 -0.00000000000E+00 -0.26883335020E+02  0.26883335020E+02  0.00000000000E+00 0.  1.
         25    2    1    2    0    0  0.51081169759E+02 -0.21587678825E+02  0.26789681281E+03  0.30081821486E+03  0.12509029657E+03 0.  0.
          5    1    3    3  502    0 -0.29439135208E+02  0.21541499260E+02  0.35470917341E+02  0.51052495034E+02  0.41800000000E+01 0.  1.
         -5    1    3    3    0  502  0.80520304967E+02 -0.43129178085E+02  0.23242589547E+03  0.24976571983E+03  0.41800000000E+01 0.  1.
        -11    1    1    2    0    0 -0.22510567312E+02 -0.13867171716E+02  0.12737772773E+02  0.29347486218E+02  0.00000000000E+00 0.  1.
         11    1    1    2    0    0 -0.28570602448E+02  0.35454850541E+02  0.24263479609E+03  0.24687035064E+03  0.00000000000E+00 0. -1.
</event>
<event>
 7    1  0.2334784E-009  0.1470442E+03  0.7561462E-02  0.1204153E+00
          1   -1    0    0  501    0  0.00000000000E+00  0.00000000000E+00  0.37896462544E+03  0.37896462544E+03  0.00000000000E+00 0. -1.
         -1   -1    0    0    0  501 -0.00000000000E+00 -0.00000000000E+00 -0.65698961322E+02  0.65698961322E+02  0.00000000000E+00 0.  1.
         25    2    1    2    0    0  0.64832676596E+02 -0.82704217381E+02  0.23203784198E+03  0.28378227238E+03  0.12509018538E+03 0.  0.
          5    1    3    3  502    0  0.18332747876E+01 -0.95525293098E+02  0.10982742668E+03  0.14562959372E+03  0.41800000000E+01 0.  1.
         -5    1    3    3    0  502  0.62999401808E+02  0.12821075717E+02  0.12221041530E+03  0.13815267865E+03  0.41800000000E+01 0.  1.
        -11    1    1    2    0    0 -0.17935325368E+02 -0.16453323782E+02 -0.87468377612E-01  0.24339174395E+02  0.00000000000E+00 0. -1.
         11    1    1    2    0    0 -0.46897351227E+02  0.99157541163E+02  0.81315290521E+02  0.13654213999E+03  0.00000000000E+00 0.  1.
</event>
<event>
 7    1  0.2334784E-009  0.1469461E+03  0.7561462E-02  0.1204277E+00
          2   -1    0    0  501    0  0.00000000000E+00  0.00000000000E+00  0.13545942355E+03  0.13545942355E+03  0.00000000000E+00 0. -1.
         -2   -1    0    0    0  501 -0.00000000000E+00 -0.00000000000E+00 -0.15980194259E+03  0.15980194259E+03  0.00000000000E+00 0.  1.
         25    2    1    2    0    0 -0.52677740900E+00  0.99614513233E+02 -0.13715665208E+02  0.16049638003E+03  0.12509052638E+03 0.  0.
          5    1    3    3  502    0 -0.53054819520E+02  0.74460632720E+01 -0.51057007283E+01  0.53979610155E+02  0.41800000000E+01 0.  1.
         -5    1    3    3    0  502  0.52528042111E+02  0.92168449961E+02 -0.86099644799E+01  0.10651676988E+03  0.41800000000E+01 0.  1.
        -11    1    1    2    0    0  0.45049993530E+02 -0.48279398394E+02 -0.31547406896E+00  0.66034095361E+02  0.00000000000E+00 0.  1.
         11    1    1    2    0    0 -0.44523216121E+02 -0.51335114839E+02 -0.10311379764E+02  0.68730890740E+02  0.00000000000E+00 0. -1.
</event>
<event>
 7    1  0.2373469E-009  0.1760772E+03  0.7561462E-02  0.1171654E+00
         -3   -1    0    0    0  501 -0.00000000000E+00  0.00000000000E+00  0.11586926206E+03  0.11586926206E+03  0.00000000000E+00 0.  1.
          3   -1    0    0  501    0  0.00000000000E+00 -0.00000000000E+00 -0.27426226701E+03  0.27426226701E+03  0.00000000000E+00 0. -1.
         25    2    1    2    0    0 -0.36901966600E+02 -0.13549914563E+03 -0.70196578088E+02  0.20073031612E+03  0.12507328504E+03 0.  0.
          5    1    3    3  502    0 -0.77738314891E+01  0.23797770088E+02 -0.38244729540E+01  0.25668371794E+02  0.41800000000E+01 0. -1.
         -5    1    3    3    0  502 -0.29128135111E+02 -0.15929691572E+03 -0.66372105134E+02  0.17506194433E+03  0.41800000000E+01 0. -1.
        -11    1    1    2    0    0  0.64840054004E+02  0.83148615347E+02 -0.72690833443E+02  0.12806983292E+03  0.00000000000E+00 0.  1.
         11    1    1    2    0    0 -0.27938087404E+02  0.52350530286E+02 -0.15505593422E+02  0.61331380030E+02  0.00000000000E+00 0. -1.
</event>
<event>
 7    1  0.2334784E-009  0.9413203E+02  0.7561462E-02  0.1293143E+00
          2   -1    0    0  501    0  0.00000000000E+00  0.00000000000E+00  0.25665821124E+02  0.25665821124E+02  0.00000000000E+00 0.  1.
         -2   -1    0    0    0  501 -0.00000000000E+00 -0.00000000000E+00 -0.54120855714E+03  0.54120855714E+03  0.00000000000E+00 0. -1.
         25    2    1    2    0    0  0.40907185545E+01 -0.35781385942E+02 -0.35666803594E+03  0.37967995142E+03  0.12509091130E+03 0.  0.
          5    1    3    3  502    0 -0.21844617342E+02 -0.53259830531E+02 -0.67569282392E+02  0.88864375190E+02  0.41800000000E+01 0.  1.
         -5    1    3    3    0  502  0.25935335896E+02  0.17478444589E+02 -0.28909875355E+03  0.29081557623E+03  0.41800000000E+01 0.  1.
        -11    1    1    2    0    0  0.38438090342E+02  0.40935812833E+02 -0.89259183418E+02  0.10545344653E+03  0.00000000000E+00 0.  1.
         11    1    1    2    0    0 -0.42528808897E+02 -0.51544268914E+01 -0.69615516659E+02  0.81740980313E+02  0.00000000000E+00 0. -1.
</event>
<event>
 7    1  0.2334784E-009  0.5002200E+02  0.7561462E-02  0.1445223E+00
          1   -1    0    0  501    0  0.00000000000E+00  0.00000000000E+00  0.10023451957E+03  0.10023451957E+03  0.00000000000E+00 0. -1.
         -1   -1    0    0    0  501 -0.00000000000E+00 -0.00000000000E+00 -0.11929257559E+03  0.11929257559E+03  0.00000000000E+00 0.  1.
         25    2    1    2    0    0 -0.14654196481E+02 -0.24213393587E+01 -0.25647783268E+00  0.12597750670E+03  0.12509859333E+03 0.  0.
          5    1    3    3  502    0 -0.27953044038E+02  0.13676504705E+02 -0.57162037226E+02  0.65218021679E+02  0.41800000000E+01 0. -1.
         -5    1    3    3    0  502  0.13298847557E+02 -0.16097844064E+02  0.56905559393E+02  0.60759485018E+02  0.41800000000E+01 0. -1.
        -11    1    1    2    0    0  0.11433199403E+02  0.23443416297E+02  0.30335841988E+02  0.40007188421E+02  0.00000000000E+00 0. -1.
         11    1    1    2    0    0  0.32209970785E+01 -0.21022076938E+02 -0.49137420171E+02  0.53542400040E+02  0.00000000000E+00 0.  1.
</event>
<event>
 7    1  0.2334784E-009  0.1416569E+03  0.7561462E-02  0.1211117E+00
          2   -1    0    0  501    0  0.00000000000E+00  0.00000000000E+00  0.43760114435E+03  0.43760114435E+03  0.00000000000E+00 0. -1.
         -2   -1    0    0    0  501 -0.00000000000E+00 -0.00000000000E+00 -0.67515122002E+02  0.67515122002E+02  0.00000000000E+00 0.  1.
         25    2    1    2    0    0  0.63804554888E+02  0.11484854192E+03  0.15933121887E+03  0.24144523499E+03  0.12509258726E+03 0.  0.
          5    1    3    3  502    0  0.30990286245E+02  0.10587145817E+03  0.40205814499E+02  0.11748677975E+03  0.41800000000E+01 0.  1.
         -5    1    3    3    0  502  0.32814268643E+02  0.89770837461E+01  0.11912540437E+03  0.12395845524E+03  0.41800000000E+01 0.  1.
        -11    1    1    2    0    0  0.55406426724E+01 -0.22421776227E+02  0.10340014422E+03  0.10594821658E+03  0.00000000000E+00 0. -1.
         11    1    1    2    0    0 -0.69345197560E+02 -0.92426765689E+02  0.10735465926E+03  0.15772281479E+03  0.00000000000E+00 0.  1.
</event>
<event>
 7    1  0.2334784E-009  0.1015222E+03  0.7561462E-02  0.1277127E+00
         -2   -1    0    0    0  501 -0.00000000000E+00  0.00000000000E+00  0.64865168203E+02  0.64865168203E+02  0.00000000000E+00 0.  1.
          2   -1    0    0  501    0  0.00000000000E+00 -0.00000000000E+00 -0.18897535969E+03  0.18897535969E+03  0.00000000000E+00 0. -1.
         25    2    1    2    0    0  0.21152695883E+01  0.16420801098E+02 -0.35491160769E+02  0.13107347647E+03  0.12508603706E+03 0.  0.
          5    1    3    3  502    0 -0.20371321576E+02  0.64141339141E+02 -0.39252664200E+02  0.78021446900E+02  0.41800000000E+01 0. -1.
         -5    1    3    3    0  502  0.22486591165E+02 -0.47720538043E+02  0.37615034310E+01  0.53052029569E+02  0.41800000000E+01 0. -1.
        -11    1    1    2    0    0  0.39296089915E+02 -0.11797885505E+02 -0.29909910601E+02  0.50773768200E+02  0.00000000000E+00 0.  1.
         11    1    1    2    0    0 -0.41411359503E+02 -0.46229155932E+01 -0.58709120113E+02  0.71993283221E+02  0.00000000000E+00 0. -1.
</event>
<event>
 7    1  0.2334784E-009  0.1083877E+03  0.7561462E-02  0.1263585E+00
         -1   -1    0    0    0  501 -0.00000000000E+00  0.00000000000E+00  0.31357605710E+03  0.31357605710E+03  0.00000000000E+00 0.  1.
          1   -1    0    0  501    0  0.00000000000E+00 -0.00000000000E+00 -0.50403465059E+02  0.50403465059E+02  0.00000000000E+00 0. -1.
         25    2    1    2    0    0 -0.63526420591E+02 -0.68119218698E+01  0.10820928676E+03  0.17731017502E+03  0.12509052734E+03 0.  0.
          5    1    3    3  502    0 -0.12747889297E+02  0.48459172870E+02  0.62992917978E+01  0.50674979960E+02  0.41800000000E+01 0. -1.
         -5    1    3    3    0  502 -0.50778531293E+02 -0.55271094739E+02  0.10190999496E+03  0.12663519506E+03  0.41800000000E+01 0. -1.
        -11    1    1    2    0    0  0.66950658738E+02 -0.15522164298E+02  0.14774785391E+03  0.16295016608E+03  0.00000000000E+00 0.  1.
         11    1    1    2    0    0 -0.34242381473E+01  0.22334086167E+02  0.72154513693E+01  0.23719181063E+02  0.00000000000E+00 0. -1.
</event>
<event>
 7    1  0.2334784E-009  0.1355547E+03  0.7561462E-02  0.1219439E+00
          1   -1    0    0  501    0  0.00000000000E+00  0.00000000000E+00  0.41630512843E+03  0.41630512843E+03  0.00000000000E+00 0. -1.
         -1   -1    0    0    0  501 -0.00000000000E+00 -0.00000000000E+00 -0.55728299933E+02  0.55728299933E+02  0.00000000000E+00 0.  1.
         25    2    1    2    0    0  0.10469405801E+03 -0.10426802346E+02  0.21913814642E+03  0.27338688814E+03  0.12509715984E+03 0.  0.
          5    1    3    3  502    0  0.62952430746E+02 -0.65950451760E+02  0.14794285185E+03  0.17383046464E+03  0.41800000000E+01 0.  1.
         -5    1    3    3    0  502  0.41741627264E+02  0.55523649413E+02  0.71195294572E+02  0.99556423499E+02  0.41800000000E+01 0.  1.
        -11    1    1    2    0    0 -0.24207971991E+02  0.16872179209E+02 -0.64014935488E+01  0.30193963947E+02  0.00000000000E+00 0.  1.
         11    1    1    2    0    0 -0.80486086018E+02 -0.64453768629E+01  0.14784017563E+03  0.16845257628E+03  0.00000000000E+00 0. -1.
</event>
<event>
 7    1  0.2334784E-009  0.3724713E+03  0.7561462E-02  0.1053752E+00
          1   -1    0    0  501    0  0.00000000000E+00  0.00000000000E+00  0.15680848655E+04  0.15680848655E+04  0.00000000000E+00 0.  1.
         -1   -1    0    0    0  501 -0.00000000000E+00 -0.00000000000E+00 -0.14721620971E+03  0.14721620971E+03  0.00000000000E+00 0. -1.
         25    2    1    2    0    0  0.36604694535E+03  0.19935553942E+02  0.19792040997E+03  0.43497967425E+03  0.12508811220E+03 0.  0.
          5    1    3    3  502    0 -0.29312413875E+01 -0.65446738869E+01  0.25510331140E+02  0.26826746490E+02  0.41800000000E+01 0. -1.
         -5    1    3    3    0  502  0.36897818674E+03  0.26480227829E+02  0.17241007883E+03  0.40815292776E+03  0.41800000000E+01 0. -1.
        -11    1    1    2    0    0 -0.26843106892E+03 -0.10788077388E+02  0.73347843744E+03  0.78112882392E+03  0.00000000000E+00 0. -1.
         11    1    1    2    0    0 -0.97615876433E+02 -0.91474765546E+01  0.48946980839E+03  0.49919257705E+03  0.00000000000E+00 0.  1.
</event>
<event>
 7    1  0.2334784E-009  0.1542451E+03  0.7561462E-02  0.1195352E+00
         -1   -1    0    0    0  501 -0.00000000000E+00  0.00000000000E+00  0.68594814700E+02  0.68594814700E+02  0.00000000000E+00 0.  1.
          1   -1    0    0  501    0  0.00000000000E+00 -0.00000000000E+00 -0.36682297887E+03  0.36682297887E+03  0.00000000000E+00 0. -1.
         25    2    1    2    0    0  0.72204393621E+02 -0.86018311442E+02 -0.13153742745E+03  0.21346600627E+03  0.12511201641E+03 0.  0.
          5    1    3    3  502    0  0.56902187696E+02  0.17802564748E+02 -0.68771829478E+02  0.91114363335E+02  0.41800000000E+01 0. -1.
         -5    1    3    3    0  502  0.15302205925E+02 -0.10382087619E+03 -0.62765597977E+02  0.12235164293E+03  0.41800000000E+01 0. -1.
        -11    1    1    2    0    0 -0.24358926654E+02  0.92281676338E+02 -0.89027768375E+02  0.13051899723E+03  0.00000000000E+00 0. -1.
         11    1    1    2    0    0 -0.47845466967E+02 -0.62633648961E+01 -0.77662968340E+02  0.91432790073E+02  0.00000000000E+00 0.  1.
</event>
<event>
 7    1  0.2334784E-009  0.1450627E+03  0.7561462E-02  0.1206675E+00
          2   -1    0    0  501    0  0.00000000000E+00  0.00000000000E+00  0.47116096006E+03  0.47116096006E+03  0.00000000000E+00 0.  1.
         -2   -1    0    0    0  501 -0.00000000000E+00 -0.00000000000E+00 -0.66230768072E+02  0.66230768072E+02  0.00000000000E+00 0. -1.
         25    2    1    2    0    0  0.46549894776E+02 -0.10175032073E+03  0.33945597092E+03  0.37868021473E+03  0.12509327864E+03 0.  0.
          5    1    3    3  502    0  0.36813527910E+02 -0.12834893195E+03  0.31021228537E+03  0.33775408001E+03  0.41800000000E+01 0. -1.
         -5    1    3    3    0  502  0.97363668664E+01  0.26598611217E+02  0.29243685547E+02  0.40926134716E+02  0.41800000000E+01 0. -1.
        -11    1    1    2    0    0 -0.47406147642E+02  0.29897070749E+02  0.66342912214E+02  0.86847911170E+02  0.00000000000E+00 0.  1.
         11    1    1    2    0    0  0.85625286562E+00  0.71853249985E+02 -0.86869113767E+00  0.71863602239E+02  0.00000000000E+00 0. -1.
</event>
<event>
 7    1  0.2334784E-009  0.2412513E+03  0.7561462E-02  0.1118962E+00
         -2   -1    0    0    0  501 -0.00000000000E+00  0.00000000000E+00  0.13251524818E+03  0.13251524818E+03  0.00000000000E+00 0.  1.
          2   -1    0    0  501    0  0.00000000000E+00 -0.00000000000E+00 -0.58866708230E+03  0.58866708230E+03  0.00000000000E+00 0. -1.
         25    2    1    2    0    0 -0.48005984514E+02 -0.23136426835E+03 -0.10159826328E+03  0.28601331533E+03  0.12508960879E+03 0.  0.
          5    1    3    3  502    0 -0.44401026582E+02 -0.15669754619E+03 -0.39535923476E+01  0.16296832648E+03  0.41800000000E+01 0.  1.
         -5    1    3    3    0  502 -0.36049579324E+01 -0.74666722159E+02 -0.97644670934E+02  0.12304498885E+03  0.41800000000E+01 0.  1.
        -11    1    1    2    0    0  0.53482346814E+02  0.10146797684E+03 -0.21976386832E+03  0.24789568282E+03  0.00000000000E+00 0. -1.
         11    1    1    2    0    0 -0.54763622999E+01  0.12989629151E+03 -0.13478970253E+03  0.18727333232E+03  0.00000000000E+00 0.  1.
</event>
<event>
 7    1  0.2334784E-009  0.1306997E+03  0.7561462E-02  0.1226421E+00
          2   -1    0    0  501    0  0.00000000000E+00  0.00000000000E+00  0.10341562252E+04  0.10341562252E+04  0.00000000000E+00 0. -1.
         -2   -1    0    0    0  501 -0.00000000000E+00 -0.00000000000E+00 -0.24843452617E+02  0.24843452617E+02  0.00000000000E+00 0.  1.
         25    2    1    2    0    0 -0.88943704787E+02 -0.75072749694E+02  0.55672556345E+03  0.58235522475E+03  0.12508938576E+03 0.  0.
          5    1    3    3  502    0 -0.51218782274E+02 -0.36436270029E+02  0.76564443082E+02  0.99149139057E+02  0.41800000000E+01 0. -1.
         -5    1    3    3    0  502 -0.37724922513E+02 -0.38636479665E+02  0.48016112036E+03  0.48320608569E+03  0.41800000000E+01 0. -1.
        -11    1    1    2    0    0  0.51168792472E+02 -0.91098457843E+01  0.22786350719E+03  0.23371566598E+03  0.00000000000E+00 0.  1.
         11    1    1    2    0    0  0.37774912314E+02  0.84182595478E+02  0.22472370193E+03  0.24292878707E+03  0.00000000000E+00 0. -1.
</event>
<event>
 7    1  0.2334784E-009  0.8922619E+02  0.7561462E-02  0.1304736E+00
          1   -1    0    0  501    0  0.00000000000E+00  0.00000000000E+00  0.68507119382E+03  0.68507119382E+03  0.00000000000E+00 0. -1.
         -1   -1    0    0    0  501 -0.00000000000E+00 -0.00000000000E+00 -0.35445070664E+02  0.35445070664E+02  0.00000000000E+00 0.  1.
         25    2    1    2    0    0 -0.52861917631E+01  0.15177836183E+02  0.60141067813E+03  0.61449211835E+03  0.12508976461E+03 0.  0.
          5    1    3    3  502    0 -0.21151097061E+02  0.60210265541E+02  0.47525919239E+03  0.47954292544E+03  0.41800000000E+01 0.  1.
         -5    1    3    3    0  502  0.15864905298E+02 -0.45032429359E+02  0.12615148574E+03  0.13494919291E+03  0.41800000000E+01 0.  1.
        -11    1    1    2    0    0 -0.29641355139E+02 -0.98726348512E+01  0.60933840771E+02  0.68476359457E+02  0.00000000000E+00 0. -1.
         11    1    1    2    0    0  0.34927546902E+02 -0.53052013315E+01 -0.12718395748E+02  0.37547786675E+02  0.00000000000E+00 0.  1.
</event>
<event>
 7    1  0.2334784E-009  0.2138576E+03  0.7561462E-02  0.1138547E+00
         -2   -1    0    0    0  501 -0.00000000000E+00  0.00000000000E+00  0.38134165238E+02  0.38134165238E+02  0.00000000000E+00 0.  1.
          2   -1    0    0  501    0  0.00000000000E+00 -0.00000000000E+00 -0.13489244917E+04  0.13489244917E+04  0.00000000000E+00 0. -1.
         25    2    1    2    0    0  0.14722500443E+03  0.11533861573E+03 -0.88180740752E+03  0.91006033887E+03  0.12508924098E+03 0.  0.
          5    1    3    3  502    0  0.13136319737E+03  0.14199888734E+03 -0.77207868316E+03  0.79595410610E+03  0.41800000000E+01 0. -1.
         -5    1    3    3    0  502  0.15861807062E+02 -0.26660271612E+02 -0.10972872436E+03  0.11410623276E+03  0.41800000000E+01 0. -1.
        -11    1    1    2    0    0 -0.12958805355E+03 -0.56266200454E+02 -0.24323102697E+03  0.28128327611E+03  0.00000000000E+00 0. -1.
         11    1    1    2    0    0 -0.17636950884E+02 -0.59072415273E+02 -0.18575189201E+03  0.19571504201E+03  0.00000000000E+00 0.  1.
</event>
<event>
 7    1  0.2334784E-009  0.1013080E+03  0.7561462E-02  0.1277569E+00
         -1   -1    0    0    0  501 -0.00000000000E+00  0.00000000000E+00  0.13096210624E+02  0.13096210624E+02  0.00000000000E+00 0.  1.
          1   -1    0    0  501    0  0.00000000000E+00 -0.00000000000E+00 -0.96815413666E+03  0.96815413666E+03  0.00000000000E+00 0. -1.
         25    2    1    2    0    0 -0.12931161451E+01 -0.99314198824E+01 -0.66697287509E+03  0.67867556330E+03  0.12508956333E+03 0.  0.
          5    1    3    3  502    0 -0.50233148379E+01  0.52664028501E+02 -0.17986554678E+03  0.18753085321E+03  0.41800000000E+01 0.  1.
         -5    1    3    3    0  502  0.37301986928E+01 -0.62595448383E+02 -0.48710732832E+03  0.49114471008E+03  0.41800000000E+01 0.  1.
        -11    1    1    2    0    0  0.43401997560E+02 -0.15517967262E+00 -0.91423540359E+02  0.10120287152E+03  0.00000000000E+00 0.  1.
         11    1    1    2    0    0 -0.42108881415E+02  0.10086599555E+02 -0.19666151058E+03  0.20137191246E+03  0.00000000000E+00 0. -1.
</event>
<event>
 7    1  0.2334784E-009  0.1023285E+03  0.7561462E-02  0.1275474E+00
         -2   -1    0    0    0  501 -0.00000000000E+00  0.00000000000E+00  0.12267903366E+02  0.12267903366E+02  0.00000000000E+00 0.  1.
          2   -1    0    0  501    0  0.00000000000E+00 -0.00000000000E+00 -0.20775699336E+04  0.20775699336E+04  0.00000000000E+00 0. -1.
         25    2    1    2    0    0 -0.13975658395E+02  0.60447006768E+01 -0.18609769999E+04  0.18652383668E+04  0.12508762325E+03 0.  0.
          5    1    3    3  502    0 -0.83949944203E+01  0.65467531691E+02 -0.10018329977E+04  0.10040135962E+04  0.41800000000E+01 0. -1.
         -5    1    3    3    0  502 -0.55806639749E+01 -0.59422831014E+02 -0.85914400218E+03  0.86122477063E+03  0.41800000000E+01 0. -1.
        -11    1    1    2    0    0 -0.14388592997E+02  0.29734229745E+02 -0.15019590609E+03  0.15378545521E+03  0.00000000000E+00 0. -1.
         11    1    1    2    0    0  0.28364251392E+02 -0.35778930422E+02 -0.54129124235E+02  0.70814014924E+02  0.00000000000E+00 0.  1.
</event>
<event>
 7    1  0.2334784E-009  0.9912512E+02  0.7561462E-02  0.1282147E+00
         -2   -1    0    0    0  501 -0.00000000000E+00  0.00000000000E+00  0.36265920647E+03  0.36265920647E+03  0.00000000000E+00 0.  1.
          2   -1    0    0  501    0  0.00000000000E+00 -0.00000000000E+00 -0.40368233679E+02  0.40368233679E+02  0.00000000000E+00 0. -1.
         25    2    1    2    0    0  0.35787044483E+02 -0.12655106986E+02  0.11735857396E+03  0.17568450665E+03  0.12510454313E+03 0.  0.
          5    1    3    3  502    0  0.66389056086E+02 -0.49083279304E+02  0.68503258874E+02  0.10736314056E+03  0.41800000000E+01 0.  1.
         -5    1    3    3    0  502 -0.30602011602E+02  0.36428172318E+02  0.48855315085E+02  0.68321366092E+02  0.41800000000E+01 0.  1.
        -11    1    1    2    0    0  0.10949570217E+02 -0.10930197292E+02 -0.36535447346E+00  0.15475651349E+02  0.00000000000E+00 0. -1.
         11    1    1    2    0    0 -0.46736614701E+02  0.23585304278E+02  0.20529775330E+03  0.21186728214E+03  0.00000000000E+00 0.  1.
</event>
<event>
 7    1  0.2334784E-009  0.1163725E+03  0.7561462E-02  0.1249204E+00
         -3   -1    0    0    0  501 -0.00000000000E+00  0.00000000000E+00  0.24905650559E+02  0.24905650559E+02  0.00000000000E+00 0.  1.
          3   -1    0    0  501    0  0.00000000000E+00 -0.00000000000E+00 -0.55462342025E+03  0.55462342025E+03  0.00000000000E+00 0. -1.
         25    2    1    2    0    0 -0.48968394515E+02  0.10734180616E+02 -0.32279660690E+03  0.34979710403E+03  0.12508892143E+03 0.  0.
          5    1    3    3  502    0 -0.31801089042E+02  0.67021634126E+02 -0.15398969106E+03  0.17097808649E+03  0.41800000000E+01 0.  1.
         -5    1    3    3    0  502 -0.17167305473E+02 -0.56287453510E+02 -0.16880691584E+03  0.17881901754E+03  0.41800000000E+01 0.  1.
        -11    1    1    2    0    0  0.55781557843E+02  0.26386459459E+02 -0.13759532028E+03  0.15079887135E+03  0.00000000000E+00 0.  1.
         11    1    1    2    0    0 -0.68131633276E+01 -0.37120640075E+02 -0.69325842504E+02  0.78933095422E+02  0.00000000000E+00 0. -1.
</event>
<event>
 7    1  0.2334784E-009  0.1054483E+03  0.7561462E-02  0.1269239E+00
          1   -1    0    0  501    0  0.00000000000E+00  0.00000000000E+00  0.32014719423E+03  0.32014719423E+03  0.00000000000E+00 0. -1.
         -1   -1    0    0    0  501 -0.00000000000E+00 -0.00000000000E+00 -0.88463612455E+02  0.88463612455E+02  0.00000000000E+00 0.  1.
         25    2    1    2    0    0  0.11555897705E+02 -0.70829914284E+02  0.25145718960E+03  0.28987701957E+03  0.12509017844E+03 0.  0.
          5    1    3    3  502    0 -0.24103054497E+02 -0.20043559032E+02  0.21596252016E+03  0.21826585626E+03  0.41800000000E+01 0. -1.
         -5    1    3    3    0  502  0.35658952202E+02 -0.50786355252E+02  0.35494669442E+02  0.71611163311E+02  0.41800000000E+01 0. -1.
        -11    1    1    2    0    0  0.17658543503E+02  0.83416485286E+02 -0.14317474930E+02  0.86458800966E+02  0.00000000000E+00 0. -1.
         11    1    1    2    0    0 -0.29214441208E+02 -0.12586571002E+02 -0.54561328984E+01  0.32274986148E+02  0.00000000000E+00 0.  1.
</event>
<event>
 7    1  0.2334784E-009  0.8175901E+02  0.7561462E-02  0.1324132E+00
          2   -1    0    0  501    0  0.00000000000E+00  0.00000000000E+00  0.34976015585E+03  0.34976015585E+03  0.00000000000E+00 0. -1.
         -2   -1    0    0    0  501 -0.00000000000E+00 -0.00000000000E+00 -0.40528934006E+02  0.40528934006E+02  0.00000000000E+00 0.  1.
         25    2    1    2    0    0  0.10014398135E+02 -0.86219768534E+01  0.97243039709E+02  0.15898557559E+03  0.12508228419E+03 0.  0.
          5    1    3    3  502    0  0.40934202157E+02  0.32970603103E+01  0.11426891086E+03  0.12149623822E+03  0.41800000000E+01 0.  1.
         -5    1    3    3    0  502 -0.30919804021E+02 -0.11919037164E+02 -0.17025871154E+02  0.37489337366E+02  0.41800000000E+01 0.  1.
        -11    1    1    2    0    0 -0.23917799677E+02 -0.35372478722E+02  0.13454022357E+03  0.14115362252E+03  0.00000000000E+00 0. -1.
         11    1    1    2    0    0  0.13903401542E+02  0.43994455575E+02  0.77447958564E+02  0.90149891744E+02  0.00000000000E+00 0.  1.
</event>
<event>
 7    1  0.2334784E-009  0.7402133E+02  0.7561462E-02  0.1346929E+00
         -1   -1    0    0    0  501 -0.00000000000E+00  0.00000000000E+00  0.27344666323E+02  0.27344666323E+02  0.00000000000E+00 0.  1.
          1   -1    0    0  501    0  0.00000000000E+00 -0.00000000000E+00 -0.49001653358E+03  0.49001653358E+03  0.00000000000E+00 0. -1.
         25    2    1    2    0    0  0.26142126967E+02  0.30241956208E+02 -0.27286449355E+03  0.30281319584E+03  0.12507123177E+03 0.  0.
          5    1    3    3  502    0  0.44149282318E+02  0.10616038843E+02 -0.22224572569E+02  0.50727344064E+02  0.41800000000E+01 0.  1.
         -5    1    3    3    0  502 -0.18007155351E+02  0.19625917365E+02 -0.25063992098E+03  0.25208585177E+03  0.41800000000E+01 0.  1.
        -11    1    1    2    0    0 -0.31557521279E+02  0.11351644308E+02 -0.18749038379E+02  0.38422173519E+02  0.00000000000E+00 0.  1.
         11    1    1    2    0    0  0.54153943127E+01 -0.41593600516E+02 -0.17105833533E+03  0.17612583055E+03  0.00000000000E+00 0. -1.
</event>
<event>
 7    1  0.2334784E-009  0.2363105E+03  0.7561462E-02  0.1122275E+00
         -1   -1    0    0    0  501 -0.00000000000E+00  0.00000000000E+00  0.43166441238E+02  0.43166441238E+02  0.00000000000E+00 0.  1.
          1   -1    0    0  501    0  0.00000000000E+00 -0.00000000000E+00 -0.19811109272E+04  0.19811109272E+04  0.00000000000E+00 0. -1.
         25    2    1    2    0    0  0.20519237891E+03  0.10850230742E+03 -0.14771982691E+04  0.15005463549E+04  0.12509186240E+03 0.  0.
          5    1    3    3  502    0  0.21160904737E+02  0.28456696835E+02 -0.58311638918E+03  0.58420866410E+03  0.41800000000E+01 0.  1.
         -5    1    3    3    0  502  0.18403147418E+03  0.80045610587E+02 -0.89408187992E+03  0.91633769084E+03  0.41800000000E+01 0.  1.
        -11    1    1    2    0    0 -0.12637349853E+03 -0.90216437927E+02 -0.21644144937E+03  0.26637598955E+03  0.00000000000E+00 0.  1.
         11    1    1    2    0    0 -0.78818880383E+02 -0.18285869495E+02 -0.24430476754E+03  0.25735502399E+03  0.00000000000E+00 0. -1.
</event>
<event>
 7    1  0.2334784E-009  0.1274799E+03  0.7561462E-02  0.1231244E+00
         -1   -1    0    0    0  501 -0.00000000000E+00  0.00000000000E+00  0.48308983892E+02  0.48308983892E+02  0.00000000000E+00 0.  1.
          1   -1    0    0  501    0  0.00000000000E+00 -0.00000000000E+00 -0.53235038398E+03  0.53235038398E+03  0.00000000000E+00 0. -1.
         25    2    1    2    0    0  0.67551597735E+02  0.29768035607E+02 -0.43476402297E+03  0.45838461907E+03  0.12508936415E+03 0.  0.
          5    1    3    3  502    0  0.89461273622E+01 -0.46732495006E+02 -0.11942974705E+03  0.12862696515E+03  0.41800000000E+01 0.  1.
         -5    1    3    3    0  502  0.58605470373E+02  0.76500530613E+02 -0.31533427593E+03  0.32975765391E+03  0.41800000000E+01 0.  1.
        -11    1    1    2    0    0 -0.20995986623E+02 -0.54224657844E+02 -0.34654479784E+02  0.67691047722E+02  0.00000000000E+00 0.  1.
         11    1    1    2    0    0 -0.46555611112E+02  0.24456622237E+02 -0.14622897327E+02  0.54583701079E+02  0.00000000000E+00 0. -1.
</event>
<event>
 7    1  0.2334784E-009  0.1060891E+03  0.7561462E-02  0.1267989E+00
          1   -1    0    0  501    0  0.00000000000E+00  0.00000000000E+00  0.68131959814E+02  0.68131959814E+02  0.00000000000E+00 0. -1.
         -1   -1    0    0    0  501 -0.00000000000E+00 -0.00000000000E+00 -0.31928113546E+03  0.31928113546E+03  0.00000000000E+00 0.  1.
         25    2    1    2    0    0  0.31128612380E+02 -0.53755038743E+02 -0.31878820134E+02  0.14325681881E+03  0.12509061621E+03 0.  0.
          5    1    3    3  502    0  0.68909038152E+02 -0.53016091403E+02  0.89085072643E+01  0.87498545064E+02  0.41800000000E+01 0.  1.
         -5    1    3    3    0  502 -0.37780425772E+02 -0.73894733995E+00 -0.40787327399E+02  0.55758273745E+02  0.41800000000E+01 0.  1.
        -11    1    1    2    0    0 -0.45067237537E+02  0.17625659282E+02 -0.46543981083E+02  0.67142102584E+02  0.00000000000E+00 0. -1.
         11    1    1    2    0    0  0.13938625158E+02  0.36129379461E+02 -0.17272637443E+03  0.17701417388E+03  0.00000000000E+00 0.  1.
</event>
<event>
 7    1  0.2334784E-009  0.1722663E+03  0.7561462E-02  0.1175505E+00
          1   -1    0    0  501    0  0.00000000000E+00  0.00000000000E+00  0.17222415402E+03  0.17222415402E+03  0.00000000000E+00 0. -1.
         -1   -1    0    0    0  501 -0.00000000000E+00 -0.00000000000E+00 -0.34086343728E+03  0.34086343728E+03  0.00000000000E+00 0.  1.
         25    2    1    2    0    0 -0.52681097984E+02 -0.14528653881E+03 -0.24754063278E+03  0.31750213344E+03  0.12509102054E+03 0.  0.
          5    1    3    3  502    0 -0.30949221995E+02  0.97967941327E+01 -0.88086421530E+02  0.93970854925E+02  0.41800000000E+01 0.  1.
         -5    1    3    3    0  502 -0.21731875989E+02 -0.15508333294E+03 -0.15945421125E+03  0.22353127852E+03  0.41800000000E+01 0.  1.
        -11    1    1    2    0    0  0.18379109238E+02  0.70723569148E+02 -0.10952827906E+02  0.73888966217E+02  0.00000000000E+00 0.  1.
         11    1    1    2    0    0  0.34301988746E+02  0.74562969660E+02  0.89854177429E+02  0.12169649164E+03  0.00000000000E+00 0. -1.
</event>
<event>
 7    1  0.2334784E-009  0.7959589E+02  0.7561462E-02  0.1330202E+00
          2   -1    0    0  501    0  0.00000000000E+00  0.00000000000E+00  0.92667768325E+02  0.92667768325E+02  0.00000000000E+00 0. -1.
         -2   -1    0    0    0  501 -0.00000000000E+00 -0.00000000000E+00 -0.19839901380E+03  0.19839901380E+03  0.00000000000E+00 0.  1.
         25    2    1    2    0    0  0.17274651235E+02 -0.35542474180E+02  0.19278572381E+02  0.13259020643E+03  0.12508724332E+03 0.  0.
          5    1    3    3  502    0 -0.39877499176E+01  0.13493017439E+02 -0.45903982991E+02  0.48193482168E+02  0.41800000000E+01 0. -1.
         -5    1    3    3    0  502  0.21262401153E+02 -0.49035491619E+02  0.65182555373E+02  0.84396724261E+02  0.41800000000E+01 0. -1.
        -11    1    1    2    0    0 -0.35712877663E+02  0.54047734642E+02 -0.11177886574E+03  0.12919397075E+03  0.00000000000E+00 0. -1.
         11    1    1    2    0    0  0.18438226428E+02 -0.18505260462E+02 -0.13230952109E+02  0.29282604943E+02  0.00000000000E+00 0.  1.
</event>
<event>
 7    1  0.2334784E-009  0.1269405E+03  0.7561462E-02  0.1232067E+00
         -1   -1    0    0    0  501 -0.00000000000E+00  0.00000000000E+00  0.73841620454E+03  0.73841620454E+03  0.00000000000E+00 0.  1.
          1   -1    0    0  501    0  0.00000000000E+00 -0.00000000000E+00 -0.40069419781E+02  0.40069419781E+02  0.00000000000E+00 0. -1.
         25    2    1    2    0    0 -0.17922014622E+02  0.74776198728E+02  0.61645645021E+03  0.63370243316E+03  0.12509012866E+03 0.  0.
          5    1    3    3  502    0 -0.69971383751E+02  0.34272310990E+02  0.39337085134E+03  0.40103451837E+03  0.41800000000E+01 0. -1.
         -5    1    3    3    0  502  0.52049369129E+02  0.40503887738E+02  0.22308559887E+03  0.23266791478E+03  0.41800000000E+01 0. -1.
        -11    1    1    2    0    0 -0.41201509589E+01 -0.85261858472E+02  0.35671841631E+02  0.92515082226E+02  0.00000000000E+00 0. -1.
         11    1    1    2    0    0  0.22042165581E+02  0.10485659744E+02  0.46218492919E+02  0.52268108933E+02  0.00000000000E+00 0.  1.
</event>
<event>
 7    1  0.2334784E-009  0.9841174E+02  0.7561462E-02  0.1283672E+00
          3   -1    0    0  501    0  0.00000000000E+00  0.00000000000E+00  0.23463024445E+02  0.23463024445E+02  0.00000000000E+00 0. -1.
         -3   -1    0    0    0  501 -0.00000000000E+00 -0.00000000000E+00 -0.85051629542E+03  0.85051629542E+03  0.00000000000E+00 0.  1.
         25    2    1    2    0    0  0.80529108035E+02 -0.22645728334E+02 -0.55815572719E+03  0.57808553494E+03  0.12508918283E+03 0.  0.
          5    1    3    3  502    0 -0.12962523012E+01 -0.43993893493E+01 -0.39089293446E+03  0.39094218691E+03  0.41800000000E+01 0. -1.
         -5    1    3    3    0  502  0.81825360336E+02 -0.18246338985E+02 -0.16726279273E+03  0.18714334803E+03  0.41800000000E+01 0. -1.
        -11    1    1    2    0    0 -0.36167329287E+02 -0.23132492093E+02 -0.18830892609E+03  0.19314098359E+03  0.00000000000E+00 0.  1.
         11    1    1    2    0    0 -0.44361778748E+02  0.45778220427E+02 -0.80588617693E+02  0.10275280133E+03  0.00000000000E+00 0. -1.
</event>
<event>
 7    1  0.2334784E-009  0.2400260E+03  0.7561462E-02  0.1119776E+00
          2   -1    0    0  501    0  0.00000000000E+00  0.00000000000E+00  0.76218921100E+03  0.76218921100E+03  0.00000000000E+00 0.  1.
         -2   -1    0    0    0  501 -0.00000000000E+00 -0.00000000000E+00 -0.91829488849E+02  0.91829488849E+02  0.00000000000E+00 0. -1.
         25    2    1    2    0    0 -0.21621488937E+03  0.55782457737E+01  0.17266215547E+03  0.30370990686E+03  0.12508993716E+03 0.  0.
          5    1    3    3  502    0  0.71984612874E+01 -0.20141247832E+02  0.30982881728E+02  0.37880061633E+02  0.41800000000E+01 0.  1.
         -5    1    3    3    0  502 -0.22341335066E+03  0.25719493605E+02  0.14167927374E+03  0.26582984523E+03  0.41800000000E+01 0.  1.
        -11    1    1    2    0    0  0.54048770528E+02 -0.40386335161E+02  0.17325987085E+03  0.18593361318E+03  0.00000000000E+00 0.  1.
         11    1    1    2    0    0  0.16216611884E+03  0.34808089387E+02  0.32443769583E+03  0.36437517981E+03  0.00000000000E+00 0. -1.
</event>
<event>
 7    1  0.2334784E-009  0.1195554E+03  0.7561462E-02  0.1243832E+00
          2   -1    0    0  501    0  0.00000000000E+00  0.00000000000E+00  0.35399179736E+03  0.35399179736E+03  0.00000000000E+00 0.  1.
         -2   -1    0    0    0  501 -0.00000000000E+00 -0.00000000000E+00 -0.42014348782E+02  0.42014348782E+02  0.00000000000E+00 0. -1.
         25    2    1    2    0    0 -0.53845267211E+02 -0.74896154002E+01  0.19049531739E+03  0.23428935074E+03  0.12509047439E+03 0.  0.
          5    1    3    3  502    0 -0.91692289773E+02 -0.20494732966E+02  0.15109803822E+03  0.17797640191E+03  0.41800000000E+01 0.  1.
         -5    1    3    3    0  502  0.37847022562E+02  0.13005117565E+02  0.39397279169E+02  0.56312948828E+02  0.41800000000E+01 0.  1.
        -11    1    1    2    0    0  0.76380839737E+02 -0.89897536195E+01  0.74558060375E+02  0.10711560445E+03  0.00000000000E+00 0. -1.
         11    1    1    2    0    0 -0.22535572525E+02  0.16479369020E+02  0.46924070820E+02  0.54601190964E+02  0.00000000000E+00 0.  1.
</event>
<event>
 7    1  0.2334784E-009  0.1982298E+03  0.7561462E-02  0.1151241E+00
          1   -1    0    0  501    0  0.00000000000E+00  0.00000000000E+00  0.17613849673E+03  0.17613849673E+03  0.00000000000E+00 0. -1.
         -1   -1    0    0    0  501 -0.00000000000E+00 -0.00000000000E+00 -0.24553921096E+03  0.24553921096E+03  0.00000000000E+00 0.  1.
         25    2    1    2    0    0  0.60587732046E+02  0.15955109910E+03 -0.81107220011E+02  0.22661366473E+03  0.12509174795E+03 0.  0.
          5    1    3    3  502    0 -0.20560863804E+02 -0.79636298121E+01 -0.21612795087E+02  0.31156922691E+02  0.41800000000E+01 0.  1.
         -5    1    3    3    0  502  0.81148595850E+02  0.16751472891E+03 -0.59494424924E+02  0.19545674204E+03  0.41800000000E+01 0.  1.
        -11    1    1    2    0    0  0.18662888462E+02 -0.20026938361E+02 -0.16759774553E+02  0.32097845861E+02  0.00000000000E+00 0. -1.
         11    1    1    2    0    0 -0.79250620508E+02 -0.13952416074E+03  0.28466280338E+02  0.16296619710E+03  0.00000000000E+00 0.  1.
</event>
<event>
 7    1  0.2334784E-009  0.1117777E+03  0.7561462E-02  0.1257313E+00
          1   -1    0    0  501    0  0.00000000000E+00  0.00000000000E+00  0.18942919277E+03  0.18942919277E+03  0.00000000000E+00 0. -1.
         -1   -1    0    0    0  501 -0.00000000000E+00 -0.00000000000E+00 -0.11291434498E+03  0.11291434498E+03  0.00000000000E+00 0.  1.
         25    2    1    2    0    0  0.97163087074E+02  0.11412717671E+02  0.32684581119E+02  0.16213401950E+03  0.12509293674E+03 0.  0.
          5    1    3    3  502    0  0.30172542729E+02  0.27582247294E+02 -0.43144801684E+02  0.59582791248E+02  0.41800000000E+01 0.  1.
         -5    1    3    3    0  502  0.66990544345E+02 -0.16169529623E+02  0.75829382802E+02  0.10255122825E+03  0.41800000000E+01 0.  1.
        -11    1    1    2    0    0 -0.98953645333E+02  0.29010078742E+01  0.53798712821E+01  0.99142235129E+02  0.00000000000E+00 0.  1.
         11    1    1    2    0    0  0.17905582587E+01 -0.14313725545E+02  0.38450395390E+02  0.41067283128E+02  0.00000000000E+00 0. -1.
</event>
<event>
 7    1  0.2334784E-009  0.1402200E+03  0.7561462E-02  0.1213033E+00
          2   -1    0    0  501    0  0.00000000000E+00  0.00000000000E+00  0.18121157070E+04  0.18121157070E+04  0.00000000000E+00 0. -1.
         -2   -1    0    0    0  501 -0.00000000000E+00 -0.00000000000E+00 -0.22167899199E+02  0.22167899199E+02  0.00000000000E+00 0.  1.
         25    2    1    2    0    0  0.93572812723E+02  0.49636500018E+02  0.15313331039E+04  0.15400805703E+04  0.12508970507E+03 0.  0.
          5    1    3    3  502    0  0.10555096896E+03  0.62870524941E+02  0.14874650577E+04  0.14925359226E+04  0.41800000000E+01 0. -1.
         -5    1    3    3    0  502 -0.11978156241E+02 -0.13234024923E+02  0.43868046236E+02  0.47544647681E+02  0.41800000000E+01 0. -1.
        -11    1    1    2    0    0 -0.53654533946E+02 -0.74754452893E+02  0.18762965808E+03  0.20897829033E+03  0.00000000000E+00 0. -1.
         11    1    1    2    0    0 -0.39918278777E+02  0.25117952875E+02  0.70985045846E+02  0.85224745648E+02  0.00000000000E+00 0.  1.
</event>
<event>
 7    1  0.2334784E-009  0.1063109E+03  0.7561462E-02  0.1267558E+00
          2   -1    0    0  501    0  0.00000000000E+00  0.00000000000E+00  0.37815960810E+03  0.37815960810E+03  0.00000000000E+00 0.  1.
         -2   -1    0    0    0  501 -0.00000000000E+00 -0.00000000000E+00 -0.37058983943E+02  0.37058983943E+02  0.00000000000E+00 0. -1.
         25    2    1    2    0    0  0.29281550006E+01 -0.12716081988E+02  0.10792667914E+03  0.16572740059E+03  0.12508849030E+03 0.  0.
          5    1    3    3  502    0  0.57872712321E+01  0.55840582692E+02  0.39789449776E+02  0.68937188057E+02  0.41800000000E+01 0.  1.
         -5    1    3    3    0  502 -0.28591162316E+01 -0.68556664680E+02  0.68137229360E+02  0.96790212535E+02  0.41800000000E+01 0.  1.
        -11    1    1    2    0    0  0.17623646395E+01  0.49987163165E+02  0.15265624347E+03  0.16064168538E+03  0.00000000000E+00 0.  1.
         11    1    1    2    0    0 -0.46905196400E+01 -0.37271081177E+02  0.80517701549E+02  0.88849506073E+02  0.00000000000E+00 0. -1.
</event>
<event>
 7    1  0.2334784E-009  0.1120051E+03  0.7561462E-02  0.1256901E+00
          2   -1    0    0  501    0  0.00000000000E+00  0.00000000000E+00  0.60590338921E+03  0.60590338921E+03  0.00000000000E+00 0. -1.
         -2   -1    0    0    0  501 -0.00000000000E+00 -0.00000000000E+00 -0.31258569879E+02  0.31258569879E+02  0.00000000000E+00 0.  1.
         25    2    1    2    0    0 -0.76701727260E+02  0.86250281683E+01  0.39615573520E+03  0.42254294367E+03  0.12508247934E+03 0.  0.
          5    1    3    3  502    0 -0.10036397502E+03 -0.10659088423E+02  0.36502249396E+03  0.37874191364E+03  0.41800000000E+01 0. -1.
         -5    1    3    3    0  502  0.23662247761E+02  0.19284116591E+02  0.31133241241E+02  0.43801030034E+02  0.41800000000E+01 0. -1.
        -11    1    1    2    0    0 -0.65837506709E+00 -0.14581466671E+02 -0.49765461991E+01  0.15421369591E+02  0.00000000000E+00 0.  1.
         11    1    1    2    0    0  0.77360102327E+02  0.59564385023E+01  0.18346563033E+03  0.19919764583E+03  0.00000000000E+00 0. -1.
</event>
<event>
 7    1  0.2334784E-009  0.1192577E+03  0.7561462E-02  0.1244327E+00
          1   -1    0    0  501    0  0.00000000000E+00  0.00000000000E+00  0.61941815999E+03  0.61941815999E+03  0.00000000000E+00 0. -1.
         -1   -1    0    0    0  501 -0.00000000000E+00 -0.00000000000E+00 -0.27754876166E+02  0.27754876166E+02  0.00000000000E+00 0.  1.
         25    2    1    2    0    0  0.78222537453E+01 -0.71252491393E+02  0.34264978252E+03  0.37174638745E+03  0.12509355672E+03 0.  0.
          5    1    3    3  502    0  0.23401098742E+02 -0.94885134622E+02  0.16506730734E+03  0.19187362650E+03  0.41800000000E+01 0.  1.
         -5    1    3    3    0  502 -0.15578844997E+02  0.23632643229E+02  0.17758247519E+03  0.17987276095E+03  0.41800000000E+01 0.  1.
        -11    1    1    2    0    0 -0.43622013282E+02  0.16438833347E+02  0.64047871210E+02  0.79216444575E+02  0.00000000000E+00 0.  1.
         11    1    1    2    0    0  0.35799759537E+02  0.54813658045E+02  0.18496563009E+03  0.19621020413E+03  0.00000000000E+00 0. -1.
</event>
<event>
 7    1  0.2334784E-009  0.1415743E+03  0.7561462E-02  0.1211226E+00
          2   -1    0    0  501    0  0.00000000000E+00  0.00000000000E+00  0.50765118464E+03  0.50765118464E+03  0.00000000000E+00 0. -1.
         -2   -1    0    0    0  501 -0.00000000000E+00 -0.00000000000E+00 -0.46121739979E+02  0.46121739979E+02  0.00000000000E+00 0.  1.
         25    2    1    2    0    0  0.10318184938E+03  0.31616608464E+02  0.24617921132E+03  0.29647304034E+03  0.12508379429E+03 0.  0.
          5    1    3    3  502    0  0.55341439870E+02 -0.44297692892E+02  0.14306710174E+03  0.15972047008E+03  0.41800000000E+01 0. -1.
         -5    1    3    3    0  502  0.47840409508E+02  0.75914301356E+02  0.10311210958E+03  0.13675257027E+03  0.41800000000E+01 0. -1.
        -11    1    1    2    0    0 -0.35913775194E+02 -0.40871220728E+02  0.16216347888E+03  0.17104750748E+03  0.00000000000E+00 0. -1.
         11    1    1    2    0    0 -0.67268074185E+02  0.92546122639E+01  0.53186754464E+02  0.86252376797E+02  0.00000000000E+00 0.  1.
</event>
<event>
 7    1  0.2334784E-009  0.8187341E+02  0.7561462E-02  0.1323817E+00
         -2   -1    0    0    0  501 -0.00000000000E+00  0.00000000000E+00  0.25261162126E+03  0.25261162126E+03  0.00000000000E+00 0.  1.
          2   -1    0    0  501    0  0.00000000000E+00 -0.00000000000E+00 -0.50530471160E+02  0.50530471160E+02  0.00000000000E+00 0. -1.
         25    2    1    2    0    0  0.14057568234E+02 -0.70040082123E+01  0.82989293814E+02  0.15093473062E+03  0.12508956257E+03 0.  0.
          5    1    3    3  502    0 -0.34222909488E+02 -0.59103612988E+01 -0.17686419294E+02  0.39197215870E+02  0.41800000000E+01 0.  1.
         -5    1    3    3    0  502  0.48280477722E+02 -0.10936469135E+01  0.10067571311E+03  0.11173751475E+03  0.41800000000E+01 0.  1.
        -11    1    1    2    0    0 -0.26193667494E+02  0.38485416066E+02  0.10643688991E+03  0.11617248814E+03  0.00000000000E+00 0.  1.
         11    1    1    2    0    0  0.12136099260E+02 -0.31481407854E+02  0.12654966371E+02  0.36034873659E+02  0.00000000000E+00 0. -1.
</event>
<event>
 7    1  0.2334784E-009  0.7613248E+02  0.7561462E-02  0.1340400E+00
          1   -1    0    0  501    0  0.00000000000E+00  0.00000000000E+00  0.11960540009E+03  0.11960540009E+03  0.00000000000E+00 0. -1.
         -1   -1    0    0    0  501 -0.00000000000E+00 -0.00000000000E+00 -0.19320930112E+03  0.19320930112E+03  0.00000000000E+00 0.  1.
         25    2    1    2    0    0  0.14049542529E+02  0.69241737839E+02 -0.12241610442E+03  0.18874112945E+03  0.12508278627E+03 0.  0.
          5    1    3    3  502    0 -0.94304597913E+01  0.47517438185E+02  0.12349589553E+02  0.50167970516E+02  0.41800000000E+01 0. -1.
         -5    1    3    3    0  502  0.23480002320E+02  0.21724299654E+02 -0.13476569398E+03  0.13857315893E+03  0.41800000000E+01 0. -1.
        -11    1    1    2    0    0 -0.14712683696E+02 -0.49811676971E+02 -0.17626725460E+02  0.54848588629E+02  0.00000000000E+00 0.  1.
         11    1    1    2    0    0  0.66314116746E+00 -0.19430060868E+02  0.66438928858E+02  0.69224983130E+02  0.00000000000E+00 0. -1.
</event>
<event>
 7    1  0.2334784E-009  0.1067298E+03  0.7561462E-02  0.1266748E+00
         -2   -1    0    0    0  501 -0.00000000000E+00  0.00000000000E+00  0.39957205215E+03  0.39957205215E+03  0.00000000000E+00 0.  1.
          2   -1    0    0  501    0  0.00000000000E+00 -0.00000000000E+00 -0.49030014839E+02  0.49030014839E+02  0.00000000000E+00 0. -1.
         25    2    1    2    0    0 -0.10524142893E+02 -0.56289866743E+02  0.31781525721E+03  0.34631479959E+03  0.12509234995E+03 0.  0.
          5    1    3    3  502    0 -0.39481492509E+02 -0.85873489519E+02  0.24194864704E+03  0.25978772999E+03  0.41800000000E+01 0. -1.
         -5    1    3    3    0  502  0.28957349616E+02  0.29583622776E+02  0.75866610176E+02  0.86527069596E+02  0.41800000000E+01 0. -1.
        -11    1    1    2    0    0  0.31245468882E+02  0.40717370491E+02  0.49587054988E+02  0.71365675277E+02  0.00000000000E+00 0.  1.
         11    1    1    2    0    0 -0.20721325989E+02  0.15572496252E+02 -0.16860274886E+02  0.30921592124E+02  0.00000000000E+00 0. -1.
</event>
<event>
 7    1  0.2334784E-009  0.1023195E+03  0.7561462E-02  0.1275493E+00
          1   -1    0    0  501    0  0.00000000000E+00  0.00000000000E+00  0.79637184452E+03  0.79637184452E+03  0.00000000000E+00 0. -1.
         -1   -1    0    0    0  501 -0.00000000000E+00 -0.00000000000E+00 -0.18467272916E+02  0.18467272916E+02  0.00000000000E+00 0.  1.
         25    2    1    2    0    0 -0.32591221958E+02  0.35039152175E+02  0.35821191010E+03  0.38243199423E+03  0.12509407555E+03 0.  0.
          5    1    3    3  502    0  0.38212942958E+02  0.11609345311E+02  0.23453641299E+03  0.23794916963E+03  0.41800000000E+01 0. -1.
         -5    1    3    3    0  502 -0.70804164916E+02  0.23429806864E+02  0.12367549711E+03  0.14448282460E+03  0.41800000000E+01 0. -1.
        -11    1    1    2    0    0  0.22439146093E+02 -0.59344893347E+02  0.37655972261E+03  0.38186719725E+03  0.00000000000E+00 0. -1.
         11    1    1    2    0    0  0.10152075865E+02  0.24305741172E+02  0.43132938891E+02  0.50539925956E+02  0.00000000000E+00 0.  1.
</event>
<event>
 7    1  0.2334784E-009  0.1064126E+03  0.7561462E-02  0.1267361E+00
          2   -1    0    0  501    0  0.00000000000E+00  0.00000000000E+00  0.16949153238E+03  0.16949153238E+03  0.00000000000E+00 0. -1.
         -2   -1    0    0    0  501 -0.00000000000E+00 -0.00000000000E+00 -0.79587062372E+02  0.79587062372E+02  0.00000000000E+00 0.  1.
         25    2    1    2    0    0 -0.19982971090E+02 -0.20969004641E+02  0.84454969506E+02  0.15368512856E+03  0.12508980205E+03 0.  0.
          5    1    3    3  502    0  0.32867394670E+02  0.30628498940E+02  0.54462453654E+01  0.45447822481E+02  0.41800000000E+01 0. -1.
         -5    1    3    3    0  502 -0.52850365760E+02 -0.51597503581E+02  0.79008724141E+02  0.10823730608E+03  0.41800000000E+01 0. -1.
        -11    1    1    2    0    0  0.30875440366E+02 -0.29134728907E+02  0.10905753147E+02  0.43829906434E+02  0.00000000000E+00 0.  1.
         11    1    1    2    0    0 -0.10892469276E+02  0.50103733549E+02 -0.54562526422E+01  0.51563559762E+02  0.00000000000E+00 0. -1.
</event>
<event>
 7    1  0.2334784E-009  0.2783235E+03  0.7561462E-02  0.1096608E+00
          2   -1    0    0  501    0  0.00000000000E+00  0.00000000000E+00  0.22253272485E+04  0.22253272485E+04  0.00000000000E+00 0. -1.
         -2   -1    0    0    0  501 -0.00000000000E+00 -0.00000000000E+00 -0.38015045409E+02  0.38015045409E+02  0.00000000000E+00 0.  1.
         25    2    1    2    0    0  0.26499868391E+03  0.34839653494E+02  0.97693946779E+03  0.10205375079E+04  0.12509187563E+03 0.  0.
          5    1    3    3  502    0  0.68090114325E+02  0.37405507584E+02  0.47508625955E+03  0.48141443900E+03  0.41800000000E+01 0. -1.
         -5    1    3    3    0  502  0.19690856959E+03 -0.25658540901E+01  0.50185320824E+03  0.53912306888E+03  0.41800000000E+01 0. -1.
        -11    1    1    2    0    0 -0.19293743161E+03  0.16131998380E+02  0.80991916300E+03  0.83273894137E+03  0.00000000000E+00 0.  1.
         11    1    1    2    0    0 -0.72061252299E+02 -0.50971651874E+02  0.40045357232E+03  0.41006584466E+03  0.00000000000E+00 0. -1.
</event>
<event>
 7    1  0.2861756E-009  0.2666651E+03  0.7561462E-02  0.1103204E+00
         -2   -1    0    0    0  501 -0.00000000000E+00  0.00000000000E+00  0.98887935726E+02  0.98887935726E+02  0.00000000000E+00 0.  1.
          2   -1    0    0  501    0  0.00000000000E+00 -0.00000000000E+00 -0.74242490947E+03  0.74242490947E+03  0.00000000000E+00 0. -1.
         25    2    1    2    0    0  0.22380224116E+03 -0.10615589050E+03 -0.31619333655E+03  0.42069315161E+03  0.12509190820E+03 0.  0.
          5    1    3    3  502    0  0.66445077723E+02 -0.98846968191E+02 -0.15145384604E+03  0.19272107138E+03  0.41800000000E+01 0. -1.
         -5    1    3    3    0  502  0.15735716344E+03 -0.73089223086E+01 -0.16473949051E+03  0.22797208023E+03  0.41800000000E+01 0. -1.
        -11    1    1    2    0    0 -0.14238934746E+03  0.30899343954E+02 -0.13510806380E+03  0.19870501914E+03  0.00000000000E+00 0.  1.
         11    1    1    2    0    0 -0.81412893702E+02  0.75256546546E+02 -0.19223557339E+03  0.22191467445E+03  0.00000000000E+00 0. -1.
</event>
<event>
 7    1  0.2334784E-009  0.1126517E+03  0.7561462E-02  0.1255737E+00
         -1   -1    0    0    0  501 -0.00000000000E+00  0.00000000000E+00  0.40119640567E+02  0.40119640567E+02  0.00000000000E+00 0.  1.
          1   -1    0    0  501    0  0.00000000000E+00 -0.00000000000E+00 -0.33672199438E+03  0.33672199438E+03  0.00000000000E+00 0. -1.
         25    2    1    2    0    0  0.12431274617E+02 -0.40322569990E+02 -0.17678975757E+03  0.22064817870E+03  0.12510217482E+03 0.  0.
          5    1    3    3  502    0 -0.32614551986E+02 -0.65525978941E+02 -0.67257506024E+02  0.99490740443E+02  0.41800000000E+01 0. -1.
         -5    1    3    3    0  502  0.45045826603E+02  0.25203408951E+02 -0.10953225154E+03  0.12115743826E+03  0.41800000000E+01 0. -1.
        -11    1    1    2    0    0  0.22952539721E+02  0.56732819427E+02 -0.72631065769E+02  0.94977384648E+02  0.00000000000E+00 0.  1.
         11    1    1    2    0    0 -0.35383814337E+02 -0.16410249437E+02 -0.47181530472E+02  0.61216071594E+02  0.00000000000E+00 0. -1.
</event>
<event>
 6    1  0.3326634E-009  0.6450230E+02  0.7561462E-02  0.1379853E+00
          3   -1    0    0  501    0  0.00000000000E+00  0.00000000000E+00  0.13607081777E+03  0.13607081777E+03  0.00000000000E+00 0. -1.
         -3   -1    0    0    0  501 -0.00000000000E+00 -0.00000000000E+00 -0.92953398899E+02  0.92953398899E+02  0.00000000000E+00 0.  1.
          5    1    1    2  502    0  0.13573265980E+02  0.36838458510E+02 -0.47467095539E+02  0.61740611705E+02  0.41800000000E+01 0.  1.
         -5    1    1    2    0  502 -0.25984864641E+02 -0.10411154506E+02  0.61104127754E+02  0.67340865432E+02  0.41800000000E+01 0.  1.
        -11    1    1    2    0    0 -0.79167245184E-01  0.16506172645E+02 -0.24691728695E+02  0.29700866465E+02  0.00000000000E+00 0.  1.
         11    1    1    2    0    0  0.12490765906E+02 -0.42933476650E+02  0.54172115349E+02  0.70241873064E+02  0.00000000000E+00 0. -1.
</event>
<event>
 7    1  0.2334784E-009  0.1186916E+03  0.7561462E-02  0.1245271E+00
          2   -1    0    0  501    0  0.00000000000E+00  0.00000000000E+00  0.60188300707E+03  0.60188300707E+03  0.00000000000E+00 0. -1.
         -2   -1    0    0    0  501 -0.00000000000E+00 -0.00000000000E+00 -0.28627322282E+02  0.28627322282E+02  0.00000000000E+00 0.  1.
         25    2    1    2    0    0  0.61346450614E+02 -0.89913046903E+01  0.41033906605E+03  0.43343898658E+03  0.12508787069E+03 0.  0.
          5    1    3    3  502    0  0.93094207040E+02 -0.33535173063E+02  0.30248055298E+03  0.31828147378E+03  0.41800000000E+01 0. -1.
         -5    1    3    3    0  502 -0.31747756425E+02  0.24543868373E+02  0.10785851307E+03  0.11515751280E+03  0.41800000000E+01 0. -1.
        -11    1    1    2    0    0 -0.61427850548E+02  0.35860731461E+02  0.67923779586E+02  0.98351475419E+02  0.00000000000E+00 0.  1.
         11    1    1    2    0    0  0.81399933837E-01 -0.26869426771E+02  0.94992839149E+02  0.98719867355E+02  0.00000000000E+00 0. -1.
</event>
<event>
 7    1  0.2334784E-009  0.1680137E+03  0.7561462E-02  0.1179935E+00
         -1   -1    0    0    0  501 -0.00000000000E+00  0.00000000000E+00  0.16402165085E+03  0.16402165085E+03  0.00000000000E+00 0.  1.
          1   -1    0    0  501    0  0.00000000000E+00 -0.00000000000E+00 -0.21772777466E+03  0.21772777466E+03  0.00000000000E+00 0. -1.
         25    2    1    2    0    0  0.93220227668E+02  0.94245311401E+02  0.52734217425E+02  0.18973927072E+03  0.12509158084E+03 0.  0.
          5    1    3    3  502    0  0.84966043177E+02  0.39061446750E+00  0.41841183670E+02  0.94802627199E+02  0.41800000000E+01 0.  1.
         -5    1    3    3    0  502  0.82541844904E+01  0.93854696933E+02  0.10893033755E+02  0.94936643518E+02  0.41800000000E+01 0.  1.
        -11    1    1    2    0    0  0.15212475202E+02 -0.20444436231E+02 -0.32969513161E+02  0.41669931277E+02  0.00000000000E+00 0.  1.
         11    1    1    2    0    0 -0.10843270287E+03 -0.73800875170E+02 -0.73470828072E+02  0.15034022351E+03  0.00000000000E+00 0. -1.
</event>
<event>
 7    1  0.2334784E-009  0.2761175E+03  0.7561462E-02  0.1097829E+00
          2   -1    0    0  501    0  0.00000000000E+00  0.00000000000E+00  0.49232679859E+03  0.49232679859E+03  0.00000000000E+00 0. -1.
         -2   -1    0    0    0  501 -0.00000000000E+00 -0.00000000000E+00 -0.16250006648E+03  0.16250006648E+03  0.00000000000E+00 0.  1.
         25    2    1    2    0    0  0.25670618827E+03  0.16564655226E+02  0.22006699415E+03  0.36090106368E+03  0.12509053103E+03 0.  0.
          5    1    3    3  502    0 -0.76177722183E+01  0.19700354418E+02  0.19590427433E+02  0.29109992524E+02  0.41800000000E+01 0.  1.
         -5    1    3    3    0  502  0.26432396049E+03 -0.31356991923E+01  0.20047656671E+03  0.33179107115E+03  0.41800000000E+01 0.  1.
        -11    1    1    2    0    0 -0.12901489121E+03 -0.42878191658E+02  0.87465850411E+02  0.16165907479E+03  0.00000000000E+00 0.  1.
         11    1    1    2    0    0 -0.12769129706E+03  0.26313536432E+02  0.22293887562E+02  0.13226672660E+03  0.00000000000E+00 0. -1.
</event>
<event>
 7    1  0.2334784E-009  0.1237922E+03  0.7561462E-02  0.1236969E+00
          2   -1    0    0  501    0  0.00000000000E+00  0.00000000000E+00  0.12542418214E+03  0.12542418214E+03  0.00000000000E+00 0. -1.
         -2   -1    0    0    0  501 -0.00000000000E+00 -0.00000000000E+00 -0.19235239905E+03  0.19235239905E+03  0.00000000000E+00 0.  1.
         25    2    1    2    0    0  0.61937366231E+02 -0.61070049151E+02  0.34344918209E+02  0.15618393931E+03  0.12509221100E+03 0.  0.
          5    1    3    3  502    0  0.47045080081E+02  0.25872742313E+02 -0.13816122285E+02  0.55596726429E+02  0.41800000000E+01 0. -1.
         -5    1    3    3    0  502  0.14892286150E+02 -0.86942791464E+02  0.48161040495E+02  0.10058721288E+03  0.41800000000E+01 0. -1.
        -11    1    1    2    0    0 -0.22518703276E+02  0.62032368986E+02 -0.16389692601E+02  0.67998006021E+02  0.00000000000E+00 0. -1.
         11    1    1    2    0    0 -0.39418662955E+02 -0.96231983559E+00 -0.84883442514E+02  0.93594635859E+02  0.00000000000E+00 0.  1.
</event>
<event>
 7    1  0.2334784E-009  0.1032354E+03  0.7561462E-02  0.1273636E+00
          1   -1    0    0  501    0  0.00000000000E+00  0.00000000000E+00  0.41402319867E+03  0.41402319867E+03  0.00000000000E+00 0. -1.
         -1   -1    0    0    0  501 -0.00000000000E+00 -0.00000000000E+00 -0.27446920605E+02  0.27446920605E+02  0.00000000000E+00 0.  1.
         25    2    1    2    0    0 -0.13195026604E+02  0.63454369332E+02  0.27344057527E+03  0.30760317257E+03  0.12509755338E+03 0.  0.
          5    1    3    3  502    0 -0.64493889827E+02  0.78939804317E+01  0.12257942064E+03  0.13879828355E+03  0.41800000000E+01 0.  1.
         -5    1    3    3    0  502  0.51298863223E+02  0.55560388900E+02  0.15086115463E+03  0.16880488902E+03  0.41800000000E+01 0.  1.
        -11    1    1    2    0    0  0.97953692949E+01 -0.22628084550E+02  0.18758643449E+02  0.30981707088E+02  0.00000000000E+00 0. -1.
         11    1    1    2    0    0  0.33996573091E+01 -0.40826284782E+02  0.94377059347E+02  0.10288523961E+03  0.00000000000E+00 0.  1.
</event>
<event>
 7    1  0.2334784E-009  0.1108087E+03  0.7561462E-02  0.1259080E+00
         -4   -1    0    0    0  501 -0.00000000000E+00  0.00000000000E+00  0.26719028750E+03  0.26719028750E+03  0.00000000000E+00 0.  1.
          4   -1    0    0  501    0  0.00000000000E+00 -0.00000000000E+00 -0.48917777427E+02  0.48917777427E+02  0.00000000000E+00 0. -1.
         25    2    1    2    0    0 -0.17458165148E+02 -0.23884953693E+02  0.95442620735E+02  0.16010038452E+03  0.12509021036E+03 0.  0.
          5    1    3    3  502    0  0.12919506193E+02  0.46646801715E+02  0.54360697248E+02  0.72906759328E+02  0.41800000000E+01 0.  1.
         -5    1    3    3    0  502 -0.30377671340E+02 -0.70531755407E+02  0.41081923487E+02  0.87193625193E+02  0.41800000000E+01 0.  1.
        -11    1    1    2    0    0  0.12458011221E+02 -0.34936748523E+02  0.44777754429E+02  0.58144868497E+02  0.00000000000E+00 0. -1.
         11    1    1    2    0    0  0.50001539264E+01  0.58821702215E+02  0.78052134913E+02  0.97862811912E+02  0.00000000000E+00 0.  1.
</event>
<event>
 7    1  0.2779147E-009  0.1437000E+03  0.7561462E-02  0.1208435E+00
         -1   -1    0    0    0  501 -0.00000000000E+00  0.00000000000E+00  0.11654646665E+03  0.11654646665E+03  0.00000000000E+00 0.  1.
          1   -1    0    0  501    0  0.00000000000E+00 -0.00000000000E+00 -0.33598706776E+03  0.33598706776E+03  0.00000000000E+00 0. -1.
         25    2    1    2    0    0 -0.14039032717E+03 -0.24450333807E+02 -0.19532904332E+02  0.19061997698E+03  0.12508868249E+03 0.  0.
          5    1    3    3  502    0 -0.97814372666E+02 -0.64389091844E+01  0.47560610652E+02  0.10903483451E+03  0.41800000000E+01 0. -1.
         -5    1    3    3    0  502 -0.42575954507E+02 -0.18011424622E+02 -0.67093514984E+02  0.81585142471E+02  0.41800000000E+01 0. -1.
        -11    1    1    2    0    0  0.33423519219E+02  0.10263001858E+02 -0.25137754393E+00  0.34964611178E+02  0.00000000000E+00 0.  1.
         11    1    1    2    0    0  0.10696680795E+03  0.14187331948E+02 -0.19965631924E+03  0.22694894625E+03  0.00000000000E+00 0. -1.
</event>
<event>
 7    1  0.2415470E-009  0.9245534E+02  0.7561462E-02  0.1297012E+00
          1   -1    0    0  501    0  0.00000000000E+00  0.00000000000E+00  0.68102056743E+03  0.68102056743E+03  0.00000000000E+00 0. -1.
         -1   -1    0    0    0  501 -0.00000000000E+00 -0.00000000000E+00 -0.19742429696E+02  0.19742429696E+02  0.00000000000E+00 0.  1.
         25    2    1    2    0    0  0.38695901982E+00  0.77893815733E+01  0.49839111083E+03  0.51390831081E+03  0.12508888188E+03 0.  0.
          5    1    3    3  502    0  0.50246391857E+01 -0.57400538423E+02  0.18766332381E+03  0.19635443543E+03  0.41800000000E+01 0.  1.
         -5    1    3    3    0  502 -0.46376801658E+01  0.65189919996E+02  0.31072778702E+03  0.31755387539E+03  0.41800000000E+01 0.  1.
        -11    1    1    2    0    0 -0.15048893416E+02  0.23036227485E+02  0.14636955433E+03  0.14893348651E+03  0.00000000000E+00 0. -1.
         11    1    1    2    0    0  0.14661934396E+02 -0.30825609058E+02  0.16517472579E+02  0.37921199802E+02  0.00000000000E+00 0.  1.
</event>
<event>
 7    1  0.2334784E-009  0.1411713E+03  0.7561462E-02  0.1211761E+00
         -4   -1    0    0    0  501 -0.00000000000E+00  0.00000000000E+00  0.28510082040E+03  0.28510082040E+03  0.00000000000E+00 0.  1.
          4   -1    0    0  501    0  0.00000000000E+00 -0.00000000000E+00 -0.96246547874E+02  0.96246547874E+02  0.00000000000E+00 0. -1.
         25    2    1    2    0    0 -0.78386918280E+02  0.84495532526E+02  0.15361806158E+03  0.22919361057E+03  0.12508876171E+03 0.  0.
          5    1    3    3  502    0  0.57800543077E+01  0.80700310224E+02  0.10214798317E+03  0.13037496679E+03  0.41800000000E+01 0. -1.
         -5    1    3    3    0  502 -0.84166972588E+02  0.37952223021E+01  0.51470078407E+02  0.98818643779E+02  0.41800000000E+01 0. -1.
        -11    1    1    2    0    0  0.29845353499E+02 -0.46825012642E+02  0.63642583001E+02  0.84461265119E+02  0.00000000000E+00 0.  1.
         11    1    1    2    0    0  0.48541564781E+02 -0.37670519885E+02 -0.28406372055E+02  0.67692492591E+02  0.00000000000E+00 0. -1.
</event>
<event>
 7    1  0.2334784E-009  0.2243624E+03  0.7561462E-02  0.1130672E+00
          1   -1    0    0  501    0  0.00000000000E+00  0.00000000000E+00  0.21757678046E+03  0.21757678046E+03  0.00000000000E+00 0. -1.
         -1   -1    0    0    0  501 -0.00000000000E+00 -0.00000000000E+00 -0.28686984378E+03  0.28686984378E+03  0.00000000000E+00 0.  1.
         25    2    1    2    0    0 -0.18107072071E+03 -0.79352120554E+02  0.72486343695E+02  0.24491876374E+03  0.12509023092E+03 0.  0.
          5    1    3    3  502    0  0.11855915258E+02  0.12446464305E+02 -0.36567759121E+01  0.18064374065E+02  0.41800000000E+01 0. -1.
         -5    1    3    3    0  502 -0.19292663597E+03 -0.91798584859E+02  0.76143119607E+02  0.22685438967E+03  0.41800000000E+01 0. -1.
        -11    1    1    2    0    0  0.15172166138E+03  0.99771344702E+02 -0.11664194877E+03  0.21582198213E+03  0.00000000000E+00 0.  1.
         11    1    1    2    0    0  0.29349059333E+02 -0.20419224148E+02 -0.25137458244E+02  0.43705878386E+02  0.00000000000E+00 0. -1.
</event>
<event>
 7    1  0.2334784E-009  0.1657082E+03  0.7561462E-02  0.1182399E+00
          2   -1    0    0  501    0  0.00000000000E+00  0.00000000000E+00  0.23344620538E+03  0.23344620538E+03  0.00000000000E+00 0. -1.
         -2   -1    0    0    0  501 -0.00000000000E+00 -0.00000000000E+00 -0.17708470150E+03  0.17708470150E+03  0.00000000000E+00 0.  1.
         25    2    1    2    0    0 -0.57002850766E+02 -0.11907683453E+03 -0.81220463843E+02  0.19917845839E+03  0.12508667803E+03 0.  0.
          5    1    3    3  502    0 -0.52440397999E+02 -0.14222041513E+03 -0.49674616919E+02  0.15956717014E+03  0.41800000000E+01 0. -1.
         -5    1    3    3    0  502 -0.45624527665E+01  0.23143580598E+02 -0.31545846923E+02  0.39611288243E+02  0.41800000000E+01 0. -1.
        -11    1    1    2    0    0 -0.20203721482E+02  0.42608850872E+02  0.66426761975E+02  0.81462993075E+02  0.00000000000E+00 0. -1.
         11    1    1    2    0    0  0.77206572247E+02  0.76467983658E+02  0.71155205749E+02  0.12988945541E+03  0.00000000000E+00 0.  1.
</event>
<event>
 7    1  0.2334784E-009  0.1250167E+03  0.7561462E-02  0.1235043E+00
         -1   -1    0    0    0  501 -0.00000000000E+00  0.00000000000E+00  0.50998311915E+03  0.50998311915E+03  0.00000000000E+00 0.  1.
          1   -1    0    0  501    0  0.00000000000E+00 -0.00000000000E+00 -0.47219958990E+02  0.47219958990E+02  0.00000000000E+00 0. -1.
         25    2    1    2    0    0 -0.23176751573E+02 -0.10446823448E+03  0.29624293886E+03  0.33890586444E+03  0.12508609954E+03 0.  0.
          5    1    3    3  502    0  0.36247844577E+02 -0.42712964024E+02  0.20947413147E+03  0.21687597305E+03  0.41800000000E+01 0.  1.
         -5    1    3    3    0  502 -0.59424596149E+02 -0.61755270453E+02  0.86768807390E+02  0.12202989139E+03  0.41800000000E+01 0.  1.
        -11    1    1    2    0    0  0.15377526519E+02  0.36073017459E+02  0.12164416862E+01  0.39232775084E+02  0.00000000000E+00 0. -1.
         11    1    1    2    0    0  0.77992250541E+01  0.68395217018E+02  0.16530377962E+03  0.17906443862E+03  0.00000000000E+00 0.  1.
</event>
<event>
 7    1  0.2334784E-009  0.1547564E+03  0.7561462E-02  0.1194747E+00
         -1   -1    0    0    0  501 -0.00000000000E+00  0.00000000000E+00  0.31453034759E+02  0.31453034759E+02  0.00000000000E+00 0.  1.
          1   -1    0    0  501    0  0.00000000000E+00 -0.00000000000E+00 -0.95839737145E+03  0.95839737145E+03  0.00000000000E+00 0. -1.
         25    2    1    2    0    0  0.86294859426E+01 -0.13135955172E+03 -0.40524857299E+03  0.44407611497E+03  0.12508952841E+03 0.  0.
          5    1    3    3  502    0 -0.45919930577E+02 -0.65782412877E+02 -0.28818009015E+03  0.29916751599E+03  0.41800000000E+01 0.  1.
         -5    1    3    3    0  502  0.54549416520E+02 -0.65577138844E+02 -0.11706848285E+03  0.14490859898E+03  0.41800000000E+01 0.  1.
        -11    1    1    2    0    0  0.24794070771E+02  0.49654677021E+02 -0.94841603209E+02  0.10988749972E+03  0.00000000000E+00 0.  1.
         11    1    1    2    0    0 -0.33423556714E+02  0.81704874699E+02 -0.42685416049E+03  0.43588679152E+03  0.00000000000E+00 0. -1.
</event>
<event>
 7    1  0.2334784E-009  0.1133661E+03  0.7561462E-02  0.1254460E+00
         -2   -1    0    0    0  501 -0.00000000000E+00  0.00000000000E+00  0.49851954999E+03  0.49851954999E+03  0.00000000000E+00 0.  1.
          2   -1    0    0  501    0  0.00000000000E+00 -0.00000000000E+00 -0.69866471666E+02  0.69866471666E+02  0.00000000000E+00 0. -1.
         25    2    1    2    0    0 -0.27312561124E+02  0.77899288950E+02  0.41673791818E+03  0.44286719680E+03  0.12508631556E+03 0.  0.
          5    1    3    3  502    0  0.41779222524E+02  0.33451766862E+01  0.71830319648E+02  0.83269207169E+02  0.41800000000E+01 0.  1.
         -5    1    3    3    0  502 -0.69091783649E+02  0.74554112264E+02  0.34490759853E+03  0.35959798963E+03  0.41800000000E+01 0.  1.
        -11    1    1    2    0    0  0.69816470943E+01 -0.30759180890E+02  0.51705326933E+02  0.60566586815E+02  0.00000000000E+00 0.  1.
         11    1    1    2    0    0  0.20330914030E+02 -0.47140108060E+02 -0.39790166789E+02  0.64952238039E+02  0.00000000000E+00 0. -1.
</event>
<event>
 7    1  0.2334784E-009  0.1676663E+03  0.7561462E-02  0.1180304E+00
          1   -1    0    0  501    0  0.00000000000E+00  0.00000000000E+00  0.80096765012E+03  0.80096765012E+03  0.00000000000E+00 0. -1.
         -1   -1    0    0    0  501 -0.00000000000E+00 -0.00000000000E+00 -0.43957617507E+02  0.43957617507E+02  0.00000000000E+00 0.  1.
         25    2    1    2    0    0  0.11356933842E+01  0.15134056819E+03  0.45000551317E+03  0.49097545610E+03  0.12508668686E+03 0.  0.
          5    1    3    3  502    0 -0.21700068888E+02  0.11849603589E+03  0.42897442254E+03  0.44558807334E+03  0.41800000000E+01 0. -1.
         -5    1    3    3    0  502  0.22835762272E+02  0.32844532301E+02  0.21031090631E+02  0.45387382760E+02  0.41800000000E+01 0. -1.
        -11    1    1    2    0    0  0.42618416392E+02 -0.64100604499E+02  0.11222776133E+03  0.13608926235E+03  0.00000000000E+00 0.  1.
         11    1    1    2    0    0 -0.43754109776E+02 -0.87239963693E+02  0.19477675811E+03  0.21786054918E+03  0.00000000000E+00 0. -1.
</event>
<event>
 7    1  0.2334784E-009  0.1492993E+03  0.7561462E-02  0.1201337E+00
         -1   -1    0    0    0  501 -0.00000000000E+00  0.00000000000E+00  0.59199837715E+02  0.59199837715E+02  0.00000000000E+00 0.  1.
          1   -1    0    0  501    0  0.00000000000E+00 -0.00000000000E+00 -0.48576462872E+03  0.48576462872E+03  0.00000000000E+00 0. -1.
         25    2    1    2    0    0  0.11147928157E+00  0.10263032920E+03 -0.10189816360E+03  0.19121917071E+03  0.12509411898E+03 0.  0.
          5    1    3    3  502    0  0.31248072355E+02 -0.18421638175E+02 -0.27381392907E+02  0.45640024721E+02  0.41800000000E+01 0.  1.
         -5    1    3    3    0  502 -0.31136593073E+02  0.12105196737E+03 -0.74516770688E+02  0.14557914599E+03  0.41800000000E+01 0.  1.
        -11    1    1    2    0    0  0.14049986554E+02  0.13823876908E+02 -0.24340889232E+02  0.31320609565E+02  0.00000000000E+00 0.  1.
         11    1    1    2    0    0 -0.14161465836E+02 -0.11645420611E+03 -0.30032573818E+03  0.32242468616E+03  0.00000000000E+00 0. -1.
</event>
<event>
 7    1  0.2334784E-009  0.7806025E+02  0.7561462E-02  0.1334648E+00
          1   -1    0    0  501    0  0.00000000000E+00  0.00000000000E+00  0.46277973665E+03  0.46277973665E+03  0.00000000000E+00 0. -1.
         -1   -1    0    0    0  501 -0.00000000000E+00 -0.00000000000E+00 -0.38623471968E+02  0.38623471968E+02  0.00000000000E+00 0.  1.
         25    2    1    2    0    0 -0.91309157343E+01  0.30040935874E+02  0.37341723749E+03  0.39506067916E+03  0.12508667202E+03 0.  0.
          5    1    3    3  502    0  0.51727093009E+02  0.71556350969E+01  0.88972364631E+02  0.10324945197E+03  0.41800000000E+01 0. -1.
         -5    1    3    3    0  502 -0.60858008744E+02  0.22885300778E+02  0.28444487285E+03  0.29181122719E+03  0.41800000000E+01 0. -1.
        -11    1    1    2    0    0 -0.59634585602E+01 -0.18904818718E+02  0.73914871514E+02  0.76526879197E+02  0.00000000000E+00 0. -1.
         11    1    1    2    0    0  0.15094374295E+02 -0.11136117157E+02 -0.23175844317E+02  0.29815650261E+02  0.00000000000E+00 0.  1.
</event>
<event>
 7    1  0.2334784E-009  0.1092552E+03  0.7561462E-02  0.1261955E+00
         -2   -1    0    0    0  501 -0.00000000000E+00  0.00000000000E+00  0.37095299923E+03  0.37095299923E+03  0.00000000000E+00 0. -1.
          2   -1    0    0  501    0  0.00000000000E+00 -0.00000000000E+00 -0.33626904658E+02  0.33626904658E+02  0.00000000000E+00 0.  1.
         25    2    1    2    0    0  0.24547943227E+02 -0.24250002524E+01  0.17676464587E+03  0.21794516848E+03  0.12508346930E+03 0.  0.
          5    1    3    3  502    0  0.66943964160E+02  0.27154132126E+02  0.12642002287E+03  0.14566514961E+03  0.41800000000E+01 0. -1.
         -5    1    3    3    0  502 -0.42396020933E+02 -0.29579132379E+02  0.50344623002E+02  0.72280018874E+02  0.41800000000E+01 0. -1.
        -11    1    1    2    0    0 -0.59052698060E+02 -0.39948531377E+01  0.88311488848E+02  0.10631133083E+03  0.00000000000E+00 0.  1.
         11    1    1    2    0    0  0.34504754833E+02  0.64198533901E+01  0.72249959852E+02  0.80323404574E+02  0.00000000000E+00 0. -1.
</event>
<event>
 7    1  0.2334784E-009  0.9979354E+02  0.7561462E-02  0.1280731E+00
         -4   -1    0    0    0  501 -0.00000000000E+00  0.00000000000E+00  0.10533112931E+03  0.10533112931E+03  0.00000000000E+00 0.  1.
          4   -1    0    0  501    0  0.00000000000E+00 -0.00000000000E+00 -0.16614029037E+03  0.16614029037E+03  0.00000000000E+00 0. -1.
         25    2    1    2    0    0  0.32124176932E+02  0.55438640120E+02 -0.75189100293E+02  0.15940049811E+03  0.12509881068E+03 0.  0.
          5    1    3    3  502    0  0.58887130109E+02 -0.44195043901E+01  0.46111704029E+00  0.59202289994E+02  0.41800000000E+01 0. -1.
         -5    1    3    3    0  502 -0.26762953177E+02  0.59858144510E+02 -0.75650217334E+02  0.10019820812E+03  0.41800000000E+01 0. -1.
        -11    1    1    2    0    0 -0.25013839341E+02 -0.73471912269E+01  0.46846501533E+02  0.53612200881E+02  0.00000000000E+00 0.  1.
         11    1    1    2    0    0 -0.71103375914E+01 -0.48091448893E+02 -0.32466562292E+02  0.58458720687E+02  0.00000000000E+00 0. -1.
</event>
<event>
 7    1  0.2334784E-009  0.8142842E+02  0.7561462E-02  0.1325046E+00
          1   -1    0    0  501    0  0.00000000000E+00  0.00000000000E+00  0.10529018748E+03  0.10529018748E+03  0.00000000000E+00 0. -1.
         -1   -1    0    0    0  501 -0.00000000000E+00 -0.00000000000E+00 -0.11430931520E+03  0.11430931520E+03  0.00000000000E+00 0.  1.
         25    2    1    2    0    0 -0.90685595176E+01 -0.92087334516E+01 -0.11157460795E+01  0.12575968799E+03  0.12508882720E+03 0.  0.
          5    1    3    3  502    0  0.82918307596E+01  0.27349425972E+02  0.51621362371E+02  0.59152202084E+02  0.41800000000E+01 0. -1.
         -5    1    3    3    0  502 -0.17360390277E+02 -0.36558159424E+02 -0.52737108451E+02  0.66607485906E+02  0.41800000000E+01 0. -1.
        -11    1    1    2    0    0  0.60678658248E+01 -0.41776317199E+02 -0.67690458129E+01  0.42753943158E+02  0.00000000000E+00 0.  1.
         11    1    1    2    0    0  0.30006936928E+01  0.50985050650E+02 -0.11343358335E+01  0.51085871532E+02  0.00000000000E+00 0. -1.
</event>
<event>
 7    1  0.2334784E-009  0.9306550E+02  0.7561462E-02  0.1295593E+00
          2   -1    0    0  501    0  0.00000000000E+00  0.00000000000E+00  0.67595203352E+03  0.67595203352E+03  0.00000000000E+00 0. -1.
         -2   -1    0    0    0  501 -0.00000000000E+00 -0.00000000000E+00 -0.18668022965E+02  0.18668022965E+02  0.00000000000E+00 0.  1.
         25    2    1    2    0    0 -0.23446975433E+02 -0.14401856293E+02  0.40300776502E+03  0.42287040110E+03  0.12508774256E+03 0.  0.
          5    1    3    3  502    0 -0.25707411236E+02 -0.57227846387E+02  0.34459673190E+03  0.35028599377E+03  0.41800000000E+01 0. -1.
         -5    1    3    3    0  502  0.22604358033E+01  0.42825990095E+02  0.58411033120E+02  0.72584407332E+02  0.41800000000E+01 0. -1.
        -11    1    1    2    0    0  0.18866907523E+02  0.45226105338E+02  0.73702031631E+02  0.88506215996E+02  0.00000000000E+00 0.  1.
         11    1    1    2    0    0  0.45800679094E+01 -0.30824249045E+02  0.18057421390E+03  0.18324343938E+03  0.00000000000E+00 0. -1.
</event>
<event>
 7    1  0.2334784E-009  0.2204282E+03  0.7561462E-02  0.1133564E+00
          2   -1    0    0  501    0  0.00000000000E+00  0.00000000000E+00  0.20359941622E+04  0.20359941622E+04  0.00000000000E+00 0. -1.
         -2   -1    0    0    0  501 -0.00000000000E+00 -0.00000000000E+00 -0.25381646341E+02  0.25381646341E+02  0.00000000000E+00 0.  1.
         25    2    1    2    0    0  0.84393528430E+02 -0.17886014907E+03  0.10611983859E+04  0.10866931855E+04  0.12508734823E+03 0.  0.
          5    1    3    3  502    0  0.10874045897E+03 -0.89303518691E+02  0.66741053402E+03  0.68209522736E+03  0.41800000000E+01 0. -1.
         -5    1    3    3    0  502 -0.24346930537E+02 -0.89556630376E+02  0.39378785187E+03  0.40459795816E+03  0.41800000000E+01 0. -1.
        -11    1    1    2    0    0 -0.10886570835E+02  0.95183562194E+02  0.27683234477E+03  0.29294124846E+03  0.00000000000E+00 0.  1.
         11    1    1    2    0    0 -0.73506957595E+02  0.83676586873E+02  0.67258178523E+03  0.68174137459E+03  0.00000000000E+00 0. -1.
</event>
<event>
 7    1  0.2334784E-009  0.1520937E+03  0.7561462E-02  0.1197924E+00
         -2   -1    0    0    0  501 -0.00000000000E+00  0.00000000000E+00  0.21718691558E+03  0.21718691558E+03  0.00000000000E+00 0.  1.
          2   -1    0    0  501    0  0.00000000000E+00 -0.00000000000E+00 -0.14918996087E+03  0.14918996087E+03  0.00000000000E+00 0. -1.
         25    2    1    2    0    0 -0.89555972128E+02 -0.65286580145E+02  0.12758742681E+03  0.21025598764E+03  0.12508564732E+03 0.  0.
          5    1    3    3  502    0 -0.12120781454E+03 -0.45361769471E+02  0.99049373181E+02  0.16302538196E+03  0.41800000000E+01 0. -1.
         -5    1    3    3    0  502  0.31651842408E+02 -0.19924810674E+02  0.28538053629E+02  0.47230605683E+02  0.41800000000E+01 0. -1.
        -11    1    1    2    0    0  0.65746425111E+02 -0.19138755975E+01 -0.53098340209E+02  0.84532177706E+02  0.00000000000E+00 0. -1.
         11    1    1    2    0    0  0.23809547017E+02  0.67200455743E+02 -0.64921318893E+01  0.71588711105E+02  0.00000000000E+00 0.  1.
</event>
<event>
 7    1  0.2334784E-009  0.8977064E+02  0.7561462E-02  0.1303408E+00
          1   -1    0    0  501    0  0.00000000000E+00  0.00000000000E+00  0.42127218264E+03  0.42127218264E+03  0.00000000000E+00 0. -1.
         -1   -1    0    0    0  501 -0.00000000000E+00 -0.00000000000E+00 -0.29048413210E+02  0.29048413210E+02  0.00000000000E+00 0.  1.
         25    2    1    2    0    0 -0.23380000713E+02 -0.22038453178E+02  0.22721527185E+03  0.26134975694E+03  0.12507836679E+03 0.  0.
          5    1    3    3  502    0  0.22068373214E+02  0.16525849498E+02  0.18759448873E+03  0.18965569172E+03  0.41800000000E+01 0.  1.
         -5    1    3    3    0  502 -0.45448373928E+02 -0.38564302676E+02  0.39620783119E+02  0.71694065226E+02  0.41800000000E+01 0.  1.
        -11    1    1    2    0    0  0.27447234066E+02  0.53527296092E+02  0.11372813440E+03  0.12865694944E+03  0.00000000000E+00 0.  1.
         11    1    1    2    0    0 -0.40672333526E+01 -0.31488842913E+02  0.51280363180E+02  0.60313889470E+02  0.00000000000E+00 0. -1.
</event>
<event>
 7    1  0.2334784E-009  0.1334217E+03  0.7561462E-02  0.1222465E+00
         -2   -1    0    0    0  501 -0.00000000000E+00  0.00000000000E+00  0.35523276118E+02  0.35523276118E+02  0.00000000000E+00 0.  1.
          2   -1    0    0  501    0  0.00000000000E+00 -0.00000000000E+00 -0.56942152523E+03  0.56942152523E+03  0.00000000000E+00 0. -1.
         25    2    1    2    0    0  0.52953560372E+02  0.72462189762E+02 -0.26090940091E+03  0.30294555565E+03  0.12508975058E+03 0.  0.
          5    1    3    3  502    0  0.88151501698E+02  0.20643922934E+02 -0.16645186810E+03  0.18952718960E+03  0.41800000000E+01 0.  1.
         -5    1    3    3    0  502 -0.35197941326E+02  0.51818266827E+02 -0.94457532814E+02  0.11341836604E+03  0.41800000000E+01 0.  1.
        -11    1    1    2    0    0  0.50390550987E+01 -0.51527985305E+02 -0.55326178086E+02  0.75772761118E+02  0.00000000000E+00 0.  1.
         11    1    1    2    0    0 -0.57992615470E+02 -0.20934204456E+02 -0.21766267012E+03  0.22622648459E+03  0.00000000000E+00 0. -1.
</event>
<event>
 7    1  0.2334784E-009  0.1323243E+03  0.7561462E-02  0.1224047E+00
          2   -1    0    0  501    0  0.00000000000E+00  0.00000000000E+00  0.59031054422E+03  0.59031054422E+03  0.00000000000E+00 0. -1.
         -2   -1    0    0    0  501 -0.00000000000E+00 -0.00000000000E+00 -0.32730556439E+02  0.32730556439E+02  0.00000000000E+00 0.  1.
         25    2    1    2    0    0 -0.14564508988E+02  0.77639649804E+02  0.27131448554E+03  0.30902865963E+03  0.12508845774E+03 0.  0.
          5    1    3    3  502    0 -0.12619103613E+02  0.10987404593E+03  0.23783637976E+03  0.26232644488E+03  0.41800000000E+01 0. -1.
         -5    1    3    3    0  502 -0.19454053748E+01 -0.32234396124E+02  0.33478105783E+02  0.46702214748E+02  0.41800000000E+01 0. -1.
        -11    1    1    2    0    0 -0.34077447756E+01  0.20935341045E+02  0.18615124813E+02  0.28220986888E+02  0.00000000000E+00 0. -1.
         11    1    1    2    0    0  0.17972253764E+02 -0.98574990849E+02  0.26765037742E+03  0.28579145414E+03  0.00000000000E+00 0.  1.
</event>
<event>
 7    1  0.2334784E-009  0.8084070E+02  0.7561462E-02  0.1326682E+00
          1   -1    0    0  501    0  0.00000000000E+00  0.00000000000E+00  0.40330284323E+03  0.40330284323E+03  0.00000000000E+00 0. -1.
         -1   -1    0    0    0  501 -0.00000000000E+00 -0.00000000000E+00 -0.34284927710E+02  0.34284927710E+02  0.00000000000E+00 0.  1.
         25    2    1    2    0    0 -0.12375060944E+02  0.21871041898E+01  0.29157977126E+03  0.31752743032E+03  0.12508789085E+03 0.  0.
          5    1    3    3  502    0  0.33716427739E+02  0.15316187285E+02  0.25336005612E+03  0.25608626189E+03  0.41800000000E+01 0. -1.
         -5    1    3    3    0  502 -0.46091488683E+02 -0.13129083095E+02  0.38219715138E+02  0.61441168423E+02  0.41800000000E+01 0. -1.
        -11    1    1    2    0    0 -0.15959819556E+02 -0.31640037896E+02  0.35403847495E+01  0.35613791745E+02  0.00000000000E+00 0.  1.
         11    1    1    2    0    0  0.28334880500E+02  0.29452933706E+02  0.73897759514E+02  0.84446548881E+02  0.00000000000E+00 0. -1.
</event>
<event>
 7    1  0.2334784E-009  0.2479613E+03  0.7561462E-02  0.1114600E+00
         -2   -1    0    0    0  501 -0.00000000000E+00  0.00000000000E+00  0.51874695400E+02  0.51874695400E+02  0.00000000000E+00 0.  1.
          2   -1    0    0  501    0  0.00000000000E+00 -0.00000000000E+00 -0.13256673238E+04  0.13256673238E+04  0.00000000000E+00 0. -1.
         25    2    1    2    0    0 -0.20907559932E+03 -0.11509258499E+03 -0.65805317205E+03  0.71108435404E+03  0.12509225383E+03 0.  0.
          5    1    3    3  502    0 -0.10989024096E+03 -0.42213157495E+02 -0.48231345200E+03  0.49648922859E+03  0.41800000000E+01 0. -1.
         -5    1    3    3    0  502 -0.99185358362E+02 -0.72879427493E+02 -0.17573972005E+03  0.21459512545E+03  0.41800000000E+01 0. -1.
        -11    1    1    2    0    0  0.14287847192E+03  0.12271292776E+03 -0.45963146078E+03  0.49672306179E+03  0.00000000000E+00 0.  1.
         11    1    1    2    0    0  0.66197127394E+02 -0.76203427752E+01 -0.15610799560E+03  0.16973460339E+03  0.00000000000E+00 0. -1.
</event>
<event>
 7    1  0.2334784E-009  0.9755036E+02  0.7561462E-02  0.1285533E+00
          3   -1    0    0  501    0  0.00000000000E+00  0.00000000000E+00  0.15307524195E+03  0.15307524195E+03  0.00000000000E+00 0. -1.
         -3   -1    0    0    0  501 -0.00000000000E+00 -0.00000000000E+00 -0.82788555529E+02  0.82788555529E+02  0.00000000000E+00 0.  1.
         25    2    1    2    0    0  0.30268760379E+02  0.11574091417E+02  0.45005395934E+02  0.13683276640E+03  0.12509021884E+03 0.  0.
          5    1    3    3  502    0 -0.47130749082E+02  0.40522894585E+01  0.12486845536E+01  0.47505369928E+02  0.41800000000E+01 0.  1.
         -5    1    3    3    0  502  0.77399509461E+02  0.75218019584E+01  0.43756711381E+02  0.89327396471E+02  0.41800000000E+01 0.  1.
        -11    1    1    2    0    0 -0.41268373208E+01  0.24689122872E+02 -0.22457428631E+02  0.33629149190E+02  0.00000000000E+00 0.  1.
         11    1    1    2    0    0 -0.26141923058E+02 -0.36263214289E+02  0.47738719119E+02  0.65401881891E+02  0.00000000000E+00 0. -1.
</event>
<event>
 7    1  0.2334784E-009  0.9829194E+02  0.7561462E-02  0.1283929E+00
          1   -1    0    0  501    0  0.00000000000E+00  0.00000000000E+00  0.13221599043E+02  0.13221599043E+02  0.00000000000E+00 0. -1.
         -1   -1    0    0    0  501 -0.00000000000E+00 -0.00000000000E+00 -0.92427668611E+03  0.92427668611E+03  0.00000000000E+00 0.  1.
         25    2    1    2    0    0  0.11455875709E+01 -0.42819648724E+01 -0.64953254124E+03  0.66148284724E+03  0.12508951782E+03 0.  0.
          5    1    3    3  502    0  0.54152862678E+02 -0.85326508545E+01 -0.49415470561E+03  0.49720386577E+03  0.41800000000E+01 0. -1.
         -5    1    3    3    0  502 -0.53007275107E+02  0.42506859822E+01 -0.15537783564E+03  0.16427898147E+03  0.41800000000E+01 0. -1.
        -11    1    1    2    0    0  0.39208270243E+02  0.21121972216E+02 -0.13273024147E+03  0.14000265415E+03  0.00000000000E+00 0.  1.
         11    1    1    2    0    0 -0.40353857814E+02 -0.16840007344E+02 -0.12879230435E+03  0.13601278377E+03  0.00000000000E+00 0. -1.
</event>
<event>
 7    1  0.2536096E-009  0.1139867E+03  0.7561462E-02  0.1253360E+00
         -1   -1    0    0    0  501 -0.00000000000E+00  0.00000000000E+00  0.21802240504E+02  0.21802240504E+02  0.00000000000E+00 0.  1.
          1   -1    0    0  501    0  0.00000000000E+00 -0.00000000000E+00 -0.67210729368E+03  0.67210729368E+03  0.00000000000E+00 0. -1.
         25    2    1    2    0    0  0.33881353695E+02  0.11964996555E+02 -0.47881910794E+03  0.49619178443E+03  0.12508973395E+03 0.  0.
          5    1    3    3  502    0 -0.16517033733E+02 -0.48128456362E+02 -0.21137336965E+03  0.21745191311E+03  0.41800000000E+01 0.  1.
         -5    1    3    3    0  502  0.50398387428E+02  0.60093452917E+02 -0.26744573829E+03  0.27873987133E+03  0.41800000000E+01 0.  1.
        -11    1    1    2    0    0 -0.40431800075E+02  0.33460556437E+02 -0.94093609838E+02  0.10774018149E+03  0.00000000000E+00 0.  1.
         11    1    1    2    0    0  0.65504463803E+01 -0.45425552992E+02 -0.77392335395E+02  0.89977568261E+02  0.00000000000E+00 0. -1.
</event>
<event>
 7    1  0.2334784E-009  0.1334266E+03  0.7561462E-02  0.1222458E+00
         -2   -1    0    0    0  501 -0.00000000000E+00  0.00000000000E+00  0.19257808471E+02  0.19257808471E+02  0.00000000000E+00 0. -1.
          2   -1    0    0  501    0  0.00000000000E+00 -0.00000000000E+00 -0.95025403609E+03  0.95025403609E+03  0.00000000000E+00 0.  1.
         25    2    1    2    0    0  0.20570638165E+02 -0.74047468165E+02 -0.57250873748E+03  0.59103256900E+03  0.12508822658E+03 0.  0.
          5    1    3    3  502    0  0.48276657504E+02 -0.97715749819E+02 -0.39553255669E+03  0.41029559981E+03  0.41800000000E+01 0. -1.
         -5    1    3    3    0  502 -0.27706019339E+02  0.23668281653E+02 -0.17697618079E+03  0.18073696918E+03  0.41800000000E+01 0. -1.
        -11    1    1    2    0    0 -0.39692262851E+00 -0.22483797403E+02 -0.57133078603E+02  0.61399245630E+02  0.00000000000E+00 0.  1.
         11    1    1    2    0    0 -0.20173715537E+02  0.96531265568E+02 -0.30135441154E+03  0.31708002994E+03  0.00000000000E+00 0. -1.
</event>
<event>
 7    1  0.2334784E-009  0.1805487E+03  0.7561462E-02  0.1167273E+00
         -1   -1    0    0    0  501 -0.00000000000E+00  0.00000000000E+00  0.13452927034E+03  0.13452927034E+03  0.00000000000E+00 0.  1.
          1   -1    0    0  501    0  0.00000000000E+00 -0.00000000000E+00 -0.38246876917E+03  0.38246876917E+03  0.00000000000E+00 0. -1.
         25    2    1    2    0    0 -0.46474607882E+02  0.15037564953E+03  0.88163540992E+01  0.20123975766E+03  0.12508791634E+03 0.  0.
          5    1    3    3  502    0  0.30090300635E+02  0.49260247572E+02 -0.34225830269E+02  0.67237474973E+02  0.41800000000E+01 0. -1.
         -5    1    3    3    0  502 -0.76564908517E+02  0.10111540196E+03  0.43042184369E+02  0.13400228269E+03  0.41800000000E+01 0. -1.
        -11    1    1    2    0    0  0.61681680035E+02 -0.65024539292E+02 -0.85790441785E+02  0.12406780511E+03  0.00000000000E+00 0.  1.
         11    1    1    2    0    0 -0.15207072153E+02 -0.85351110242E+02 -0.17096541115E+03  0.19169047674E+03  0.00000000000E+00 0. -1.
</event>
<event>
 7    1  0.3308209E-009  0.9388515E+02  0.7561462E-02  0.1293707E+00
          2   -1    0    0  501    0  0.00000000000E+00  0.00000000000E+00  0.10111629730E+04  0.10111629730E+04  0.00000000000E+00 0. -1.
         -2   -1    0    0    0  501 -0.00000000000E+00 -0.00000000000E+00 -0.16680118232E+02  0.16680118232E+02  0.00000000000E+00 0.  1.
         25    2    1    2    0    0  0.52138090630E+02 -0.17015966669E+02  0.72962280935E+03  0.74229658931E+03  0.12508740528E+03 0.  0.
          5    1    3    3  502    0 -0.26821919745E+02  0.13994410700E+02  0.60166542717E+02  0.67474025907E+02  0.41800000000E+01 0. -1.
         -5    1    3    3    0  502  0.78960010375E+02 -0.31010377369E+02  0.66945626663E+03  0.67482256340E+03  0.41800000000E+01 0. -1.
        -11    1    1    2    0    0  0.58203246577E+01  0.12946271941E+02 -0.19741257181E+00  0.14195813045E+02  0.00000000000E+00 0.  1.
         11    1    1    2    0    0 -0.57958415288E+02  0.40696947283E+01  0.26505745796E+03  0.27135068884E+03  0.00000000000E+00 0. -1.
</event>
<event>
 7    1  0.2334784E-009  0.1441070E+03  0.7561462E-02  0.1207907E+00
          2   -1    0    0  501    0  0.00000000000E+00  0.00000000000E+00  0.39776521169E+03  0.39776521169E+03  0.00000000000E+00 0. -1.
         -2   -1    0    0    0  501 -0.00000000000E+00 -0.00000000000E+00 -0.67414686332E+02  0.67414686332E+02  0.00000000000E+00 0.  1.
         25    2    1    2    0    0 -0.11218388453E+03 -0.38955456541E+02  0.21563371892E+03  0.27613204799E+03  0.12509298800E+03 0.  0.
          5    1    3    3  502    0 -0.10198085662E+03 -0.76799468706E+02  0.19057954403E+03  0.22942599790E+03  0.41800000000E+01 0. -1.
         -5    1    3    3    0  502 -0.10203027915E+02  0.37844012165E+02  0.25054174893E+02  0.46706050089E+02  0.41800000000E+01 0. -1.
        -11    1    1    2    0    0  0.47579484580E+02  0.28933858306E+02  0.11025367610E+03  0.12351861642E+03  0.00000000000E+00 0.  1.
         11    1    1    2    0    0  0.64604399955E+02  0.10021598235E+02  0.44631303317E+01  0.65529233606E+02  0.00000000000E+00 0. -1.
</event>
<event>
 7    1  0.2334784E-009  0.1493846E+03  0.7561462E-02  0.1201231E+00
         -2   -1    0    0    0  501 -0.00000000000E+00  0.00000000000E+00  0.72050890570E+03  0.72050890570E+03  0.00000000000E+00 0.  1.
          2   -1    0    0  501    0  0.00000000000E+00 -0.00000000000E+00 -0.37522161025E+02  0.37522161025E+02  0.00000000000E+00 0. -1.
         25    2    1    2    0    0  0.99250719657E+02 -0.21828889316E+02  0.20669073734E+03  0.26210040813E+03  0.12509339422E+03 0.  0.
          5    1    3    3  502    0  0.83069844488E+02  0.43187808401E+02  0.11221831337E+03  0.14620604677E+03  0.41800000000E+01 0.  1.
         -5    1    3    3    0  502  0.16180875170E+02 -0.65016697717E+02  0.94472423969E+02  0.11589436135E+03  0.41800000000E+01 0.  1.
        -11    1    1    2    0    0 -0.27404358399E+02  0.52951333215E+02  0.19141740170E+03  0.20048806504E+03  0.00000000000E+00 0. -1.
         11    1    1    2    0    0 -0.71846361258E+02 -0.31122443900E+02  0.28487860564E+03  0.29544259357E+03  0.00000000000E+00 0.  1.
</event>
<event>
 7    1  0.2334784E-009  0.1022676E+03  0.7561462E-02  0.1275599E+00
         -1   -1    0    0    0  501 -0.00000000000E+00  0.00000000000E+00  0.45686055598E+02  0.45686055598E+02  0.00000000000E+00 0.  1.
          1   -1    0    0  501    0  0.00000000000E+00 -0.00000000000E+00 -0.36307060612E+03  0.36307060612E+03  0.00000000000E+00 0. -1.
         25    2    1    2    0    0 -0.56131345343E+02 -0.31547688444E+02 -0.16880836101E+03  0.21975100753E+03  0.12509299735E+03 0.  0.
          5    1    3    3  502    0 -0.12741892078E+02 -0.55165377384E+02 -0.15950661687E+03  0.16930861732E+03  0.41800000000E+01 0. -1.
         -5    1    3    3    0  502 -0.43389453264E+02  0.23617688940E+02 -0.93017441428E+01  0.50442390205E+02  0.41800000000E+01 0. -1.
        -11    1    1    2    0    0  0.19363521746E+02  0.52437266841E+02 -0.13242367520E+03  0.14373810449E+03  0.00000000000E+00 0. -1.
         11    1    1    2    0    0  0.36767823597E+02 -0.20889578397E+02 -0.16152514317E+02  0.45267549707E+02  0.00000000000E+00 0.  1.
</event>
<event>
 7    1  0.2334784E-009  0.1100528E+03  0.7561462E-02  0.1260472E+00
          1   -1    0    0  501    0  0.00000000000E+00  0.00000000000E+00  0.43176460905E+03  0.43176460905E+03  0.00000000000E+00 0. -1.
         -1   -1    0    0    0  501 -0.00000000000E+00 -0.00000000000E+00 -0.48854372929E+02  0.48854372929E+02  0.00000000000E+00 0.  1.
         25    2    1    2    0    0 -0.38084998524E+01  0.92162090336E+02  0.25586180794E+03  0.29937420502E+03  0.12510513300E+03 0.  0.
          5    1    3    3  502    0 -0.11918353928E+02  0.19810045340E+02 -0.86181556831E+01  0.25024589190E+02  0.41800000000E+01 0. -1.
         -5    1    3    3    0  502  0.81098540760E+01  0.72352044996E+02  0.26447996362E+03  0.27434961583E+03  0.41800000000E+01 0. -1.
        -11    1    1    2    0    0 -0.31755259497E+02 -0.80047459965E+02  0.61954572062E+02  0.10608657480E+03  0.00000000000E+00 0. -1.
         11    1    1    2    0    0  0.35563759349E+02 -0.12114630371E+02  0.65093856127E+02  0.75158202171E+02  0.00000000000E+00 0.  1.
</event>
<event>
 7    1  0.2334784E-009  0.4486560E+03  0.7561462E-02  0.1028124E+00
         -2   -1    0    0    0  501 -0.00000000000E+00  0.00000000000E+00  0.68047806673E+03  0.68047806673E+03  0.00000000000E+00 0.  1.
          2   -1    0    0  501    0  0.00000000000E+00 -0.00000000000E+00 -0.30773176793E+03  0.30773176793E+03  0.00000000000E+00 0. -1.
         25    2    1    2    0    0  0.36025105408E+02  0.43953041633E+03  0.24674758428E+03  0.52058949859E+03  0.12507701867E+03 0.  0.
          5    1    3    3  502    0 -0.42798500202E+02  0.13323297028E+03  0.99072815074E+02  0.17150985708E+03  0.41800000000E+01 0.  1.
         -5    1    3    3    0  502  0.78823605610E+02  0.30629744605E+03  0.14767476920E+03  0.34907964151E+03  0.41800000000E+01 0.  1.
        -11    1    1    2    0    0 -0.25709743015E+02 -0.30601495332E+03  0.13040634875E+03  0.33363446815E+03  0.00000000000E+00 0. -1.
         11    1    1    2    0    0 -0.10315362392E+02 -0.13351546301E+03 -0.44076342270E+01  0.13398586792E+03  0.00000000000E+00 0.  1.
</event>
<event>
 7    1  0.2334784E-009  0.1323810E+03  0.7561462E-02  0.1223965E+00
          2   -1    0    0  501    0  0.00000000000E+00  0.00000000000E+00  0.23980965009E+03  0.23980965009E+03  0.00000000000E+00 0. -1.
         -2   -1    0    0    0  501 -0.00000000000E+00 -0.00000000000E+00 -0.94963140839E+02  0.94963140839E+02  0.00000000000E+00 0.  1.
         25    2    1    2    0    0  0.98779244562E+02 -0.36278017747E+02  0.73986172192E+02  0.17942879738E+03  0.12508919189E+03 0.  0.
          5    1    3    3  502    0  0.24488494914E+02 -0.45876890224E+02 -0.22828241896E+02  0.56947137486E+02  0.41800000000E+01 0.  1.
         -5    1    3    3    0  502  0.74290749648E+02  0.95988724766E+01  0.96814414088E+02  0.12248165990E+03  0.41800000000E+01 0.  1.
        -11    1    1    2    0    0  0.90225376946E+01 -0.15530332025E+02  0.14703168868E+02  0.23211647378E+02  0.00000000000E+00 0.  1.
         11    1    1    2    0    0 -0.10780178226E+03  0.51808349772E+02  0.56157168188E+02  0.13213234616E+03  0.00000000000E+00 0. -1.
</event>
<event>
 7    1  0.2334784E-009  0.1296466E+03  0.7561462E-02  0.1227981E+00
         -1   -1    0    0    0  501 -0.00000000000E+00  0.00000000000E+00  0.10741826019E+02  0.10741826019E+02  0.00000000000E+00 0.  1.
          1   -1    0    0  501    0  0.00000000000E+00 -0.00000000000E+00 -0.20241363652E+04  0.20241363652E+04  0.00000000000E+00 0. -1.
         25    2    1    2    0    0 -0.47645766475E+02 -0.53986805464E+02 -0.15743603698E+04  0.15809621597E+04  0.12508430051E+03 0.  0.
          5    1    3    3  502    0  0.24196160132E+02  0.26601686712E+02 -0.41897813762E+03  0.42053924442E+03  0.41800000000E+01 0. -1.
         -5    1    3    3    0  502 -0.71841926607E+02 -0.80588492176E+02 -0.11553822322E+04  0.11604229153E+04  0.41800000000E+01 0. -1.
        -11    1    1    2    0    0  0.43175251819E+02 -0.15158451257E+02 -0.18877410736E+03  0.19424094477E+03  0.00000000000E+00 0.  1.
         11    1    1    2    0    0  0.44705146561E+01  0.69145256721E+02 -0.25026006202E+03  0.25967508674E+03  0.00000000000E+00 0. -1.
</event>
<event>
 7    1  0.2334784E-009  0.6211838E+02  0.7561462E-02  0.1389151E+00
          1   -1    0    0  501    0  0.00000000000E+00  0.00000000000E+00  0.14346111723E+03  0.14346111723E+03  0.00000000000E+00 0.  1.
         -1   -1    0    0    0  501 -0.00000000000E+00 -0.00000000000E+00 -0.86450282444E+02  0.86450282444E+02  0.00000000000E+00 0. -1.
         25    2    1    2    0    0 -0.33306482498E+02 -0.90822172845E+01  0.42794379423E+02  0.13664161020E+03  0.12509101598E+03 0.  0.
          5    1    3    3  502    0 -0.16454536486E+02 -0.10196046573E+01  0.86906326319E+02  0.88554916966E+02  0.41800000000E+01 0.  1.
         -5    1    3    3    0  502 -0.16851946013E+02 -0.80626126271E+01 -0.44111946896E+02  0.48086693230E+02  0.41800000000E+01 0.  1.
        -11    1    1    2    0    0 -0.17770619254E+02  0.28380030869E+02 -0.78264858514E+01  0.34387133373E+02  0.00000000000E+00 0. -1.
         11    1    1    2    0    0  0.51077101752E+02 -0.19297813585E+02  0.22042941214E+02  0.58882656104E+02  0.00000000000E+00 0.  1.
</event>
<event>
 7    1  0.2334784E-009  0.1075382E+03  0.7561462E-02  0.1265198E+00
         -2   -1    0    0    0  501 -0.00000000000E+00  0.00000000000E+00  0.88730137698E+02  0.88730137698E+02  0.00000000000E+00 0. -1.
          2   -1    0    0  501    0  0.00000000000E+00 -0.00000000000E+00 -0.22978162738E+03  0.22978162738E+03  0.00000000000E+00 0.  1.
         25    2    1    2    0    0 -0.30557323990E+02 -0.40586875984E+02 -0.15996535297E+03  0.20932515598E+03  0.12508821777E+03 0.  0.
          5    1    3    3  502    0  0.11021989050E+02 -0.60361359897E+02 -0.14987842958E+03  0.16200615440E+03  0.41800000000E+01 0. -1.
         -5    1    3    3    0  502 -0.41579313041E+02  0.19774483913E+02 -0.10086923388E+02  0.47319001579E+02  0.41800000000E+01 0. -1.
        -11    1    1    2    0    0  0.25047523230E+02  0.71594769203E+02  0.16325628059E+02  0.77586825742E+02  0.00000000000E+00 0.  1.
         11    1    1    2    0    0  0.55098007603E+01 -0.31007893218E+02  0.25882352293E+01  0.31599783352E+02  0.00000000000E+00 0. -1.
</event>
<event>
 7    1  0.2334784E-009  0.1060291E+03  0.7561462E-02  0.1268105E+00
          1   -1    0    0  501    0  0.00000000000E+00  0.00000000000E+00  0.14786829478E+03  0.14786829478E+03  0.00000000000E+00 0.  1.
         -1   -1    0    0    0  501 -0.00000000000E+00 -0.00000000000E+00 -0.11158267650E+03  0.11158267650E+03  0.00000000000E+00 0. -1.
         25    2    1    2    0    0  0.53386616253E+02  0.64987430323E+01 -0.20970271627E+02  0.13781370016E+03  0.12514191625E+03 0.  0.
          5    1    3    3  502    0  0.68686618780E+02  0.50082542111E+02  0.38763808417E+01  0.85197484424E+02  0.41800000000E+01 0.  1.
         -5    1    3    3    0  502 -0.15300002527E+02 -0.43583799079E+02 -0.24846652469E+02  0.52616215736E+02  0.41800000000E+01 0.  1.
        -11    1    1    2    0    0 -0.68771409148E+01  0.23990363182E+02  0.60991353936E+02  0.65899756052E+02  0.00000000000E+00 0.  1.
         11    1    1    2    0    0 -0.46509475338E+02 -0.30489106214E+02 -0.37354640312E+01  0.55737515064E+02  0.00000000000E+00 0. -1.
</event>
<event>
 7    1  0.2334784E-009  0.1424139E+03  0.7561462E-02  0.1210117E+00
         -1   -1    0    0    0  501 -0.00000000000E+00  0.00000000000E+00  0.10862212838E+04  0.10862212838E+04  0.00000000000E+00 0.  1.
          1   -1    0    0  501    0  0.00000000000E+00 -0.00000000000E+00 -0.26893118541E+02  0.26893118541E+02  0.00000000000E+00 0. -1.
         25    2    1    2    0    0 -0.11758664461E+03 -0.46818289771E+02  0.69969667231E+03  0.72197056497E+03  0.12508993643E+03 0.  0.
          5    1    3    3  502    0 -0.65081485868E+02 -0.76130885368E+01  0.59345563492E+03  0.59707673036E+03  0.41800000000E+01 0. -1.
         -5    1    3    3    0  502 -0.52505158738E+02 -0.39205201234E+02  0.10624103739E+03  0.12489383461E+03  0.41800000000E+01 0. -1.
        -11    1    1    2    0    0  0.10649964762E+03  0.11415302889E+01  0.23788791132E+03  0.26064177790E+03  0.00000000000E+00 0. -1.
         11    1    1    2    0    0  0.11086996986E+02  0.45676759482E+02  0.12174358167E+03  0.13050205951E+03  0.00000000000E+00 0.  1.
</event>
<event>
 7    1  0.2334784E-009  0.9392899E+02  0.7561462E-02  0.1293607E+00
         -2   -1    0    0    0  501 -0.00000000000E+00  0.00000000000E+00  0.51002204097E+02  0.51002204097E+02  0.00000000000E+00 0.  1.
          2   -1    0    0  501    0  0.00000000000E+00 -0.00000000000E+00 -0.35388755748E+03  0.35388755748E+03  0.00000000000E+00 0. -1.
         25    2    1    2    0    0  0.59505410148E+02  0.15778563069E+02 -0.93104849313E+02  0.16765329896E+03  0.12509699755E+03 0.  0.
          5    1    3    3  502    0  0.34198872071E+02 -0.25277328024E+02 -0.10869696965E+03  0.11679473351E+03  0.41800000000E+01 0. -1.
         -5    1    3    3    0  502  0.25306538076E+02  0.41055891093E+02  0.15592120342E+02  0.50858565450E+02  0.41800000000E+01 0. -1.
        -11    1    1    2    0    0  0.17302685573E+02  0.32067330072E+01 -0.59291310568E+01  0.18569347315E+02  0.00000000000E+00 0.  1.
         11    1    1    2    0    0 -0.76808095721E+02 -0.18985296076E+02 -0.20385137301E+03  0.21866711530E+03  0.00000000000E+00 0. -1.
</event>
<event>
 7    1  0.2334784E-009  0.1090693E+03  0.7561462E-02  0.1262303E+00
         -2   -1    0    0    0  501 -0.00000000000E+00  0.00000000000E+00  0.81468436841E+02  0.81468436841E+02  0.00000000000E+00 0.  1.
          2   -1    0    0  501    0  0.00000000000E+00 -0.00000000000E+00 -0.16070792053E+03  0.16070792053E+03  0.00000000000E+00 0. -1.
         25    2    1    2    0    0  0.39790709618E+02  0.12447461489E+01 -0.42491453380E+02  0.13797991884E+03  0.12509230363E+03 0.  0.
          5    1    3    3  502    0  0.58548280923E+02 -0.43866636757E+02 -0.27862694329E+00  0.73278462405E+02  0.41800000000E+01 0.  1.
         -5    1    3    3    0  502 -0.18757571305E+02  0.45111382906E+02 -0.42212826437E+02  0.64701456434E+02  0.41800000000E+01 0.  1.
        -11    1    1    2    0    0  0.25859494029E+02 -0.13298948409E+02 -0.20265339336E+02  0.35443750346E+02  0.00000000000E+00 0.  1.
         11    1    1    2    0    0 -0.65650203647E+02  0.12054202260E+02 -0.16482690973E+02  0.68752688185E+02  0.00000000000E+00 0. -1.
</event>
<event>
 7    1  0.2334784E-009  0.6893107E+02  0.7561462E-02  0.1363766E+00
          1   -1    0    0  501    0  0.00000000000E+00  0.00000000000E+00  0.51097222531E+03  0.51097222531E+03  0.00000000000E+00 0. -1.
         -1   -1    0    0    0  501 -0.00000000000E+00 -0.00000000000E+00 -0.24124445935E+02  0.24124445935E+02  0.00000000000E+00 0.  1.
         25    2    1    2    0    0  0.11953067981E+02 -0.17552721472E+02  0.33740848216E+03  0.36047525481E+03  0.12508777570E+03 0.  0.
          5    1    3    3  502    0 -0.17990626017E+02 -0.29618336100E+02  0.17742007107E+02  0.39155582923E+02  0.41800000000E+01 0. -1.
         -5    1    3    3    0  502  0.29943693998E+02  0.12065614628E+02  0.31966647506E+03  0.32131967189E+03  0.41800000000E+01 0. -1.
        -11    1    1    2    0    0 -0.17067617711E+02  0.42048368622E+02  0.34542510236E+02  0.57031165967E+02  0.00000000000E+00 0.  1.
         11    1    1    2    0    0  0.51145497305E+01 -0.24495647150E+02  0.11489678697E+03  0.11759025047E+03  0.00000000000E+00 0. -1.
</event>
<event>
 7    1  0.2334784E-009  0.2920334E+03  0.7561462E-02  0.1089292E+00
         -1   -1    0    0    0  501 -0.00000000000E+00  0.00000000000E+00  0.15241878698E+03  0.15241878698E+03  0.00000000000E+00 0.  1.
          1   -1    0    0  501    0  0.00000000000E+00 -0.00000000000E+00 -0.61339572476E+03  0.61339572476E+03  0.00000000000E+00 0. -1.
         25    2    1    2    0    0 -0.80934488702E+02  0.27332256814E+03 -0.25273735922E+03  0.40097284161E+03  0.12508968480E+03 0.  0.
          5    1    3    3  502    0 -0.66676674509E+02  0.23470847731E+03 -0.14103636062E+03  0.28185559363E+03  0.41800000000E+01 0. -1.
         -5    1    3    3    0  502 -0.14257814193E+02  0.38614090831E+02 -0.11170099861E+03  0.11911724798E+03  0.41800000000E+01 0. -1.
        -11    1    1    2    0    0 -0.15552991779E+02 -0.91607144196E+02 -0.51832163275E+02  0.10639707501E+03  0.00000000000E+00 0. -1.
         11    1    1    2    0    0  0.96487480481E+02 -0.18171542394E+03 -0.15640741529E+03  0.25844459512E+03  0.00000000000E+00 0.  1.
</event>
<event>
 7    1  0.2334784E-009  0.1405567E+03  0.7561462E-02  0.1212582E+00
         -4   -1    0    0    0  501 -0.00000000000E+00  0.00000000000E+00  0.13576594806E+03  0.13576594806E+03  0.00000000000E+00 0.  1.
          4   -1    0    0  501    0  0.00000000000E+00 -0.00000000000E+00 -0.19324021042E+03  0.19324021042E+03  0.00000000000E+00 0. -1.
         25    2    1    2    0    0 -0.82194187000E+02  0.85956393071E+02 -0.99437580712E+00  0.17260797021E+03  0.12509251261E+03 0.  0.
          5    1    3    3  502    0 -0.72034595977E+02  0.11096806096E+03  0.25221227851E+02  0.13474596953E+03  0.41800000000E+01 0. -1.
         -5    1    3    3    0  502 -0.10159591023E+02 -0.25011667888E+02 -0.26215603658E+02  0.37862000679E+02  0.41800000000E+01 0. -1.
        -11    1    1    2    0    0  0.45770760899E+02 -0.64717387253E+02 -0.76108211870E+02  0.10988977514E+03  0.00000000000E+00 0. -1.
         11    1    1    2    0    0  0.36423426100E+02 -0.21239005818E+02  0.19628325315E+02  0.46508413128E+02  0.00000000000E+00 0.  1.
</event>
<event>
 7    1  0.2334784E-009  0.9868678E+02  0.7561462E-02  0.1283082E+00
          2   -1    0    0  501    0  0.00000000000E+00  0.00000000000E+00  0.20864481442E+03  0.20864481442E+03  0.00000000000E+00 0. -1.
         -2   -1    0    0    0  501 -0.00000000000E+00 -0.00000000000E+00 -0.68514251210E+02  0.68514251210E+02  0.00000000000E+00 0.  1.
         25    2    1    2    0    0 -0.75641268584E+01  0.38432082819E+02  0.11810249914E+03  0.17643749402E+03  0.12509095886E+03 0.  0.
          5    1    3    3  502    0 -0.38361981675E+02  0.54012286214E+02  0.12449625412E+03  0.14108776839E+03  0.41800000000E+01 0.  1.
         -5    1    3    3    0  502  0.30797854817E+02 -0.15580203395E+02 -0.63937549788E+01  0.35349725626E+02  0.41800000000E+01 0.  1.
        -11    1    1    2    0    0 -0.19475298183E+02  0.22383571302E+02  0.16468194771E+02  0.33933949705E+02  0.00000000000E+00 0. -1.
         11    1    1    2    0    0  0.27039425042E+02 -0.60815654121E+02  0.55598692942E+01  0.66787621902E+02  0.00000000000E+00 0.  1.
</event>
<event>
 7    1  0.2334784E-009  0.8947945E+02  0.7561462E-02  0.1304117E+00
         -2   -1    0    0    0  501 -0.00000000000E+00  0.00000000000E+00  0.32615470360E+02  0.32615470360E+02  0.00000000000E+00 0.  1.
          2   -1    0    0  501    0  0.00000000000E+00 -0.00000000000E+00 -0.40050150715E+03  0.40050150715E+03  0.00000000000E+00 0. -1.
         25    2    1    2    0    0 -0.31751579099E+02 -0.62106935892E+01 -0.21997229641E+03  0.25511609765E+03  0.12509866746E+03 0.  0.
          5    1    3    3  502    0 -0.18464301706E+02 -0.39680669413E+02 -0.14239874796E+02  0.46213984861E+02  0.41800000000E+01 0.  1.
         -5    1    3    3    0  502 -0.13287277393E+02  0.33469975823E+02 -0.20573242162E+03  0.20890211279E+03  0.41800000000E+01 0.  1.
        -11    1    1    2    0    0 -0.18042565294E+02 -0.31484362257E+02 -0.47977968179E+02  0.60155503985E+02  0.00000000000E+00 0. -1.
         11    1    1    2    0    0  0.49794144393E+02  0.37695055846E+02 -0.99935772196E+02  0.11784537588E+03  0.00000000000E+00 0.  1.
</event>
<event>
 7    1  0.2334784E-009  0.7962601E+02  0.7561462E-02  0.1330116E+00
         -1   -1    0    0    0  501 -0.00000000000E+00  0.00000000000E+00  0.81826195584E+02  0.81826195584E+02  0.00000000000E+00 0.  1.
          1   -1    0    0  501    0  0.00000000000E+00 -0.00000000000E+00 -0.21806105940E+03  0.21806105940E+03  0.00000000000E+00 0. -1.
         25    2    1    2    0    0 -0.14817990534E+02 -0.33958552335E+01  0.97620929916E+01  0.12638328256E+03  0.12508529480E+03 0.  0.
          5    1    3    3  502    0 -0.52779475017E+02 -0.19012228148E+02 -0.34405192198E+02  0.65941849022E+02  0.41800000000E+01 0.  1.
         -5    1    3    3    0  502  0.37961484484E+02  0.15616372914E+02  0.44167285190E+02  0.60441433539E+02  0.41800000000E+01 0.  1.
        -11    1    1    2    0    0  0.13668331371E+02 -0.27558078330E+02 -0.13817305807E+03  0.14155587215E+03  0.00000000000E+00 0. -1.
         11    1    1    2    0    0  0.11496591631E+01  0.30953933563E+02 -0.78238987305E+01  0.31948100265E+02  0.00000000000E+00 0.  1.
</event>
<event>
 7    1  0.2334784E-009  0.1356400E+03  0.7561462E-02  0.1219319E+00
          1   -1    0    0  501    0  0.00000000000E+00  0.00000000000E+00  0.66517519629E+03  0.66517519629E+03  0.00000000000E+00 0. -1.
         -1   -1    0    0    0  501 -0.00000000000E+00 -0.00000000000E+00 -0.30122173729E+02  0.30122173729E+02  0.00000000000E+00 0.  1.
         25    2    1    2    0    0 -0.17581096728E+02  0.83067824507E+02  0.42377269072E+03  0.44993337004E+03  0.12508951053E+03 0.  0.
          5    1    3    3  502    0 -0.69061763330E+02  0.52098506312E+02  0.19503932568E+03  0.21340476208E+03  0.41800000000E+01 0.  1.
         -5    1    3    3    0  502  0.51480666603E+02  0.30969318194E+02  0.22873336504E+03  0.23652860796E+03  0.41800000000E+01 0.  1.
        -11    1    1    2    0    0  0.52511922217E+02 -0.69189645606E+02  0.13933061754E+03  0.16418809341E+03  0.00000000000E+00 0. -1.
         11    1    1    2    0    0 -0.34930825490E+02 -0.13878178900E+02  0.71949714298E+02  0.81175906564E+02  0.00000000000E+00 0.  1.
</event>
<event>
 7    1  0.2334784E-009  0.1015474E+03  0.7561462E-02  0.1277075E+00
         -2   -1    0    0    0  501 -0.00000000000E+00  0.00000000000E+00  0.43137179962E+03  0.43137179962E+03  0.00000000000E+00 0.  1.
          2   -1    0    0  501    0  0.00000000000E+00 -0.00000000000E+00 -0.38083005104E+02  0.38083005104E+02  0.00000000000E+00 0. -1.
         25    2    1    2    0    0 -0.10193152910E+02  0.38291013720E+02  0.12177371519E+03  0.17901117189E+03  0.12508421104E+03 0.  0.
          5    1    3    3  502    0  0.52708578681E+02 -0.72358191878E+01  0.52689741886E+02  0.74994884132E+02  0.41800000000E+01 0.  1.
         -5    1    3    3    0  502 -0.62901731591E+02  0.45526832908E+02  0.69083973302E+02  0.10401628776E+03  0.41800000000E+01 0.  1.
        -11    1    1    2    0    0  0.20256774006E+02 -0.51511732948E+02  0.26774431776E+03  0.27340595315E+03  0.00000000000E+00 0.  1.
         11    1    1    2    0    0 -0.10063621096E+02  0.13220719228E+02  0.37707615758E+01  0.17037679693E+02  0.00000000000E+00 0. -1.
</event>
<event>
 7    1  0.2334784E-009  0.1440624E+03  0.7561462E-02  0.1207965E+00
          4   -1    0    0  501    0  0.00000000000E+00  0.00000000000E+00  0.73922442700E+02  0.73922442700E+02  0.00000000000E+00 0. -1.
         -4   -1    0    0    0  501 -0.00000000000E+00 -0.00000000000E+00 -0.29923245769E+03  0.29923245769E+03  0.00000000000E+00 0.  1.
         25    2    1    2    0    0 -0.96498835219E+02  0.29994788395E+02 -0.12953459041E+03  0.20649465668E+03  0.12509644518E+03 0.  0.
          5    1    3    3  502    0 -0.80369058055E+02 -0.34446451454E+02 -0.43597369705E+02  0.97795432182E+02  0.41800000000E+01 0.  1.
         -5    1    3    3    0  502 -0.16129777164E+02  0.64441239849E+02 -0.85937220704E+02  0.10869922450E+03  0.41800000000E+01 0.  1.
        -11    1    1    2    0    0  0.63259302484E+02  0.26412576502E+02 -0.33496055645E+02  0.76297767281E+02  0.00000000000E+00 0. -1.
         11    1    1    2    0    0  0.33239532735E+02 -0.56407364896E+02 -0.62279368940E+02  0.90362476430E+02  0.00000000000E+00 0.  1.
</event>
<event>
 7    1  0.2334784E-009  0.9481596E+02  0.7561462E-02  0.1291591E+00
         -1   -1    0    0    0  501 -0.00000000000E+00  0.00000000000E+00  0.24237165657E+02  0.24237165657E+02  0.00000000000E+00 0.  1.
          1   -1    0    0  501    0  0.00000000000E+00 -0.00000000000E+00 -0.52001304944E+03  0.52001304944E+03  0.00000000000E+00 0. -1.
         25    2    1    2    0    0  0.67055168632E+01 -0.27271324251E+02 -0.30513504641E+03  0.33097284845E+03  0.12508773233E+03 0.  0.
          5    1    3    3  502    0 -0.39647606934E+02 -0.45576735812E+02 -0.79903955833E+02  0.10025610276E+03  0.41800000000E+01 0.  1.
         -5    1    3    3    0  502  0.46353123798E+02  0.18305411562E+02 -0.22523109058E+03  0.23071674569E+03  0.41800000000E+01 0.  1.
        -11    1    1    2    0    0  0.29103937484E+01 -0.25379405021E+02 -0.12960643406E+03  0.13210000886E+03  0.00000000000E+00 0. -1.
         11    1    1    2    0    0 -0.96159106116E+01  0.52650729272E+02 -0.61034403308E+02  0.81177357785E+02  0.00000000000E+00 0.  1.
</event>
<event>
 7    1  0.2334784E-009  0.1542116E+03  0.7561462E-02  0.1195391E+00
          2   -1    0    0  501    0  0.00000000000E+00  0.00000000000E+00  0.11746570911E+04  0.11746570911E+04  0.00000000000E+00 0. -1.
         -2   -1    0    0    0  501 -0.00000000000E+00 -0.00000000000E+00 -0.20926506880E+02  0.20926506880E+02  0.00000000000E+00 0.  1.
         25    2    1    2    0    0 -0.92423390914E+02 -0.63192665492E+02  0.60483611293E+03  0.62770156755E+03  0.12508852162E+03 0.  0.
          5    1    3    3  502    0 -0.54375319012E+02 -0.99426485324E+02  0.45296705899E+03  0.46694638904E+03  0.41800000000E+01 0.  1.
         -5    1    3    3    0  502 -0.38048071902E+02  0.36233819832E+02  0.15186905393E+03  0.16075517851E+03  0.41800000000E+01 0.  1.
        -11    1    1    2    0    0  0.76091587756E+02  0.85636652388E+02  0.38604299584E+03  0.40268195961E+03  0.00000000000E+00 0. -1.
         11    1    1    2    0    0  0.16331803158E+02 -0.22443986896E+02  0.16285147543E+03  0.16520007080E+03  0.00000000000E+00 0.  1.
</event>
<event>
 7    1  0.2334784E-009  0.1066925E+03  0.7561462E-02  0.1266820E+00
         -1   -1    0    0    0  501 -0.00000000000E+00  0.00000000000E+00  0.81906797420E+02  0.81906797420E+02  0.00000000000E+00 0.  1.
          1   -1    0    0  501    0  0.00000000000E+00 -0.00000000000E+00 -0.22571186155E+03  0.22571186155E+03  0.00000000000E+00 0. -1.
         25    2    1    2    0    0  0.58441928407E+02 -0.19869871545E+02 -0.22398623604E+02  0.14127919540E+03  0.12509133432E+03 0.  0.
          5    1    3    3  502    0  0.66494879455E+02 -0.61513594771E+02  0.46504878519E+01  0.90799728924E+02  0.41800000000E+01 0.  1.
         -5    1    3    3    0  502 -0.80529510478E+01  0.41643723226E+02 -0.27049111456E+02  0.50479466472E+02  0.41800000000E+01 0.  1.
        -11    1    1    2    0    0 -0.33162229946E+01  0.24537710269E+02 -0.10608181115E+03  0.10893322366E+03  0.00000000000E+00 0. -1.
         11    1    1    2    0    0 -0.55125705412E+02 -0.46678387236E+01 -0.15324629376E+02  0.57406239914E+02  0.00000000000E+00 0.  1.
</event>
<event>
 7    1  0.2334784E-009  0.7579198E+02  0.7561462E-02  0.1341436E+00
         -2   -1    0    0    0  501 -0.00000000000E+00  0.00000000000E+00  0.22016615229E+02  0.22016615229E+02  0.00000000000E+00 0.  1.
          2   -1    0    0  501    0  0.00000000000E+00 -0.00000000000E+00 -0.61812514513E+03  0.61812514513E+03  0.00000000000E+00 0. -1.
         25    2    1    2    0    0 -0.38846701390E+02  0.55135064632E+01 -0.37964967115E+03  0.40164725967E+03  0.12508870226E+03 0.  0.
          5    1    3    3  502    0 -0.50402379132E+02 -0.80760009739E+01 -0.50290968524E+02  0.71779353083E+02  0.41800000000E+01 0. -1.
         -5    1    3    3    0  502  0.11555677742E+02  0.13589507437E+02 -0.32935870263E+03  0.32986790659E+03  0.41800000000E+01 0. -1.
        -11    1    1    2    0    0 -0.13764778861E+02 -0.22829739033E+02 -0.17306385456E+02  0.31783283326E+02  0.00000000000E+00 0.  1.
         11    1    1    2    0    0  0.52611480251E+02  0.17316232570E+02 -0.19915247329E+03  0.20671121736E+03  0.00000000000E+00 0. -1.
</event>
<event>
 7    1  0.2334784E-009  0.1065165E+03  0.7561462E-02  0.1267160E+00
         -1   -1    0    0    0  501 -0.00000000000E+00  0.00000000000E+00  0.16016215258E+02  0.16016215258E+02  0.00000000000E+00 0.  1.
          1   -1    0    0  501    0  0.00000000000E+00 -0.00000000000E+00 -0.78208885824E+03  0.78208885824E+03  0.00000000000E+00 0. -1.
         25    2    1    2    0    0  0.15756990133E+02  0.12222997039E+02 -0.41202771672E+03  0.43105915513E+03  0.12508985363E+03 0.  0.
          5    1    3    3  502    0  0.60001948761E+02  0.36378474255E+02 -0.17294933742E+03  0.18668843821E+03  0.41800000000E+01 0. -1.
         -5    1    3    3    0  502 -0.44244958628E+02 -0.24155477216E+02 -0.23907837930E+03  0.24437071693E+03  0.41800000000E+01 0. -1.
        -11    1    1    2    0    0 -0.51673008293E+02 -0.20001556794E+02 -0.26472607227E+03  0.27046266914E+03  0.00000000000E+00 0. -1.
         11    1    1    2    0    0  0.35916018160E+02  0.77785597553E+01 -0.89318853985E+02  0.96583249218E+02  0.00000000000E+00 0.  1.
</event>
<event>
 7    1  0.2334784E-009  0.2868325E+03  0.7561462E-02  0.1092015E+00
         -2   -1    0    0    0  501 -0.00000000000E+00  0.00000000000E+00  0.39766988874E+03  0.39766988874E+03  0.00000000000E+00 0. -1.
          2   -1    0    0  501    0  0.00000000000E+00 -0.00000000000E+00 -0.23224087916E+03  0.23224087916E+03  0.00000000000E+00 0.  1.
         25    2    1    2    0    0  0.15757478036E+03 -0.21805395617E+03  0.17735727868E+03  0.34565943455E+03  0.12508997236E+03 0.  0.
          5    1    3    3  502    0  0.13209135989E+03 -0.90722618434E+02  0.13325685337E+03  0.20845522834E+03  0.41800000000E+01 0. -1.
         -5    1    3    3    0  502  0.25483420474E+02 -0.12733133773E+03  0.44100425307E+02  0.13720420620E+03  0.41800000000E+01 0. -1.
        -11    1    1    2    0    0 -0.53778708286E+02  0.14993666361E+03  0.21512679516E+01  0.15930405052E+03  0.00000000000E+00 0.  1.
         11    1    1    2    0    0 -0.10379607207E+03  0.68117292558E+02 -0.14079537051E+02  0.12494728283E+03  0.00000000000E+00 0. -1.
</event>
<event>
 7    1  0.2334784E-009  0.1203138E+03  0.7561462E-02  0.1242580E+00
         -1   -1    0    0    0  501 -0.00000000000E+00  0.00000000000E+00  0.36000516412E+02  0.36000516412E+02  0.00000000000E+00 0.  1.
          1   -1    0    0  501    0  0.00000000000E+00 -0.00000000000E+00 -0.53027535927E+03  0.53027535927E+03  0.00000000000E+00 0. -1.
         25    2    1    2    0    0  0.76390550195E+02 -0.25272367557E+02 -0.33427415882E+03  0.36587029575E+03  0.12509057252E+03 0.  0.
          5    1    3    3  502    0  0.91281856872E+02  0.15584333764E+02 -0.28654944803E+03  0.30116989793E+03  0.41800000000E+01 0.  1.
         -5    1    3    3    0  502 -0.14891306677E+02 -0.40856701321E+02 -0.47724710790E+02  0.64700397815E+02  0.41800000000E+01 0.  1.
        -11    1    1    2    0    0 -0.80780578603E+02  0.22550509825E+01 -0.15726644104E+03  0.17681436766E+03  0.00000000000E+00 0. -1.
         11    1    1    2    0    0  0.43900284084E+01  0.23017316574E+02 -0.27342429954E+01  0.23591212272E+02  0.00000000000E+00 0.  1.
</event>
<event>
 7    1  0.2334784E-009  0.9562466E+02  0.7561462E-02  0.1289775E+00
          1   -1    0    0  501    0  0.00000000000E+00  0.00000000000E+00  0.73619156456E+03  0.73619156456E+03  0.00000000000E+00 0. -1.
         -1   -1    0    0    0  501 -0.00000000000E+00 -0.00000000000E+00 -0.18269786213E+02  0.18269786213E+02  0.00000000000E+00 0.  1.
         25    2    1    2    0    0  0.41309420821E+01  0.19710264443E+02  0.49745492201E+03  0.51333702256E+03  0.12509172669E+03 0.  0.
          5    1    3    3  502    0  0.45495629054E+02  0.27149093195E+02  0.43317593381E+03  0.43642386227E+03  0.41800000000E+01 0. -1.
         -5    1    3    3    0  502 -0.41364686972E+02 -0.74388287523E+01  0.64278988205E+02  0.76913160292E+02  0.41800000000E+01 0. -1.
        -11    1    1    2    0    0 -0.48849965822E+02 -0.67830976530E+01  0.90394891559E+02  0.10297361795E+03  0.00000000000E+00 0.  1.
         11    1    1    2    0    0  0.44719023740E+02 -0.12927166790E+02  0.13007196477E+03  0.13815071026E+03  0.00000000000E+00 0. -1.
</event>
<event>
 7    1  0.2334784E-009  0.7424979E+02  0.7561462E-02  0.1346210E+00
          1   -1    0    0  501    0  0.00000000000E+00  0.00000000000E+00  0.28185725247E+03  0.28185725247E+03  0.00000000000E+00 0. -1.
         -1   -1    0    0    0  501 -0.00000000000E+00 -0.00000000000E+00 -0.45281010828E+02  0.45281010828E+02  0.00000000000E+00 0.  1.
         25    2    1    2    0    0  0.36402975164E+02  0.41273839581E+02  0.12649346241E+03  0.18621542285E+03  0.12508749434E+03 0.  0.
          5    1    3    3  502    0  0.19586396401E+02  0.38376581092E+01 -0.23231430473E+02  0.30911588532E+02  0.41800000000E+01 0. -1.
         -5    1    3    3    0  502  0.16816578763E+02  0.37436181472E+02  0.14972489289E+03  0.15530383432E+03  0.41800000000E+01 0. -1.
        -11    1    1    2    0    0 -0.27756603401E+02 -0.60066342708E+02  0.73505447790E+02  0.98901190151E+02  0.00000000000E+00 0.  1.
         11    1    1    2    0    0 -0.86463717635E+01  0.18792503127E+02  0.36577331441E+02  0.42021650298E+02  0.00000000000E+00 0. -1.
</event>
<event>
 7    1  0.2334784E-009  0.9998474E+02  0.7561462E-02  0.1280328E+00
         -1   -1    0    0    0  501 -0.00000000000E+00  0.00000000000E+00  0.58778191755E+02  0.58778191755E+02  0.00000000000E+00 0.  1.
          1   -1    0    0  501    0  0.00000000000E+00 -0.00000000000E+00 -0.21866036523E+03  0.21866036523E+03  0.00000000000E+00 0. -1.
         25    2    1    2    0    0  0.44018580481E+01  0.23202605165E+02 -0.12461138347E+03  0.17813706554E+03  0.12508828877E+03 0.  0.
          5    1    3    3  502    0  0.60658272685E+02  0.26838131153E+01 -0.34787539587E+02  0.70101884486E+02  0.41800000000E+01 0. -1.
         -5    1    3    3    0  502 -0.56256414637E+02  0.20518792050E+02 -0.89823843887E+02  0.10803518105E+03  0.41800000000E+01 0. -1.
        -11    1    1    2    0    0 -0.24059931139E+02 -0.44195864525E+02 -0.46414479530E+02  0.68457714229E+02  0.00000000000E+00 0. -1.
         11    1    1    2    0    0  0.19658073090E+02  0.20993259359E+02  0.11143689535E+02  0.30843777210E+02  0.00000000000E+00 0.  1.
</event>
<event>
 7    1  0.2334784E-009  0.1028307E+03  0.7561462E-02  0.1274454E+00
          2   -1    0    0  501    0  0.00000000000E+00  0.00000000000E+00  0.60292099416E+02  0.60292099416E+02  0.00000000000E+00 0.  1.
         -2   -1    0    0    0  501 -0.00000000000E+00 -0.00000000000E+00 -0.23164622102E+03  0.23164622102E+03  0.00000000000E+00 0. -1.
         25    2    1    2    0    0 -0.11349974132E+02  0.19754725977E+02 -0.44638229621E+02  0.13474360432E+03  0.12507676143E+03 0.  0.
          5    1    3    3  502    0  0.17894352128E+02  0.67794614460E+02 -0.18820161241E+02  0.72718556483E+02  0.41800000000E+01 0. -1.
         -5    1    3    3    0  502 -0.29244326260E+02 -0.48039888483E+02 -0.25818068379E+02  0.62025047833E+02  0.41800000000E+01 0. -1.
        -11    1    1    2    0    0 -0.31194833853E+02 -0.18894192441E+02 -0.18461685174E+02  0.40877157271E+02  0.00000000000E+00 0.  1.
         11    1    1    2    0    0  0.42544807985E+02 -0.86053353608E+00 -0.10825420681E+03  0.11631755885E+03  0.00000000000E+00 0. -1.
</event>
<event>
 7    1  0.2334784E-009  0.1631049E+03  0.7561462E-02  0.1185235E+00
         -2   -1    0    0    0  501 -0.00000000000E+00  0.00000000000E+00  0.37498553077E+02  0.37498553077E+02  0.00000000000E+00 0.  1.
          2   -1    0    0  501    0  0.00000000000E+00 -0.00000000000E+00 -0.96090070149E+03  0.96090070149E+03  0.00000000000E+00 0. -1.
         25    2    1    2    0    0 -0.33842252132E+02  0.14574548847E+03 -0.58381114540E+03  0.61552428182E+03  0.12509053755E+03 0.  0.
          5    1    3    3  502    0 -0.53629751961E+02  0.11271839575E+03 -0.55034889748E+03  0.56434295282E+03  0.41800000000E+01 0.  1.
         -5    1    3    3    0  502  0.19787499830E+02  0.33027092723E+02 -0.33462247918E+02  0.51181329007E+02  0.41800000000E+01 0.  1.
        -11    1    1    2    0    0 -0.17800167757E+02 -0.59055720198E+02 -0.61751705655E+02  0.87279420322E+02  0.00000000000E+00 0.  1.
         11    1    1    2    0    0  0.51642419888E+02 -0.86689768272E+02 -0.27783929736E+03  0.29559555243E+03  0.00000000000E+00 0. -1.
</event>
<event>
 7    1  0.2334784E-009  0.9234239E+02  0.7561462E-02  0.1297276E+00
         -2   -1    0    0    0  501 -0.00000000000E+00  0.00000000000E+00  0.22030855796E+02  0.22030855796E+02  0.00000000000E+00 0.  1.
          2   -1    0    0  501    0  0.00000000000E+00 -0.00000000000E+00 -0.59717272553E+03  0.59717272553E+03  0.00000000000E+00 0. -1.
         25    2    1    2    0    0 -0.23291950088E+02  0.62181215873E+01 -0.38312742441E+03  0.40375227544E+03  0.12509235234E+03 0.  0.
          5    1    3    3  502    0  0.28930437047E+02  0.36117825809E+02 -0.64664449211E+02  0.79626822872E+02  0.41800000000E+01 0.  1.
         -5    1    3    3    0  502 -0.52222387135E+02 -0.29899704222E+02 -0.31846297520E+03  0.32412545257E+03  0.41800000000E+01 0.  1.
        -11    1    1    2    0    0  0.49345470738E+02 -0.12897452683E+02 -0.51853583852E+02  0.72733169368E+02  0.00000000000E+00 0.  1.
         11    1    1    2    0    0 -0.26053520650E+02  0.66793310961E+01 -0.14016086148E+03  0.14271813652E+03  0.00000000000E+00 0. -1.
</event>
<event>
 7    1  0.2334784E-009  0.1332086E+03  0.7561462E-02  0.1222771E+00
         -3   -1    0    0    0  501 -0.00000000000E+00  0.00000000000E+00  0.57379828402E+02  0.57379828402E+02  0.00000000000E+00 0.  1.
          3   -1    0    0  501    0  0.00000000000E+00 -0.00000000000E+00 -0.35215208377E+03  0.35215208377E+03  0.00000000000E+00 0. -1.
         25    2    1    2    0    0 -0.90295913261E+02 -0.13358553063E+02 -0.15747467494E+03  0.22085696306E+03  0.12509085496E+03 0.  0.
          5    1    3    3  502    0 -0.11728607339E+03  0.11109135129E+02 -0.12579480603E+03  0.17239849628E+03  0.41800000000E+01 0.  1.
         -5    1    3    3    0  502  0.26990160129E+02 -0.24467688193E+02 -0.31679868903E+02  0.48458466783E+02  0.41800000000E+01 0.  1.
        -11    1    1    2    0    0  0.66791051310E+02 -0.21194511256E+02 -0.35329438502E+02  0.78475608104E+02  0.00000000000E+00 0. -1.
         11    1    1    2    0    0  0.23504861951E+02  0.34553064319E+02 -0.10196814193E+03  0.11019934101E+03  0.00000000000E+00 0.  1.
</event>
<event>
 6    1  0.2334784E-009  0.1116027E+03  0.7561462E-02  0.1257630E+00
          2   -1    0    0  501    0  0.00000000000E+00  0.00000000000E+00  0.37631870267E+03  0.37631870267E+03  0.00000000000E+00 0. -1.
         -2   -1    0    0    0  501 -0.00000000000E+00 -0.00000000000E+00 -0.52432360820E+02  0.52432360820E+02  0.00000000000E+00 0.  1.
          5    1    1    2  502    0 -0.15001843074E+02 -0.48801807442E+02  0.14680524440E+03  0.15548608905E+03  0.41800000000E+01 0. -1.
         -5    1    1    2    0  502 -0.50761722062E+02  0.63010998970E+02  0.93848530688E+02  0.12398450520E+03  0.41800000000E+01 0. -1.
        -11    1    1    2    0    0  0.19131638687E+02  0.23984214916E+02  0.83548029330E+02  0.89003007640E+02  0.00000000000E+00 0. -1.
         11    1    1    2    0    0  0.46631926450E+02 -0.38193406444E+02 -0.31546256653E+00  0.60277461599E+02  0.00000000000E+00 0.  1.
</event>
<event>
 7    1  0.2334784E-009  0.1025228E+03  0.7561462E-02  0.1275079E+00
          1   -1    0    0  501    0  0.00000000000E+00  0.00000000000E+00  0.70690290373E+03  0.70690290373E+03  0.00000000000E+00 0. -1.
         -1   -1    0    0    0  501 -0.00000000000E+00 -0.00000000000E+00 -0.22747482562E+02  0.22747482562E+02  0.00000000000E+00 0.  1.
         25    2    1    2    0    0 -0.16656694527E+02 -0.64099783338E+02  0.37793882644E+03  0.40357230689E+03  0.12508646073E+03 0.  0.
          5    1    3    3  502    0 -0.58916901897E+02 -0.99839780869E+01  0.94350828028E+02  0.11176060262E+03  0.41800000000E+01 0. -1.
         -5    1    3    3    0  502  0.42260207369E+02 -0.54115805251E+02  0.28358799842E+03  0.29181170427E+03  0.41800000000E+01 0. -1.
        -11    1    1    2    0    0 -0.12293088111E+02  0.23040508528E+02  0.14110463570E+02  0.29683164095E+02  0.00000000000E+00 0.  1.
         11    1    1    2    0    0  0.28949782638E+02  0.41059274810E+02  0.29210613116E+03  0.29639491531E+03  0.00000000000E+00 0. -1.
</event>
<event>
 7    1  0.2334784E-009  0.1290209E+03  0.7561462E-02  0.1228916E+00
          1   -1    0    0  501    0  0.00000000000E+00  0.00000000000E+00  0.61290826452E+03  0.61290826452E+03  0.00000000000E+00 0. -1.
         -1   -1    0    0    0  501 -0.00000000000E+00 -0.00000000000E+00 -0.43944126254E+02  0.43944126254E+02  0.00000000000E+00 0.  1.
         25    2    1    2    0    0 -0.29214718336E+02  0.11181079459E+03  0.38941746959E+03  0.42502745781E+03  0.12508885127E+03 0.  0.
          5    1    3    3  502    0 -0.21525700473E+02  0.10018810033E+03  0.39599495934E+03  0.40906049852E+03  0.41800000000E+01 0.  1.
         -5    1    3    3    0  502 -0.76890178632E+01  0.11622694263E+02 -0.65774897442E+01  0.15966959290E+02  0.41800000000E+01 0.  1.
        -11    1    1    2    0    0  0.47336391340E+02 -0.27601454592E+02  0.10263993603E+03  0.11635089475E+03  0.00000000000E+00 0.  1.
         11    1    1    2    0    0 -0.18121673003E+02 -0.84209340002E+02  0.76906732645E+02  0.11547403822E+03  0.00000000000E+00 0. -1.
</event>
<event>
 7    1  0.2334784E-009  0.1700051E+03  0.7561462E-02  0.1177843E+00
         -1   -1    0    0    0  501 -0.00000000000E+00  0.00000000000E+00  0.29596320315E+03  0.29596320315E+03  0.00000000000E+00 0.  1.
          1   -1    0    0  501    0  0.00000000000E+00 -0.00000000000E+00 -0.12035526025E+03  0.12035526025E+03  0.00000000000E+00 0. -1.
         25    2    1    2    0    0 -0.11930992783E+03 -0.87256089497E+02  0.14055538301E+03  0.23927581827E+03  0.12509443426E+03 0.  0.
          5    1    3    3  502    0  0.95563705773E+01 -0.56627768995E+02  0.64571379476E+02  0.86515685788E+02  0.41800000000E+01 0. -1.
         -5    1    3    3    0  502 -0.12886629841E+03 -0.30628320502E+02  0.75984003538E+02  0.15276013248E+03  0.41800000000E+01 0. -1.
        -11    1    1    2    0    0  0.95414435113E+02  0.81119439683E+02 -0.10043810450E+02  0.12563899097E+03  0.00000000000E+00 0. -1.
         11    1    1    2    0    0  0.23895492721E+02  0.61366498139E+01  0.45096370339E+02  0.51403654161E+02  0.00000000000E+00 0.  1.
</event>
<event>
 7    1  0.2334784E-009  0.2641632E+03  0.7561462E-02  0.1104667E+00
         -2   -1    0    0    0  501 -0.00000000000E+00  0.00000000000E+00  0.33784236799E+02  0.33784236799E+02  0.00000000000E+00 0.  1.
          2   -1    0    0  501    0  0.00000000000E+00 -0.00000000000E+00 -0.24496091355E+04  0.24496091355E+04  0.00000000000E+00 0. -1.
         25    2    1    2    0    0  0.10987187731E+03 -0.21727115177E+03 -0.16977389614E+04  0.17196639157E+04  0.12509124352E+03 0.  0.
          5    1    3    3  502    0  0.99423751668E+02 -0.68406489698E+02 -0.62179280811E+03  0.63341005584E+03  0.41800000000E+01 0.  1.
         -5    1    3    3    0  502  0.10448125644E+02 -0.14886466207E+03 -0.10759461532E+04  0.10862538598E+04  0.41800000000E+01 0.  1.
        -11    1    1    2    0    0 -0.11027161140E+03  0.12775323333E+03 -0.51025280146E+03  0.53743710172E+03  0.00000000000E+00 0. -1.
         11    1    1    2    0    0  0.39973408379E+00  0.89517918439E+02 -0.20783313588E+03  0.22629235488E+03  0.00000000000E+00 0.  1.
</event>
<event>
 7    1  0.2334784E-009  0.9378249E+02  0.7561462E-02  0.1293942E+00
          2   -1    0    0  501    0  0.00000000000E+00  0.00000000000E+00  0.38246486895E+03  0.38246486895E+03  0.00000000000E+00 0. -1.
         -2   -1    0    0    0  501 -0.00000000000E+00 -0.00000000000E+00 -0.48924776642E+02  0.48924776642E+02  0.00000000000E+00 0.  1.
         25    2    1    2    0    0  0.52612916517E+02 -0.43366091821E+02  0.25808606357E+03  0.29479754689E+03  0.12509372704E+03 0.  0.
          5    1    3    3  502    0  0.10637288229E+02 -0.44607397527E+02  0.15528419459E+02  0.48596049489E+02  0.41800000000E+01 0. -1.
         -5    1    3    3    0  502  0.41975628288E+02  0.12413057062E+01  0.24255764411E+03  0.24620149741E+03  0.41800000000E+01 0. -1.
        -11    1    1    2    0    0  0.16222016068E+02  0.21815080328E+02 -0.59504710463E+01  0.27829114983E+02  0.00000000000E+00 0.  1.
         11    1    1    2    0    0 -0.68834932586E+02  0.21551011492E+02  0.81404499785E+02  0.10876298371E+03  0.00000000000E+00 0. -1.
</event>
<event>
 7    1  0.2705096E-009  0.1424388E+03  0.7561462E-02  0.1210085E+00
          2   -1    0    0  501    0  0.00000000000E+00  0.00000000000E+00  0.36042350630E+03  0.36042350630E+03  0.00000000000E+00 0.  1.
         -2   -1    0    0    0  501 -0.00000000000E+00 -0.00000000000E+00 -0.88314879103E+02  0.88314879103E+02  0.00000000000E+00 0. -1.
         25    2    1    2    0    0 -0.11253122321E+03 -0.43852267123E+02  0.51930505443E+02  0.18146834644E+03  0.12509071042E+03 0.  0.
          5    1    3    3  502    0 -0.53811113018E+02 -0.56009767460E+02  0.83043785078E+02  0.11378256710E+03  0.41800000000E+01 0.  1.
         -5    1    3    3    0  502 -0.58720110187E+02  0.12157500337E+02 -0.31113279635E+02  0.67685779338E+02  0.41800000000E+01 0.  1.
        -11    1    1    2    0    0  0.91286078543E+02 -0.73173672381E+01  0.10411041549E+03  0.13865666451E+03  0.00000000000E+00 0. -1.
         11    1    1    2    0    0  0.21245144663E+02  0.51169634361E+02  0.11606770626E+03  0.12861337446E+03  0.00000000000E+00 0.  1.
</event>
<event>
 7    1  0.2334784E-009  0.1079264E+03  0.7561462E-02  0.1264459E+00
          4   -1    0    0  501    0  0.00000000000E+00  0.00000000000E+00  0.16984688887E+03  0.16984688887E+03  0.00000000000E+00 0. -1.
         -4   -1    0    0    0  501 -0.00000000000E+00 -0.00000000000E+00 -0.11742624734E+03  0.11742624734E+03  0.00000000000E+00 0.  1.
         25    2    1    2    0    0 -0.36186022140E+02 -0.47124389271E+02  0.98526836715E+02  0.16996543047E+03  0.12510225314E+03 0.  0.
          5    1    3    3  502    0 -0.20086842848E+02  0.35829879648E+02  0.68897578155E+02  0.80321916105E+02  0.41800000000E+01 0. -1.
         -5    1    3    3    0  502 -0.16099179292E+02 -0.82954268918E+02  0.29629258559E+02  0.89643514369E+02  0.41800000000E+01 0. -1.
        -11    1    1    2    0    0 -0.20196260935E+02  0.13872382404E+02  0.14187967280E+02  0.28313077630E+02  0.00000000000E+00 0.  1.
         11    1    1    2    0    0  0.56382283075E+02  0.33252006866E+02 -0.60294162457E+02  0.88994628106E+02  0.00000000000E+00 0. -1.
</event>
<event>
 7    1  0.2334784E-009  0.1707873E+03  0.7561462E-02  0.1177029E+00
          3   -1    0    0  501    0  0.00000000000E+00  0.00000000000E+00  0.38252678478E+03  0.38252678478E+03  0.00000000000E+00 0. -1.
         -3   -1    0    0    0  501 -0.00000000000E+00 -0.00000000000E+00 -0.11991233259E+03  0.11991233259E+03  0.00000000000E+00 0.  1.
         25    2    1    2    0    0 -0.90106298490E+02  0.12556463405E+03  0.22243632539E+02  0.20007244311E+03  0.12509428825E+03 0.  0.
          5    1    3    3  502    0 -0.29881985500E+02  0.69603674591E+02 -0.49745373627E+02  0.90717579174E+02  0.41800000000E+01 0. -1.
         -5    1    3    3    0  502 -0.60224312991E+02  0.55960959458E+02  0.71989006165E+02  0.10935486394E+03  0.41800000000E+01 0. -1.
        -11    1    1    2    0    0  0.51601712261E+02 -0.13433485526E+03  0.18608994054E+03  0.23524042173E+03  0.00000000000E+00 0. -1.
         11    1    1    2    0    0  0.38504586230E+02  0.87702212102E+01  0.54280879119E+02  0.67126252530E+02  0.00000000000E+00 0.  1.
</event>
<event>
 7    1  0.2334784E-009  0.1181386E+03  0.7561462E-02  0.1246200E+00
          1   -1    0    0  501    0  0.00000000000E+00  0.00000000000E+00  0.12383304669E+03  0.12383304669E+03  0.00000000000E+00 0. -1.
         -1   -1    0    0    0  501 -0.00000000000E+00 -0.00000000000E+00 -0.11389492279E+03  0.11389492279E+03  0.00000000000E+00 0.  1.
         25    2    1    2    0    0  0.17067581541E+02 -0.44706219249E+02  0.11426156440E+02  0.13441725053E+03  0.12508993488E+03 0.  0.
          5    1    3    3  502    0  0.59598332593E+02 -0.63352481280E+02  0.11140510755E+02  0.87789985261E+02  0.41800000000E+01 0. -1.
         -5    1    3    3    0  502 -0.42530751052E+02  0.18646262031E+02  0.28564568502E+00  0.46627265267E+02  0.41800000000E+01 0. -1.
        -11    1    1    2    0    0 -0.21856887619E+02  0.71801916426E+02  0.43561753742E+01  0.75181214427E+02  0.00000000000E+00 0.  1.
         11    1    1    2    0    0  0.47893060776E+01 -0.27095697177E+02 -0.58442079163E+01  0.28129504517E+02  0.00000000000E+00 0. -1.
</event>
<event>
 7    1  0.2334784E-009  0.1638923E+03  0.7561462E-02  0.1184371E+00
          2   -1    0    0  501    0  0.00000000000E+00  0.00000000000E+00  0.18506292924E+04  0.18506292924E+04  0.00000000000E+00 0. -1.
         -2   -1    0    0    0  501 -0.00000000000E+00 -0.00000000000E+00 -0.18525460380E+02  0.18525460380E+02  0.00000000000E+00 0.  1.
         25    2    1    2    0    0  0.12666918429E+03 -0.74776591528E+02  0.11129430714E+04  0.11295658770E+04  0.12506066310E+03 0.  0.
          5    1    3    3  502    0  0.10763515666E+03 -0.36929769528E+02  0.10305834776E+04  0.10368552992E+04  0.41800000000E+01 0.  1.
         -5    1    3    3    0  502  0.19034027621E+02 -0.37846822000E+02  0.82359593765E+02  0.92710577757E+02  0.41800000000E+01 0.  1.
        -11    1    1    2    0    0 -0.71850664395E+02 -0.77526300282E+01  0.25972775983E+03  0.26959438139E+03  0.00000000000E+00 0.  1.
         11    1    1    2    0    0 -0.54818519891E+02  0.82529221557E+02  0.45943300081E+03  0.46999449440E+03  0.00000000000E+00 0. -1.
</event>
<event>
 7    1  0.2334784E-009  0.1460560E+03  0.7561462E-02  0.1205405E+00
          2   -1    0    0  501    0  0.00000000000E+00  0.00000000000E+00  0.75307398776E+03  0.75307398776E+03  0.00000000000E+00 0. -1.
         -2   -1    0    0    0  501 -0.00000000000E+00 -0.00000000000E+00 -0.35200827640E+02  0.35200827640E+02  0.00000000000E+00 0.  1.
         25    2    1    2    0    0  0.44126779157E+01  0.11343672052E+03  0.47160476215E+03  0.50094408684E+03  0.12508623093E+03 0.  0.
          5    1    3    3  502    0  0.57393468581E+01  0.12939219216E+03  0.46567039676E+03  0.48336494527E+03  0.41800000000E+01 0. -1.
         -5    1    3    3    0  502 -0.13266689424E+01 -0.15955471642E+02  0.59343653898E+01  0.17579141571E+02  0.41800000000E+01 0. -1.
        -11    1    1    2    0    0 -0.40394068508E+02 -0.18456741862E+02  0.54292315915E+02  0.70142623691E+02  0.00000000000E+00 0.  1.
         11    1    1    2    0    0  0.35981390593E+02 -0.94979978660E+02  0.19197608205E+03  0.21718810487E+03  0.00000000000E+00 0. -1.
</event>
<event>
 7    1  0.2334784E-009  0.8259566E+02  0.7561462E-02  0.1321843E+00
          2   -1    0    0  501    0  0.00000000000E+00  0.00000000000E+00  0.13232689627E+03  0.13232689627E+03  0.00000000000E+00 0. -1.
         -2   -1    0    0    0  501 -0.00000000000E+00 -0.00000000000E+00 -0.13518765207E+03  0.13518765207E+03  0.00000000000E+00 0.  1.
         25    2    1    2    0    0 -0.20148056772E+02 -0.25531793375E-01  0.23549383162E+02  0.12887296605E+03  0.12509085932E+03 0.  0.
          5    1    3    3  502    0  0.17182006753E+02  0.26724772757E+02  0.61369793041E+02  0.69232642105E+02  0.41800000000E+01 0. -1.
         -5    1    3    3    0  502 -0.37330063525E+02 -0.26750304550E+02 -0.37820409879E+02  0.59640323940E+02  0.41800000000E+01 0. -1.
        -11    1    1    2    0    0  0.52730726796E+02  0.83846143955E+01 -0.67162364393E+02  0.85799851386E+02  0.00000000000E+00 0.  1.
         11    1    1    2    0    0 -0.32582670024E+02 -0.83590826021E+01  0.40752225427E+02  0.52841730906E+02  0.00000000000E+00 0. -1.
</event>
<event>
 7    1  0.2334784E-009  0.8824027E+02  0.7561462E-02  0.1307170E+00
         -3   -1    0    0    0  501 -0.00000000000E+00  0.00000000000E+00  0.85140820163E+01  0.85140820163E+01  0.00000000000E+00 0.  1.
          3   -1    0    0  501    0  0.00000000000E+00 -0.00000000000E+00 -0.15050192697E+04  0.15050192697E+04  0.00000000000E+00 0. -1.
         25    2    1    2    0    0 -0.11470683264E+02 -0.12503085481E+02 -0.11340916772E+04  0.11410957059E+04  0.12509026390E+03 0.  0.
          5    1    3    3  502    0  0.32081326993E+02 -0.31084277114E+02 -0.16961792183E+03  0.17545129133E+03  0.41800000000E+01 0.  1.
         -5    1    3    3    0  502 -0.43552010256E+02  0.18581191633E+02 -0.96447375534E+03  0.96564441459E+03  0.41800000000E+01 0.  1.
        -11    1    1    2    0    0  0.11310875854E+01  0.47538227738E+02 -0.16694285053E+03  0.17358305735E+03  0.00000000000E+00 0.  1.
         11    1    1    2    0    0  0.10339595678E+02 -0.35035142257E+02 -0.19547065998E+03  0.19885458845E+03  0.00000000000E+00 0. -1.
</event>
<event>
 7    1  0.2334784E-009  0.1210458E+03  0.7561462E-02  0.1241382E+00
         -1   -1    0    0    0  501 -0.00000000000E+00  0.00000000000E+00  0.24089250716E+02  0.24089250716E+02  0.00000000000E+00 0.  1.
          1   -1    0    0  501    0  0.00000000000E+00 -0.00000000000E+00 -0.99447084384E+03  0.99447084384E+03  0.00000000000E+00 0. -1.
         25    2    1    2    0    0  0.71435172258E+02 -0.46429476181E+01 -0.75716574486E+03  0.77075994213E+03  0.12508550036E+03 0.  0.
          5    1    3    3  502    0 -0.18689932206E+02 -0.41129630003E+02 -0.19294593410E+03  0.19820839013E+03  0.41800000000E+01 0. -1.
         -5    1    3    3    0  502  0.90125104464E+02  0.36486682385E+02 -0.56421981076E+03  0.57255155200E+03  0.41800000000E+01 0. -1.
        -11    1    1    2    0    0 -0.80227187898E+01  0.30039351841E+02 -0.88600868686E+01  0.32329983222E+02  0.00000000000E+00 0.  1.
         11    1    1    2    0    0 -0.63412453468E+02 -0.25396404223E+02 -0.20435576139E+03  0.21547016920E+03  0.00000000000E+00 0. -1.
</event>
<event>
 7    1  0.2334784E-009  0.1061729E+03  0.7561462E-02  0.1267826E+00
          2   -1    0    0  501    0  0.00000000000E+00  0.00000000000E+00  0.32644006296E+03  0.32644006296E+03  0.00000000000E+00 0. -1.
         -2   -1    0    0    0  501 -0.00000000000E+00 -0.00000000000E+00 -0.50264252911E+02  0.50264252911E+02  0.00000000000E+00 0.  1.
         25    2    1    2    0    0 -0.65716777540E+02 -0.11388901510E+02  0.16420103871E+03  0.21692874391E+03  0.12509075462E+03 0.  0.
          5    1    3    3  502    0 -0.84291857449E+02  0.28020323486E+02  0.14276190351E+03  0.16819241735E+03  0.41800000000E+01 0.  1.
         -5    1    3    3    0  502  0.18575079908E+02 -0.39409224995E+02  0.21439135205E+02  0.48736326561E+02  0.41800000000E+01 0.  1.
        -11    1    1    2    0    0  0.20901206596E+02 -0.16707525148E+02 -0.86021375236E+01  0.28106913807E+02  0.00000000000E+00 0.  1.
         11    1    1    2    0    0  0.44815570944E+02  0.28096426658E+02  0.12057690886E+03  0.13166865816E+03  0.00000000000E+00 0. -1.
</event>
<event>
 7    1  0.2334784E-009  0.1216455E+03  0.7561462E-02  0.1240407E+00
          2   -1    0    0  501    0  0.00000000000E+00  0.00000000000E+00  0.87023685250E+03  0.87023685250E+03  0.00000000000E+00 0. -1.
         -2   -1    0    0    0  501 -0.00000000000E+00 -0.00000000000E+00 -0.19065001198E+02  0.19065001198E+02  0.00000000000E+00 0.  1.
         25    2    1    2    0    0 -0.54504304786E+02  0.91679536713E+00  0.32700246259E+03  0.35432979119E+03  0.12508969035E+03 0.  0.
          5    1    3    3  502    0  0.26963318308E+02 -0.37387087747E+02  0.11537213546E+03  0.12431016412E+03  0.41800000000E+01 0. -1.
         -5    1    3    3    0  502 -0.81467623094E+02  0.38303883114E+02  0.21163032713E+03  0.23001962707E+03  0.41800000000E+01 0. -1.
        -11    1    1    2    0    0  0.42037313613E+02  0.43654515053E+02  0.28695673449E+03  0.29328658321E+03  0.00000000000E+00 0.  1.
         11    1    1    2    0    0  0.12466991174E+02 -0.44571310421E+02  0.23721265421E+03  0.24168547929E+03  0.00000000000E+00 0. -1.
</event>
<event>
 7    1  0.2334784E-009  0.6847705E+02  0.7561462E-02  0.1365350E+00
          1   -1    0    0  501    0  0.00000000000E+00  0.00000000000E+00  0.59969050147E+02  0.59969050147E+02  0.00000000000E+00 0. -1.
         -1   -1    0    0    0  501 -0.00000000000E+00 -0.00000000000E+00 -0.35989947616E+03  0.35989947616E+03  0.00000000000E+00 0.  1.
         25    2    1    2    0    0 -0.40517374289E+02  0.43731662163E+02 -0.27605025419E+03  0.30887713377E+03  0.12508886854E+03 0.  0.
          5    1    3    3  502    0 -0.10760049134E+02  0.55729642870E+01 -0.25601706861E+03  0.25633776236E+03  0.41800000000E+01 0. -1.
         -5    1    3    3    0  502 -0.29757325155E+02  0.38158697876E+02 -0.20033185571E+02  0.52539371409E+02  0.41800000000E+01 0. -1.
        -11    1    1    2    0    0  0.33293034581E+02 -0.53743094491E+02 -0.50978636633E+02  0.81213100852E+02  0.00000000000E+00 0.  1.
         11    1    1    2    0    0  0.72243397076E+01  0.10011432328E+02  0.27098464802E+02  0.29778291692E+02  0.00000000000E+00 0. -1.
</event>
<event>
 7    1  0.2334784E-009  0.1038659E+03  0.7561462E-02  0.1272370E+00
         -1   -1    0    0    0  501 -0.00000000000E+00  0.00000000000E+00  0.32416831694E+02  0.32416831694E+02  0.00000000000E+00 0.  1.
          1   -1    0    0  501    0  0.00000000000E+00 -0.00000000000E+00 -0.43998406667E+03  0.43998406667E+03  0.00000000000E+00 0. -1.
         25    2    1    2    0    0 -0.12516426335E+02  0.33379105996E+02 -0.30168292336E+03  0.32852880043E+03  0.12509101013E+03 0.  0.
          5    1    3    3  502    0  0.89625931887E+01 -0.46343690284E+02 -0.11216680433E+03  0.12176588233E+03  0.41800000000E+01 0. -1.
         -5    1    3    3    0  502 -0.21479019524E+02  0.79722796280E+02 -0.18951611904E+03  0.20676291810E+03  0.41800000000E+01 0. -1.
        -11    1    1    2    0    0  0.38248756849E+02 -0.35060227077E+02 -0.22434300882E+02  0.56528619117E+02  0.00000000000E+00 0.  1.
         11    1    1    2    0    0 -0.25732330514E+02  0.16811210804E+01 -0.83450010732E+02  0.87343478823E+02  0.00000000000E+00 0. -1.
</event>
<event>
 7    1  0.2334784E-009  0.1176356E+03  0.7561462E-02  0.1247049E+00
         -1   -1    0    0    0  501 -0.00000000000E+00  0.00000000000E+00  0.21849654731E+03  0.21849654731E+03  0.00000000000E+00 0.  1.
          1   -1    0    0  501    0  0.00000000000E+00 -0.00000000000E+00 -0.95562055526E+02  0.95562055526E+02  0.00000000000E+00 0. -1.
         25    2    1    2    0    0  0.49525270934E+02  0.42632605463E+01  0.91298279043E+02  0.16264958816E+03  0.12509430411E+03 0.  0.
          5    1    3    3  502    0 -0.46544053714E+01  0.28106564614E+02  0.98731221365E+02  0.10284439185E+03  0.41800000000E+01 0. -1.
         -5    1    3    3    0  502  0.54179676305E+02 -0.23843304068E+02 -0.74329423223E+01  0.59805196304E+02  0.41800000000E+01 0. -1.
        -11    1    1    2    0    0 -0.62900910582E+02 -0.61730788806E+02  0.10597084351E+02  0.88766621178E+02  0.00000000000E+00 0.  1.
         11    1    1    2    0    0  0.13375639648E+02  0.57467528260E+02  0.21039128395E+02  0.62642393504E+02  0.00000000000E+00 0. -1.
</event>
<event>
 7    1  0.2334784E-009  0.1801009E+03  0.7561462E-02  0.1167705E+00
          1   -1    0    0  501    0  0.00000000000E+00  0.00000000000E+00  0.36996327400E+03  0.36996327400E+03  0.00000000000E+00 0. -1.
         -1   -1    0    0    0  501 -0.00000000000E+00 -0.00000000000E+00 -0.93306442898E+02  0.93306442898E+02  0.00000000000E+00 0.  1.
         25    2    1    2    0    0 -0.14908004425E+03  0.16548007465E+02  0.14588717841E+03  0.24378388076E+03  0.12509522591E+03 0.  0.
          5    1    3    3  502    0 -0.84746307382E+02  0.69427881856E+02  0.10110487443E+03  0.14913696868E+03  0.41800000000E+01 0.  1.
         -5    1    3    3    0  502 -0.64333736871E+02 -0.52879874391E+02  0.44782303982E+02  0.94646912075E+02  0.41800000000E+01 0.  1.
        -11    1    1    2    0    0  0.23583677253E+02  0.25593593648E+02  0.20856119178E+01  0.34865049056E+02  0.00000000000E+00 0.  1.
         11    1    1    2    0    0  0.12549636700E+03 -0.42141601113E+02  0.12868404077E+03  0.18462078708E+03  0.00000000000E+00 0. -1.
</event>
<event>
 7    1  0.2334784E-009  0.1097017E+03  0.7561462E-02  0.1261123E+00
         -2   -1    0    0    0  501 -0.00000000000E+00  0.00000000000E+00  0.68131920275E+02  0.68131920275E+02  0.00000000000E+00 0.  1.
          2   -1    0    0  501    0  0.00000000000E+00 -0.00000000000E+00 -0.29865475340E+03  0.29865475340E+03  0.00000000000E+00 0. -1.
         25    2    1    2    0    0 -0.38941331308E+02 -0.74252366631E+02 -0.16151375798E+03  0.22082628981E+03  0.12509082708E+03 0.  0.
          5    1    3    3  502    0 -0.73036029553E+01 -0.87732190239E+02 -0.44381790776E+02  0.98678749347E+02  0.41800000000E+01 0. -1.
         -5    1    3    3    0  502 -0.31637728353E+02  0.13479823608E+02 -0.11713196721E+03  0.12214754047E+03  0.41800000000E+01 0. -1.
        -11    1    1    2    0    0  0.23265676705E+02  0.77239988877E+02 -0.59204657798E+01  0.80884853399E+02  0.00000000000E+00 0.  1.
         11    1    1    2    0    0  0.15675654603E+02 -0.29876222462E+01 -0.63088609361E+02  0.65075530463E+02  0.00000000000E+00 0. -1.
</event>
<event>
 7    1  0.2334784E-009  0.8575335E+02  0.7561462E-02  0.1313474E+00
         -2   -1    0    0    0  501 -0.00000000000E+00  0.00000000000E+00  0.10889589129E+02  0.10889589129E+02  0.00000000000E+00 0.  1.
          2   -1    0    0  501    0  0.00000000000E+00 -0.00000000000E+00 -0.10371278771E+04  0.10371278771E+04  0.00000000000E+00 0. -1.
         25    2    1    2    0    0 -0.62861023834E+01 -0.37863633622E+01 -0.66857643792E+03  0.68021522067E+03  0.12507774167E+03 0.  0.
          5    1    3    3  502    0  0.88919618503E+01  0.39218784231E+02 -0.57096423519E+03  0.57239392929E+03  0.41800000000E+01 0.  1.
         -5    1    3    3    0  502 -0.15178064234E+02 -0.43005147593E+02 -0.97612202730E+02  0.10782129138E+03  0.41800000000E+01 0.  1.
        -11    1    1    2    0    0 -0.32832310524E+02  0.24546589207E+02 -0.19162715403E+03  0.19596290929E+03  0.00000000000E+00 0.  1.
         11    1    1    2    0    0  0.39118412907E+02 -0.20760225845E+02 -0.16603469602E+03  0.17183933626E+03  0.00000000000E+00 0. -1.
</event>
<event>
 7    1  0.2334784E-009  0.1676310E+03  0.7561462E-02  0.1180341E+00
          2   -1    0    0  501    0  0.00000000000E+00  0.00000000000E+00  0.60029690757E+03  0.60029690757E+03  0.00000000000E+00 0.  1.
         -2   -1    0    0    0  501 -0.00000000000E+00 -0.00000000000E+00 -0.55046157775E+02  0.55046157775E+02  0.00000000000E+00 0. -1.
         25    2    1    2    0    0 -0.99332650504E+02  0.10207476328E+03  0.23110136687E+03  0.29890062072E+03  0.12508999378E+03 0.  0.
          5    1    3    3  502    0 -0.66380058418E+02  0.11368433797E+03  0.22834176770E+03  0.26360553130E+03  0.41800000000E+01 0.  1.
         -5    1    3    3    0  502 -0.32952592086E+02 -0.11609574689E+02  0.27595991692E+01  0.35295089420E+02  0.41800000000E+01 0.  1.
        -11    1    1    2    0    0  0.36796630679E+02 -0.99151425234E+02  0.20129316269E+03  0.22738499181E+03  0.00000000000E+00 0. -1.
         11    1    1    2    0    0  0.62536019825E+02 -0.29233380470E+01  0.11285622023E+03  0.12905745281E+03  0.00000000000E+00 0.  1.
</event>
<event>
 7    1  0.2334784E-009  0.1465441E+03  0.7561462E-02  0.1204785E+00
         -1   -1    0    0    0  501 -0.00000000000E+00  0.00000000000E+00  0.67076905618E+02  0.67076905618E+02  0.00000000000E+00 0.  1.
          1   -1    0    0  501    0  0.00000000000E+00 -0.00000000000E+00 -0.47197062632E+03  0.47197062632E+03  0.00000000000E+00 0. -1.
         25    2    1    2    0    0 -0.11780492378E+03 -0.57269885498E+02 -0.29056003689E+03  0.34239365068E+03  0.12510170715E+03 0.  0.
          5    1    3    3  502    0 -0.21700185075E+02 -0.71640099534E+00  0.81159628839E+01  0.23553184842E+02  0.41800000000E+01 0. -1.
         -5    1    3    3    0  502 -0.96104738700E+02 -0.56553484503E+02 -0.29867599978E+03  0.31884046583E+03  0.41800000000E+01 0. -1.
        -11    1    1    2    0    0 -0.17115625042E+01  0.38345853064E+02 -0.20400610703E+02  0.43468595681E+02  0.00000000000E+00 0.  1.
         11    1    1    2    0    0  0.11951648628E+03  0.18924032435E+02 -0.93933073108E+02  0.15318528558E+03  0.00000000000E+00 0. -1.
</event>
<event>
 7    1  0.2334784E-009  0.1094925E+03  0.7561462E-02  0.1261513E+00
          1   -1    0    0  501    0  0.00000000000E+00  0.00000000000E+00  0.11523619448E+03  0.11523619448E+03  0.00000000000E+00 0.  1.
         -1   -1    0    0    0  501 -0.00000000000E+00 -0.00000000000E+00 -0.13859183009E+03  0.13859183009E+03  0.00000000000E+00 0. -1.
         25    2    1    2    0    0  0.12815098112E+02  0.48765189482E+02 -0.55109097920E+02  0.14569511836E+03  0.12509110438E+03 0.  0.
          5    1    3    3  502    0 -0.43220091099E+02  0.40107886631E+02  0.92392148663E+01  0.59828541149E+02  0.41800000000E+01 0. -1.
         -5    1    3    3    0  502  0.56035189212E+02  0.86573028510E+01 -0.64348312787E+02  0.85866577206E+02  0.41800000000E+01 0. -1.
        -11    1    1    2    0    0  0.18057514581E+02 -0.65472354314E+02  0.25087258152E+02  0.72402165257E+02  0.00000000000E+00 0.  1.
         11    1    1    2    0    0 -0.30872612693E+02  0.16707164832E+02  0.66662041636E+01  0.35730740955E+02  0.00000000000E+00 0. -1.
</event>
<event>
 7    1  0.2334784E-009  0.1688447E+03  0.7561462E-02  0.1179058E+00
         -2   -1    0    0    0  501 -0.00000000000E+00  0.00000000000E+00  0.18974168401E+02  0.18974168401E+02  0.00000000000E+00 0.  1.
          2   -1    0    0  501    0  0.00000000000E+00 -0.00000000000E+00 -0.16016503578E+04  0.16016503578E+04  0.00000000000E+00 0. -1.
         25    2    1    2    0    0 -0.64506978024E+02  0.11670778607E+03 -0.97894482472E+03  0.99587044065E+03  0.12507240768E+03 0.  0.
          5    1    3    3  502    0 -0.49610653794E+02 -0.12872984143E+02 -0.32329589282E+03  0.32736010356E+03  0.41800000000E+01 0.  1.
         -5    1    3    3    0  502 -0.14896324230E+02  0.12958077022E+03 -0.65564893190E+03  0.66851033708E+03  0.41800000000E+01 0.  1.
        -11    1    1    2    0    0  0.16581570051E+02 -0.10517079037E+03 -0.47779333188E+03  0.48951232017E+03  0.00000000000E+00 0.  1.
         11    1    1    2    0    0  0.47925407973E+02 -0.11536995705E+02 -0.12593803284E+03  0.13524176542E+03  0.00000000000E+00 0. -1.
</event>
<event>
 7    1  0.2334784E-009  0.3636949E+03  0.7561462E-02  0.1057130E+00
         -2   -1    0    0    0  501 -0.00000000000E+00  0.00000000000E+00  0.21443131419E+03  0.21443131419E+03  0.00000000000E+00 0.  1.
          2   -1    0    0  501    0  0.00000000000E+00 -0.00000000000E+00 -0.70818526911E+03  0.70818526911E+03  0.00000000000E+00 0. -1.
         25    2    1    2    0    0 -0.35054991682E+03 -0.43920391428E+02 -0.39564934090E+03  0.54497558797E+03  0.12508295471E+03 0.  0.
          5    1    3    3  502    0  0.16970411269E+01  0.15999007139E+02 -0.10849591447E+02  0.19850295025E+02  0.41800000000E+01 0. -1.
         -5    1    3    3    0  502 -0.35224695795E+03 -0.59919398566E+02 -0.38479974946E+03  0.52512529294E+03  0.41800000000E+01 0. -1.
        -11    1    1    2    0    0  0.62594207302E+02  0.11761611564E+02 -0.56085153944E+02  0.84864095985E+02  0.00000000000E+00 0.  1.
         11    1    1    2    0    0  0.28795570952E+03  0.32158779864E+02 -0.42019460071E+02  0.29277689935E+03  0.00000000000E+00 0. -1.
</event>
<event>
 7    1  0.2334784E-009  0.7902446E+02  0.7561462E-02  0.1331843E+00
          2   -1    0    0  501    0  0.00000000000E+00  0.00000000000E+00  0.34574228129E+03  0.34574228129E+03  0.00000000000E+00 0. -1.
         -2   -1    0    0    0  501 -0.00000000000E+00 -0.00000000000E+00 -0.43363835017E+02  0.43363835017E+02  0.00000000000E+00 0.  1.
         25    2    1    2    0    0  0.34197554269E+01  0.53684023277E+02  0.13588804660E+03  0.19235565378E+03  0.12506585165E+03 0.  0.
          5    1    3    3  502    0  0.41414206309E+02  0.51135140026E+02  0.13907657680E+03  0.15391460503E+03  0.41800000000E+01 0.  1.
         -5    1    3    3    0  502 -0.37994450883E+02  0.25488832509E+01 -0.31885301985E+01  0.38441048744E+02  0.41800000000E+01 0.  1.
        -11    1    1    2    0    0 -0.19323841791E+01 -0.21364707116E+02 -0.51713540091E+01  0.22066438794E+02  0.00000000000E+00 0.  1.
         11    1    1    2    0    0 -0.14873712478E+01 -0.32319316161E+02  0.17166175369E+03  0.17468402374E+03  0.00000000000E+00 0. -1.
</event>
<event>
 7    1  0.2334784E-009  0.1158254E+03  0.7561462E-02  0.1250147E+00
          1   -1    0    0  501    0  0.00000000000E+00  0.00000000000E+00  0.54566556096E+03  0.54566556096E+03  0.00000000000E+00 0. -1.
         -1   -1    0    0    0  501 -0.00000000000E+00 -0.00000000000E+00 -0.29141125519E+02  0.29141125519E+02  0.00000000000E+00 0.  1.
         25    2    1    2    0    0  0.38977465239E+02 -0.37520224113E+02  0.37356140502E+03  0.39764380803E+03  0.12508183214E+03 0.  0.
          5    1    3    3  502    0  0.65872068274E+02 -0.61936775435E+02  0.18977405793E+03  0.21025451004E+03  0.41800000000E+01 0.  1.
         -5    1    3    3    0  502 -0.26894603035E+02  0.24416551321E+02  0.18378734709E+03  0.18738929799E+03  0.41800000000E+01 0.  1.
        -11    1    1    2    0    0  0.11719681154E+02 -0.22885315496E+02  0.37808247599E+02  0.45722556558E+02  0.00000000000E+00 0. -1.
         11    1    1    2    0    0 -0.50697146393E+02  0.60405539610E+02  0.10515478283E+03  0.13144032189E+03  0.00000000000E+00 0.  1.
</event>
<event>
 7    1  0.2334784E-009  0.1016396E+03  0.7561462E-02  0.1276885E+00
         -1   -1    0    0    0  501 -0.00000000000E+00  0.00000000000E+00  0.39981070842E+03  0.39981070842E+03  0.00000000000E+00 0.  1.
          1   -1    0    0  501    0  0.00000000000E+00 -0.00000000000E+00 -0.31848124611E+02  0.31848124611E+02  0.00000000000E+00 0. -1.
         25    2    1    2    0    0 -0.25357480853E+02  0.16913763292E+02  0.18871269215E+03  0.22845105796E+03  0.12509327912E+03 0.  0.
          5    1    3    3  502    0  0.49280908977E+02  0.18154568500E+02  0.62368667386E+02  0.81642632359E+02  0.41800000000E+01 0. -1.
         -5    1    3    3    0  502 -0.74638389830E+02 -0.12408052079E+01  0.12634402477E+03  0.14680842560E+03  0.41800000000E+01 0. -1.
        -11    1    1    2    0    0  0.46635219106E+02  0.29392364414E+01  0.41750361819E+02  0.62662392900E+02  0.00000000000E+00 0. -1.
         11    1    1    2    0    0 -0.21277738253E+02 -0.19852999733E+02  0.13749952983E+03  0.14054538217E+03  0.00000000000E+00 0.  1.
</event>
<event>
 7    1  0.2334784E-009  0.3331171E+03  0.7561462E-02  0.1069766E+00
          1   -1    0    0  501    0  0.00000000000E+00  0.00000000000E+00  0.11732141599E+04  0.11732141599E+04  0.00000000000E+00 0. -1.
         -1   -1    0    0    0  501 -0.00000000000E+00 -0.00000000000E+00 -0.28728678901E+03  0.28728678901E+03  0.00000000000E+00 0.  1.
         25    2    1    2    0    0  0.28355010000E+03  0.15364603864E+03  0.10376289618E+04  0.10937684477E+04  0.12509112837E+03 0.  0.
          5    1    3    3  502    0  0.46545146980E+02 -0.54089552964E+01  0.28434092510E+03  0.28820642184E+03  0.41800000000E+01 0. -1.
         -5    1    3    3    0  502  0.23700495302E+03  0.15905499394E+03  0.75328803667E+03  0.80556202582E+03  0.41800000000E+01 0. -1.
        -11    1    1    2    0    0 -0.53104510864E+02 -0.71536823496E+02 -0.45480328053E+02  0.10003032755E+03  0.00000000000E+00 0.  1.
         11    1    1    2    0    0 -0.23044558913E+03 -0.82109215145E+02 -0.10622126285E+03  0.26670217368E+03  0.00000000000E+00 0. -1.
</event>
<event>
 7    1  0.2334784E-009  0.1119828E+03  0.7561462E-02  0.1256941E+00
          2   -1    0    0  501    0  0.00000000000E+00  0.00000000000E+00  0.21100653772E+03  0.21100653772E+03  0.00000000000E+00 0. -1.
         -2   -1    0    0    0  501 -0.00000000000E+00 -0.00000000000E+00 -0.80032147951E+02  0.80032147951E+02  0.00000000000E+00 0.  1.
         25    2    1    2    0    0 -0.13372469642E+02  0.55715302392E+02  0.29962537306E+02  0.14081595680E+03  0.12509341382E+03 0.  0.
          5    1    3    3  502    0  0.11601092860E+02  0.92098042003E+02  0.24919164331E+02  0.96203283973E+02  0.41800000000E+01 0.  1.
         -5    1    3    3    0  502 -0.24973562502E+02 -0.36382739611E+02  0.50433729744E+01  0.44612672825E+02  0.41800000000E+01 0.  1.
        -11    1    1    2    0    0  0.85844602391E+01 -0.70581111373E+02  0.29420644108E+02  0.76947778006E+02  0.00000000000E+00 0.  1.
         11    1    1    2    0    0  0.47880094024E+01  0.14865808981E+02  0.71591208357E+02  0.73274950868E+02  0.00000000000E+00 0. -1.
</event>
<event>
 7    1  0.2334784E-009  0.1105202E+03  0.7561462E-02  0.1259610E+00
         -2   -1    0    0    0  501 -0.00000000000E+00  0.00000000000E+00  0.30800182637E+03  0.30800182637E+03  0.00000000000E+00 0.  1.
          2   -1    0    0  501    0  0.00000000000E+00 -0.00000000000E+00 -0.53102553856E+02  0.53102553856E+02  0.00000000000E+00 0. -1.
         25    2    1    2    0    0  0.57669615806E+02 -0.34408760489E+02  0.15858107327E+03  0.21285083010E+03  0.12509105360E+03 0.  0.
          5    1    3    3  502    0  0.22474611923E+02 -0.73966649884E+02  0.13301584168E+03  0.15390536057E+03  0.41800000000E+01 0.  1.
         -5    1    3    3    0  502  0.35195003882E+02  0.39557889395E+02  0.25565231595E+02  0.58945469530E+02  0.41800000000E+01 0.  1.
        -11    1    1    2    0    0  0.11351478316E+02 -0.33488127142E+01  0.60787153721E+02  0.61928577119E+02  0.00000000000E+00 0.  1.
         11    1    1    2    0    0 -0.69021094122E+02  0.37757573203E+02  0.35531045520E+02  0.86324973002E+02  0.00000000000E+00 0. -1.
</event>
<event>
 7    1  0.2334784E-009  0.8793998E+02  0.7561462E-02  0.1307918E+00
          3   -1    0    0  501    0  0.00000000000E+00  0.00000000000E+00  0.98302764537E+02  0.98302764537E+02  0.00000000000E+00 0. -1.
         -3   -1    0    0    0  501 -0.00000000000E+00 -0.00000000000E+00 -0.15577831934E+03  0.15577831934E+03  0.00000000000E+00 0.  1.
         25    2    1    2    0    0  0.29760004298E+02  0.35641439463E+02  0.21003443719E+02  0.13507298608E+03  0.12509035477E+03 0.  0.
          5    1    3    3  502    0  0.69543450289E+02  0.51224283526E+02 -0.17381185019E+01  0.86491110276E+02  0.41800000000E+01 0.  1.
         -5    1    3    3    0  502 -0.39783445991E+02 -0.15582844063E+02  0.22741562221E+02  0.48581875800E+02  0.41800000000E+01 0.  1.
        -11    1    1    2    0    0 -0.72755125837E+01 -0.74076085621E+01  0.15318649243E+02  0.18505857521E+02  0.00000000000E+00 0. -1.
         11    1    1    2    0    0 -0.22484491714E+02 -0.28233830901E+02 -0.93797647764E+02  0.10050224028E+03  0.00000000000E+00 0.  1.
</event>
<event>
 7    1  0.2334784E-009  0.1384140E+03  0.7561462E-02  0.1215479E+00
         -1   -1    0    0    0  501 -0.00000000000E+00  0.00000000000E+00  0.95135739951E+02  0.95135739951E+02  0.00000000000E+00 0.  1.
          1   -1    0    0  501    0  0.00000000000E+00 -0.00000000000E+00 -0.28068080666E+03  0.28068080666E+03  0.00000000000E+00 0. -1.
         25    2    1    2    0    0 -0.87793582663E+01 -0.11929996463E+03 -0.82364266188E+02  0.19167973572E+03  0.12509072727E+03 0.  0.
          5    1    3    3  502    0 -0.28139861257E+02 -0.23404274285E+00  0.18874733463E+02  0.34141390289E+02  0.41800000000E+01 0. -1.
         -5    1    3    3    0  502  0.19360502990E+02 -0.11906592188E+03 -0.10123899965E+03  0.15753834543E+03  0.41800000000E+01 0. -1.
        -11    1    1    2    0    0  0.24843039714E+02  0.42621345487E+02  0.60639721430E+01  0.49704400926E+02  0.00000000000E+00 0.  1.
         11    1    1    2    0    0 -0.16063681447E+02  0.76678619141E+02 -0.10924477266E+03  0.13443240996E+03  0.00000000000E+00 0. -1.
</event>
<event>
 7    1  0.2334784E-009  0.9946711E+02  0.7561462E-02  0.1281421E+00
          2   -1    0    0  501    0  0.00000000000E+00  0.00000000000E+00  0.39059383478E+02  0.39059383478E+02  0.00000000000E+00 0.  1.
         -2   -1    0    0    0  501 -0.00000000000E+00 -0.00000000000E+00 -0.42182319720E+03  0.42182319720E+03  0.00000000000E+00 0. -1.
         25    2    1    2    0    0  0.29636504012E+02  0.19270377960E+02 -0.10988167560E+03  0.17022076009E+03  0.12510577404E+03 0.  0.
          5    1    3    3  502    0 -0.41864607326E+02  0.17353550656E+02 -0.81119998946E+02  0.93014610121E+02  0.41800000000E+01 0.  1.
         -5    1    3    3    0  502  0.71501111338E+02  0.19168273039E+01 -0.28761676652E+02  0.77206149971E+02  0.41800000000E+01 0.  1.
        -11    1    1    2    0    0 -0.62134233794E+01  0.28180357437E+02 -0.28291028190E+02  0.40411897399E+02  0.00000000000E+00 0. -1.
         11    1    1    2    0    0 -0.23423080633E+02 -0.47450735397E+02 -0.24459110994E+03  0.25024992319E+03  0.00000000000E+00 0.  1.
</event>
<event>
 7    1  0.2334784E-009  0.1325735E+03  0.7561462E-02  0.1223686E+00
         -1   -1    0    0    0  501 -0.00000000000E+00  0.00000000000E+00  0.26667066981E+03  0.26667066981E+03  0.00000000000E+00 0.  1.
          1   -1    0    0  501    0  0.00000000000E+00 -0.00000000000E+00 -0.10932124169E+03  0.10932124169E+03  0.00000000000E+00 0. -1.
         25    2    1    2    0    0  0.54520814411E+02 -0.11300755274E+03  0.11616826424E+03  0.21186178977E+03  0.12508847335E+03 0.  0.
          5    1    3    3  502    0  0.38419145394E+02 -0.80916620170E+02 -0.55129327390E+00  0.89673332027E+02  0.41800000000E+01 0. -1.
         -5    1    3    3    0  502  0.16101669017E+02 -0.32090932573E+02  0.11671955752E+03  0.12218845774E+03  0.41800000000E+01 0. -1.
        -11    1    1    2    0    0 -0.18140399587E+02  0.98509925637E+02  0.63940279916E+02  0.11883450232E+03  0.00000000000E+00 0. -1.
         11    1    1    2    0    0 -0.36380414823E+02  0.14497627106E+02 -0.22759116038E+02  0.45295619405E+02  0.00000000000E+00 0.  1.
</event>
<event>
 7    1  0.2334784E-009  0.3029591E+03  0.7561462E-02  0.1083771E+00
          2   -1    0    0  501    0  0.00000000000E+00  0.00000000000E+00  0.10634827089E+04  0.10634827089E+04  0.00000000000E+00 0. -1.
         -2   -1    0    0    0  501 -0.00000000000E+00 -0.00000000000E+00 -0.92076391104E+02  0.92076391104E+02  0.00000000000E+00 0.  1.
         25    2    1    2    0    0 -0.97923890215E+02  0.26623091479E+03  0.62938791880E+03  0.70160399033E+03  0.12510403135E+03 0.  0.
          5    1    3    3  502    0 -0.10598853661E+02  0.19549230750E+03  0.43465832902E+03  0.47673358742E+03  0.41800000000E+01 0. -1.
         -5    1    3    3    0  502 -0.87325036555E+02  0.70738607292E+02  0.19472958977E+03  0.22487040291E+03  0.41800000000E+01 0. -1.
        -11    1    1    2    0    0  0.55975233757E+02 -0.43236651810E+02  0.67127171012E+02  0.97512521975E+02  0.00000000000E+00 0. -1.
         11    1    1    2    0    0  0.41948656459E+02 -0.22299426298E+03  0.27489122799E+03  0.35644258770E+03  0.00000000000E+00 0.  1.
</event>
<event>
 7    1  0.2334784E-009  0.1138743E+03  0.7561462E-02  0.1253559E+00
          1   -1    0    0  501    0  0.00000000000E+00  0.00000000000E+00  0.60090741765E+03  0.60090741765E+03  0.00000000000E+00 0. -1.
         -1   -1    0    0    0  501 -0.00000000000E+00 -0.00000000000E+00 -0.29344183956E+02  0.29344183956E+02  0.00000000000E+00 0.  1.
         25    2    1    2    0    0  0.25830071296E+02  0.72970907725E+02  0.35533662870E+03  0.38458222196E+03  0.12508964704E+03 0.  0.
          5    1    3    3  502    0  0.48718745685E+02 -0.17478541792E+02  0.15681740213E+03  0.16519136059E+03  0.41800000000E+01 0. -1.
         -5    1    3    3    0  502 -0.22888674389E+02  0.90449449517E+02  0.19851922657E+03  0.21939086136E+03  0.41800000000E+01 0. -1.
        -11    1    1    2    0    0  0.37649498733E+01 -0.30089224947E+02  0.84779003847E+01  0.31486681318E+02  0.00000000000E+00 0.  1.
         11    1    1    2    0    0 -0.29595021170E+02 -0.42881682777E+02  0.20774870461E+03  0.21418269833E+03  0.00000000000E+00 0. -1.
</event>
<event>
 7    1  0.2334784E-009  0.2128371E+03  0.7561462E-02  0.1139339E+00
          2   -1    0    0  501    0  0.00000000000E+00  0.00000000000E+00  0.51319864458E+03  0.51319864458E+03  0.00000000000E+00 0. -1.
         -2   -1    0    0    0  501 -0.00000000000E+00 -0.00000000000E+00 -0.10772593859E+03  0.10772593859E+03  0.00000000000E+00 0.  1.
         25    2    1    2    0    0 -0.14684604996E+03 -0.13989481774E+03  0.27298458500E+03  0.36235426539E+03  0.12508280288E+03 0.  0.
          5    1    3    3  502    0 -0.22524712253E+01  0.18822922421E+01  0.87685638601E+02  0.87834277293E+02  0.41800000000E+01 0.  1.
         -5    1    3    3    0  502 -0.14459357873E+03 -0.14177710998E+03  0.18529894640E+03  0.27451998810E+03  0.41800000000E+01 0.  1.
        -11    1    1    2    0    0  0.27672985965E+02  0.79980242969E+02  0.28043239395E+02  0.89157482543E+02  0.00000000000E+00 0.  1.
         11    1    1    2    0    0  0.11917306399E+03  0.59914574771E+02  0.10444488160E+03  0.16941283524E+03  0.00000000000E+00 0. -1.
</event>
<event>
 7    1  0.2334784E-009  0.1105650E+03  0.7561462E-02  0.1259527E+00
          2   -1    0    0  501    0  0.00000000000E+00  0.00000000000E+00  0.25126072592E+03  0.25126072592E+03  0.00000000000E+00 0. -1.
         -2   -1    0    0    0  501 -0.00000000000E+00 -0.00000000000E+00 -0.80906639634E+02  0.80906639634E+02  0.00000000000E+00 0.  1.
         25    2    1    2    0    0 -0.75550517334E+02 -0.30281024158E+02  0.14210490683E+03  0.20607126399E+03  0.12508693058E+03 0.  0.
          5    1    3    3  502    0 -0.29703243399E+02 -0.65927160045E+02  0.27408857911E+02  0.77442824019E+02  0.41800000000E+01 0. -1.
         -5    1    3    3    0  502 -0.45847273935E+02  0.35646135887E+02  0.11469604892E+03  0.12862843997E+03  0.41800000000E+01 0. -1.
        -11    1    1    2    0    0  0.25373189186E+02 -0.88193520828E+01  0.51729348716E+02  0.58288122454E+02  0.00000000000E+00 0. -1.
         11    1    1    2    0    0  0.50177328149E+02  0.39100376241E+02 -0.23480169264E+02  0.67807979110E+02  0.00000000000E+00 0.  1.
</event>
<event>
 7    1  0.2334784E-009  0.1232544E+03  0.7561462E-02  0.1237823E+00
          1   -1    0    0  501    0  0.00000000000E+00  0.00000000000E+00  0.59649745290E+02  0.59649745290E+02  0.00000000000E+00 0. -1.
         -1   -1    0    0    0  501 -0.00000000000E+00 -0.00000000000E+00 -0.28775771845E+03  0.28775771845E+03  0.00000000000E+00 0.  1.
         25    2    1    2    0    0  0.11085428827E+01 -0.66323777976E+02 -0.84277941430E+02  0.16476956419E+03  0.12508463327E+03 0.  0.
          5    1    3    3  502    0  0.28073068840E+02 -0.96240084897E+02 -0.67558144074E+02  0.12096208648E+03  0.41800000000E+01 0. -1.
         -5    1    3    3    0  502 -0.26964525958E+02  0.29916306920E+02 -0.16719797356E+02  0.43807477712E+02  0.41800000000E+01 0. -1.
        -11    1    1    2    0    0  0.31300758234E+02 -0.61605426171E+00 -0.17037726465E+02  0.35642686654E+02  0.00000000000E+00 0.  1.
         11    1    1    2    0    0 -0.32409301116E+02  0.66939832238E+02 -0.12679230526E+03  0.14699521289E+03  0.00000000000E+00 0. -1.
</event>
<event>
 7    1  0.2334784E-009  0.1373887E+03  0.7561462E-02  0.1216886E+00
          1   -1    0    0  501    0  0.00000000000E+00  0.00000000000E+00  0.13704304513E+03  0.13704304513E+03  0.00000000000E+00 0. -1.
         -1   -1    0    0    0  501 -0.00000000000E+00 -0.00000000000E+00 -0.15894883217E+03  0.15894883217E+03  0.00000000000E+00 0.  1.
         25    2    1    2    0    0  0.86824707533E+02 -0.23522646599E+02 -0.37228406776E+02  0.15851341624E+03  0.12509478053E+03 0.  0.
          5    1    3    3  502    0  0.11287208155E+03  0.71136143016E+01 -0.21880220788E+02  0.11526893234E+03  0.41800000000E+01 0. -1.
         -5    1    3    3    0  502 -0.26047374014E+02 -0.30636260900E+02 -0.15348185988E+02  0.43244483903E+02  0.41800000000E+01 0. -1.
        -11    1    1    2    0    0 -0.84834238071E+02 -0.11927864958E+02 -0.19376270236E+02  0.87832578010E+02  0.00000000000E+00 0.  1.
         11    1    1    2    0    0 -0.19904694614E+01  0.35450511557E+02  0.34698889968E+02  0.49645883045E+02  0.00000000000E+00 0. -1.
</event>
<event>
 7    1  0.2334784E-009  0.1385817E+03  0.7561462E-02  0.1215250E+00
          2   -1    0    0  501    0  0.00000000000E+00  0.00000000000E+00  0.98523580660E+03  0.98523580660E+03  0.00000000000E+00 0. -1.
         -2   -1    0    0    0  501 -0.00000000000E+00 -0.00000000000E+00 -0.32243283330E+02  0.32243283330E+02  0.00000000000E+00 0.  1.
         25    2    1    2    0    0  0.85879387842E+02  0.65795945779E+02  0.75814901572E+03  0.77597787546E+03  0.12508939774E+03 0.  0.
          5    1    3    3  502    0  0.95530607038E+02  0.10133618602E+01  0.53080454403E+03  0.53934966408E+03  0.41800000000E+01 0. -1.
         -5    1    3    3    0  502 -0.96512191960E+01  0.64782583918E+02  0.22734447169E+03  0.23662821138E+03  0.41800000000E+01 0. -1.
        -11    1    1    2    0    0 -0.14526540371E+02 -0.35555635561E+02  0.14347184368E+03  0.14852405032E+03  0.00000000000E+00 0. -1.
         11    1    1    2    0    0 -0.71352847471E+02 -0.30240310217E+02  0.51371663870E+02  0.92977164148E+02  0.00000000000E+00 0.  1.
</event>
<event>
 7    1  0.2334784E-009  0.9396589E+02  0.7561462E-02  0.1293522E+00
          2   -1    0    0  501    0  0.00000000000E+00  0.00000000000E+00  0.12090949766E+04  0.12090949766E+04  0.00000000000E+00 0. -1.
         -2   -1    0    0    0  501 -0.00000000000E+00 -0.00000000000E+00 -0.15648109796E+02  0.15648109796E+02  0.00000000000E+00 0.  1.
         25    2    1    2    0    0 -0.19643587994E+02  0.76491308869E+02  0.78705328920E+03  0.80083548541E+03  0.12509118178E+03 0.  0.
          5    1    3    3  502    0  0.16983720602E+01  0.33252846179E+02  0.70332324597E+03  0.70412335352E+03  0.41800000000E+01 0. -1.
         -5    1    3    3    0  502 -0.21341960054E+02  0.43238462690E+02  0.83730043232E+02  0.96712131889E+02  0.41800000000E+01 0. -1.
        -11    1    1    2    0    0 -0.15229388124E+02 -0.68533552488E+02  0.35111931248E+03  0.35806920235E+03  0.00000000000E+00 0. -1.
         11    1    1    2    0    0  0.34872976118E+02 -0.79577563806E+01  0.55274265112E+02  0.65838398626E+02  0.00000000000E+00 0.  1.
</event>
<event>
 7    1  0.2334784E-009  0.9743834E+02  0.7561462E-02  0.1285777E+00
         -2   -1    0    0    0  501 -0.00000000000E+00  0.00000000000E+00  0.58013893582E+02  0.58013893582E+02  0.00000000000E+00 0. -1.
          2   -1    0    0  501    0  0.00000000000E+00 -0.00000000000E+00 -0.23585086700E+03  0.23585086700E+03  0.00000000000E+00 0.  1.
         25    2    1    2    0    0 -0.28729133817E+02  0.16572079614E+02 -0.17128581464E+03  0.21468008929E+03  0.12509481799E+03 0.  0.
          5    1    3    3  502    0  0.45173033911E+02  0.29348831329E+02 -0.64880464003E+02  0.84432836635E+02  0.41800000000E+01 0.  1.
         -5    1    3    3    0  502 -0.73902167728E+02 -0.12776751714E+02 -0.10640535064E+03  0.13024725265E+03  0.41800000000E+01 0.  1.
        -11    1    1    2    0    0 -0.16971630375E+02 -0.96055112799E+01 -0.22965510141E+02  0.30128337833E+02  0.00000000000E+00 0.  1.
         11    1    1    2    0    0  0.45700764191E+02 -0.69665683345E+01  0.16414351363E+02  0.49056333462E+02  0.00000000000E+00 0. -1.
</event>
<event>
 7    1  0.2334784E-009  0.9174377E+02  0.7561462E-02  0.1298683E+00
         -2   -1    0    0    0  501 -0.00000000000E+00  0.00000000000E+00  0.47769879752E+02  0.47769879752E+02  0.00000000000E+00 0.  1.
          2   -1    0    0  501    0  0.00000000000E+00 -0.00000000000E+00 -0.29937169106E+03  0.29937169106E+03  0.00000000000E+00 0. -1.
         25    2    1    2    0    0  0.27951185385E+02 -0.38115652126E+02 -0.87628336389E+02  0.15987369416E+03  0.12508717378E+03 0.  0.
          5    1    3    3  502    0  0.56186226034E+02 -0.25602830200E+02 -0.10669139861E+03  0.12334068205E+03  0.41800000000E+01 0. -1.
         -5    1    3    3    0  502 -0.28235040649E+02 -0.12512821926E+02  0.19063062222E+02  0.36533012116E+02  0.41800000000E+01 0. -1.
        -11    1    1    2    0    0 -0.48150087768E+02  0.47965415370E+02 -0.12161459076E+03  0.13931697925E+03  0.00000000000E+00 0.  1.
         11    1    1    2    0    0  0.20198902383E+02 -0.98497632443E+01 -0.42358884163E+02  0.47950897395E+02  0.00000000000E+00 0. -1.
</event>
<event>
 7    1  0.2334784E-009  0.1716300E+03  0.7561462E-02  0.1176159E+00
          1   -1    0    0  501    0  0.00000000000E+00  0.00000000000E+00  0.43384395158E+03  0.43384395158E+03  0.00000000000E+00 0. -1.
         -1   -1    0    0    0  501 -0.00000000000E+00 -0.00000000000E+00 -0.78161063466E+02  0.78161063466E+02  0.00000000000E+00 0.  1.
         25    2    1    2    0    0 -0.14616025287E+03  0.19215494773E+02  0.21828976017E+03  0.29159777511E+03  0.12508712282E+03 0.  0.
          5    1    3    3  502    0  0.17106385931E+02 -0.14207942210E+02  0.98078975386E+01  0.24660926900E+02  0.41800000000E+01 0.  1.
         -5    1    3    3    0  502 -0.16326663880E+03  0.33423436983E+02  0.20848186263E+03  0.26693684821E+03  0.41800000000E+01 0.  1.
        -11    1    1    2    0    0  0.87512544676E+02 -0.33264086607E+02  0.12918822325E+03  0.15954479609E+03  0.00000000000E+00 0.  1.
         11    1    1    2    0    0  0.58647708198E+02  0.14048591834E+02  0.82049046909E+01  0.60862443842E+02  0.00000000000E+00 0. -1.
</event>
<event>
 7    1  0.2334784E-009  0.1118730E+03  0.7561462E-02  0.1257140E+00
          2   -1    0    0  501    0  0.00000000000E+00  0.00000000000E+00  0.13719394589E+03  0.13719394589E+03  0.00000000000E+00 0.  1.
         -2   -1    0    0    0  501 -0.00000000000E+00 -0.00000000000E+00 -0.11077697388E+03  0.11077697388E+03  0.00000000000E+00 0. -1.
         25    2    1    2    0    0 -0.67428072303E+02 -0.27751086454E+01  0.22497595771E+02  0.14390233481E+03  0.12508994359E+03 0.  0.
          5    1    3    3  502    0 -0.66414119236E+02  0.48272014667E+02 -0.10632607465E+02  0.82894797035E+02  0.41800000000E+01 0.  1.
         -5    1    3    3    0  502 -0.10139530665E+01 -0.51047123313E+02  0.33130203236E+02  0.61007537778E+02  0.41800000000E+01 0.  1.
        -11    1    1    2    0    0  0.40464626473E+02 -0.28139268892E+02 -0.23626271948E+02  0.54657160332E+02  0.00000000000E+00 0. -1.
         11    1    1    2    0    0  0.26963445830E+02  0.30914377538E+02  0.27545648190E+02  0.49411424628E+02  0.00000000000E+00 0.  1.
</event>
<event>
 7    1  0.2334784E-009  0.7199209E+02  0.7561462E-02  0.1353447E+00
          3   -1    0    0  501    0  0.00000000000E+00  0.00000000000E+00  0.62427629103E+02  0.62427629103E+02  0.00000000000E+00 0. -1.
         -3   -1    0    0    0  501 -0.00000000000E+00 -0.00000000000E+00 -0.21831534356E+03  0.21831534356E+03  0.00000000000E+00 0.  1.
         25    2    1    2    0    0 -0.47885484839E+01 -0.19552007207E+02 -0.43978298223E+02  0.13410828711E+03  0.12508289561E+03 0.  0.
          5    1    3    3  502    0 -0.25472620037E+02 -0.69006151118E+01  0.39159114254E+02  0.47406555345E+02  0.41800000000E+01 0. -1.
         -5    1    3    3    0  502  0.20684071554E+02 -0.12651392096E+02 -0.83137412476E+02  0.86701731766E+02  0.41800000000E+01 0. -1.
        -11    1    1    2    0    0 -0.36616924188E+00 -0.36434844017E+02 -0.59511501895E+02  0.69780017170E+02  0.00000000000E+00 0.  1.
         11    1    1    2    0    0  0.51547177258E+01  0.55986851225E+02 -0.52397914339E+02  0.76854668381E+02  0.00000000000E+00 0. -1.
</event>
<event>
 7    1  0.2334784E-009  0.1394914E+03  0.7561462E-02  0.1214015E+00
          1   -1    0    0  501    0  0.00000000000E+00  0.00000000000E+00  0.50509240498E+03  0.50509240498E+03  0.00000000000E+00 0. -1.
         -1   -1    0    0    0  501 -0.00000000000E+00 -0.00000000000E+00 -0.43512790323E+02  0.43512790323E+02  0.00000000000E+00 0.  1.
         25    2    1    2    0    0 -0.12372231270E+02  0.95013163027E+02  0.31317962245E+03  0.35058595396E+03  0.12509381257E+03 0.  0.
          5    1    3    3  502    0 -0.63850002603E+02  0.34805059438E+02  0.10487825737E+03  0.12769156692E+03  0.41800000000E+01 0. -1.
         -5    1    3    3    0  502  0.51477771333E+02  0.60208103589E+02  0.20830136508E+03  0.22289438704E+03  0.41800000000E+01 0. -1.
        -11    1    1    2    0    0  0.42628369625E+02 -0.22404603262E+02  0.81930849968E+02  0.95035826512E+02  0.00000000000E+00 0.  1.
         11    1    1    2    0    0 -0.30256138355E+02 -0.72608559765E+02  0.66469142235E+02  0.10298341482E+03  0.00000000000E+00 0. -1.
</event>
<event>
 7    1  0.2334784E-009  0.9083034E+02  0.7561462E-02  0.1300853E+00
          1   -1    0    0  501    0  0.00000000000E+00  0.00000000000E+00  0.11753243089E+03  0.11753243089E+03  0.00000000000E+00 0. -1.
         -1   -1    0    0    0  501 -0.00000000000E+00 -0.00000000000E+00 -0.94110745545E+02  0.94110745545E+02  0.00000000000E+00 0.  1.
         25    2    1    2    0    0 -0.65559769390E+01 -0.32035881244E+02  0.26890351164E+02  0.13206034028E+03  0.12509022331E+03 0.  0.
          5    1    3    3  502    0 -0.63038002815E+01  0.36730204464E+02  0.47154591551E+02  0.60248433360E+02  0.41800000000E+01 0.  1.
         -5    1    3    3    0  502 -0.25217665752E+00 -0.68766085707E+02 -0.20264240387E+02  0.71811906917E+02  0.41800000000E+01 0.  1.
        -11    1    1    2    0    0 -0.27010801500E+02  0.31767555451E+02  0.10852688334E+02  0.43087606351E+02  0.00000000000E+00 0. -1.
         11    1    1    2    0    0  0.33566778439E+02  0.26832579243E+00 -0.14321354157E+02  0.36495229803E+02  0.00000000000E+00 0.  1.
</event>
<event>
 7    1  0.2334784E-009  0.9214446E+02  0.7561462E-02  0.1297740E+00
         -1   -1    0    0    0  501 -0.00000000000E+00  0.00000000000E+00  0.47989817452E+02  0.47989817452E+02  0.00000000000E+00 0.  1.
          1   -1    0    0  501    0  0.00000000000E+00 -0.00000000000E+00 -0.28834806052E+03  0.28834806052E+03  0.00000000000E+00 0. -1.
         25    2    1    2    0    0 -0.34452943345E+02 -0.20795052796E+02 -0.10355816880E+03  0.16730759737E+03  0.12509235902E+03 0.  0.
          5    1    3    3  502    0 -0.10042091000E+02  0.28249504125E+02 -0.10802223203E+03  0.11218356870E+03  0.41800000000E+01 0.  1.
         -5    1    3    3    0  502 -0.24410852345E+02 -0.49044556921E+02  0.44640632251E+01  0.55124028665E+02  0.41800000000E+01 0.  1.
        -11    1    1    2    0    0  0.36242452581E+02  0.54429972740E+02 -0.85023705045E+02  0.10726214486E+03  0.00000000000E+00 0.  1.
         11    1    1    2    0    0 -0.17895092353E+01 -0.33634919944E+02 -0.51776369225E+02  0.61768135742E+02  0.00000000000E+00 0. -1.
</event>
<event>
 7    1  0.2334784E-009  0.1266855E+03  0.7561462E-02  0.1232458E+00
         -1   -1    0    0    0  501 -0.00000000000E+00  0.00000000000E+00  0.18891598373E+02  0.18891598373E+02  0.00000000000E+00 0.  1.
          1   -1    0    0  501    0  0.00000000000E+00 -0.00000000000E+00 -0.10163125496E+04  0.10163125496E+04  0.00000000000E+00 0. -1.
         25    2    1    2    0    0 -0.29911669434E+02  0.78224720387E+02 -0.50545350094E+03  0.52739542329E+03  0.12509546771E+03 0.  0.
          5    1    3    3  502    0  0.38185576089E+02  0.45402950525E+02 -0.34361019869E+03  0.34871909494E+03  0.41800000000E+01 0.  1.
         -5    1    3    3    0  502 -0.68097245523E+02  0.32821769861E+02 -0.16184330225E+03  0.17867632834E+03  0.41800000000E+01 0.  1.
        -11    1    1    2    0    0 -0.48202558164E+01 -0.82990937786E+02 -0.41484287519E+03  0.42309022881E+03  0.00000000000E+00 0. -1.
         11    1    1    2    0    0  0.34731925250E+02  0.47662173996E+01 -0.77124575125E+02  0.84718495903E+02  0.00000000000E+00 0.  1.
</event>
<event>
 7    1  0.2334784E-009  0.1603630E+03  0.7561462E-02  0.1188288E+00
          2   -1    0    0  501    0  0.00000000000E+00  0.00000000000E+00  0.34334051690E+03  0.34334051690E+03  0.00000000000E+00 0. -1.
         -2   -1    0    0    0  501 -0.00000000000E+00 -0.00000000000E+00 -0.83776491538E+02  0.83776491538E+02  0.00000000000E+00 0.  1.
         25    2    1    2    0    0 -0.10826043218E+03 -0.69352354131E+02  0.16300415608E+03  0.24238061398E+03  0.12509171408E+03 0.  0.
          5    1    3    3  502    0 -0.11774064423E+03 -0.27282935724E+02  0.15769963435E+03  0.19873063418E+03  0.41800000000E+01 0. -1.
         -5    1    3    3    0  502  0.94802120495E+01 -0.42069418408E+02  0.53045217291E+01  0.43649979799E+02  0.41800000000E+01 0. -1.
        -11    1    1    2    0    0  0.85775874292E+02  0.23669054709E+01  0.63366869027E+02  0.10666987833E+03  0.00000000000E+00 0.  1.
         11    1    1    2    0    0  0.22484557886E+02  0.66985448660E+02  0.33193000251E+02  0.78066516134E+02  0.00000000000E+00 0. -1.
</event>
<event>
 7    1  0.2334784E-009  0.1059426E+03  0.7561462E-02  0.1268274E+00
         -1   -1    0    0    0  501 -0.00000000000E+00  0.00000000000E+00  0.36584762498E+02  0.36584762498E+02  0.00000000000E+00 0.  1.
          1   -1    0    0  501    0  0.00000000000E+00 -0.00000000000E+00 -0.54681091359E+03  0.54681091359E+03  0.00000000000E+00 0. -1.
         25    2    1    2    0    0  0.52764921618E+02  0.46604587849E+02 -0.16494728625E+03  0.21866101860E+03  0.12509560046E+03 0.  0.
          5    1    3    3  502    0  0.32775819809E+02  0.64301543700E+02 -0.17537884301E+03  0.18969489677E+03  0.41800000000E+01 0. -1.
         -5    1    3    3    0  502  0.19989101809E+02 -0.17696955851E+02  0.10431556759E+02  0.28966121831E+02  0.41800000000E+01 0. -1.
        -11    1    1    2    0    0  0.68956763191E+01 -0.52193287485E+02 -0.21474353079E+03  0.22110285757E+03  0.00000000000E+00 0.  1.
         11    1    1    2    0    0 -0.59660597938E+02  0.55886996364E+01 -0.13053533405E+03  0.14363179991E+03  0.00000000000E+00 0. -1.
</event>
<event>
 7    1  0.2334784E-009  0.1191480E+03  0.7561462E-02  0.1244509E+00
          4   -1    0    0  501    0  0.00000000000E+00  0.00000000000E+00  0.93713615545E+02  0.93713615545E+02  0.00000000000E+00 0. -1.
         -4   -1    0    0    0  501 -0.00000000000E+00 -0.00000000000E+00 -0.17433678653E+03  0.17433678653E+03  0.00000000000E+00 0.  1.
         25    2    1    2    0    0  0.52463834023E+02 -0.29284105285E+02 -0.10221295821E+02  0.13914633866E+03  0.12508883232E+03 0.  0.
          5    1    3    3  502    0  0.62093868260E+02 -0.67835597326E+02  0.12939515473E+02  0.92963542320E+02  0.41800000000E+01 0.  1.
         -5    1    3    3    0  502 -0.96300342366E+01  0.38551492041E+02 -0.23160811295E+02  0.46182796340E+02  0.41800000000E+01 0.  1.
        -11    1    1    2    0    0  0.72415659481E+01  0.44161243826E+02 -0.41065735234E+02  0.60737552996E+02  0.00000000000E+00 0.  1.
         11    1    1    2    0    0 -0.59705399971E+02 -0.14877138541E+02 -0.29336139934E+02  0.68166510422E+02  0.00000000000E+00 0. -1.
</event>
<event>
 7    1  0.2334784E-009  0.1568697E+03  0.7561462E-02  0.1192277E+00
         -2   -1    0    0    0  501 -0.00000000000E+00  0.00000000000E+00  0.26543018147E+02  0.26543018147E+02  0.00000000000E+00 0.  1.
          2   -1    0    0  501    0  0.00000000000E+00 -0.00000000000E+00 -0.11571977650E+04  0.11571977650E+04  0.00000000000E+00 0. -1.
         25    2    1    2    0    0 -0.10285444641E+03 -0.46747215459E+02 -0.86015989553E+03  0.87652121129E+03  0.12510015450E+03 0.  0.
          5    1    3    3  502    0 -0.38396434125E+02  0.43080031800E+02 -0.28376127205E+03  0.28959990886E+03  0.41800000000E+01 0. -1.
         -5    1    3    3    0  502 -0.64458012282E+02 -0.89827247259E+02 -0.57639862348E+03  0.58692130243E+03  0.41800000000E+01 0. -1.
        -11    1    1    2    0    0  0.67894212758E+02 -0.19236900951E+02 -0.14307260682E+03  0.15952884789E+03  0.00000000000E+00 0.  1.
         11    1    1    2    0    0  0.34960233649E+02  0.65984116410E+02 -0.12742224449E+03  0.14769072397E+03  0.00000000000E+00 0. -1.
</event>
<event>
 7    1  0.2334784E-009  0.1363652E+03  0.7561462E-02  0.1218305E+00
          1   -1    0    0  501    0  0.00000000000E+00  0.00000000000E+00  0.17658740815E+03  0.17658740815E+03  0.00000000000E+00 0. -1.
         -1   -1    0    0    0  501 -0.00000000000E+00 -0.00000000000E+00 -0.14902020998E+03  0.14902020998E+03  0.00000000000E+00 0.  1.
         25    2    1    2    0    0  0.23732597539E+02 -0.11428482118E+03  0.46945066960E+02  0.17741191581E+03  0.12508753743E+03 0.  0.
          5    1    3    3  502    0 -0.10745525177E+02 -0.77082934112E+02 -0.31366623630E+02  0.84015370740E+02  0.41800000000E+01 0. -1.
         -5    1    3    3    0  502  0.34478122715E+02 -0.37201887064E+02  0.78311690590E+02  0.93396545066E+02  0.41800000000E+01 0. -1.
        -11    1    1    2    0    0 -0.40351766700E+02  0.11977803098E+03 -0.66750527543E+01  0.12656855103E+03  0.00000000000E+00 0. -1.
         11    1    1    2    0    0  0.16619169161E+02 -0.54932098025E+01 -0.12702816036E+02  0.21627151287E+02  0.00000000000E+00 0.  1.
</event>
<event>
 7    1  0.2334784E-009  0.9948559E+02  0.7561462E-02  0.1281381E+00
         -1   -1    0    0    0  501 -0.00000000000E+00  0.00000000000E+00  0.15335151429E+03  0.15335151429E+03  0.00000000000E+00 0.  1.
          1   -1    0    0  501    0  0.00000000000E+00 -0.00000000000E+00 -0.10121945703E+03  0.10121945703E+03  0.00000000000E+00 0. -1.
         25    2    1    2    0    0 -0.35317488662E+02 -0.24582261308E+02  0.71684664488E+02  0.15045983266E+03  0.12509139676E+03 0.  0.
          5    1    3    3  502    0  0.70631509966E+01  0.46204166577E+02  0.41066099988E+02  0.62358720956E+02  0.41800000000E+01 0. -1.
         -5    1    3    3    0  502 -0.42380639658E+02 -0.70786427885E+02  0.30618564500E+02  0.88101111699E+02  0.41800000000E+01 0. -1.
        -11    1    1    2    0    0  0.41974728498E+02  0.36603496628E+02 -0.47351270155E+02  0.73101549801E+02  0.00000000000E+00 0. -1.
         11    1    1    2    0    0 -0.66572398367E+01 -0.12021235320E+02  0.27798662932E+02  0.31009588867E+02  0.00000000000E+00 0.  1.
</event>
<event>
 7    1  0.2334784E-009  0.7592547E+02  0.7561462E-02  0.1341029E+00
          1   -1    0    0  501    0  0.00000000000E+00  0.00000000000E+00  0.51092030263E+03  0.51092030263E+03  0.00000000000E+00 0. -1.
         -1   -1    0    0    0  501 -0.00000000000E+00 -0.00000000000E+00 -0.34503550737E+02  0.34503550737E+02  0.00000000000E+00 0.  1.
         25    2    1    2    0    0  0.40554205231E+02  0.16367295446E+02  0.38809823700E+03  0.41009639918E+03  0.12508510357E+03 0.  0.
          5    1    3    3  502    0  0.33683307246E+02  0.52607718833E+02  0.35463234422E+03  0.36011624406E+03  0.41800000000E+01 0. -1.
         -5    1    3    3    0  502  0.68708979858E+01 -0.36240423386E+02  0.33465892779E+02  0.49980155120E+02  0.41800000000E+01 0. -1.
        -11    1    1    2    0    0 -0.45835024115E+01 -0.15475818173E+02 -0.17352432740E+02  0.23698446457E+02  0.00000000000E+00 0.  1.
         11    1    1    2    0    0 -0.35970702820E+02 -0.89147727291E+00  0.10567094764E+03  0.11162900773E+03  0.00000000000E+00 0. -1.
</event>
<event>
 7    1  0.2334784E-009  0.8208772E+02  0.7561462E-02  0.1323229E+00
         -2   -1    0    0    0  501 -0.00000000000E+00  0.00000000000E+00  0.33169495802E+02  0.33169495802E+02  0.00000000000E+00 0.  1.
          2   -1    0    0  501    0  0.00000000000E+00 -0.00000000000E+00 -0.54797485697E+03  0.54797485697E+03  0.00000000000E+00 0. -1.
         25    2    1    2    0    0  0.55613376107E+02  0.18674785524E+02 -0.39815706798E+03  0.42144758569E+03  0.12508965378E+03 0.  0.
          5    1    3    3  502    0  0.77241693734E+02  0.48028035171E+01 -0.12517015159E+03  0.14722223141E+03  0.41800000000E+01 0.  1.
         -5    1    3    3    0  502 -0.21628317627E+02  0.13871982007E+02 -0.27298691639E+03  0.27422535428E+03  0.41800000000E+01 0.  1.
        -11    1    1    2    0    0 -0.29945112906E+02 -0.19613181403E+01 -0.12450880211E+03  0.12807419084E+03  0.00000000000E+00 0. -1.
         11    1    1    2    0    0 -0.25668263201E+02 -0.16713467383E+02  0.78605089245E+01  0.31622576243E+02  0.00000000000E+00 0.  1.
</event>
<event>
 7    1  0.2334784E-009  0.9077650E+02  0.7561462E-02  0.1300982E+00
          2   -1    0    0  501    0  0.00000000000E+00  0.00000000000E+00  0.35382895019E+03  0.35382895019E+03  0.00000000000E+00 0. -1.
         -2   -1    0    0    0  501 -0.00000000000E+00 -0.00000000000E+00 -0.34928952971E+02  0.34928952971E+02  0.00000000000E+00 0.  1.
         25    2    1    2    0    0 -0.43896630561E+01  0.16616564872E+02  0.15277741490E+03  0.19820087641E+03  0.12508904643E+03 0.  0.
          5    1    3    3  502    0  0.51514459806E+02 -0.32542022170E+01  0.11905068601E+03  0.12982629795E+03  0.41800000000E+01 0. -1.
         -5    1    3    3    0  502 -0.55904122863E+02  0.19870767089E+02  0.33726728895E+02  0.68374578460E+02  0.41800000000E+01 0. -1.
        -11    1    1    2    0    0  0.36195781368E+02 -0.12096163132E+02  0.14967869085E+03  0.15446735010E+03  0.00000000000E+00 0. -1.
         11    1    1    2    0    0 -0.31806118312E+02 -0.45204017395E+01  0.16443891462E+02  0.36089676646E+02  0.00000000000E+00 0.  1.
</event>
<event>
 7    1  0.2334784E-009  0.1308320E+03  0.7561462E-02  0.1226226E+00
          2   -1    0    0  501    0  0.00000000000E+00  0.00000000000E+00  0.70396308075E+03  0.70396308075E+03  0.00000000000E+00 0.  1.
         -2   -1    0    0    0  501 -0.00000000000E+00 -0.00000000000E+00 -0.32993802708E+02  0.32993802708E+02  0.00000000000E+00 0. -1.
         25    2    1    2    0    0 -0.47443431440E+02 -0.75274930262E+02  0.49752688797E+03  0.52067015984E+03  0.12508883558E+03 0.  0.
          5    1    3    3  502    0 -0.46427614091E+01 -0.88006250594E+02  0.43418243970E+03  0.44305588668E+03  0.41800000000E+01 0.  1.
         -5    1    3    3    0  502 -0.42800670031E+02  0.12731320332E+02  0.63344448268E+02  0.77614273165E+02  0.41800000000E+01 0.  1.
        -11    1    1    2    0    0  0.49180162564E+02 -0.39541738937E+01  0.56350138473E+02  0.74897676780E+02  0.00000000000E+00 0. -1.
         11    1    1    2    0    0 -0.17367311244E+01  0.79229104156E+02  0.11709225161E+03  0.14138904684E+03  0.00000000000E+00 0.  1.
</event>
<event>
 7    1  0.2628730E-009  0.9762348E+02  0.7561462E-02  0.1285374E+00
         -1   -1    0    0    0  501 -0.00000000000E+00  0.00000000000E+00  0.24901485452E+03  0.24901485452E+03  0.00000000000E+00 0.  1.
          1   -1    0    0  501    0  0.00000000000E+00 -0.00000000000E+00 -0.68872631995E+02  0.68872631995E+02  0.00000000000E+00 0. -1.
         25    2    1    2    0    0 -0.24706912793E+02 -0.34462624718E+02  0.27033449875E+02  0.13482633795E+03  0.12509688225E+03 0.  0.
          5    1    3    3  502    0  0.26937958287E+02 -0.33377119391E+02  0.59652303706E+02  0.73590457485E+02  0.41800000000E+01 0.  1.
         -5    1    3    3    0  502 -0.51644871080E+02 -0.10855053266E+01 -0.32618853830E+02  0.61235880462E+02  0.41800000000E+01 0.  1.
        -11    1    1    2    0    0 -0.34675077990E+02  0.15586866928E+02  0.56353687638E+02  0.67978302160E+02  0.00000000000E+00 0. -1.
         11    1    1    2    0    0  0.59381990783E+02  0.18875757790E+02  0.96755085011E+02  0.11508284641E+03  0.00000000000E+00 0.  1.
</event>
<event>
 7    1  0.2334784E-009  0.1561959E+03  0.7561462E-02  0.1193060E+00
          4   -1    0    0  501    0  0.00000000000E+00  0.00000000000E+00  0.45213774520E+02  0.45213774520E+02  0.00000000000E+00 0. -1.
         -4   -1    0    0    0  501 -0.00000000000E+00 -0.00000000000E+00 -0.75839009896E+03  0.75839009896E+03  0.00000000000E+00 0.  1.
         25    2    1    2    0    0  0.75177882843E+02 -0.12644829431E+03 -0.43913905812E+03  0.47971716451E+03  0.12507821696E+03 0.  0.
          5    1    3    3  502    0  0.89835928323E+02 -0.98026599115E+02 -0.42344566042E+03  0.44385065944E+03  0.41800000000E+01 0.  1.
         -5    1    3    3    0  502 -0.14658045480E+02 -0.28421695192E+02 -0.15693397694E+02  0.35866505071E+02  0.41800000000E+01 0.  1.
        -11    1    1    2    0    0 -0.38558907242E+02  0.65527090950E+02 -0.22509003185E+03  0.23758390395E+03  0.00000000000E+00 0.  1.
         11    1    1    2    0    0 -0.36618975601E+02  0.60921203356E+02 -0.48947234471E+02  0.86302805023E+02  0.00000000000E+00 0. -1.
</event>
<event>
 7    1  0.2334784E-009  0.9613707E+02  0.7561462E-02  0.1288635E+00
          4   -1    0    0  501    0  0.00000000000E+00  0.00000000000E+00  0.25857413295E+02  0.25857413295E+02  0.00000000000E+00 0. -1.
         -4   -1    0    0    0  501 -0.00000000000E+00 -0.00000000000E+00 -0.69769577551E+03  0.69769577551E+03  0.00000000000E+00 0.  1.
         25    2    1    2    0    0  0.28574793618E+02  0.51176178914E+02 -0.22554617183E+03  0.26449649147E+03  0.12510714709E+03 0.  0.
          5    1    3    3  502    0  0.22133904674E+02 -0.89213912355E+01 -0.19526904840E+03  0.19676629443E+03  0.41800000000E+01 0. -1.
         -5    1    3    3    0  502  0.64408889445E+01  0.60097570150E+02 -0.30277123425E+02  0.67730197040E+02  0.41800000000E+01 0. -1.
        -11    1    1    2    0    0 -0.44593797966E+02 -0.69841319072E+02 -0.33879746180E+03  0.34878379663E+03  0.00000000000E+00 0.  1.
         11    1    1    2    0    0  0.16019004347E+02  0.18665140158E+02 -0.10749472859E+03  0.11027290071E+03  0.00000000000E+00 0. -1.
</event>
<event>
 7    1  0.2334784E-009  0.9628064E+02  0.7561462E-02  0.1288318E+00
         -1   -1    0    0    0  501 -0.00000000000E+00  0.00000000000E+00  0.84086048938E+02  0.84086048938E+02  0.00000000000E+00 0.  1.
          1   -1    0    0  501    0  0.00000000000E+00 -0.00000000000E+00 -0.15841124491E+03  0.15841124491E+03  0.00000000000E+00 0. -1.
         25    2    1    2    0    0  0.40177257719E+02  0.11953044123E+02 -0.39755394327E+02  0.13778686893E+03  0.12509053749E+03 0.  0.
          5    1    3    3  502    0  0.42548439732E+02 -0.36182798044E+02 -0.62846961774E+02  0.84183000672E+02  0.41800000000E+01 0.  1.
         -5    1    3    3    0  502 -0.23711820126E+01  0.48135842167E+02  0.23091567447E+02  0.53603868260E+02  0.41800000000E+01 0.  1.
        -11    1    1    2    0    0 -0.56369413290E+02 -0.30061953673E+02 -0.17888291480E+01  0.63909558933E+02  0.00000000000E+00 0.  1.
         11    1    1    2    0    0  0.16192155571E+02  0.18108909550E+02 -0.32780972497E+02  0.40800865983E+02  0.00000000000E+00 0. -1.
</event>
<event>
 7    1  0.2334784E-009  0.2522458E+03  0.7561462E-02  0.1111894E+00
         -2   -1    0    0    0  501 -0.00000000000E+00  0.00000000000E+00  0.57174749409E+02  0.57174749409E+02  0.00000000000E+00 0.  1.
          2   -1    0    0  501    0  0.00000000000E+00 -0.00000000000E+00 -0.12077192331E+04  0.12077192331E+04  0.00000000000E+00 0. -1.
         25    2    1    2    0    0 -0.12745142715E+03  0.19962899463E+03 -0.51402832050E+03  0.57962789476E+03  0.12509108812E+03 0.  0.
          5    1    3    3  502    0 -0.18869036494E+02 -0.12231997583E+02 -0.16957438279E+02  0.28472608171E+02  0.41800000000E+01 0.  1.
         -5    1    3    3    0  502 -0.10858239066E+03  0.21186099221E+03 -0.49707088222E+03  0.55115528659E+03  0.41800000000E+01 0.  1.
        -11    1    1    2    0    0  0.55776868628E+01 -0.51024486578E+02 -0.68363804242E+02  0.85488119360E+02  0.00000000000E+00 0.  1.
         11    1    1    2    0    0  0.12187374029E+03 -0.14860450805E+03 -0.56815235894E+03  0.59977796838E+03  0.00000000000E+00 0. -1.
</event>
<event>
 7    1  0.2334784E-009  0.2387369E+03  0.7561462E-02  0.1120637E+00
          2   -1    0    0  501    0  0.00000000000E+00  0.00000000000E+00  0.27605286559E+03  0.27605286559E+03  0.00000000000E+00 0.  1.
         -2   -1    0    0    0  501 -0.00000000000E+00 -0.00000000000E+00 -0.26322467216E+03  0.26322467216E+03  0.00000000000E+00 0. -1.
         25    2    1    2    0    0 -0.23037079222E+03  0.15619927427E+02 -0.80003220446E+02  0.27452249102E+03  0.12508956292E+03 0.  0.
          5    1    3    3  502    0 -0.22200354182E+02 -0.10527173166E+02 -0.58485540566E+02  0.63574428475E+02  0.41800000000E+01 0.  1.
         -5    1    3    3    0  502 -0.20817043804E+03  0.26147100593E+02 -0.21517679880E+02  0.21094806254E+03  0.41800000000E+01 0.  1.
        -11    1    1    2    0    0  0.21446521476E+03 -0.35351409194E+02  0.64468158246E+02  0.22671831400E+03  0.00000000000E+00 0. -1.
         11    1    1    2    0    0  0.15905577456E+02  0.19731481767E+02  0.28363255631E+02  0.38036732732E+02  0.00000000000E+00 0.  1.
</event>
<event>
 7    1  0.3312259E-009  0.9872693E+02  0.7561462E-02  0.1282996E+00
          2   -1    0    0  501    0  0.00000000000E+00  0.00000000000E+00  0.62854640378E+03  0.62854640378E+03  0.00000000000E+00 0.  1.
         -2   -1    0    0    0  501 -0.00000000000E+00 -0.00000000000E+00 -0.35463557208E+02  0.35463557208E+02  0.00000000000E+00 0. -1.
         25    2    1    2    0    0 -0.88036288098E+02  0.40969508019E+02  0.25090968774E+03  0.29669696410E+03  0.12507808958E+03 0.  0.
          5    1    3    3  502    0 -0.35314671288E+02  0.29078002727E+02  0.65545923922E+01  0.46401415196E+02  0.41800000000E+01 0.  1.
         -5    1    3    3    0  502 -0.52721616810E+02  0.11891505292E+02  0.24435509535E+03  0.25029554890E+03  0.41800000000E+01 0.  1.
        -11    1    1    2    0    0  0.73780954138E+02 -0.31676654883E+02  0.34092262391E+03  0.35025030357E+03  0.00000000000E+00 0.  1.
         11    1    1    2    0    0  0.14255333960E+02 -0.92928531361E+01  0.12505349219E+01  0.17062693320E+02  0.00000000000E+00 0. -1.
</event>
<event>
 7    1  0.2334784E-009  0.5994704E+02  0.7561462E-02  0.1398054E+00
         -2   -1    0    0    0  501 -0.00000000000E+00  0.00000000000E+00  0.12879777595E+03  0.12879777595E+03  0.00000000000E+00 0. -1.
          2   -1    0    0  501    0  0.00000000000E+00 -0.00000000000E+00 -0.12591909936E+03  0.12591909936E+03  0.00000000000E+00 0.  1.
         25    2    1    2    0    0  0.69933065027E+00 -0.40592296594E+02  0.60266606515E+02  0.14466628530E+03  0.12509215258E+03 0.  0.
          5    1    3    3  502    0 -0.87635891148E+01 -0.30243107942E+02 -0.35587872487E+02  0.47701311725E+02  0.41800000000E+01 0.  1.
         -5    1    3    3    0  502  0.94629197650E+01 -0.10349188653E+02  0.95854479002E+02  0.96964973578E+02  0.41800000000E+01 0.  1.
        -11    1    1    2    0    0 -0.30960297696E+02  0.22010981522E+02 -0.63522266246E+02  0.74014198975E+02  0.00000000000E+00 0.  1.
         11    1    1    2    0    0  0.30260967046E+02  0.18581315072E+02  0.61343363201E+01  0.36036391030E+02  0.00000000000E+00 0. -1.
</event>
<event>
 7    1  0.2334784E-009  0.1313817E+03  0.7561462E-02  0.1225420E+00
         -1   -1    0    0    0  501 -0.00000000000E+00  0.00000000000E+00  0.11286379034E+02  0.11286379034E+02  0.00000000000E+00 0.  1.
          1   -1    0    0  501    0  0.00000000000E+00 -0.00000000000E+00 -0.20372656858E+04  0.20372656858E+04  0.00000000000E+00 0. -1.
         25    2    1    2    0    0 -0.52500145998E+02 -0.57027482436E+02 -0.15771665445E+04  0.15840172426E+04  0.12509163323E+03 0.  0.
          5    1    3    3  502    0 -0.22942245364E+02 -0.94203745758E+02 -0.91358020607E+03  0.91872028260E+03  0.41800000000E+01 0.  1.
         -5    1    3    3    0  502 -0.29557900635E+02  0.37176263322E+02 -0.66358633845E+03  0.66529696003E+03  0.41800000000E+01 0.  1.
        -11    1    1    2    0    0  0.77409548010E+02  0.50010340078E+02 -0.31331004489E+03  0.32658300089E+03  0.00000000000E+00 0.  1.
         11    1    1    2    0    0 -0.24909402012E+02  0.70171423578E+01 -0.13550271734E+03  0.13795182131E+03  0.00000000000E+00 0. -1.
</event>
<event>
 7    1  0.2334784E-009  0.1544028E+03  0.7561462E-02  0.1195165E+00
         -2   -1    0    0    0  501 -0.00000000000E+00  0.00000000000E+00  0.70290528601E+02  0.70290528601E+02  0.00000000000E+00 0.  1.
          2   -1    0    0  501    0  0.00000000000E+00 -0.00000000000E+00 -0.39199524481E+03  0.39199524481E+03  0.00000000000E+00 0. -1.
         25    2    1    2    0    0 -0.76156089051E+02 -0.91971915852E+02 -0.22690908044E+03  0.28529682811E+03  0.12509183081E+03 0.  0.
          5    1    3    3  502    0  0.21900387004E+02  0.11934598146E+02 -0.14129904819E+02  0.28968745123E+02  0.41800000000E+01 0.  1.
         -5    1    3    3    0  502 -0.98056476054E+02 -0.10390651400E+03 -0.21277917563E+03  0.25632808299E+03  0.41800000000E+01 0.  1.
        -11    1    1    2    0    0  0.70383071978E+02  0.27040796759E+02 -0.20472213795E+02  0.78128695421E+02  0.00000000000E+00 0.  1.
         11    1    1    2    0    0  0.57730170723E+01  0.64931119094E+02 -0.74323421966E+02  0.98860249877E+02  0.00000000000E+00 0. -1.
</event>
<event>
 7    1  0.2334784E-009  0.7568817E+02  0.7561462E-02  0.1341753E+00
         -2   -1    0    0    0  501 -0.00000000000E+00  0.00000000000E+00  0.41399026636E+02  0.41399026636E+02  0.00000000000E+00 0.  1.
          2   -1    0    0  501    0  0.00000000000E+00 -0.00000000000E+00 -0.35272026442E+03  0.35272026442E+03  0.00000000000E+00 0. -1.
         25    2    1    2    0    0 -0.47101589608E+02 -0.10569541101E+02 -0.24541539660E+03  0.27965494005E+03  0.12509154113E+03 0.  0.
          5    1    3    3  502    0 -0.65825006832E+02 -0.87539649232E+01 -0.25093798197E+03  0.25960914202E+03  0.41800000000E+01 0.  1.
         -5    1    3    3    0  502  0.18723417224E+02 -0.18155761776E+01  0.55225853684E+01  0.20045798027E+02  0.41800000000E+01 0.  1.
        -11    1    1    2    0    0 -0.94156739895E+00  0.17064200294E+02 -0.63679679224E+02  0.65933110248E+02  0.00000000000E+00 0. -1.
         11    1    1    2    0    0  0.48043157007E+02 -0.64946591937E+01 -0.22261619653E+01  0.48531240767E+02  0.00000000000E+00 0.  1.
</event>
<event>
 7    1  0.2334784E-009  0.1191968E+03  0.7561462E-02  0.1244428E+00
         -2   -1    0    0    0  501 -0.00000000000E+00  0.00000000000E+00  0.28379660575E+02  0.28379660575E+02  0.00000000000E+00 0.  1.
          2   -1    0    0  501    0  0.00000000000E+00 -0.00000000000E+00 -0.65562438011E+03  0.65562438011E+03  0.00000000000E+00 0. -1.
         25    2    1    2    0    0  0.52080491163E+02 -0.20723949799E+02 -0.49886423540E+03  0.51735422807E+03  0.12509201528E+03 0.  0.
          5    1    3    3  502    0  0.84873800495E+02 -0.40041064315E+02 -0.28478735656E+03  0.29988024226E+03  0.41800000000E+01 0. -1.
         -5    1    3    3    0  502 -0.32793309332E+02  0.19317114516E+02 -0.21407687884E+03  0.21747398581E+03  0.41800000000E+01 0. -1.
        -11    1    1    2    0    0 -0.11157462791E+02 -0.35167781752E+02 -0.47917924754E+02  0.60476353743E+02  0.00000000000E+00 0. -1.
         11    1    1    2    0    0 -0.40923028372E+02  0.55891731551E+02 -0.80462559382E+02  0.10617345887E+03  0.00000000000E+00 0.  1.
</event>
<event>
 7    1  0.2334784E-009  0.1085184E+03  0.7561462E-02  0.1263338E+00
         -1   -1    0    0    0  501 -0.00000000000E+00  0.00000000000E+00  0.59887778586E+02  0.59887778586E+02  0.00000000000E+00 0.  1.
          1   -1    0    0  501    0  0.00000000000E+00 -0.00000000000E+00 -0.22974423392E+03  0.22974423392E+03  0.00000000000E+00 0. -1.
         25    2    1    2    0    0 -0.38696869539E+02  0.12962529913E+02 -0.71847030844E+02  0.14991683728E+03  0.12509031683E+03 0.  0.
          5    1    3    3  502    0 -0.65134978618E+02 -0.27207232222E+02 -0.99289042960E+01  0.71406263488E+02  0.41800000000E+01 0.  1.
         -5    1    3    3    0  502  0.26438109079E+02  0.40169762135E+02 -0.61918126548E+02  0.78510573790E+02  0.41800000000E+01 0.  1.
        -11    1    1    2    0    0  0.67918523039E+02 -0.75778244620E+01 -0.56525357025E+02  0.88687457863E+02  0.00000000000E+00 0.  1.
         11    1    1    2    0    0 -0.29221653500E+02 -0.53847054513E+01 -0.41484067467E+02  0.51027717366E+02  0.00000000000E+00 0. -1.
</event>
<event>
 7    1  0.2334784E-009  0.1485174E+03  0.7561462E-02  0.1202307E+00
         -1   -1    0    0    0  501 -0.00000000000E+00  0.00000000000E+00  0.22275813703E+02  0.22275813703E+02  0.00000000000E+00 0.  1.
          1   -1    0    0  501    0  0.00000000000E+00 -0.00000000000E+00 -0.12741831635E+04  0.12741831635E+04  0.00000000000E+00 0. -1.
         25    2    1    2    0    0  0.83088754116E+02 -0.95475739683E+02 -0.61127558573E+03  0.63665120015E+03  0.12509017154E+03 0.  0.
          5    1    3    3  502    0  0.67184147166E+01  0.80138340554E+01  0.70802383777E+00  0.11284162810E+02  0.41800000000E+01 0. -1.
         -5    1    3    3    0  502  0.76370339399E+02 -0.10348957374E+03 -0.61198360957E+03  0.62536703734E+03  0.41800000000E+01 0. -1.
        -11    1    1    2    0    0 -0.10381737314E+03  0.76194378072E+02 -0.54906697888E+03  0.56396646843E+03  0.00000000000E+00 0. -1.
         11    1    1    2    0    0  0.20728619026E+02  0.19281361612E+02 -0.91564785175E+02  0.95841308613E+02  0.00000000000E+00 0.  1.
</event>
<event>
 7    1  0.2334784E-009  0.1674319E+03  0.7561462E-02  0.1180553E+00
         -1   -1    0    0    0  501 -0.00000000000E+00  0.00000000000E+00  0.33311179503E+02  0.33311179503E+02  0.00000000000E+00 0.  1.
          1   -1    0    0  501    0  0.00000000000E+00 -0.00000000000E+00 -0.94699130164E+03  0.94699130164E+03  0.00000000000E+00 0. -1.
         25    2    1    2    0    0 -0.12417307070E+03 -0.51171688422E+02 -0.58411853123E+03  0.61227577963E+03  0.12509867547E+03 0.  0.
          5    1    3    3  502    0 -0.93307604299E+02 -0.90146327401E+02 -0.47265128774E+03  0.49015240647E+03  0.41800000000E+01 0.  1.
         -5    1    3    3    0  502 -0.30865466402E+02  0.38974638980E+02 -0.11146724350E+03  0.12212337316E+03  0.41800000000E+01 0.  1.
        -11    1    1    2    0    0  0.12770181609E+03  0.26730354762E+02 -0.22053233544E+03  0.25623578336E+03  0.00000000000E+00 0.  1.
         11    1    1    2    0    0 -0.35287453948E+01  0.24441333660E+02 -0.10902925546E+03  0.11179091815E+03  0.00000000000E+00 0. -1.
</event>
<event>
 7    1  0.2334784E-009  0.1079376E+03  0.7561462E-02  0.1264437E+00
          2   -1    0    0  501    0  0.00000000000E+00  0.00000000000E+00  0.11327098603E+03  0.11327098603E+03  0.00000000000E+00 0. -1.
         -2   -1    0    0    0  501 -0.00000000000E+00 -0.00000000000E+00 -0.15586601286E+03  0.15586601286E+03  0.00000000000E+00 0.  1.
         25    2    1    2    0    0 -0.22492816097E+02 -0.71904189158E+02 -0.36168956884E+02  0.15044070496E+03  0.12509225825E+03 0.  0.
          5    1    3    3  502    0 -0.53706633614E+02 -0.78364096187E+02  0.84257559178E+01  0.95466223494E+02  0.41800000000E+01 0. -1.
         -5    1    3    3    0  502  0.31213817517E+02  0.64599070294E+01 -0.44594712802E+02  0.54974481468E+02  0.41800000000E+01 0. -1.
        -11    1    1    2    0    0  0.36527621686E+02  0.59930049434E+02 -0.39711231595E+02  0.80640311792E+02  0.00000000000E+00 0.  1.
         11    1    1    2    0    0 -0.14034805589E+02  0.11974139724E+02  0.33285161648E+02  0.38055982132E+02  0.00000000000E+00 0. -1.
</event>
<event>
 7    1  0.2334784E-009  0.2995606E+03  0.7561462E-02  0.1085460E+00
         -2   -1    0    0    0  501 -0.00000000000E+00  0.00000000000E+00  0.11070238937E+03  0.11070238937E+03  0.00000000000E+00 0.  1.
          2   -1    0    0  501    0  0.00000000000E+00 -0.00000000000E+00 -0.95456036617E+03  0.95456036617E+03  0.00000000000E+00 0. -1.
         25    2    1    2    0    0 -0.24615807341E+03  0.14838401368E+03 -0.60003285441E+03  0.67697781156E+03  0.12509163986E+03 0.  0.
          5    1    3    3  502    0 -0.68062736587E+02 -0.13171973071E+02 -0.18055388501E+03  0.19345080713E+03  0.41800000000E+01 0. -1.
         -5    1    3    3    0  502 -0.17809533682E+03  0.16155598675E+03 -0.41947896939E+03  0.48352700443E+03  0.41800000000E+01 0. -1.
        -11    1    1    2    0    0  0.20732555522E+03 -0.11052692684E+03 -0.23683718394E+03  0.33360446505E+03  0.00000000000E+00 0.  1.
         11    1    1    2    0    0  0.38832518183E+02 -0.37857086839E+02 -0.69879384581E+01  0.54680478932E+02  0.00000000000E+00 0. -1.
</event>
<event>
 7    1  0.2334784E-009  0.1102844E+03  0.7561462E-02  0.1260044E+00
         -1   -1    0    0    0  501 -0.00000000000E+00  0.00000000000E+00  0.14831870538E+03  0.14831870538E+03  0.00000000000E+00 0.  1.
          1   -1    0    0  501    0  0.00000000000E+00 -0.00000000000E+00 -0.11671733058E+03  0.11671733058E+03  0.00000000000E+00 0. -1.
         25    2    1    2    0    0 -0.58254198147E+02 -0.99236826483E+01  0.62094879582E+02  0.15165887825E+03  0.12511039206E+03 0.  0.
          5    1    3    3  502    0 -0.69692502530E+02  0.27059554857E+02 -0.39593489314E+01  0.74982753096E+02  0.41800000000E+01 0.  1.
         -5    1    3    3    0  502  0.11438304383E+02 -0.36983237505E+02  0.66054228513E+02  0.76676125150E+02  0.41800000000E+01 0.  1.
        -11    1    1    2    0    0  0.20560992845E+02  0.48586314909E+02 -0.27007177771E+02  0.59268643264E+02  0.00000000000E+00 0. -1.
         11    1    1    2    0    0  0.37693205302E+02 -0.38662632261E+02 -0.34863270146E+01  0.54108514444E+02  0.00000000000E+00 0.  1.
</event>
<event>
 7    1  0.2334784E-009  0.1493861E+03  0.7561462E-02  0.1201229E+00
          2   -1    0    0  501    0  0.00000000000E+00  0.00000000000E+00  0.69624834618E+03  0.69624834618E+03  0.00000000000E+00 0. -1.
         -2   -1    0    0    0  501 -0.00000000000E+00 -0.00000000000E+00 -0.44075286657E+02  0.44075286657E+02  0.00000000000E+00 0.  1.
         25    2    1    2    0    0  0.77838185615E+01  0.11962289338E+03  0.48801182217E+03  0.51785421420E+03  0.12508886497E+03 0.  0.
          5    1    3    3  502    0  0.42512975505E+02  0.12829620666E+03  0.41420872744E+03  0.43572194346E+03  0.41800000000E+01 0.  1.
         -5    1    3    3    0  502 -0.34729156943E+02 -0.86733132802E+01  0.73803094733E+02  0.82132270743E+02  0.41800000000E+01 0.  1.
        -11    1    1    2    0    0 -0.23332294195E+02 -0.39350790484E+02  0.12237481673E+03  0.13064637934E+03  0.00000000000E+00 0.  1.
         11    1    1    2    0    0  0.15548475633E+02 -0.80272102893E+02  0.41786420625E+02  0.91823039298E+02  0.00000000000E+00 0. -1.
</event>
<event>
 7    1  0.2334784E-009  0.1419639E+03  0.7561462E-02  0.1210711E+00
         -2   -1    0    0    0  501 -0.00000000000E+00  0.00000000000E+00  0.79170651037E+02  0.79170651037E+02  0.00000000000E+00 0.  1.
          2   -1    0    0  501    0  0.00000000000E+00 -0.00000000000E+00 -0.29834767928E+03  0.29834767928E+03  0.00000000000E+00 0. -1.
         25    2    1    2    0    0  0.11289255517E+02 -0.92858811311E+02 -0.48667069358E+02  0.16360233065E+03  0.12508810025E+03 0.  0.
          5    1    3    3  502    0  0.67093468285E+02 -0.37840583925E+02 -0.31152674411E+02  0.83194980625E+02  0.41800000000E+01 0.  1.
         -5    1    3    3    0  502 -0.55804212768E+02 -0.55018227386E+02 -0.17514394948E+02  0.80407350023E+02  0.41800000000E+01 0.  1.
        -11    1    1    2    0    0  0.38478488686E+02  0.35297552106E+02 -0.57444078015E+02  0.77629462031E+02  0.00000000000E+00 0. -1.
         11    1    1    2    0    0 -0.49767744203E+02  0.57561259206E+02 -0.11306588087E+03  0.13628653764E+03  0.00000000000E+00 0.  1.
</event>
<event>
 7    1  0.2334784E-009  0.9281634E+02  0.7561462E-02  0.1296171E+00
          1   -1    0    0  501    0  0.00000000000E+00  0.00000000000E+00  0.18021643378E+04  0.18021643378E+04  0.00000000000E+00 0. -1.
         -1   -1    0    0    0  501 -0.00000000000E+00 -0.00000000000E+00 -0.99518984733E+01  0.99518984733E+01  0.00000000000E+00 0.  1.
         25    2    1    2    0    0  0.22946386213E+02 -0.20359844810E+02  0.14970086206E+04  0.15025390113E+04  0.12509040968E+03 0.  0.
          5    1    3    3  502    0  0.56320997194E+02 -0.14039599229E+02  0.33434524842E+03  0.33937204159E+03  0.41800000000E+01 0. -1.
         -5    1    3    3    0  502 -0.33374610982E+02 -0.63202455811E+01  0.11626633721E+04  0.11631669697E+04  0.41800000000E+01 0. -1.
        -11    1    1    2    0    0 -0.39081577455E+02 -0.24101209207E+02  0.14870846448E+03  0.15563561735E+03  0.00000000000E+00 0. -1.
         11    1    1    2    0    0  0.16135191242E+02  0.44461054017E+02  0.14649535424E+03  0.15394160755E+03  0.00000000000E+00 0.  1.
</event>
<event>
 7    1  0.2334784E-009  0.1918486E+03  0.7561462E-02  0.1156805E+00
         -3   -1    0    0    0  501 -0.00000000000E+00  0.00000000000E+00  0.22854396643E+03  0.22854396643E+03  0.00000000000E+00 0.  1.
          3   -1    0    0  501    0  0.00000000000E+00 -0.00000000000E+00 -0.18980148610E+03  0.18980148610E+03  0.00000000000E+00 0. -1.
         25    2    1    2    0    0 -0.15436798770E+03  0.50020219419E+02  0.90185010667E+02  0.22385634638E+03  0.12508728828E+03 0.  0.
          5    1    3    3  502    0 -0.17222489460E+03  0.58814160627E+02  0.69520931059E+02  0.19486187946E+03  0.41800000000E+01 0.  1.
         -5    1    3    3    0  502  0.17856906903E+02 -0.87939412084E+01  0.20664079608E+02  0.28994466923E+02  0.41800000000E+01 0.  1.
        -11    1    1    2    0    0  0.18004736527E+02 -0.40857771610E+02  0.81579743213E+01  0.45388110594E+02  0.00000000000E+00 0.  1.
         11    1    1    2    0    0  0.13636325117E+03 -0.91624478090E+01 -0.59600504651E+02  0.14910099555E+03  0.00000000000E+00 0. -1.
</event>
<event>
 7    1  0.2334784E-009  0.1841863E+03  0.7561462E-02  0.1163812E+00
          1   -1    0    0  501    0  0.00000000000E+00  0.00000000000E+00  0.70907617483E+03  0.70907617483E+03  0.00000000000E+00 0. -1.
         -1   -1    0    0    0  501 -0.00000000000E+00 -0.00000000000E+00 -0.57552782955E+02  0.57552782955E+02  0.00000000000E+00 0.  1.
         25    2    1    2    0    0 -0.15059351401E+03  0.75349825903E+02  0.29398874926E+03  0.36115483113E+03  0.12508966636E+03 0.  0.
          5    1    3    3  502    0 -0.11330173967E+02 -0.24101949606E+02  0.94596115470E+02  0.98362463770E+02  0.41800000000E+01 0. -1.
         -5    1    3    3    0  502 -0.13926334004E+03  0.99451775509E+02  0.19939263379E+03  0.26279236736E+03  0.41800000000E+01 0. -1.
        -11    1    1    2    0    0  0.48565309462E+02 -0.37703094262E+02  0.49904541384E+02  0.79186967683E+02  0.00000000000E+00 0.  1.
         11    1    1    2    0    0  0.10202820455E+03 -0.37646731641E+02  0.30763010123E+03  0.32628715897E+03  0.00000000000E+00 0. -1.
</event>
<event>
 7    1  0.2334784E-009  0.1296082E+03  0.7561462E-02  0.1228038E+00
          1   -1    0    0  501    0  0.00000000000E+00  0.00000000000E+00  0.10643555444E+04  0.10643555444E+04  0.00000000000E+00 0. -1.
         -1   -1    0    0    0  501 -0.00000000000E+00 -0.00000000000E+00 -0.18040289506E+02  0.18040289506E+02  0.00000000000E+00 0.  1.
         25    2    1    2    0    0  0.76084748078E+02  0.61913967631E+02  0.77376019444E+03  0.78992052625E+03  0.12508945206E+03 0.  0.
          5    1    3    3  502    0  0.98940424494E+02  0.71399305290E+01  0.46540676254E+03  0.47587930532E+03  0.41800000000E+01 0.  1.
         -5    1    3    3    0  502 -0.22855676416E+02  0.54774037102E+02  0.30835343189E+03  0.31404122093E+03  0.41800000000E+01 0.  1.
        -11    1    1    2    0    0 -0.11560131721E+02 -0.21169329448E+02  0.11384174166E+03  0.11636889318E+03  0.00000000000E+00 0. -1.
         11    1    1    2    0    0 -0.64524616357E+02 -0.40744638183E+02  0.15871331877E+03  0.17610641445E+03  0.00000000000E+00 0.  1.
</event>
<event>
 7    1  0.2334784E-009  0.1707518E+03  0.7561462E-02  0.1177066E+00
          1   -1    0    0  501    0  0.00000000000E+00  0.00000000000E+00  0.93085016746E+03  0.93085016746E+03  0.00000000000E+00 0. -1.
         -1   -1    0    0    0  501 -0.00000000000E+00 -0.00000000000E+00 -0.32907468251E+02  0.32907468251E+02  0.00000000000E+00 0.  1.
         25    2    1    2    0    0 -0.90188526547E+00  0.13243421353E+03  0.56778672865E+03  0.59629570892E+03  0.12508864434E+03 0.  0.
          5    1    3    3  502    0  0.28782042648E+02 -0.13239846244E+02  0.74197725436E+02  0.80786597697E+02  0.41800000000E+01 0. -1.
         -5    1    3    3    0  502 -0.29683927914E+02  0.14567405978E+03  0.49358900321E+03  0.51550911123E+03  0.41800000000E+01 0. -1.
        -11    1    1    2    0    0  0.44665179209E+02 -0.86657351301E+02  0.21408269094E+03  0.23523578241E+03  0.00000000000E+00 0. -1.
         11    1    1    2    0    0 -0.43763293944E+02 -0.45776862234E+02  0.11607327962E+03  0.13222614437E+03  0.00000000000E+00 0.  1.
</event>
<event>
 7    1  0.2334784E-009  0.9818116E+02  0.7561462E-02  0.1284168E+00
          2   -1    0    0  501    0  0.00000000000E+00  0.00000000000E+00  0.61861040974E+03  0.61861040974E+03  0.00000000000E+00 0. -1.
         -2   -1    0    0    0  501 -0.00000000000E+00 -0.00000000000E+00 -0.20741386903E+02  0.20741386903E+02  0.00000000000E+00 0.  1.
         25    2    1    2    0    0  0.45427637784E+01  0.33928557836E+02  0.34949828968E+03  0.37278406255E+03  0.12508844496E+03 0.  0.
          5    1    3    3  502    0 -0.37307029845E+02 -0.15283050041E+02  0.25523157675E+03  0.25842990590E+03  0.41800000000E+01 0. -1.
         -5    1    3    3    0  502  0.41849793624E+02  0.49211607877E+02  0.94266712931E+02  0.11435415665E+03  0.41800000000E+01 0. -1.
        -11    1    1    2    0    0 -0.10455210043E+02 -0.61761825391E+02  0.12327998590E+03  0.13828155848E+03  0.00000000000E+00 0. -1.
         11    1    1    2    0    0  0.59124462643E+01  0.27833267555E+02  0.12509074726E+03  0.12828617561E+03  0.00000000000E+00 0.  1.
</event>
<event>
 7    1  0.2334784E-009  0.1920842E+03  0.7561462E-02  0.1156595E+00
          2   -1    0    0  501    0  0.00000000000E+00  0.00000000000E+00  0.16585773069E+03  0.16585773069E+03  0.00000000000E+00 0. -1.
         -2   -1    0    0    0  501 -0.00000000000E+00 -0.00000000000E+00 -0.23238822895E+03  0.23238822895E+03  0.00000000000E+00 0.  1.
         25    2    1    2    0    0 -0.24895345449E+02 -0.15636474839E+03 -0.74216168767E+02  0.21500080469E+03  0.12509034153E+03 0.  0.
          5    1    3    3  502    0  0.50204476712E+02 -0.76150588364E+02 -0.41337852135E+02  0.10022819967E+03  0.41800000000E+01 0. -1.
         -5    1    3    3    0  502 -0.75099822161E+02 -0.80214160028E+02 -0.32878316632E+02  0.11477260502E+03  0.41800000000E+01 0. -1.
        -11    1    1    2    0    0  0.33273652321E+00  0.15826310152E+03  0.38329473900E+01  0.15830985914E+03  0.00000000000E+00 0.  1.
         11    1    1    2    0    0  0.24562608926E+02 -0.18983531252E+01  0.38527231153E+01  0.24935295812E+02  0.00000000000E+00 0. -1.
</event>
<event>
 7    1  0.2334784E-009  0.1450920E+03  0.7561462E-02  0.1206637E+00
         -2   -1    0    0    0  501 -0.00000000000E+00  0.00000000000E+00  0.12442303957E+04  0.12442303957E+04  0.00000000000E+00 0.  1.
          2   -1    0    0  501    0  0.00000000000E+00 -0.00000000000E+00 -0.20780830820E+02  0.20780830820E+02  0.00000000000E+00 0. -1.
         25    2    1    2    0    0  0.54776945411E+02 -0.10059219965E+03  0.74228837600E+03  0.76141887036E+03  0.12508940245E+03 0.  0.
          5    1    3    3  502    0 -0.54344253476E+01 -0.84354678901E+02  0.22539793196E+03  0.24076325501E+03  0.41800000000E+01 0. -1.
         -5    1    3    3    0  502  0.60211370759E+02 -0.16237520752E+02  0.51689044404E+03  0.52065561534E+03  0.41800000000E+01 0. -1.
        -11    1    1    2    0    0  0.14992341032E+02  0.61027724750E+02  0.28137859902E+03  0.28831071687E+03  0.00000000000E+00 0.  1.
         11    1    1    2    0    0 -0.69769286443E+02  0.39564474902E+02  0.19978258984E+03  0.21528163928E+03  0.00000000000E+00 0. -1.
</event>
<event>
 7    1  0.2334784E-009  0.7191551E+02  0.7561462E-02  0.1353698E+00
          3   -1    0    0  501    0  0.00000000000E+00  0.00000000000E+00  0.12100768997E+03  0.12100768997E+03  0.00000000000E+00 0. -1.
         -3   -1    0    0    0  501 -0.00000000000E+00 -0.00000000000E+00 -0.11335359253E+03  0.11335359253E+03  0.00000000000E+00 0.  1.
         25    2    1    2    0    0  0.22627522918E+02 -0.33614010913E+02 -0.18743694134E+02  0.13282131635E+03  0.12509304331E+03 0.  0.
          5    1    3    3  502    0 -0.20239939920E+02 -0.12652385769E+02  0.46172720316E+02  0.52145282960E+02  0.41800000000E+01 0. -1.
         -5    1    3    3    0  502  0.42867462838E+02 -0.20961625145E+02 -0.64916414450E+02  0.80676033392E+02  0.41800000000E+01 0. -1.
        -11    1    1    2    0    0 -0.39005028956E+02  0.58190702436E+01  0.48443158550E+02  0.62465938500E+02  0.00000000000E+00 0. -1.
         11    1    1    2    0    0  0.16377506038E+02  0.27794940670E+02 -0.22045366977E+02  0.39074027640E+02  0.00000000000E+00 0.  1.
</event>
<event>
 7    1  0.2334784E-009  0.2073727E+03  0.7561462E-02  0.1143664E+00
         -3   -1    0    0    0  501 -0.00000000000E+00  0.00000000000E+00  0.13364888608E+04  0.13364888608E+04  0.00000000000E+00 0.  1.
          3   -1    0    0  501    0  0.00000000000E+00 -0.00000000000E+00 -0.47169593444E+02  0.47169593444E+02  0.00000000000E+00 0. -1.
         25    2    1    2    0    0  0.19136406590E+03  0.54705082096E+02  0.95738164821E+03  0.98581974122E+03  0.12509232640E+03 0.  0.
          5    1    3    3  502    0  0.44798362421E+02  0.21921561896E+01  0.51227238483E+03  0.51424912978E+03  0.41800000000E+01 0. -1.
         -5    1    3    3    0  502  0.14656570348E+03  0.52512925907E+02  0.44510926338E+03  0.47157061144E+03  0.41800000000E+01 0. -1.
        -11    1    1    2    0    0 -0.65693612772E+02  0.18844080031E+02  0.14977780381E+03  0.16463335211E+03  0.00000000000E+00 0.  1.
         11    1    1    2    0    0 -0.12567045313E+03 -0.73549162128E+02  0.18215981535E+03  0.23320536093E+03  0.00000000000E+00 0. -1.
</event>
<event>
 7    1  0.2334784E-009  0.1871309E+03  0.7561462E-02  0.1161075E+00
         -2   -1    0    0    0  501 -0.00000000000E+00  0.00000000000E+00  0.27483196559E+02  0.27483196559E+02  0.00000000000E+00 0.  1.
          2   -1    0    0  501    0  0.00000000000E+00 -0.00000000000E+00 -0.15572573125E+04  0.15572573125E+04  0.00000000000E+00 0. -1.
         25    2    1    2    0    0 -0.12569443512E+03 -0.11415688377E+03 -0.96619477917E+03  0.98894475652E+03  0.12509394474E+03 0.  0.
          5    1    3    3  502    0 -0.30746576365E+01  0.21160553565E+02 -0.20439337629E+03  0.20555132502E+03  0.41800000000E+01 0.  1.
         -5    1    3    3    0  502 -0.12261977749E+03 -0.13531743734E+03 -0.76180140289E+03  0.78339343150E+03  0.41800000000E+01 0.  1.
        -11    1    1    2    0    0  0.91591989029E+02  0.81614148436E+02 -0.50947622420E+03  0.52403815196E+03  0.00000000000E+00 0. -1.
         11    1    1    2    0    0  0.34102446093E+02  0.32542735335E+02 -0.54103112575E+02  0.71757600593E+02  0.00000000000E+00 0.  1.
</event>
<event>
 7    1  0.2334784E-009  0.1218701E+03  0.7561462E-02  0.1240043E+00
          2   -1    0    0  501    0  0.00000000000E+00  0.00000000000E+00  0.19869859520E+03  0.19869859520E+03  0.00000000000E+00 0. -1.
         -2   -1    0    0    0  501 -0.00000000000E+00 -0.00000000000E+00 -0.90558688809E+02  0.90558688809E+02  0.00000000000E+00 0.  1.
         25    2    1    2    0    0 -0.21908170289E+02 -0.76999038603E+02  0.60547790844E+02  0.16039861224E+03  0.12511139022E+03 0.  0.
          5    1    3    3  502    0 -0.53615364536E+02 -0.96038123243E+02  0.54017739517E+02  0.12261042783E+03  0.41800000000E+01 0.  1.
         -5    1    3    3    0  502  0.31707194246E+02  0.19039084640E+02  0.65300513276E+01  0.37788184413E+02  0.41800000000E+01 0.  1.
        -11    1    1    2    0    0 -0.13741743085E+02  0.26480514383E+01 -0.18490853955E+02  0.23189639054E+02  0.00000000000E+00 0.  1.
         11    1    1    2    0    0  0.35649913375E+02  0.74350987164E+02  0.66082969501E+02  0.10566903271E+03  0.00000000000E+00 0. -1.
</event>
<event>
 7    1  0.2334784E-009  0.1553001E+03  0.7561462E-02  0.1194107E+00
         -2   -1    0    0    0  501 -0.00000000000E+00  0.00000000000E+00  0.19764876282E+02  0.19764876282E+02  0.00000000000E+00 0. -1.
          2   -1    0    0  501    0  0.00000000000E+00 -0.00000000000E+00 -0.14261571758E+04  0.14261571758E+04  0.00000000000E+00 0.  1.
         25    2    1    2    0    0 -0.23638031477E+02  0.11898600361E+03 -0.92628895487E+03  0.94253597024E+03  0.12508557751E+03 0.  0.
          5    1    3    3  502    0 -0.34504639284E+02  0.13791809399E+03 -0.65124368986E+03  0.66659416946E+03  0.41800000000E+01 0. -1.
         -5    1    3    3    0  502  0.10866607807E+02 -0.18932090385E+02 -0.27504526501E+03  0.27594180078E+03  0.41800000000E+01 0. -1.
        -11    1    1    2    0    0 -0.30336593173E+02 -0.50964684139E+02 -0.26206956796E+03  0.26869716479E+03  0.00000000000E+00 0.  1.
         11    1    1    2    0    0  0.53974624650E+02 -0.68021319470E+02 -0.21803377666E+03  0.23468891702E+03  0.00000000000E+00 0. -1.
</event>
<event>
 7    1  0.2334784E-009  0.1494056E+03  0.7561462E-02  0.1201205E+00
         -2   -1    0    0    0  501 -0.00000000000E+00  0.00000000000E+00  0.23819949194E+02  0.23819949194E+02  0.00000000000E+00 0.  1.
          2   -1    0    0  501    0  0.00000000000E+00 -0.00000000000E+00 -0.13209087496E+04  0.13209087496E+04  0.00000000000E+00 0. -1.
         25    2    1    2    0    0  0.96235960375E+02  0.74066919979E+02 -0.94990465197E+03  0.96577157435E+03  0.12509443347E+03 0.  0.
          5    1    3    3  502    0  0.81656158762E+02  0.10905832396E+02 -0.25895500098E+03  0.27177533070E+03  0.41800000000E+01 0.  1.
         -5    1    3    3    0  502  0.14579801613E+02  0.63161087583E+02 -0.69094965099E+03  0.69399624365E+03  0.41800000000E+01 0.  1.
        -11    1    1    2    0    0 -0.63302069163E+01 -0.60041430134E+02 -0.12328533252E+03  0.13727460824E+03  0.00000000000E+00 0.  1.
         11    1    1    2    0    0 -0.89905753459E+02 -0.14025489845E+02 -0.22389881591E+03  0.24168251620E+03  0.00000000000E+00 0. -1.
</event>
<event>
 7    1  0.2334784E-009  0.1483828E+03  0.7561462E-02  0.1202474E+00
          2   -1    0    0  501    0  0.00000000000E+00  0.00000000000E+00  0.67142040970E+02  0.67142040970E+02  0.00000000000E+00 0. -1.
         -2   -1    0    0    0  501 -0.00000000000E+00 -0.00000000000E+00 -0.39886772861E+03  0.39886772861E+03  0.00000000000E+00 0.  1.
         25    2    1    2    0    0  0.76659467427E+02  0.93974635409E+02 -0.16232453126E+03  0.23812838237E+03  0.12509183424E+03 0.  0.
          5    1    3    3  502    0  0.58843327320E+01  0.86606049018E+02 -0.38067752558E+02  0.94878128581E+02  0.41800000000E+01 0. -1.
         -5    1    3    3    0  502  0.70775134695E+02  0.73685863904E+01 -0.12425677871E+03  0.14325025379E+03  0.41800000000E+01 0. -1.
        -11    1    1    2    0    0 -0.73355770287E+02 -0.38199128852E+02 -0.51548965479E+02  0.97455314485E+02  0.00000000000E+00 0.  1.
         11    1    1    2    0    0 -0.33036971398E+01 -0.55775506557E+02 -0.11785219089E+03  0.13042607272E+03  0.00000000000E+00 0. -1.
</event>
<event>
 7    1  0.2334784E-009  0.2740080E+03  0.7561462E-02  0.1099007E+00
         -1   -1    0    0    0  501 -0.00000000000E+00  0.00000000000E+00  0.75887549588E+03  0.75887549588E+03  0.00000000000E+00 0.  1.
          1   -1    0    0  501    0  0.00000000000E+00 -0.00000000000E+00 -0.20995482897E+03  0.20995482897E+03  0.00000000000E+00 0. -1.
         25    2    1    2    0    0  0.68083802672E+02 -0.25892938193E+03  0.61162899414E+03  0.67927727781E+03  0.12509102551E+03 0.  0.
          5    1    3    3  502    0  0.66429020356E+02 -0.25234988775E+03  0.61682511732E+03  0.66976412143E+03  0.41800000000E+01 0.  1.
         -5    1    3    3    0  502  0.16547823159E+01 -0.65794941837E+01 -0.51961231831E+01  0.95131563826E+01  0.41800000000E+01 0.  1.
        -11    1    1    2    0    0  0.17769165952E+02  0.55112256054E+02  0.53615883995E+01  0.58153681364E+02  0.00000000000E+00 0.  1.
         11    1    1    2    0    0 -0.85852968624E+02  0.20381712588E+03 -0.68069915624E+02  0.23139936568E+03  0.00000000000E+00 0. -1.
</event>
<event>
 7    1  0.2334784E-009  0.9490821E+02  0.7561462E-02  0.1291383E+00
          2   -1    0    0  501    0  0.00000000000E+00  0.00000000000E+00  0.73120754950E+03  0.73120754950E+03  0.00000000000E+00 0.  1.
         -2   -1    0    0    0  501 -0.00000000000E+00 -0.00000000000E+00 -0.25900560798E+02  0.25900560798E+02  0.00000000000E+00 0. -1.
         25    2    1    2    0    0 -0.16878990344E+02 -0.80592565071E+02  0.43521287370E+03  0.46025817279E+03  0.12508908156E+03 0.  0.
          5    1    3    3  502    0 -0.13345571520E+00 -0.71168736787E+01  0.33349354614E+03  0.33359569154E+03  0.41800000000E+01 0.  1.
         -5    1    3    3    0  502 -0.16745534629E+02 -0.73475691392E+02  0.10171932756E+03  0.12666248125E+03  0.41800000000E+01 0.  1.
        -11    1    1    2    0    0  0.35808787337E+02  0.79420682351E+02  0.26222112814E+03  0.27631473735E+03  0.00000000000E+00 0.  1.
         11    1    1    2    0    0 -0.18929796993E+02  0.11718827199E+01  0.78729868639E+01  0.20535200156E+02  0.00000000000E+00 0. -1.
</event>
<event>
 7    1  0.2334784E-009  0.2224462E+03  0.7561462E-02  0.1132072E+00
         -2   -1    0    0    0  501 -0.00000000000E+00  0.00000000000E+00  0.77481987549E+02  0.77481987549E+02  0.00000000000E+00 0.  1.
          2   -1    0    0  501    0  0.00000000000E+00 -0.00000000000E+00 -0.81411103835E+03  0.81411103835E+03  0.00000000000E+00 0. -1.
         25    2    1    2    0    0 -0.15619169941E+03 -0.12163060561E+03 -0.18239191447E+03  0.29682371534E+03  0.12509059253E+03 0.  0.
          5    1    3    3  502    0 -0.11845007041E+03 -0.14480645658E+03 -0.16349519795E+03  0.24849040464E+03  0.41800000000E+01 0.  1.
         -5    1    3    3    0  502 -0.37741628999E+02  0.23175850967E+02 -0.18896716515E+02  0.48333310694E+02  0.41800000000E+01 0.  1.
        -11    1    1    2    0    0  0.32081283007E+02  0.73438100503E+02 -0.25384075986E+03  0.26619071113E+03  0.00000000000E+00 0. -1.
         11    1    1    2    0    0  0.12411041640E+03  0.48192505107E+02 -0.30039637646E+03  0.32857859942E+03  0.00000000000E+00 0.  1.
</event>
<event>
 7    1  0.2334784E-009  0.1133823E+03  0.7561462E-02  0.1254432E+00
         -3   -1    0    0    0  501 -0.00000000000E+00  0.00000000000E+00  0.49177124446E+02  0.49177124446E+02  0.00000000000E+00 0.  1.
          3   -1    0    0  501    0  0.00000000000E+00 -0.00000000000E+00 -0.33796200269E+03  0.33796200269E+03  0.00000000000E+00 0. -1.
         25    2    1    2    0    0  0.42504454865E+02  0.25935651504E+02 -0.17114045600E+03  0.21775220052E+03  0.12509068091E+03 0.  0.
          5    1    3    3  502    0  0.60467168143E+02  0.64277634968E+02 -0.89902032463E+02  0.12604658116E+03  0.41800000000E+01 0. -1.
         -5    1    3    3    0  502 -0.17962713278E+02 -0.38341983464E+02 -0.81238423536E+02  0.91705619364E+02  0.41800000000E+01 0. -1.
        -11    1    1    2    0    0 -0.58028538197E+01 -0.51062329115E+02 -0.11365007513E+03  0.12472920325E+03  0.00000000000E+00 0. -1.
         11    1    1    2    0    0 -0.36701601045E+02  0.25126677610E+02 -0.39943471136E+01  0.44657723362E+02  0.00000000000E+00 0.  1.
</event>
<event>
 7    1  0.2334784E-009  0.1604251E+03  0.7561462E-02  0.1188218E+00
          1   -1    0    0  501    0  0.00000000000E+00  0.00000000000E+00  0.83237774010E+02  0.83237774010E+02  0.00000000000E+00 0. -1.
         -1   -1    0    0    0  501 -0.00000000000E+00 -0.00000000000E+00 -0.48616455658E+03  0.48616455658E+03  0.00000000000E+00 0.  1.
         25    2    1    2    0    0  0.14582581572E+03  0.14638533929E+02 -0.12004979066E+03  0.22702299288E+03  0.12509209349E+03 0.  0.
          5    1    3    3  502    0  0.77765951671E+02 -0.55712600891E+01  0.10081382819E+02  0.78725401605E+02  0.41800000000E+01 0.  1.
         -5    1    3    3    0  502  0.68059864053E+02  0.20209794018E+02 -0.13013117347E+03  0.14829759128E+03  0.41800000000E+01 0.  1.
        -11    1    1    2    0    0 -0.86842267879E+02  0.35908922558E+02 -0.22987180373E+03  0.24833863243E+03  0.00000000000E+00 0.  1.
         11    1    1    2    0    0 -0.58983547845E+02 -0.50547456487E+02 -0.53005188186E+02  0.94040705274E+02  0.00000000000E+00 0. -1.
</event>
<event>
 7    1  0.2334784E-009  0.1360170E+03  0.7561462E-02  0.1218791E+00
          1   -1    0    0  501    0  0.00000000000E+00  0.00000000000E+00  0.38501469844E+03  0.38501469844E+03  0.00000000000E+00 0.  1.
         -1   -1    0    0    0  501 -0.00000000000E+00 -0.00000000000E+00 -0.65804674775E+02  0.65804674775E+02  0.00000000000E+00 0. -1.
         25    2    1    2    0    0 -0.91899559821E+02  0.53464741499E+02  0.11619673950E+03  0.20112385545E+03  0.12508043525E+03 0.  0.
          5    1    3    3  502    0 -0.23326644297E+02  0.77733735584E+02  0.26315939975E+02  0.85420530780E+02  0.41800000000E+01 0.  1.
         -5    1    3    3    0  502 -0.68572915524E+02 -0.24268994085E+02  0.89880799522E+02  0.11570332467E+03  0.41800000000E+01 0.  1.
        -11    1    1    2    0    0  0.69580624099E+02 -0.62785554939E+02  0.76750093326E+02  0.12113655924E+03  0.00000000000E+00 0. -1.
         11    1    1    2    0    0  0.22318935722E+02  0.93208134398E+01  0.12626319085E+03  0.12855895853E+03  0.00000000000E+00 0.  1.
</event>
<event>
 7    1  0.2334784E-009  0.1448888E+03  0.7561462E-02  0.1206898E+00
         -1   -1    0    0    0  501 -0.00000000000E+00  0.00000000000E+00  0.19344376616E+02  0.19344376616E+02  0.00000000000E+00 0.  1.
          1   -1    0    0  501    0  0.00000000000E+00 -0.00000000000E+00 -0.11421457002E+04  0.11421457002E+04  0.00000000000E+00 0. -1.
         25    2    1    2    0    0 -0.80900340174E+02 -0.58834702565E+02 -0.51607420400E+03  0.54035574250E+03  0.12508140211E+03 0.  0.
          5    1    3    3  502    0 -0.10223992477E+03 -0.53981455054E+01 -0.32874471505E+03  0.34434387212E+03  0.41800000000E+01 0. -1.
         -5    1    3    3    0  502  0.21339584595E+02 -0.53436557060E+02 -0.18732948895E+03  0.19601187038E+03  0.41800000000E+01 0. -1.
        -11    1    1    2    0    0  0.57191427570E+02  0.79658605925E+02 -0.51149269320E+03  0.52080814902E+03  0.00000000000E+00 0. -1.
         11    1    1    2    0    0  0.23708912604E+02 -0.20823903359E+02 -0.95234426416E+02  0.10032618533E+03  0.00000000000E+00 0.  1.
</event>
<event>
 7    1  0.2334784E-009  0.1407147E+03  0.7561462E-02  0.1212371E+00
         -1   -1    0    0    0  501 -0.00000000000E+00  0.00000000000E+00  0.31343757153E+02  0.31343757153E+02  0.00000000000E+00 0.  1.
          1   -1    0    0  501    0  0.00000000000E+00 -0.00000000000E+00 -0.85720638052E+03  0.85720638052E+03  0.00000000000E+00 0. -1.
         25    2    1    2    0    0  0.10514797491E+03  0.49448483933E+02 -0.55790575986E+03  0.58344486096E+03  0.12509124553E+03 0.  0.
          5    1    3    3  502    0 -0.85817679276E+01  0.28010699386E+02 -0.27012662480E+02  0.40067472532E+02  0.41800000000E+01 0.  1.
         -5    1    3    3    0  502  0.11372974283E+03  0.21437784546E+02 -0.53089309738E+03  0.54337738843E+03  0.41800000000E+01 0.  1.
        -11    1    1    2    0    0 -0.24732216169E+02  0.18390478894E+02 -0.11775826270E+03  0.12172469209E+03  0.00000000000E+00 0. -1.
         11    1    1    2    0    0 -0.80415758738E+02 -0.67838962827E+02 -0.15019860081E+03  0.18338058462E+03  0.00000000000E+00 0.  1.
</event>
<event>
 7    1  0.2334784E-009  0.1220214E+03  0.7561462E-02  0.1239799E+00
         -4   -1    0    0    0  501 -0.00000000000E+00  0.00000000000E+00  0.35744081446E+02  0.35744081446E+02  0.00000000000E+00 0.  1.
          4   -1    0    0  501    0  0.00000000000E+00 -0.00000000000E+00 -0.49973222034E+03  0.49973222034E+03  0.00000000000E+00 0. -1.
         25    2    1    2    0    0  0.64022488407E+02 -0.14992603134E+02 -0.34550744396E+03  0.37329771491E+03  0.12510848473E+03 0.  0.
          5    1    3    3  502    0 -0.25338304753E+02 -0.35410145069E+02 -0.16640436219E+03  0.17205752589E+03  0.41800000000E+01 0.  1.
         -5    1    3    3    0  502  0.89360793160E+02  0.20417541935E+02 -0.17910308178E+03  0.20124018901E+03  0.41800000000E+01 0.  1.
        -11    1    1    2    0    0 -0.78288259743E+02  0.33516634367E+02 -0.10498575535E+03  0.13518293243E+03  0.00000000000E+00 0. -1.
         11    1    1    2    0    0  0.14265771336E+02 -0.18524031233E+02 -0.13494939577E+02  0.26995654449E+02  0.00000000000E+00 0.  1.
</event>
<event>
 7    1  0.2334784E-009  0.2008039E+03  0.7561462E-02  0.1149062E+00
         -1   -1    0    0    0  501 -0.00000000000E+00  0.00000000000E+00  0.18853750047E+03  0.18853750047E+03  0.00000000000E+00 0.  1.
          1   -1    0    0  501    0  0.00000000000E+00 -0.00000000000E+00 -0.27356101268E+03  0.27356101268E+03  0.00000000000E+00 0. -1.
         25    2    1    2    0    0 -0.16412635104E+03 -0.89473984207E+02 -0.11403746680E+03  0.25219418468E+03  0.12511718507E+03 0.  0.
          5    1    3    3  502    0 -0.72780209307E+01 -0.43718775900E+02  0.11648843758E+02  0.46015963706E+02  0.41800000000E+01 0. -1.
         -5    1    3    3    0  502 -0.15684833011E+03 -0.45755208307E+02 -0.12568631056E+03  0.20617822098E+03  0.41800000000E+01 0. -1.
        -11    1    1    2    0    0  0.12189885948E+03  0.39310539353E+02  0.54976057587E+02  0.13938083568E+03  0.00000000000E+00 0.  1.
         11    1    1    2    0    0  0.42227491557E+02  0.50163444854E+02 -0.25962103001E+02  0.70523492788E+02  0.00000000000E+00 0. -1.
</event>
<event>
 7    1  0.2334784E-009  0.8542397E+02  0.7561462E-02  0.1314328E+00
          1   -1    0    0  501    0  0.00000000000E+00  0.00000000000E+00  0.13398308795E+03  0.13398308795E+03  0.00000000000E+00 0. -1.
         -1   -1    0    0    0  501 -0.00000000000E+00 -0.00000000000E+00 -0.11141668604E+03  0.11141668604E+03  0.00000000000E+00 0.  1.
         25    2    1    2    0    0  0.37472339288E+02 -0.28650340431E+02 -0.14767140034E+02  0.13448415582E+03  0.12507158559E+03 0.  0.
          5    1    3    3  502    0 -0.29634940679E+02  0.10154082755E+02 -0.41691516242E+02  0.52316250174E+02  0.41800000000E+01 0. -1.
         -5    1    3    3    0  502  0.67107279967E+02 -0.38804423186E+02  0.26924376208E+02  0.82167905642E+02  0.41800000000E+01 0. -1.
        -11    1    1    2    0    0 -0.16623200561E+02 -0.87560116884E+01 -0.27445838891E+02  0.33260676632E+02  0.00000000000E+00 0.  1.
         11    1    1    2    0    0 -0.20849138727E+02  0.37406352119E+02  0.64779380839E+02  0.77654941545E+02  0.00000000000E+00 0. -1.
</event>
<event>
 7    1  0.2334784E-009  0.8813167E+02  0.7561462E-02  0.1307440E+00
          2   -1    0    0  501    0  0.00000000000E+00  0.00000000000E+00  0.38607763150E+02  0.38607763150E+02  0.00000000000E+00 0. -1.
         -2   -1    0    0    0  501 -0.00000000000E+00 -0.00000000000E+00 -0.40720097603E+03  0.40720097603E+03  0.00000000000E+00 0.  1.
         25    2    1    2    0    0 -0.42457286280E+02  0.35893884697E+02 -0.26073242973E+03  0.29448209760E+03  0.12508922327E+03 0.  0.
          5    1    3    3  502    0  0.24519929708E+01 -0.65783095757E+01 -0.22041252727E+03  0.22056391592E+03  0.41800000000E+01 0. -1.
         -5    1    3    3    0  502 -0.44909279250E+02  0.42472194273E+02 -0.40319902455E+02  0.73918181682E+02  0.41800000000E+01 0. -1.
        -11    1    1    2    0    0 -0.28023095682E+02 -0.18388824000E+02 -0.34366074001E+02  0.48004893313E+02  0.00000000000E+00 0.  1.
         11    1    1    2    0    0  0.70480381962E+02 -0.17505060697E+02 -0.73494709146E+02  0.10332174826E+03  0.00000000000E+00 0. -1.
</event>
<event>
 7    1  0.2334784E-009  0.1186133E+03  0.7561462E-02  0.1245402E+00
         -1   -1    0    0    0  501 -0.00000000000E+00  0.00000000000E+00  0.32062490177E+02  0.32062490177E+02  0.00000000000E+00 0.  1.
          1   -1    0    0  501    0  0.00000000000E+00 -0.00000000000E+00 -0.81214234868E+03  0.81214234868E+03  0.00000000000E+00 0. -1.
         25    2    1    2    0    0  0.99164327050E+02  0.52315739633E+02 -0.53066173172E+03  0.55661441767E+03  0.12508891267E+03 0.  0.
          5    1    3    3  502    0  0.34815664424E+02  0.48292717473E+02 -0.44670999113E+03  0.45067904946E+03  0.41800000000E+01 0.  1.
         -5    1    3    3    0  502  0.64348662626E+02  0.40230221596E+01 -0.83951740596E+02  0.10593536821E+03  0.41800000000E+01 0.  1.
        -11    1    1    2    0    0 -0.40700995106E+02 -0.14024929052E+02 -0.19453551246E+02  0.47240981082E+02  0.00000000000E+00 0.  1.
         11    1    1    2    0    0 -0.58463331944E+02 -0.38290810581E+02 -0.22996457553E+03  0.24034944010E+03  0.00000000000E+00 0. -1.
</event>
<event>
 7    1  0.2334784E-009  0.7688271E+02  0.7561462E-02  0.1338138E+00
          3   -1    0    0  501    0  0.00000000000E+00  0.00000000000E+00  0.58548516707E+02  0.58548516707E+02  0.00000000000E+00 0. -1.
         -3   -1    0    0    0  501 -0.00000000000E+00 -0.00000000000E+00 -0.47715111895E+03  0.47715111895E+03  0.00000000000E+00 0.  1.
         25    2    1    2    0    0  0.26684909335E+02  0.64912825389E+01 -0.42211531440E+03  0.44111482251E+03  0.12508687722E+03 0.  0.
          5    1    3    3  502    0  0.54312467799E+02 -0.32142040792E+02 -0.12388028603E+03  0.13909260445E+03  0.41800000000E+01 0. -1.
         -5    1    3    3    0  502 -0.27627558463E+02  0.38633323331E+02 -0.29823502836E+03  0.30202221806E+03  0.41800000000E+01 0. -1.
        -11    1    1    2    0    0 -0.27584521859E+02 -0.16926375744E+02  0.42951163321E+02  0.53779275494E+02  0.00000000000E+00 0. -1.
         11    1    1    2    0    0  0.89961252423E+00  0.10435093205E+02 -0.39438451166E+02  0.40805537654E+02  0.00000000000E+00 0.  1.
</event>
<event>
 7    1  0.2334784E-009  0.1969444E+03  0.7561462E-02  0.1152343E+00
         -3   -1    0    0    0  501 -0.00000000000E+00  0.00000000000E+00  0.29210533226E+03  0.29210533226E+03  0.00000000000E+00 0.  1.
          3   -1    0    0  501    0  0.00000000000E+00 -0.00000000000E+00 -0.35263046605E+03  0.35263046605E+03  0.00000000000E+00 0. -1.
         25    2    1    2    0    0 -0.53847891642E+02 -0.17891476290E+03 -0.26899198356E+03  0.35058960117E+03  0.12508514465E+03 0.  0.
          5    1    3    3  502    0  0.16199068931E+02 -0.99091221539E+02 -0.62479553674E+02  0.11833278095E+03  0.41800000000E+01 0.  1.
         -5    1    3    3    0  502 -0.70046960572E+02 -0.79823541361E+02 -0.20651242989E+03  0.23225682022E+03  0.41800000000E+01 0.  1.
        -11    1    1    2    0    0  0.16026027283E+02  0.70243952120E+02  0.22536419258E+02  0.75491301174E+02  0.00000000000E+00 0. -1.
         11    1    1    2    0    0  0.37821864359E+02  0.10867081078E+03  0.18593043051E+03  0.21865489596E+03  0.00000000000E+00 0.  1.
</event>
<event>
 7    1  0.2656428E-009  0.2013713E+03  0.7561462E-02  0.1148587E+00
          1   -1    0    0  501    0  0.00000000000E+00  0.00000000000E+00  0.16434864181E+03  0.16434864181E+03  0.00000000000E+00 0. -1.
         -1   -1    0    0    0  501 -0.00000000000E+00 -0.00000000000E+00 -0.31712967942E+03  0.31712967942E+03  0.00000000000E+00 0.  1.
         25    2    1    2    0    0 -0.15918208831E+03  0.12068551471E+03 -0.96038854262E+02  0.25450938479E+03  0.12509050611E+03 0.  0.
          5    1    3    3  502    0 -0.27933583073E+01  0.66378320016E+01  0.24887987081E+02  0.26244008178E+02  0.41800000000E+01 0. -1.
         -5    1    3    3    0  502 -0.15638873000E+03  0.11404768271E+03 -0.12092684134E+03  0.22826537661E+03  0.41800000000E+01 0. -1.
        -11    1    1    2    0    0  0.98706351084E+02 -0.62113449745E+02 -0.77791053827E+02  0.14018727631E+03  0.00000000000E+00 0. -1.
         11    1    1    2    0    0  0.60475737225E+02 -0.58572064965E+02  0.21048870472E+02  0.86781660133E+02  0.00000000000E+00 0.  1.
</event>
<event>
 7    1  0.2334784E-009  0.9941109E+02  0.7561462E-02  0.1281539E+00
         -3   -1    0    0    0  501 -0.00000000000E+00  0.00000000000E+00  0.34728563156E+03  0.34728563156E+03  0.00000000000E+00 0.  1.
          3   -1    0    0  501    0  0.00000000000E+00 -0.00000000000E+00 -0.44975594291E+02  0.44975594291E+02  0.00000000000E+00 0. -1.
         25    2    1    2    0    0  0.52669863866E+02  0.20408853969E+02  0.20332927789E+03  0.24531007496E+03  0.12507438487E+03 0.  0.
          5    1    3    3  502    0  0.83653115580E+02  0.27701294506E+02  0.19194588024E+03  0.21124842912E+03  0.41800000000E+01 0.  1.
         -5    1    3    3    0  502 -0.30983251714E+02 -0.72924405368E+01  0.11383397654E+02  0.34061645849E+02  0.41800000000E+01 0.  1.
        -11    1    1    2    0    0 -0.63887175244E+02 -0.21045141870E+02  0.11144476455E+03  0.13017067528E+03  0.00000000000E+00 0.  1.
         11    1    1    2    0    0  0.11217311378E+02  0.63628790146E+00 -0.12464005170E+02  0.16780475610E+02  0.00000000000E+00 0. -1.
</event>
<event>
 7    1  0.2334784E-009  0.1009338E+03  0.7561462E-02  0.1278344E+00
          1   -1    0    0  501    0  0.00000000000E+00  0.00000000000E+00  0.30996833603E+03  0.30996833603E+03  0.00000000000E+00 0. -1.
         -1   -1    0    0    0  501 -0.00000000000E+00 -0.00000000000E+00 -0.56923874034E+02  0.56923874034E+02  0.00000000000E+00 0.  1.
         25    2    1    2    0    0 -0.37565865702E+02  0.22896604578E+02  0.49028826050E+02  0.14137574718E+03  0.12509127604E+03 0.  0.
          5    1    3    3  502    0 -0.41105223392E+02  0.58146159713E+02 -0.10377604033E+02  0.72081775401E+02  0.41800000000E+01 0. -1.
         -5    1    3    3    0  502  0.35393576897E+01 -0.35249555135E+02  0.59406430083E+02  0.69293971782E+02  0.41800000000E+01 0. -1.
        -11    1    1    2    0    0  0.14173597992E+02  0.32105252538E+02  0.58729864999E+02  0.68416629289E+02  0.00000000000E+00 0.  1.
         11    1    1    2    0    0  0.23392267711E+02 -0.55001857115E+02  0.14528577095E+03  0.15709983359E+03  0.00000000000E+00 0. -1.
</event>
<event>
 7    1  0.2334784E-009  0.9276669E+02  0.7561462E-02  0.1296287E+00
          1   -1    0    0  501    0  0.00000000000E+00  0.00000000000E+00  0.14645589722E+04  0.14645589722E+04  0.00000000000E+00 0. -1.
         -1   -1    0    0    0  501 -0.00000000000E+00 -0.00000000000E+00 -0.14701900593E+02  0.14701900593E+02  0.00000000000E+00 0.  1.
         25    2    1    2    0    0 -0.14118382541E+02  0.35941412830E+02  0.12103705932E+04  0.12174297145E+04  0.12508806034E+03 0.  0.
          5    1    3    3  502    0 -0.63831484102E+02  0.12050346350E+02  0.40851421282E+03  0.41366774552E+03  0.41800000000E+01 0. -1.
         -5    1    3    3    0  502  0.49713101562E+02  0.23891066479E+02  0.80185638040E+03  0.80376196894E+03  0.41800000000E+01 0. -1.
        -11    1    1    2    0    0 -0.42218270348E+01 -0.44631774612E+02  0.23720966935E+03  0.24140887797E+03  0.00000000000E+00 0. -1.
         11    1    1    2    0    0  0.18340209575E+02  0.86903617821E+01  0.22768090185E+01  0.20422280345E+02  0.00000000000E+00 0.  1.
</event>
<event>
 7    1  0.2334784E-009  0.1011029E+03  0.7561462E-02  0.1277994E+00
         -2   -1    0    0    0  501 -0.00000000000E+00  0.00000000000E+00  0.13683875189E+03  0.13683875189E+03  0.00000000000E+00 0.  1.
          2   -1    0    0  501    0  0.00000000000E+00 -0.00000000000E+00 -0.96293190633E+02  0.96293190633E+02  0.00000000000E+00 0. -1.
         25    2    1    2    0    0 -0.73880626295E+01 -0.71432571449E+01  0.57794638256E+02  0.13817952736E+03  0.12509097481E+03 0.  0.
          5    1    3    3  502    0  0.29485018526E+02  0.48432255874E+02  0.14914236540E+02  0.58778878673E+02  0.41800000000E+01 0.  1.
         -5    1    3    3    0  502 -0.36873081156E+02 -0.55575513019E+02  0.42880401716E+02  0.79400648691E+02  0.41800000000E+01 0.  1.
        -11    1    1    2    0    0 -0.19859602507E+02 -0.27830243718E+02 -0.33372151643E+02  0.47776843579E+02  0.00000000000E+00 0. -1.
         11    1    1    2    0    0  0.27247665137E+02  0.34973500863E+02  0.16123074645E+02  0.47175571581E+02  0.00000000000E+00 0.  1.
</event>
<event>
 7    1  0.2334784E-009  0.1087657E+03  0.7561462E-02  0.1262873E+00
         -1   -1    0    0    0  501 -0.00000000000E+00  0.00000000000E+00  0.16432343769E+03  0.16432343769E+03  0.00000000000E+00 0.  1.
          1   -1    0    0  501    0  0.00000000000E+00 -0.00000000000E+00 -0.10193912374E+03  0.10193912374E+03  0.00000000000E+00 0. -1.
         25    2    1    2    0    0  0.57712592740E+02  0.32642975846E+02  0.95869338932E+01  0.14190057777E+03  0.12509019720E+03 0.  0.
          5    1    3    3  502    0  0.81090824883E+02  0.18191111387E+02  0.46784978594E+02  0.95461746452E+02  0.41800000000E+01 0.  1.
         -5    1    3    3    0  502 -0.23378232143E+02  0.14451864459E+02 -0.37198044701E+02  0.46438831316E+02  0.41800000000E+01 0.  1.
        -11    1    1    2    0    0  0.70412694739E+01  0.21178705403E+02 -0.41638743267E+01  0.22703631598E+02  0.00000000000E+00 0.  1.
         11    1    1    2    0    0 -0.64753862214E+02 -0.53821681249E+02  0.56961254386E+02  0.10165835207E+03  0.00000000000E+00 0. -1.
</event>
<event>
 7    1  0.2334784E-009  0.1140322E+03  0.7561462E-02  0.1253280E+00
         -1   -1    0    0    0  501 -0.00000000000E+00  0.00000000000E+00  0.90704943709E+02  0.90704943709E+02  0.00000000000E+00 0.  1.
          1   -1    0    0  501    0  0.00000000000E+00 -0.00000000000E+00 -0.19419972283E+03  0.19419972283E+03  0.00000000000E+00 0. -1.
         25    2    1    2    0    0 -0.39500279410E+02 -0.99707142440E+01 -0.12461405923E+03  0.18120259957E+03  0.12508409619E+03 0.  0.
          5    1    3    3  502    0 -0.61026265007E+00 -0.61797190368E+02 -0.36997116689E+02  0.72149318785E+02  0.41800000000E+01 0.  1.
         -5    1    3    3    0  502 -0.38890016760E+02  0.51826476124E+02 -0.87616942537E+02  0.10905328079E+03  0.41800000000E+01 0.  1.
        -11    1    1    2    0    0  0.54074658245E+02 -0.27732240621E+02  0.16796567794E+02  0.63049746422E+02  0.00000000000E+00 0.  1.
         11    1    1    2    0    0 -0.14574378835E+02  0.37702954865E+02  0.43227123092E+01  0.40652320545E+02  0.00000000000E+00 0. -1.
</event>
<event>
 7    1  0.2334784E-009  0.1503929E+03  0.7561462E-02  0.1199991E+00
         -1   -1    0    0    0  501 -0.00000000000E+00  0.00000000000E+00  0.18838721056E+03  0.18838721056E+03  0.00000000000E+00 0.  1.
          1   -1    0    0  501    0  0.00000000000E+00 -0.00000000000E+00 -0.12639501132E+03  0.12639501132E+03  0.00000000000E+00 0. -1.
         25    2    1    2    0    0 -0.56867906315E+02  0.94212463878E+02  0.32622389043E+02  0.16977060973E+03  0.12509153665E+03 0.  0.
          5    1    3    3  502    0 -0.38738900988E+02  0.12302175214E+03  0.39166278684E+02  0.13485742002E+03  0.41800000000E+01 0.  1.
         -5    1    3    3    0  502 -0.18129005327E+02 -0.28809288257E+02 -0.65438896407E+01  0.34913189709E+02  0.41800000000E+01 0.  1.
        -11    1    1    2    0    0 -0.19896183981E+02 -0.35905217791E+02 -0.76391827468E+01  0.41754040699E+02  0.00000000000E+00 0. -1.
         11    1    1    2    0    0  0.76764090296E+02 -0.58307246087E+02  0.37008992942E+02  0.10325757146E+03  0.00000000000E+00 0.  1.
</event>
<event>
 7    1  0.2334784E-009  0.1256093E+03  0.7561462E-02  0.1234120E+00
         -1   -1    0    0    0  501 -0.00000000000E+00  0.00000000000E+00  0.25604652786E+02  0.25604652786E+02  0.00000000000E+00 0.  1.
          1   -1    0    0  501    0  0.00000000000E+00 -0.00000000000E+00 -0.65074530724E+03  0.65074530724E+03  0.00000000000E+00 0. -1.
         25    2    1    2    0    0 -0.55923609760E+02  0.40681386164E+02 -0.31841246822E+03  0.34901945322E+03  0.12508258672E+03 0.  0.
          5    1    3    3  502    0  0.23277937430E+02  0.51700440730E+02 -0.18379474403E+03  0.19238705329E+03  0.41800000000E+01 0.  1.
         -5    1    3    3    0  502 -0.79201547189E+02 -0.11019054566E+02 -0.13461772419E+03  0.15663239993E+03  0.41800000000E+01 0.  1.
        -11    1    1    2    0    0  0.18637748156E+02  0.29457434776E+02 -0.94422745182E+02  0.10065168120E+03  0.00000000000E+00 0.  1.
         11    1    1    2    0    0  0.37285861604E+02 -0.70138820940E+02 -0.21230544106E+03  0.22667882561E+03  0.00000000000E+00 0. -1.
</event>
<event>
 7    1  0.2334784E-009  0.9285444E+02  0.7561462E-02  0.1296083E+00
          2   -1    0    0  501    0  0.00000000000E+00  0.00000000000E+00  0.54724012967E+03  0.54724012967E+03  0.00000000000E+00 0. -1.
         -2   -1    0    0    0  501 -0.00000000000E+00 -0.00000000000E+00 -0.37089185469E+02  0.37089185469E+02  0.00000000000E+00 0.  1.
         25    2    1    2    0    0 -0.26818416515E+02  0.49725120156E+02  0.37810554128E+03  0.40225368739E+03  0.12510960649E+03 0.  0.
          5    1    3    3  502    0 -0.32799193891E+01  0.15356804381E+00 -0.94326197590E+01  0.10827195845E+02  0.41800000000E+01 0.  1.
         -5    1    3    3    0  502 -0.23538497126E+02  0.49571552113E+02  0.38753816104E+03  0.39142649155E+03  0.41800000000E+01 0.  1.
        -11    1    1    2    0    0  0.22460731762E+02  0.34420126084E+02  0.43924766280E+02  0.60154922024E+02  0.00000000000E+00 0.  1.
         11    1    1    2    0    0  0.43576847533E+01 -0.84145246240E+02  0.88120636642E+02  0.12192070572E+03  0.00000000000E+00 0. -1.
</event>
<event>
 7    1  0.2334784E-009  0.1224663E+03  0.7561462E-02  0.1239083E+00
          1   -1    0    0  501    0  0.00000000000E+00  0.00000000000E+00  0.45341377360E+02  0.45341377360E+02  0.00000000000E+00 0. -1.
         -1   -1    0    0    0  501 -0.00000000000E+00 -0.00000000000E+00 -0.47070332452E+03  0.47070332452E+03  0.00000000000E+00 0.  1.
         25    2    1    2    0    0 -0.23947683667E+01  0.77588963321E+02 -0.12710456278E+03  0.19449591106E+03  0.12508919776E+03 0.  0.
          5    1    3    3  502    0  0.49966006934E+02  0.59153984322E+01 -0.78156593390E+02  0.93045791296E+02  0.41800000000E+01 0.  1.
         -5    1    3    3    0  502 -0.52360775301E+02  0.71673564889E+02 -0.48947969385E+02  0.10145011977E+03  0.41800000000E+01 0.  1.
        -11    1    1    2    0    0 -0.27855449511E+02 -0.69048731750E+01 -0.16686194105E+03  0.16931187410E+03  0.00000000000E+00 0.  1.
         11    1    1    2    0    0  0.30250217878E+02 -0.70684090146E+02 -0.13139544333E+03  0.15223691671E+03  0.00000000000E+00 0. -1.
</event>
<event>
 7    1  0.2334784E-009  0.1674652E+03  0.7561462E-02  0.1180517E+00
          1   -1    0    0  501    0  0.00000000000E+00  0.00000000000E+00  0.25153873886E+03  0.25153873886E+03  0.00000000000E+00 0. -1.
         -1   -1    0    0    0  501 -0.00000000000E+00 -0.00000000000E+00 -0.13554907002E+03  0.13554907002E+03  0.00000000000E+00 0.  1.
         25    2    1    2    0    0 -0.56226233373E+02  0.13054767182E+03  0.11189943553E+03  0.21991949013E+03  0.12505604556E+03 0.  0.
          5    1    3    3  502    0 -0.25175103331E+02  0.13711503400E+03  0.46348144818E+02  0.14696918488E+03  0.41800000000E+01 0. -1.
         -5    1    3    3    0  502 -0.31051130043E+02 -0.65673621777E+01  0.65551290710E+02  0.72950305254E+02  0.41800000000E+01 0. -1.
        -11    1    1    2    0    0  0.96490073444E+01 -0.11340817729E+03  0.18897144135E+02  0.11537599436E+03  0.00000000000E+00 0. -1.
         11    1    1    2    0    0  0.46577226029E+02 -0.17139494530E+02 -0.14806910820E+02  0.51792324386E+02  0.00000000000E+00 0.  1.
</event>
<event>
 7    1  0.2334784E-009  0.1305902E+03  0.7561462E-02  0.1226583E+00
          2   -1    0    0  501    0  0.00000000000E+00  0.00000000000E+00  0.12643341998E+04  0.12643341998E+04  0.00000000000E+00 0.  1.
         -2   -1    0    0    0  501 -0.00000000000E+00 -0.00000000000E+00 -0.16903777629E+02  0.16903777629E+02  0.00000000000E+00 0. -1.
         25    2    1    2    0    0 -0.65572020689E+02  0.70179605306E+02  0.73702576790E+03  0.75371101440E+03  0.12509373995E+03 0.  0.
          5    1    3    3  502    0 -0.86651791756E+02  0.48363568062E+02  0.69300513393E+03  0.70008653450E+03  0.41800000000E+01 0. -1.
         -5    1    3    3    0  502  0.21079771067E+02  0.21816037244E+02  0.44020633970E+02  0.53624479898E+02  0.41800000000E+01 0. -1.
        -11    1    1    2    0    0  0.20547735529E+02 -0.82121786992E+02  0.37139027946E+03  0.38091591856E+03  0.00000000000E+00 0.  1.
         11    1    1    2    0    0  0.45024285160E+02  0.11942181686E+02  0.13901437478E+03  0.14661104445E+03  0.00000000000E+00 0. -1.
</event>
<event>
 7    1  0.2334784E-009  0.1094566E+03  0.7561462E-02  0.1261579E+00
          1   -1    0    0  501    0  0.00000000000E+00  0.00000000000E+00  0.21040465139E+03  0.21040465139E+03  0.00000000000E+00 0. -1.
         -1   -1    0    0    0  501 -0.00000000000E+00 -0.00000000000E+00 -0.10925784783E+03  0.10925784783E+03  0.00000000000E+00 0.  1.
         25    2    1    2    0    0 -0.85024401067E+02  0.74850056906E+01  0.11504918833E+03  0.19018275189E+03  0.12509192337E+03 0.  0.
          5    1    3    3  502    0 -0.26178286925E+02  0.42367317619E+02  0.11075956446E+03  0.12151315084E+03  0.41800000000E+01 0. -1.
         -5    1    3    3    0  502 -0.58846114142E+02 -0.34882311928E+02  0.42896238748E+01  0.68669601047E+02  0.41800000000E+01 0. -1.
        -11    1    1    2    0    0  0.71091866394E+02  0.16206326029E+02  0.29047603311E+02  0.78488608912E+02  0.00000000000E+00 0. -1.
         11    1    1    2    0    0  0.13932534672E+02 -0.23691331719E+02 -0.42949988084E+02  0.50991138421E+02  0.00000000000E+00 0.  1.
</event>
<event>
 7    1  0.2511109E-009  0.6446035E+02  0.7561462E-02  0.1380013E+00
         -1   -1    0    0    0  501 -0.00000000000E+00  0.00000000000E+00  0.20041511049E+03  0.20041511049E+03  0.00000000000E+00 0.  1.
          1   -1    0    0  501    0  0.00000000000E+00 -0.00000000000E+00 -0.77785416264E+02  0.77785416264E+02  0.00000000000E+00 0. -1.
         25    2    1    2    0    0 -0.28977819382E+02 -0.32885032372E+02  0.19415615577E+02  0.13396170607E+03  0.12509050002E+03 0.  0.
          5    1    3    3  502    0 -0.28674368039E+02 -0.53305923729E+02  0.61876302039E+02  0.86659621745E+02  0.41800000000E+01 0.  1.
         -5    1    3    3    0  502 -0.30345134301E+00  0.20420891357E+02 -0.42460686461E+02  0.47302084323E+02  0.41800000000E+01 0.  1.
        -11    1    1    2    0    0  0.20565138196E+02  0.97017634770E+01  0.11477169617E+03  0.11700252718E+03  0.00000000000E+00 0.  1.
         11    1    1    2    0    0  0.84126811860E+01  0.23183268895E+02 -0.11557617522E+02  0.27236293511E+02  0.00000000000E+00 0. -1.
</event>
<event>
 7    1  0.2334784E-009  0.1091886E+03  0.7561462E-02  0.1262080E+00
          2   -1    0    0  501    0  0.00000000000E+00  0.00000000000E+00  0.39627333152E+02  0.39627333152E+02  0.00000000000E+00 0. -1.
         -2   -1    0    0    0  501 -0.00000000000E+00 -0.00000000000E+00 -0.34584526606E+03  0.34584526606E+03  0.00000000000E+00 0.  1.
         25    2    1    2    0    0 -0.26167459163E+02  0.13049303238E+02 -0.12072592430E+03  0.17628765924E+03  0.12509024649E+03 0.  0.
          5    1    3    3  502    0  0.15651978651E+02  0.60579870479E+02 -0.76651654136E+02  0.99034608217E+02  0.41800000000E+01 0.  1.
         -5    1    3    3    0  502 -0.41819437814E+02 -0.47530567241E+02 -0.44074270166E+02  0.77253051020E+02  0.41800000000E+01 0.  1.
        -11    1    1    2    0    0  0.57109435539E+02  0.33402891938E+01 -0.14366889121E+03  0.15463956629E+03  0.00000000000E+00 0.  1.
         11    1    1    2    0    0 -0.30941976377E+02 -0.16389592431E+02 -0.41823117397E+02  0.54545373690E+02  0.00000000000E+00 0. -1.
</event>
<event>
 7    1  0.2334784E-009  0.7393983E+02  0.7561462E-02  0.1347186E+00
          1   -1    0    0  501    0  0.00000000000E+00  0.00000000000E+00  0.88891230075E+02  0.88891230075E+02  0.00000000000E+00 0. -1.
         -1   -1    0    0    0  501 -0.00000000000E+00 -0.00000000000E+00 -0.13498828283E+03  0.13498828283E+03  0.00000000000E+00 0.  1.
         25    2    1    2    0    0 -0.74156095030E+01  0.27162214231E+01 -0.24224140771E+02  0.12765275250E+03  0.12508416008E+03 0.  0.
          5    1    3    3  502    0  0.38342762444E+02  0.20779103910E+02 -0.54354875596E+02  0.69813061043E+02  0.41800000000E+01 0. -1.
         -5    1    3    3    0  502 -0.45758371947E+02 -0.18062882487E+02  0.30130734825E+02  0.57839691459E+02  0.41800000000E+01 0. -1.
        -11    1    1    2    0    0  0.44352162551E+01 -0.28448694620E+02 -0.50181380922E+02  0.57854734984E+02  0.00000000000E+00 0.  1.
         11    1    1    2    0    0  0.29803932479E+01  0.25732473196E+02  0.28308468941E+02  0.38372025415E+02  0.00000000000E+00 0. -1.
</event>
<event>
 7    1  0.2334784E-009  0.1002074E+03  0.7561462E-02  0.1279860E+00
         -1   -1    0    0    0  501 -0.00000000000E+00  0.00000000000E+00  0.74578549677E+02  0.74578549677E+02  0.00000000000E+00 0.  1.
          1   -1    0    0  501    0  0.00000000000E+00 -0.00000000000E+00 -0.26485348389E+03  0.26485348389E+03  0.00000000000E+00 0. -1.
         25    2    1    2    0    0  0.69388746994E+02 -0.45400760740E+02 -0.41480410444E+02  0.15569558396E+03  0.12507782829E+03 0.  0.
          5    1    3    3  502    0  0.65463771433E+02 -0.61773288794E+02  0.19589236544E+02  0.92209843114E+02  0.41800000000E+01 0. -1.
         -5    1    3    3    0  502  0.39249755611E+01  0.16372528054E+02 -0.61069646988E+02  0.63485740850E+02  0.41800000000E+01 0. -1.
        -11    1    1    2    0    0 -0.63235715710E+02  0.19255205111E+02 -0.54443017600E+02  0.85636212145E+02  0.00000000000E+00 0.  1.
         11    1    1    2    0    0 -0.61530312844E+01  0.26145555629E+02 -0.94351506165E+02  0.98100237455E+02  0.00000000000E+00 0. -1.
</event>
<event>
 7    1  0.2334784E-009  0.1573015E+03  0.7561462E-02  0.1191777E+00
         -1   -1    0    0    0  501 -0.00000000000E+00  0.00000000000E+00  0.15132718404E+03  0.15132718404E+03  0.00000000000E+00 0.  1.
          1   -1    0    0  501    0  0.00000000000E+00 -0.00000000000E+00 -0.17594706570E+03  0.17594706570E+03  0.00000000000E+00 0. -1.
         25    2    1    2    0    0  0.23249656721E+02 -0.11818986719E+03 -0.29744656104E+02  0.17618715328E+03  0.12509107551E+03 0.  0.
          5    1    3    3  502    0 -0.34063163010E+02 -0.96575545308E+02 -0.46498836871E+02  0.11254665369E+03  0.41800000000E+01 0.  1.
         -5    1    3    3    0  502  0.57312819731E+02 -0.21614321878E+02  0.16754180767E+02  0.63640499597E+02  0.41800000000E+01 0.  1.
        -11    1    1    2    0    0 -0.40146034081E+02  0.10213154586E+02 -0.27289148441E+01  0.41514570397E+02  0.00000000000E+00 0. -1.
         11    1    1    2    0    0  0.16896377360E+02  0.10797671260E+03  0.78536892818E+01  0.10957252606E+03  0.00000000000E+00 0.  1.
</event>
<event>
 7    1  0.2334784E-009  0.9396926E+02  0.7561462E-02  0.1293515E+00
         -1   -1    0    0    0  501 -0.00000000000E+00  0.00000000000E+00  0.62755078561E+02  0.62755078561E+02  0.00000000000E+00 0.  1.
          1   -1    0    0  501    0  0.00000000000E+00 -0.00000000000E+00 -0.21289811095E+03  0.21289811095E+03  0.00000000000E+00 0. -1.
         25    2    1    2    0    0 -0.33271444525E+02  0.20465143846E+02 -0.89442508196E+02  0.15866085876E+03  0.12508994642E+03 0.  0.
          5    1    3    3  502    0 -0.67818992043E+02  0.31324346646E+02 -0.95904714161E+02  0.12163805726E+03  0.41800000000E+01 0.  1.
         -5    1    3    3    0  502  0.34547547518E+02 -0.10859202800E+02  0.64622059656E+01  0.37022801500E+02  0.41800000000E+01 0.  1.
        -11    1    1    2    0    0  0.21028347609E+02 -0.44762609025E+02 -0.72150658241E+02  0.87473424847E+02  0.00000000000E+00 0. -1.
         11    1    1    2    0    0  0.12243096916E+02  0.24297465179E+02  0.11450134049E+02  0.29518905907E+02  0.00000000000E+00 0.  1.
</event>
<event>
 7    1  0.2334784E-009  0.1499394E+03  0.7561462E-02  0.1200548E+00
         -2   -1    0    0    0  501 -0.00000000000E+00  0.00000000000E+00  0.54900867295E+02  0.54900867295E+02  0.00000000000E+00 0.  1.
          2   -1    0    0  501    0  0.00000000000E+00 -0.00000000000E+00 -0.85521172080E+03  0.85521172080E+03  0.00000000000E+00 0. -1.
         25    2    1    2    0    0 -0.10708548888E+03  0.55905805876E+02 -0.71664547709E+03  0.73744157616E+03  0.12508627965E+03 0.  0.
          5    1    3    3  502    0  0.26779596303E+02 -0.18158135630E+00 -0.80688039896E+02  0.85118810683E+02  0.41800000000E+01 0.  1.
         -5    1    3    3    0  502 -0.13386508518E+03  0.56087387233E+02 -0.63595743720E+03  0.65232276548E+03  0.41800000000E+01 0.  1.
        -11    1    1    2    0    0  0.37510392648E+02 -0.42559447324E+02  0.74909088413E+01  0.57222808637E+02  0.00000000000E+00 0. -1.
         11    1    1    2    0    0  0.69575096232E+02 -0.13346358553E+02 -0.91156285249E+02  0.11544820329E+03  0.00000000000E+00 0.  1.
</event>
<event>
 7    1  0.2334784E-009  0.6593152E+02  0.7561462E-02  0.1374501E+00
         -2   -1    0    0    0  501 -0.00000000000E+00  0.00000000000E+00  0.28267892519E+02  0.28267892519E+02  0.00000000000E+00 0.  1.
          2   -1    0    0  501    0  0.00000000000E+00 -0.00000000000E+00 -0.45788847284E+03  0.45788847284E+03  0.00000000000E+00 0. -1.
         25    2    1    2    0    0  0.52862337791E+01 -0.26343647894E+02 -0.27594673402E+03  0.30416533842E+03  0.12509205023E+03 0.  0.
          5    1    3    3  502    0 -0.92819848369E+01 -0.17957757094E+02 -0.28422069892E+03  0.28496932182E+03  0.41800000000E+01 0. -1.
         -5    1    3    3    0  502  0.14568218616E+02 -0.83858908003E+01  0.82739649042E+01  0.19196016602E+02  0.41800000000E+01 0. -1.
        -11    1    1    2    0    0  0.36858574550E+02 -0.10062414575E+02 -0.39480596679E+02  0.54941097723E+02  0.00000000000E+00 0. -1.
         11    1    1    2    0    0 -0.42144808329E+02  0.36406062469E+02 -0.11419324963E+03  0.12704992922E+03  0.00000000000E+00 0.  1.
</event>
<event>
 7    1  0.2525451E-009  0.9591294E+02  0.7561462E-02  0.1289133E+00
          2   -1    0    0  501    0  0.00000000000E+00  0.00000000000E+00  0.94182581206E+03  0.94182581206E+03  0.00000000000E+00 0. -1.
         -2   -1    0    0    0  501 -0.00000000000E+00 -0.00000000000E+00 -0.18932577869E+02  0.18932577869E+02  0.00000000000E+00 0.  1.
         25    2    1    2    0    0  0.51223020983E+02 -0.27851434867E+01  0.71898226267E+03  0.73158221598E+03  0.12508193236E+03 0.  0.
          5    1    3    3  502    0  0.66546874471E+02  0.33435222721E+02  0.24883569966E+03  0.25977505354E+03  0.41800000000E+01 0.  1.
         -5    1    3    3    0  502 -0.15323853489E+02 -0.36220366208E+02  0.47014656301E+03  0.47180716243E+03  0.41800000000E+01 0.  1.
        -11    1    1    2    0    0 -0.14126319081E+02  0.29001597744E+02  0.16298211222E+02  0.36142457740E+02  0.00000000000E+00 0.  1.
         11    1    1    2    0    0 -0.37096701901E+02 -0.26216454257E+02  0.18761276030E+03  0.19303371621E+03  0.00000000000E+00 0. -1.
</event>
<event>
 6    1  0.2334784E-009  0.1162783E+03  0.7561462E-02  0.1249366E+00
          2   -1    0    0  501    0  0.00000000000E+00  0.00000000000E+00  0.95609072017E+03  0.95609072017E+03  0.00000000000E+00 0.  1.
         -2   -1    0    0    0  501 -0.00000000000E+00 -0.00000000000E+00 -0.22901601338E+02  0.22901601338E+02  0.00000000000E+00 0. -1.
          5    1    1    2  502    0  0.32327223226E+02 -0.40837422212E+02  0.50228752667E+03  0.50499799630E+03  0.41800000000E+01 0. -1.
         -5    1    1    2    0  502  0.12106311221E+02 -0.47353443421E+02  0.51026478696E+02  0.70781956058E+02  0.41800000000E+01 0. -1.
        -11    1    1    2    0    0 -0.24302220997E+02 -0.13353679223E+02  0.12653598789E+03  0.12953870050E+03  0.00000000000E+00 0.  1.
         11    1    1    2    0    0 -0.20131313450E+02  0.10154454486E+03  0.25333912557E+03  0.27367366866E+03  0.00000000000E+00 0. -1.
</event>
<event>
 7    1  0.2334784E-009  0.1128282E+03  0.7561462E-02  0.1255420E+00
          1   -1    0    0  501    0  0.00000000000E+00  0.00000000000E+00  0.10676346054E+03  0.10676346054E+03  0.00000000000E+00 0. -1.
         -1   -1    0    0    0  501 -0.00000000000E+00 -0.00000000000E+00 -0.20654204466E+03  0.20654204466E+03  0.00000000000E+00 0.  1.
         25    2    1    2    0    0 -0.15184102327E+02 -0.76042332522E+02  0.11743832120E+02  0.14764228199E+03  0.12508929827E+03 0.  0.
          5    1    3    3  502    0 -0.59393237595E+02 -0.34910407067E+01 -0.83898490715E+01  0.60229610697E+02  0.41800000000E+01 0. -1.
         -5    1    3    3    0  502  0.44209135268E+02 -0.72551291815E+02  0.20133681191E+02  0.87412671298E+02  0.41800000000E+01 0. -1.
        -11    1    1    2    0    0  0.18975864613E+02  0.35685753439E+02  0.64433800435E+01  0.40927662805E+02  0.00000000000E+00 0. -1.
         11    1    1    2    0    0 -0.37917622857E+01  0.40356579083E+02 -0.11796579628E+03  0.12473556040E+03  0.00000000000E+00 0.  1.
</event>
<event>
 7    1  0.2334784E-009  0.1680016E+03  0.7561462E-02  0.1179948E+00
          1   -1    0    0  501    0  0.00000000000E+00  0.00000000000E+00  0.32347232146E+03  0.32347232146E+03  0.00000000000E+00 0. -1.
         -1   -1    0    0    0  501 -0.00000000000E+00 -0.00000000000E+00 -0.11115193463E+03  0.11115193463E+03  0.00000000000E+00 0.  1.
         25    2    1    2    0    0 -0.12462194195E+03  0.87886059456E+02  0.87662430719E+02  0.21583767213E+03  0.12508641448E+03 0.  0.
          5    1    3    3  502    0  0.21978383061E+01  0.14626925052E+02 -0.26133921063E+02  0.30318833418E+02  0.41800000000E+01 0. -1.
         -5    1    3    3    0  502 -0.12681978026E+03  0.73259134404E+02  0.11379635178E+03  0.18551883871E+03  0.41800000000E+01 0. -1.
        -11    1    1    2    0    0  0.10330327247E+03 -0.23022848855E+02  0.48248721526E+02  0.11631662306E+03  0.00000000000E+00 0.  1.
         11    1    1    2    0    0  0.21318669481E+02 -0.64863210600E+02  0.76409234579E+02  0.10246996090E+03  0.00000000000E+00 0. -1.
</event>
<event>
 7    1  0.2334784E-009  0.1156628E+03  0.7561462E-02  0.1250429E+00
         -2   -1    0    0    0  501 -0.00000000000E+00  0.00000000000E+00  0.44619812786E+02  0.44619812786E+02  0.00000000000E+00 0. -1.
          2   -1    0    0  501    0  0.00000000000E+00 -0.00000000000E+00 -0.56451079152E+03  0.56451079152E+03  0.00000000000E+00 0.  1.
         25    2    1    2    0    0 -0.62284482137E+02 -0.17634723673E+02 -0.46489148482E+03  0.48575874987E+03  0.12508848957E+03 0.  0.
          5    1    3    3  502    0 -0.97951640937E+02 -0.18077876572E+02 -0.27528325709E+03  0.29277923017E+03  0.41800000000E+01 0. -1.
         -5    1    3    3    0  502  0.35667158800E+02  0.44315289860E+00 -0.18960822774E+03  0.19297951971E+03  0.41800000000E+01 0. -1.
        -11    1    1    2    0    0 -0.15892133349E+02  0.24371187216E+01 -0.38940006020E+02  0.42128654368E+02  0.00000000000E+00 0.  1.
         11    1    1    2    0    0  0.78176615486E+02  0.15197604951E+02 -0.16059487888E+02  0.81243200062E+02  0.00000000000E+00 0. -1.
</event>
<event>
 7    1  0.2334784E-009  0.1122920E+03  0.7561462E-02  0.1256383E+00
         -1   -1    0    0    0  501 -0.00000000000E+00  0.00000000000E+00  0.16391438513E+03  0.16391438513E+03  0.00000000000E+00 0.  1.
          1   -1    0    0  501    0  0.00000000000E+00 -0.00000000000E+00 -0.11962295724E+03  0.11962295724E+03  0.00000000000E+00 0. -1.
         25    2    1    2    0    0 -0.65833198699E+02  0.56574433141E+02  0.60492633715E+01  0.15237637071E+03  0.12508912114E+03 0.  0.
          5    1    3    3  502    0 -0.11489278475E+02  0.70368360995E+02 -0.38046350420E+02  0.80924081269E+02  0.41800000000E+01 0.  1.
         -5    1    3    3    0  502 -0.54343920224E+02 -0.13793927854E+02  0.44095613791E+02  0.71452289442E+02  0.41800000000E+01 0.  1.
        -11    1    1    2    0    0  0.71528846420E+02 -0.46344931959E+02  0.61513606942E+02  0.10511019183E+03  0.00000000000E+00 0.  1.
         11    1    1    2    0    0 -0.56956477215E+01 -0.10229501182E+02 -0.23271442422E+02  0.26050779831E+02  0.00000000000E+00 0. -1.
</event>
<event>
 7    1  0.2334784E-009  0.1368365E+03  0.7561462E-02  0.1217650E+00
         -2   -1    0    0    0  501 -0.00000000000E+00  0.00000000000E+00  0.33254590605E+02  0.33254590605E+02  0.00000000000E+00 0.  1.
          2   -1    0    0  501    0  0.00000000000E+00 -0.00000000000E+00 -0.71372339641E+03  0.71372339641E+03  0.00000000000E+00 0. -1.
         25    2    1    2    0    0 -0.60017004381E+02  0.53231433814E+02 -0.49926205919E+03  0.52090785976E+03  0.12508704272E+03 0.  0.
          5    1    3    3  502    0  0.12982643336E+02 -0.32481724234E+02 -0.98489284150E+02  0.10460030081E+03  0.41800000000E+01 0.  1.
         -5    1    3    3    0  502 -0.72999647717E+02  0.85713158049E+02 -0.40077277504E+03  0.41630755895E+03  0.41800000000E+01 0.  1.
        -11    1    1    2    0    0  0.80188889225E+02 -0.13632844251E+02 -0.73788300894E+02  0.10982179085E+03  0.00000000000E+00 0.  1.
         11    1    1    2    0    0 -0.20171884844E+02 -0.39598589564E+02 -0.10741844572E+03  0.11624833640E+03  0.00000000000E+00 0. -1.
</event>
<event>
 7    1  0.2334784E-009  0.1161130E+03  0.7561462E-02  0.1249651E+00
         -1   -1    0    0    0  501 -0.00000000000E+00  0.00000000000E+00  0.12676917298E+03  0.12676917298E+03  0.00000000000E+00 0.  1.
          1   -1    0    0  501    0  0.00000000000E+00 -0.00000000000E+00 -0.16906941702E+03  0.16906941702E+03  0.00000000000E+00 0. -1.
         25    2    1    2    0    0  0.24010478856E+01  0.81258585686E+02 -0.76652210727E+02  0.16772613791E+03  0.12509105943E+03 0.  0.
          5    1    3    3  502    0  0.20998832761E+02  0.91509335347E+02 -0.63806606346E+01  0.94197105386E+02  0.41800000000E+01 0. -1.
         -5    1    3    3    0  502 -0.18597784876E+02 -0.10250749661E+02 -0.70271550092E+02  0.73529032520E+02  0.41800000000E+01 0. -1.
        -11    1    1    2    0    0 -0.41320941657E+02 -0.58158545313E+02  0.41128233136E+02  0.82349062978E+02  0.00000000000E+00 0.  1.
         11    1    1    2    0    0  0.38919893771E+02 -0.23100040373E+02 -0.67762664498E+01  0.45763389116E+02  0.00000000000E+00 0. -1.
</event>
<event>
 7    1  0.2334784E-009  0.9853978E+02  0.7561462E-02  0.1283397E+00
          1   -1    0    0  501    0  0.00000000000E+00  0.00000000000E+00  0.31063275425E+03  0.31063275425E+03  0.00000000000E+00 0. -1.
         -1   -1    0    0    0  501 -0.00000000000E+00 -0.00000000000E+00 -0.69440077628E+02  0.69440077628E+02  0.00000000000E+00 0.  1.
         25    2    1    2    0    0  0.98327864828E+01 -0.62052614450E+02  0.22921997721E+03  0.26858826025E+03  0.12510253771E+03 0.  0.
          5    1    3    3  502    0 -0.51066932532E+01 -0.73450379607E+02  0.51785067140E+02  0.90112164324E+02  0.41800000000E+01 0. -1.
         -5    1    3    3    0  502  0.14939479736E+02  0.11397765157E+02  0.17743491007E+03  0.17847609593E+03  0.41800000000E+01 0. -1.
        -11    1    1    2    0    0 -0.44035929738E+02  0.16292896847E+02  0.24553776136E+02  0.52985936984E+02  0.00000000000E+00 0. -1.
         11    1    1    2    0    0  0.34203143255E+02  0.45759717603E+02 -0.12581076725E+02  0.58498634644E+02  0.00000000000E+00 0.  1.
</event>
<event>
 7    1  0.2334784E-009  0.9510945E+02  0.7561462E-02  0.1290930E+00
          2   -1    0    0  501    0  0.00000000000E+00  0.00000000000E+00  0.75361055172E+03  0.75361055172E+03  0.00000000000E+00 0. -1.
         -2   -1    0    0    0  501 -0.00000000000E+00 -0.00000000000E+00 -0.20138596016E+02  0.20138596016E+02  0.00000000000E+00 0.  1.
         25    2    1    2    0    0  0.63051847218E+01 -0.14578063480E+02  0.58186688036E+03  0.59537386260E+03  0.12509474216E+03 0.  0.
          5    1    3    3  502    0  0.38441439421E+02 -0.44493913940E+02  0.48928815465E+03  0.49282636225E+03  0.41800000000E+01 0. -1.
         -5    1    3    3    0  502 -0.32136254699E+02  0.29915850460E+02  0.92578725705E+02  0.10254750035E+03  0.41800000000E+01 0. -1.
        -11    1    1    2    0    0 -0.40181694736E+02 -0.14301205633E+02  0.10775820277E+03  0.11589186054E+03  0.00000000000E+00 0. -1.
         11    1    1    2    0    0  0.33876510014E+02  0.28879269113E+02  0.43846872576E+02  0.62483424602E+02  0.00000000000E+00 0.  1.
</event>
<event>
 7    1  0.2334784E-009  0.1550793E+03  0.7561462E-02  0.1194367E+00
          2   -1    0    0  501    0  0.00000000000E+00  0.00000000000E+00  0.29838509424E+03  0.29838509424E+03  0.00000000000E+00 0. -1.
         -2   -1    0    0    0  501 -0.00000000000E+00 -0.00000000000E+00 -0.10093886667E+03  0.10093886667E+03  0.00000000000E+00 0.  1.
         25    2    1    2    0    0  0.36227995280E+02  0.12807977151E+03  0.78965399623E+02  0.19900565042E+03  0.12510323356E+03 0.  0.
          5    1    3    3  502    0 -0.30704347308E+02  0.15616012079E+02 -0.15035424645E+02  0.37817366000E+02  0.41800000000E+01 0. -1.
         -5    1    3    3    0  502  0.66932342589E+02  0.11246375943E+03  0.94000824268E+02  0.16118828442E+03  0.41800000000E+01 0. -1.
        -11    1    1    2    0    0 -0.62058246335E+01 -0.10849487351E+03  0.12306749693E+03  0.16418056717E+03  0.00000000000E+00 0.  1.
         11    1    1    2    0    0 -0.30022170647E+02 -0.19584898000E+02 -0.45866689794E+01  0.36137743321E+02  0.00000000000E+00 0. -1.
</event>
<event>
 7    1  0.2334784E-009  0.2424588E+03  0.7561462E-02  0.1118166E+00
         -2   -1    0    0    0  501 -0.00000000000E+00  0.00000000000E+00  0.17823212999E+03  0.17823212999E+03  0.00000000000E+00 0.  1.
          2   -1    0    0  501    0  0.00000000000E+00 -0.00000000000E+00 -0.34035794613E+03  0.34035794613E+03  0.00000000000E+00 0. -1.
         25    2    1    2    0    0 -0.16769940062E+02  0.21785317179E+03 -0.11431055912E+03  0.27650860089E+03  0.12509543193E+03 0.  0.
          5    1    3    3  502    0  0.44915447880E+02  0.31032072065E+02 -0.29876780664E+02  0.62373723456E+02  0.41800000000E+01 0. -1.
         -5    1    3    3    0  502 -0.61685387941E+02  0.18682109973E+03 -0.84433778452E+02  0.21413487743E+03  0.41800000000E+01 0. -1.
        -11    1    1    2    0    0 -0.25053270050E+02 -0.16023568592E+03 -0.12652873655E+02  0.16267524887E+03  0.00000000000E+00 0.  1.
         11    1    1    2    0    0  0.41823210112E+02 -0.57617485874E+02 -0.35162383363E+02  0.79406226370E+02  0.00000000000E+00 0. -1.
</event>
<event>
 7    1  0.2334784E-009  0.1358599E+03  0.7561462E-02  0.1219011E+00
         -1   -1    0    0    0  501 -0.00000000000E+00  0.00000000000E+00  0.16548552315E+02  0.16548552315E+02  0.00000000000E+00 0.  1.
          1   -1    0    0  501    0  0.00000000000E+00 -0.00000000000E+00 -0.16860195711E+04  0.16860195711E+04  0.00000000000E+00 0. -1.
         25    2    1    2    0    0 -0.87558649544E+02  0.63211663759E+02 -0.12331958172E+04  0.12442191440E+04  0.12508846121E+03 0.  0.
          5    1    3    3  502    0 -0.42488956354E+02  0.81590364949E+02 -0.44064616928E+03  0.45016532293E+03  0.41800000000E+01 0.  1.
         -5    1    3    3    0  502 -0.45069693190E+02 -0.18378701191E+02 -0.79254964794E+03  0.79405382107E+03  0.41800000000E+01 0.  1.
        -11    1    1    2    0    0  0.92907224041E+02 -0.73976642009E+02 -0.42688027687E+03  0.44309261630E+03  0.00000000000E+00 0. -1.
         11    1    1    2    0    0 -0.53485744966E+01  0.10764978250E+02 -0.93949247207E+01  0.15256363144E+02  0.00000000000E+00 0.  1.
</event>
<event>
 7    1  0.2334784E-009  0.7392840E+02  0.7561462E-02  0.1347222E+00
          2   -1    0    0  501    0  0.00000000000E+00  0.00000000000E+00  0.16125328082E+03  0.16125328082E+03  0.00000000000E+00 0.  1.
         -2   -1    0    0    0  501 -0.00000000000E+00 -0.00000000000E+00 -0.85127418429E+02  0.85127418429E+02  0.00000000000E+00 0. -1.
         25    2    1    2    0    0 -0.29346718930E+02  0.24318307286E+02  0.19040005483E+02  0.13215043842E+03  0.12509439070E+03 0.  0.
          5    1    3    3  502    0  0.15236341470E+02  0.19425943007E+02  0.63867595539E+02  0.68600696228E+02  0.41800000000E+01 0. -1.
         -5    1    3    3    0  502 -0.44583060400E+02  0.48923642796E+01 -0.44827590055E+02  0.63549742195E+02  0.41800000000E+01 0. -1.
        -11    1    1    2    0    0  0.15486157091E+01 -0.43799737840E+02 -0.43478282010E+01  0.44042239448E+02  0.00000000000E+00 0. -1.
         11    1    1    2    0    0  0.27798103221E+02  0.19481430554E+02  0.61433685113E+02  0.70188021383E+02  0.00000000000E+00 0.  1.
</event>
<event>
 7    1  0.2334784E-009  0.1014251E+03  0.7561462E-02  0.1277327E+00
         -2   -1    0    0    0  501 -0.00000000000E+00  0.00000000000E+00  0.20233532702E+03  0.20233532702E+03  0.00000000000E+00 0.  1.
          2   -1    0    0  501    0  0.00000000000E+00 -0.00000000000E+00 -0.81622420087E+02  0.81622420087E+02  0.00000000000E+00 0. -1.
         25    2    1    2    0    0  0.27233333746E+02  0.48356681375E+01 -0.17598236329E+01  0.12812139847E+03  0.12508779962E+03 0.  0.
          5    1    3    3  502    0 -0.49751632400E+02 -0.18596398384E+01 -0.74952245754E+01  0.50520629235E+02  0.41800000000E+01 0. -1.
         -5    1    3    3    0  502  0.76984966146E+02  0.66953079759E+01  0.57354009425E+01  0.77600769232E+02  0.41800000000E+01 0. -1.
        -11    1    1    2    0    0 -0.22333930647E+02  0.31622488003E+02  0.13789875418E+02  0.41096798777E+02  0.00000000000E+00 0. -1.
         11    1    1    2    0    0 -0.48994030994E+01 -0.36458156141E+02  0.10868285515E+03  0.11473954987E+03  0.00000000000E+00 0.  1.
</event>
<event>
 7    1  0.2334784E-009  0.1139022E+03  0.7561462E-02  0.1253510E+00
         -3   -1    0    0    0  501 -0.00000000000E+00  0.00000000000E+00  0.31950280065E+03  0.31950280065E+03  0.00000000000E+00 0.  1.
          3   -1    0    0  501    0  0.00000000000E+00 -0.00000000000E+00 -0.45774869290E+02  0.45774869290E+02  0.00000000000E+00 0. -1.
         25    2    1    2    0    0  0.11591383832E+02 -0.43627252918E+02  0.18949932396E+03  0.23150706339E+03  0.12509128363E+03 0.  0.
          5    1    3    3  502    0  0.57561296112E+02  0.96204729047E+01  0.11457338513E+03  0.12864831631E+03  0.41800000000E+01 0. -1.
         -5    1    3    3    0  502 -0.45969912281E+02 -0.53247725822E+02  0.74925938828E+02  0.10285874707E+03  0.41800000000E+01 0. -1.
        -11    1    1    2    0    0 -0.27495857699E+02 -0.19510640700E+02  0.49741642979E+02  0.60090917261E+02  0.00000000000E+00 0.  1.
         11    1    1    2    0    0  0.15904473867E+02  0.63137893617E+02  0.34486964421E+02  0.73679689294E+02  0.00000000000E+00 0. -1.
</event>
<event>
 7    1  0.2334784E-009  0.1931671E+03  0.7561462E-02  0.1155635E+00
          2   -1    0    0  501    0  0.00000000000E+00  0.00000000000E+00  0.54144076486E+03  0.54144076486E+03  0.00000000000E+00 0. -1.
         -2   -1    0    0    0  501 -0.00000000000E+00 -0.00000000000E+00 -0.76855389506E+02  0.76855389506E+02  0.00000000000E+00 0.  1.
         25    2    1    2    0    0 -0.14354048941E+02 -0.17295151147E+03  0.26714027848E+03  0.34223732026E+03  0.12507674026E+03 0.  0.
          5    1    3    3  502    0 -0.17639594547E+02  0.12281363547E+02  0.72872132012E+01  0.23077327891E+02  0.41800000000E+01 0. -1.
         -5    1    3    3    0  502  0.32855456062E+01 -0.18523287502E+03  0.25985306528E+03  0.31915999237E+03  0.41800000000E+01 0. -1.
        -11    1    1    2    0    0  0.28912400630E+02  0.80435874002E+02  0.14606627217E+03  0.16923714901E+03  0.00000000000E+00 0. -1.
         11    1    1    2    0    0 -0.14558351690E+02  0.92515637467E+02  0.51378824708E+02  0.10682168510E+03  0.00000000000E+00 0.  1.
</event>
<event>
 7    1  0.2334784E-009  0.1322522E+03  0.7561462E-02  0.1224152E+00
         -2   -1    0    0    0  501 -0.00000000000E+00  0.00000000000E+00  0.13505641451E+03  0.13505641451E+03  0.00000000000E+00 0.  1.
          2   -1    0    0  501    0  0.00000000000E+00 -0.00000000000E+00 -0.21519282620E+03  0.21519282620E+03  0.00000000000E+00 0. -1.
         25    2    1    2    0    0  0.13019891735E+03  0.79718934597E+01 -0.35192638838E+02  0.18410002072E+03  0.12505593403E+03 0.  0.
          5    1    3    3  502    0  0.11323806579E+03  0.15940084350E+02 -0.77115352004E+02  0.13798983929E+03  0.41800000000E+01 0.  1.
         -5    1    3    3    0  502  0.16960851555E+02 -0.79681908906E+01  0.41922713166E+02  0.46110181422E+02  0.41800000000E+01 0.  1.
        -11    1    1    2    0    0 -0.19717769199E+02  0.25970606421E+01  0.27260079850E+02  0.33743845359E+02  0.00000000000E+00 0.  1.
         11    1    1    2    0    0 -0.11048114815E+03 -0.10568954102E+02 -0.72203852707E+02  0.13240537464E+03  0.00000000000E+00 0. -1.
</event>
<event>
 7    1  0.2334784E-009  0.1030882E+03  0.7561462E-02  0.1273933E+00
         -2   -1    0    0    0  501 -0.00000000000E+00  0.00000000000E+00  0.20891592299E+02  0.20891592299E+02  0.00000000000E+00 0.  1.
          2   -1    0    0  501    0  0.00000000000E+00 -0.00000000000E+00 -0.66955766669E+03  0.66955766669E+03  0.00000000000E+00 0. -1.
         25    2    1    2    0    0  0.16123687649E+02 -0.18015689282E+02 -0.49168578727E+03  0.50792612160E+03  0.12509793459E+03 0.  0.
          5    1    3    3  502    0 -0.50683611431E+02 -0.24481137803E+02 -0.16488159591E+03  0.17427440330E+03  0.41800000000E+01 0.  1.
         -5    1    3    3    0  502  0.66807299080E+02  0.64654485214E+01 -0.32680419136E+03  0.33365171830E+03  0.41800000000E+01 0.  1.
        -11    1    1    2    0    0 -0.47423312715E+02  0.23425357455E+01 -0.45830383026E+02  0.65991530297E+02  0.00000000000E+00 0.  1.
         11    1    1    2    0    0  0.31299625066E+02  0.15673153536E+02 -0.11114990409E+03  0.11653160709E+03  0.00000000000E+00 0. -1.
</event>
<event>
 7    1  0.2334784E-009  0.1647273E+03  0.7561462E-02  0.1183461E+00
         -1   -1    0    0    0  501 -0.00000000000E+00  0.00000000000E+00  0.29845952125E+02  0.29845952125E+02  0.00000000000E+00 0.  1.
          1   -1    0    0  501    0  0.00000000000E+00 -0.00000000000E+00 -0.14210809214E+04  0.14210809214E+04  0.00000000000E+00 0. -1.
         25    2    1    2    0    0 -0.10186619896E+03  0.97670130425E+02 -0.10885289092E+04  0.11047438578E+04  0.12509048013E+03 0.  0.
          5    1    3    3  502    0 -0.11002653112E+03  0.22226036861E+02 -0.67729257563E+03  0.68654390949E+03  0.41800000000E+01 0.  1.
         -5    1    3    3    0  502  0.81603321675E+01  0.75444093564E+02 -0.41123633359E+03  0.41819994827E+03  0.41800000000E+01 0.  1.
        -11    1    1    2    0    0  0.66010384929E+02 -0.63996342286E+02 -0.92958050225E+02  0.13074441421E+03  0.00000000000E+00 0.  1.
         11    1    1    2    0    0  0.35855814027E+02 -0.33673788140E+02 -0.20974800979E+03  0.21543860150E+03  0.00000000000E+00 0. -1.
</event>
<event>
 7    1  0.2334784E-009  0.1302499E+03  0.7561462E-02  0.1227085E+00
         -3   -1    0    0    0  501 -0.00000000000E+00  0.00000000000E+00  0.89030716816E+03  0.89030716816E+03  0.00000000000E+00 0.  1.
          3   -1    0    0  501    0  0.00000000000E+00 -0.00000000000E+00 -0.28938880086E+02  0.28938880086E+02  0.00000000000E+00 0. -1.
         25    2    1    2    0    0  0.93383941908E+02 -0.64641415100E+02  0.55723474927E+03  0.58228658722E+03  0.12509208893E+03 0.  0.
          5    1    3    3  502    0  0.69391171475E+02 -0.86610013884E+02  0.25316809307E+03  0.27645611756E+03  0.41800000000E+01 0.  1.
         -5    1    3    3    0  502  0.23992770434E+02  0.21968598784E+02  0.30406665619E+03  0.30583046966E+03  0.41800000000E+01 0.  1.
        -11    1    1    2    0    0 -0.56759683497E+02  0.23147921923E+02  0.57000616401E+02  0.83705186399E+02  0.00000000000E+00 0. -1.
         11    1    1    2    0    0 -0.36624258411E+02  0.41493493177E+02  0.24713292241E+03  0.25325427463E+03  0.00000000000E+00 0.  1.
</event>
<event>
 7    1  0.2334784E-009  0.9431097E+02  0.7561462E-02  0.1292736E+00
         -3   -1    0    0    0  501 -0.00000000000E+00  0.00000000000E+00  0.38118678627E+02  0.38118678627E+02  0.00000000000E+00 0.  1.
          3   -1    0    0  501    0  0.00000000000E+00 -0.00000000000E+00 -0.44000618079E+03  0.44000618079E+03  0.00000000000E+00 0. -1.
         25    2    1    2    0    0  0.66500224092E+02 -0.21841662946E+02 -0.20556357811E+03  0.25060708749E+03  0.12509272405E+03 0.  0.
          5    1    3    3  502    0  0.25902567326E+02 -0.20784170950E+02  0.69679242321E+01  0.34189897985E+02  0.41800000000E+01 0.  1.
         -5    1    3    3    0  502  0.40597656766E+02 -0.10574919959E+01 -0.21253150234E+03  0.21641718950E+03  0.41800000000E+01 0.  1.
        -11    1    1    2    0    0  0.16476364358E+02 -0.16142512586E+02 -0.50081478320E+02  0.55138060954E+02  0.00000000000E+00 0. -1.
         11    1    1    2    0    0 -0.82976588451E+02  0.37984175532E+02 -0.14624244573E+03  0.17237971097E+03  0.00000000000E+00 0.  1.
</event>
<event>
 7    1  0.2334784E-009  0.1175422E+03  0.7561462E-02  0.1247208E+00
          1   -1    0    0  501    0  0.00000000000E+00  0.00000000000E+00  0.73910017100E+02  0.73910017100E+02  0.00000000000E+00 0. -1.
         -1   -1    0    0    0  501 -0.00000000000E+00 -0.00000000000E+00 -0.22852313648E+03  0.22852313648E+03  0.00000000000E+00 0.  1.
         25    2    1    2    0    0 -0.25359986336E+02  0.59386690585E+02 -0.52920642120E+02  0.15039224442E+03  0.12508926770E+03 0.  0.
          5    1    3    3  502    0  0.38938854063E+02 -0.65482165313E+01 -0.41601250267E+02  0.57508694293E+02  0.41800000000E+01 0. -1.
         -5    1    3    3    0  502 -0.64298840399E+02  0.65934907116E+02 -0.11319391853E+02  0.92883550131E+02  0.41800000000E+01 0. -1.
        -11    1    1    2    0    0 -0.28754044702E+02 -0.11642432553E+02 -0.50539829590E+01  0.31430623065E+02  0.00000000000E+00 0. -1.
         11    1    1    2    0    0  0.54114031038E+02 -0.47744258032E+02 -0.96638494298E+02  0.12061028609E+03  0.00000000000E+00 0.  1.
</event>
<event>
 7    1  0.2334784E-009  0.9641629E+02  0.7561462E-02  0.1288018E+00
          1   -1    0    0  501    0  0.00000000000E+00  0.00000000000E+00  0.17441940807E+03  0.17441940807E+03  0.00000000000E+00 0. -1.
         -1   -1    0    0    0  501 -0.00000000000E+00 -0.00000000000E+00 -0.13248784634E+03  0.13248784634E+03  0.00000000000E+00 0.  1.
         25    2    1    2    0    0  0.62169773682E+01 -0.17886589400E+02  0.12878383651E+03  0.18053401878E+03  0.12509466216E+03 0.  0.
          5    1    3    3  502    0  0.43752126385E+01  0.41972946602E+02  0.10958684171E+03  0.11750582543E+03  0.41800000000E+01 0.  1.
         -5    1    3    3    0  502  0.18417647297E+01 -0.59859536003E+02  0.19196994800E+02  0.63028193351E+02  0.41800000000E+01 0.  1.
        -11    1    1    2    0    0  0.41190541934E+02  0.88717068520E+01 -0.51566024784E+02  0.66591462211E+02  0.00000000000E+00 0.  1.
         11    1    1    2    0    0 -0.47407519303E+02  0.90148825482E+01 -0.35286250000E+02  0.59781773416E+02  0.00000000000E+00 0. -1.
</event>
<event>
 7    1  0.2334784E-009  0.1069766E+03  0.7561462E-02  0.1266273E+00
          1   -1    0    0  501    0  0.00000000000E+00  0.00000000000E+00  0.48813808880E+02  0.48813808880E+02  0.00000000000E+00 0. -1.
         -1   -1    0    0    0  501 -0.00000000000E+00 -0.00000000000E+00 -0.32002248864E+03  0.32002248864E+03  0.00000000000E+00 0.  1.
         25    2    1    2    0    0 -0.40902740944E+02  0.31834296759E+02 -0.10408975391E+03  0.17078654952E+03  0.12508761715E+03 0.  0.
          5    1    3    3  502    0 -0.20558963081E+02  0.72357320924E+02 -0.99809438466E+02  0.12505058681E+03  0.41800000000E+01 0.  1.
         -5    1    3    3    0  502 -0.20343777863E+02 -0.40523024165E+02 -0.42803154408E+01  0.45735962716E+02  0.41800000000E+01 0.  1.
        -11    1    1    2    0    0 -0.23274029876E+02 -0.76718118848E+01 -0.96703761099E+02  0.99760486040E+02  0.00000000000E+00 0.  1.
         11    1    1    2    0    0  0.64176770820E+02 -0.24162484874E+02 -0.70415164753E+02  0.98289261954E+02  0.00000000000E+00 0. -1.
</event>
<event>
 7    1  0.2334784E-009  0.9995930E+02  0.7561462E-02  0.1280382E+00
          1   -1    0    0  501    0  0.00000000000E+00  0.00000000000E+00  0.74552664494E+02  0.74552664494E+02  0.00000000000E+00 0. -1.
         -1   -1    0    0    0  501 -0.00000000000E+00 -0.00000000000E+00 -0.26165811922E+03  0.26165811922E+03  0.00000000000E+00 0.  1.
         25    2    1    2    0    0 -0.66870952960E+02 -0.24105708986E+01 -0.34260789473E+02  0.14594795918E+03  0.12509784127E+03 0.  0.
          5    1    3    3  502    0 -0.29009920571E+02  0.55106973111E+02  0.11083678900E+02  0.63393014717E+02  0.41800000000E+01 0.  1.
         -5    1    3    3    0  502 -0.37861032389E+02 -0.57517544010E+02 -0.45344468374E+02  0.82554944459E+02  0.41800000000E+01 0.  1.
        -11    1    1    2    0    0  0.47692459347E+02 -0.50017929961E+01 -0.16111553740E+03  0.16810058002E+03  0.00000000000E+00 0.  1.
         11    1    1    2    0    0  0.19178493613E+02  0.74123638947E+01  0.82708721503E+01  0.22162244514E+02  0.00000000000E+00 0. -1.
</event>
<event>
 7    1  0.2334784E-009  0.1488585E+03  0.7561462E-02  0.1201883E+00
         -1   -1    0    0    0  501 -0.00000000000E+00  0.00000000000E+00  0.13598197416E+03  0.13598197416E+03  0.00000000000E+00 0.  1.
          1   -1    0    0  501    0  0.00000000000E+00 -0.00000000000E+00 -0.20610706641E+03  0.20610706641E+03  0.00000000000E+00 0. -1.
         25    2    1    2    0    0  0.10463176130E+03  0.59884821443E+02 -0.72045573884E+02  0.18807424114E+03  0.12508940064E+03 0.  0.
          5    1    3    3  502    0  0.96410116848E+02  0.90167980437E+02 -0.29984889819E+02  0.13543168516E+03  0.41800000000E+01 0.  1.
         -5    1    3    3    0  502  0.82216444475E+01 -0.30283158994E+02 -0.42060684065E+02  0.52642555980E+02  0.41800000000E+01 0.  1.
        -11    1    1    2    0    0 -0.20541966752E+02 -0.43796672260E+02  0.37593776516E+02  0.61265103703E+02  0.00000000000E+00 0.  1.
         11    1    1    2    0    0 -0.84089794543E+02 -0.16088149184E+02 -0.35673294882E+02  0.92749695731E+02  0.00000000000E+00 0. -1.
</event>
<event>
 7    1  0.2334784E-009  0.9530039E+02  0.7561462E-02  0.1290501E+00
          1   -1    0    0  501    0  0.00000000000E+00  0.00000000000E+00  0.69450767010E+02  0.69450767010E+02  0.00000000000E+00 0. -1.
         -1   -1    0    0    0  501 -0.00000000000E+00 -0.00000000000E+00 -0.20670971653E+03  0.20670971653E+03  0.00000000000E+00 0.  1.
         25    2    1    2    0    0 -0.56789996604E+01  0.58740446613E+01 -0.13653989960E+03  0.18535970018E+03  0.12509324055E+03 0.  0.
          5    1    3    3  502    0 -0.62484682613E+02  0.11818718897E+02 -0.95867719928E+02  0.11511780836E+03  0.41800000000E+01 0.  1.
         -5    1    3    3    0  502  0.56805682952E+02 -0.59446742354E+01 -0.40672179674E+02  0.70241891823E+02  0.41800000000E+01 0.  1.
        -11    1    1    2    0    0  0.42418071496E+01  0.31709174510E+02 -0.29441326127E+02  0.43477078560E+02  0.00000000000E+00 0.  1.
         11    1    1    2    0    0  0.14371925108E+01 -0.37583219172E+02  0.28722276204E+02  0.47323704800E+02  0.00000000000E+00 0. -1.
</event>
<event>
 7    1  0.2334784E-009  0.6380663E+02  0.7561462E-02  0.1382518E+00
          2   -1    0    0  501    0  0.00000000000E+00  0.00000000000E+00  0.50785783877E+03  0.50785783877E+03  0.00000000000E+00 0. -1.
         -2   -1    0    0    0  501 -0.00000000000E+00 -0.00000000000E+00 -0.24836290689E+02  0.24836290689E+02  0.00000000000E+00 0.  1.
         25    2    1    2    0    0  0.25013597372E+02  0.14476165182E+02  0.29662245592E+03  0.32321445290E+03  0.12508981491E+03 0.  0.
          5    1    3    3  502    0  0.22613405390E+01 -0.46632465664E-01  0.29585150016E+03  0.29588967266E+03  0.41800000000E+01 0. -1.
         -5    1    3    3    0  502  0.22752256833E+02  0.14522797647E+02  0.77095575466E+00  0.27324780242E+02  0.41800000000E+01 0. -1.
        -11    1    1    2    0    0 -0.42134056527E+02  0.27431413651E+02  0.10116478336E+03  0.11296935233E+03  0.00000000000E+00 0. -1.
         11    1    1    2    0    0  0.17120459155E+02 -0.41907578832E+02  0.85234308804E+02  0.96510324228E+02  0.00000000000E+00 0.  1.
</event>
<event>
 7    1  0.2334784E-009  0.1356931E+03  0.7561462E-02  0.1219245E+00
         -4   -1    0    0    0  501 -0.00000000000E+00  0.00000000000E+00  0.28028700308E+02  0.28028700308E+02  0.00000000000E+00 0.  1.
          4   -1    0    0  501    0  0.00000000000E+00 -0.00000000000E+00 -0.81974211128E+03  0.81974211128E+03  0.00000000000E+00 0. -1.
         25    2    1    2    0    0 -0.95841117230E+02 -0.45140926057E+02 -0.39840281052E+03  0.43080855810E+03  0.12509193155E+03 0.  0.
          5    1    3    3  502    0 -0.55951144592E+01  0.32262934489E+02 -0.17109740356E+03  0.17425267904E+03  0.41800000000E+01 0.  1.
         -5    1    3    3    0  502 -0.90246002771E+02 -0.77403860546E+02 -0.22730540696E+03  0.25655587905E+03  0.41800000000E+01 0.  1.
        -11    1    1    2    0    0  0.90735172063E+02  0.18908846934E+02 -0.37021582567E+03  0.38164142007E+03  0.00000000000E+00 0. -1.
         11    1    1    2    0    0  0.51059451669E+01  0.26232079122E+02 -0.23094774784E+02  0.35320833420E+02  0.00000000000E+00 0.  1.
</event>
<event>
 7    1  0.2334784E-009  0.6771302E+02  0.7561462E-02  0.1368047E+00
         -1   -1    0    0    0  501 -0.00000000000E+00  0.00000000000E+00  0.24039277250E+02  0.24039277250E+02  0.00000000000E+00 0.  1.
          1   -1    0    0  501    0  0.00000000000E+00 -0.00000000000E+00 -0.51693908021E+03  0.51693908021E+03  0.00000000000E+00 0. -1.
         25    2    1    2    0    0 -0.25543046553E+00 -0.22192783570E+02 -0.36276111570E+03  0.38436452984E+03  0.12509148590E+03 0.  0.
          5    1    3    3  502    0  0.31568606497E+02 -0.15688346138E+02 -0.21429967831E+02  0.41465853928E+02  0.41800000000E+01 0.  1.
         -5    1    3    3    0  502 -0.31824036962E+02 -0.65044374318E+01 -0.34133114787E+03  0.34289867591E+03  0.41800000000E+01 0.  1.
        -11    1    1    2    0    0  0.24515273410E+01  0.44597699943E+02 -0.12605497643E+03  0.13373414639E+03  0.00000000000E+00 0. -1.
         11    1    1    2    0    0 -0.21960968754E+01 -0.22404916373E+02 -0.40837108234E+01  0.22879681232E+02  0.00000000000E+00 0.  1.
</event>
<event>
 7    1  0.2334784E-009  0.1480738E+03  0.7561462E-02  0.1202860E+00
         -2   -1    0    0    0  501 -0.00000000000E+00  0.00000000000E+00  0.96124698601E+02  0.96124698601E+02  0.00000000000E+00 0.  1.
          2   -1    0    0  501    0  0.00000000000E+00 -0.00000000000E+00 -0.27560391666E+03  0.27560391666E+03  0.00000000000E+00 0. -1.
         25    2    1    2    0    0  0.88813529179E+02  0.58860876112E+02 -0.29499021171E+02  0.16694188650E+03  0.12508779124E+03 0.  0.
          5    1    3    3  502    0  0.10699348726E+03  0.81518503284E+02 -0.19749703814E+02  0.13601616042E+03  0.41800000000E+01 0.  1.
         -5    1    3    3    0  502 -0.18179958081E+02 -0.22657627172E+02 -0.97493173568E+01  0.30925726084E+02  0.41800000000E+01 0.  1.
        -11    1    1    2    0    0  0.13704640549E+02 -0.16106607704E+02 -0.42826187371E+01  0.21577321603E+02  0.00000000000E+00 0.  1.
         11    1    1    2    0    0 -0.10251816973E+03 -0.42754268408E+02 -0.14569757815E+03  0.18320940715E+03  0.00000000000E+00 0. -1.
</event>
<event>
 7    1  0.2334784E-009  0.1703215E+03  0.7561462E-02  0.1177513E+00
          1   -1    0    0  501    0  0.00000000000E+00  0.00000000000E+00  0.67395212557E+03  0.67395212557E+03  0.00000000000E+00 0. -1.
         -1   -1    0    0    0  501 -0.00000000000E+00 -0.00000000000E+00 -0.63156507100E+02  0.63156507100E+02  0.00000000000E+00 0.  1.
         25    2    1    2    0    0 -0.13010323878E+03  0.98471206523E+02  0.44527881779E+03  0.49045119078E+03  0.12508282738E+03 0.  0.
          5    1    3    3  502    0 -0.68263003736E+02  0.91233320181E+02  0.14872632191E+03  0.18740423586E+03  0.41800000000E+01 0.  1.
         -5    1    3    3    0  502 -0.61840235044E+02  0.72378863428E+01  0.29655249588E+03  0.30304695491E+03  0.41800000000E+01 0.  1.
        -11    1    1    2    0    0  0.20251051905E+02 -0.24488011756E+02  0.87159565562E+02  0.92771534923E+02  0.00000000000E+00 0. -1.
         11    1    1    2    0    0  0.10985218688E+03 -0.73983194767E+02  0.78357235117E+02  0.15388590697E+03  0.00000000000E+00 0.  1.
</event>
<event>
 7    1  0.2334784E-009  0.5733320E+02  0.7561462E-02  0.1409376E+00
          1   -1    0    0  501    0  0.00000000000E+00  0.00000000000E+00  0.31467075596E+02  0.31467075596E+02  0.00000000000E+00 0. -1.
         -1   -1    0    0    0  501 -0.00000000000E+00 -0.00000000000E+00 -0.42826915065E+03  0.42826915065E+03  0.00000000000E+00 0.  1.
         25    2    1    2    0    0 -0.28832399712E+02  0.19527185080E+02 -0.23171644128E+03  0.26562841025E+03  0.12511324848E+03 0.  0.
          5    1    3    3  502    0 -0.12531048084E+02 -0.77689084668E+01 -0.23303124145E+03  0.23353461198E+03  0.41800000000E+01 0. -1.
         -5    1    3    3    0  502 -0.16301351628E+02  0.27296093546E+02  0.13148001694E+01  0.32093798268E+02  0.41800000000E+01 0. -1.
        -11    1    1    2    0    0  0.45893300102E+02 -0.20330240876E+02 -0.16924276344E+03  0.17652939320E+03  0.00000000000E+00 0.  1.
         11    1    1    2    0    0 -0.17060900389E+02  0.80305579680E+00  0.41571296622E+01  0.17578422789E+02  0.00000000000E+00 0. -1.
</event>
<event>
 7    1  0.2334784E-009  0.1337903E+03  0.7561462E-02  0.1221938E+00
         -1   -1    0    0    0  501 -0.00000000000E+00  0.00000000000E+00  0.29344468670E+03  0.29344468670E+03  0.00000000000E+00 0.  1.
          1   -1    0    0  501    0  0.00000000000E+00 -0.00000000000E+00 -0.11182900865E+03  0.11182900865E+03  0.00000000000E+00 0. -1.
         25    2    1    2    0    0  0.45423108353E+02  0.65373339583E+02 -0.37092449357E+02  0.15284263908E+03  0.12509232678E+03 0.  0.
          5    1    3    3  502    0  0.82165178721E+02  0.11719891554E+02 -0.19953738908E+02  0.85464007329E+02  0.41800000000E+01 0. -1.
         -5    1    3    3    0  502 -0.36742070368E+02  0.53653448029E+02 -0.17138710449E+02  0.67378631747E+02  0.41800000000E+01 0. -1.
        -11    1    1    2    0    0 -0.50124739797E+01 -0.77080877236E+02  0.99156734828E+02  0.12569265926E+03  0.00000000000E+00 0.  1.
         11    1    1    2    0    0 -0.40410634373E+02  0.11707537653E+02  0.11955139258E+03  0.12673839701E+03  0.00000000000E+00 0. -1.
</event>
<event>
 7    1  0.2334784E-009  0.1169820E+03  0.7561462E-02  0.1248160E+00
         -1   -1    0    0    0  501 -0.00000000000E+00  0.00000000000E+00  0.84570096906E+02  0.84570096906E+02  0.00000000000E+00 0.  1.
          1   -1    0    0  501    0  0.00000000000E+00 -0.00000000000E+00 -0.35722075433E+03  0.35722075433E+03  0.00000000000E+00 0. -1.
         25    2    1    2    0    0 -0.27246350037E+01  0.88315808381E+02 -0.27378592192E+03  0.31371049435E+03  0.12509371518E+03 0.  0.
          5    1    3    3  502    0 -0.65616116410E+01  0.11434779200E+03 -0.15979850832E+03  0.19665072576E+03  0.41800000000E+01 0. -1.
         -5    1    3    3    0  502  0.38369766373E+01 -0.26031983623E+02 -0.11398741361E+03  0.11705976859E+03  0.41800000000E+01 0. -1.
        -11    1    1    2    0    0 -0.12010140098E+02 -0.25483413674E+02  0.42816727800E+02  0.51253487853E+02  0.00000000000E+00 0.  1.
         11    1    1    2    0    0  0.14734775101E+02 -0.62832394707E+02 -0.41681463295E+02  0.76826869026E+02  0.00000000000E+00 0. -1.
</event>
<event>
 7    1  0.2334784E-009  0.1014807E+03  0.7561462E-02  0.1277213E+00
          2   -1    0    0  501    0  0.00000000000E+00  0.00000000000E+00  0.91197291127E+03  0.91197291127E+03  0.00000000000E+00 0. -1.
         -2   -1    0    0    0  501 -0.00000000000E+00 -0.00000000000E+00 -0.23572125211E+02  0.23572125211E+02  0.00000000000E+00 0.  1.
         25    2    1    2    0    0 -0.89883211016E+02  0.27856693478E+02  0.55093984632E+03  0.57274486232E+03  0.12508787333E+03 0.  0.
          5    1    3    3  502    0 -0.58922787937E+02  0.20973160779E+02  0.53176692722E+03  0.53544869568E+03  0.41800000000E+01 0. -1.
         -5    1    3    3    0  502 -0.30960423078E+02  0.68835326986E+01  0.19172919099E+02  0.37296166645E+02  0.41800000000E+01 0. -1.
        -11    1    1    2    0    0  0.26463036278E+02  0.16234634938E+02  0.22076679292E+02  0.38095084056E+02  0.00000000000E+00 0.  1.
         11    1    1    2    0    0  0.63420174738E+02 -0.44091328416E+02  0.31538426044E+03  0.32470509010E+03  0.00000000000E+00 0. -1.
</event>
<event>
 7    1  0.2334784E-009  0.1153406E+03  0.7561462E-02  0.1250988E+00
          2   -1    0    0  501    0  0.00000000000E+00  0.00000000000E+00  0.27812660569E+02  0.27812660569E+02  0.00000000000E+00 0. -1.
         -2   -1    0    0    0  501 -0.00000000000E+00 -0.00000000000E+00 -0.50928829238E+03  0.50928829238E+03  0.00000000000E+00 0.  1.
         25    2    1    2    0    0 -0.29618041029E+02 -0.36652197508E+02 -0.28358886528E+03  0.31351438501E+03  0.12509201877E+03 0.  0.
          5    1    3    3  502    0 -0.70410529755E+02 -0.54304941179E+02 -0.19080469278E+03  0.21054826649E+03  0.41800000000E+01 0. -1.
         -5    1    3    3    0  502  0.40792488726E+02  0.17652743670E+02 -0.92784172504E+02  0.10296611852E+03  0.41800000000E+01 0. -1.
        -11    1    1    2    0    0 -0.30014489937E+02  0.93784526704E+01 -0.10692466080E+03  0.11145271674E+03  0.00000000000E+00 0.  1.
         11    1    1    2    0    0  0.59632530966E+02  0.27273744838E+02 -0.90962105733E+02  0.11213385121E+03  0.00000000000E+00 0. -1.
</event>
<event>
 7    1  0.2334784E-009  0.2612064E+03  0.7561462E-02  0.1106421E+00
         -1   -1    0    0    0  501 -0.00000000000E+00  0.00000000000E+00  0.17400393550E+03  0.17400393550E+03  0.00000000000E+00 0.  1.
          1   -1    0    0  501    0  0.00000000000E+00 -0.00000000000E+00 -0.45599267155E+03  0.45599267155E+03  0.00000000000E+00 0. -1.
         25    2    1    2    0    0 -0.28110297085E+02 -0.24534739635E+03 -0.53560462124E+02  0.28196005767E+03  0.12508883771E+03 0.  0.
          5    1    3    3  502    0 -0.59390124874E+02 -0.16056913327E+03  0.97756356814E+01  0.17153037324E+03  0.41800000000E+01 0.  1.
         -5    1    3    3    0  502  0.31279827788E+02 -0.84778263076E+02 -0.63336097805E+02  0.11042968442E+03  0.41800000000E+01 0.  1.
        -11    1    1    2    0    0 -0.16244676246E+01  0.22421425853E+03 -0.20983464964E+03  0.30709160329E+03  0.00000000000E+00 0.  1.
         11    1    1    2    0    0  0.29734764710E+02  0.21133137820E+02 -0.18593624290E+02  0.40944946095E+02  0.00000000000E+00 0. -1.
</event>
<event>
 7    1  0.2334784E-009  0.2115973E+03  0.7561462E-02  0.1140307E+00
         -1   -1    0    0    0  501 -0.00000000000E+00  0.00000000000E+00  0.18231988787E+03  0.18231988787E+03  0.00000000000E+00 0.  1.
          1   -1    0    0  501    0  0.00000000000E+00 -0.00000000000E+00 -0.26367098552E+03  0.26367098552E+03  0.00000000000E+00 0. -1.
         25    2    1    2    0    0 -0.15209931857E+02  0.18991237426E+03 -0.46869349568E+02  0.23268433755E+03  0.12508882079E+03 0.  0.
          5    1    3    3  502    0 -0.65353992693E+02  0.61166800997E+02 -0.15510505068E+02  0.90942674650E+02  0.41800000000E+01 0.  1.
         -5    1    3    3    0  502  0.50144060836E+02  0.12874557326E+03 -0.31358844499E+02  0.14174166290E+03  0.41800000000E+01 0.  1.
        -11    1    1    2    0    0 -0.15266665946E+02 -0.67687113741E+02  0.25322130171E+02  0.73863568369E+02  0.00000000000E+00 0. -1.
         11    1    1    2    0    0  0.30476597804E+02 -0.12222526052E+03 -0.59803878259E+02  0.13944296747E+03  0.00000000000E+00 0.  1.
</event>
<event>
 7    1  0.2334784E-009  0.2244445E+03  0.7561462E-02  0.1130612E+00
         -2   -1    0    0    0  501 -0.00000000000E+00  0.00000000000E+00  0.28345436079E+02  0.28345436079E+02  0.00000000000E+00 0.  1.
          2   -1    0    0  501    0  0.00000000000E+00 -0.00000000000E+00 -0.36868366877E+04  0.36868366877E+04  0.00000000000E+00 0. -1.
         25    2    1    2    0    0 -0.20935012273E+03  0.76298386253E+02 -0.30494646443E+04  0.30601520471E+04  0.12508803528E+03 0.  0.
          5    1    3    3  502    0 -0.12064885928E+03  0.55273108814E+02 -0.24681245298E+04  0.24716932315E+04  0.41800000000E+01 0. -1.
         -5    1    3    3    0  502 -0.88701263450E+02  0.21025277439E+02 -0.58134011458E+03  0.58845881559E+03  0.41800000000E+01 0. -1.
        -11    1    1    2    0    0  0.10157013650E+03 -0.53099142417E+02 -0.42794542222E+03  0.44302742122E+03  0.00000000000E+00 0. -1.
         11    1    1    2    0    0  0.10777998624E+03 -0.23199243836E+02 -0.18108118510E+03  0.21200265551E+03  0.00000000000E+00 0.  1.
</event>
<event>
 7    1  0.2334784E-009  0.1196242E+03  0.7561462E-02  0.1243718E+00
         -1   -1    0    0    0  501 -0.00000000000E+00  0.00000000000E+00  0.19966753805E+02  0.19966753805E+02  0.00000000000E+00 0. -1.
          1   -1    0    0  501    0  0.00000000000E+00 -0.00000000000E+00 -0.99893445103E+03  0.99893445103E+03  0.00000000000E+00 0.  1.
         25    2    1    2    0    0  0.31179252569E+01  0.85236575076E+02 -0.49495894904E+03  0.51759898771E+03  0.12509738466E+03 0.  0.
          5    1    3    3  502    0 -0.72976618635E+01 -0.28761105408E+02 -0.51489207736E+02  0.59574054472E+02  0.41800000000E+01 0. -1.
         -5    1    3    3    0  502  0.10415587120E+02  0.11399768048E+03 -0.44346974131E+03  0.45802493324E+03  0.41800000000E+01 0. -1.
        -11    1    1    2    0    0 -0.13430349726E+02 -0.83131138846E+02 -0.48348547131E+03  0.49076405890E+03  0.00000000000E+00 0.  1.
         11    1    1    2    0    0  0.10312424469E+02 -0.21054362303E+01 -0.52327687148E+00  0.10538158228E+02  0.00000000000E+00 0. -1.
</event>
<event>
 7    1  0.2334784E-009  0.1412774E+03  0.7561462E-02  0.1211620E+00
          1   -1    0    0  501    0  0.00000000000E+00  0.00000000000E+00  0.92288087456E+03  0.92288087456E+03  0.00000000000E+00 0. -1.
         -1   -1    0    0    0  501 -0.00000000000E+00 -0.00000000000E+00 -0.22687759596E+02  0.22687759596E+02  0.00000000000E+00 0.  1.
         25    2    1    2    0    0  0.87886567871E+02 -0.35073387143E+02  0.42611178948E+03  0.45406203615E+03  0.12508750631E+03 0.  0.
          5    1    3    3  502    0 -0.21113771160E+00  0.38395038976E+02  0.15318110134E+03  0.15797514299E+03  0.41800000000E+01 0.  1.
         -5    1    3    3    0  502  0.88097705582E+02 -0.73468426120E+02  0.27293068814E+03  0.29608689315E+03  0.41800000000E+01 0.  1.
        -11    1    1    2    0    0 -0.92955522589E+02 -0.75551361949E+00  0.36101359247E+03  0.37278963764E+03  0.00000000000E+00 0.  1.
         11    1    1    2    0    0  0.50689547186E+01  0.35828900763E+02  0.11306773301E+03  0.11871696037E+03  0.00000000000E+00 0. -1.
</event>
<event>
 7    1  0.2334784E-009  0.4769796E+03  0.7561462E-02  0.1019969E+00
         -2   -1    0    0    0  501 -0.00000000000E+00  0.00000000000E+00  0.13235204852E+03  0.13235204852E+03  0.00000000000E+00 0.  1.
          2   -1    0    0  501    0  0.00000000000E+00 -0.00000000000E+00 -0.24673637653E+04  0.24673637653E+04  0.00000000000E+00 0. -1.
         25    2    1    2    0    0 -0.40168536227E+03 -0.23438408753E+03 -0.18877993382E+04  0.19482604087E+04  0.12508096529E+03 0.  0.
          5    1    3    3  502    0 -0.18618781313E+03 -0.18028442611E+03 -0.10419490257E+04  0.10737055558E+04  0.41800000000E+01 0. -1.
         -5    1    3    3    0  502 -0.21549754914E+03 -0.54099661421E+02 -0.84585031258E+03  0.87455485291E+03  0.41800000000E+01 0. -1.
        -11    1    1    2    0    0  0.12217965964E+03  0.28704168217E+02 -0.99069159371E+02  0.15989526835E+03  0.00000000000E+00 0.  1.
         11    1    1    2    0    0  0.27950570263E+03  0.20567991931E+03 -0.34814321914E+03  0.49156013675E+03  0.00000000000E+00 0. -1.
</event>
<event>
 7    1  0.2334784E-009  0.1303634E+03  0.7561462E-02  0.1226917E+00
          1   -1    0    0  501    0  0.00000000000E+00  0.00000000000E+00  0.78462645460E+03  0.78462645460E+03  0.00000000000E+00 0. -1.
         -1   -1    0    0    0  501 -0.00000000000E+00 -0.00000000000E+00 -0.31927763762E+02  0.31927763762E+02  0.00000000000E+00 0.  1.
         25    2    1    2    0    0 -0.50958359060E+02 -0.10288828935E+03  0.43209601936E+03  0.46425444814E+03  0.12506985338E+03 0.  0.
          5    1    3    3  502    0  0.16493792867E+02 -0.11220888688E+01  0.20276290172E+01  0.17172302292E+02  0.41800000000E+01 0.  1.
         -5    1    3    3    0  502 -0.67452151928E+02 -0.10176620048E+03  0.43006839034E+03  0.44708214585E+03  0.41800000000E+01 0.  1.
        -11    1    1    2    0    0  0.99253076739E+01  0.64704736694E+02  0.71380786417E+02  0.96852626978E+02  0.00000000000E+00 0.  1.
         11    1    1    2    0    0  0.41033051387E+02  0.38183552657E+02  0.24922188506E+03  0.25544714324E+03  0.00000000000E+00 0. -1.
</event>
<event>
 7    1  0.2334784E-009  0.1042872E+03  0.7561462E-02  0.1271530E+00
          2   -1    0    0  501    0  0.00000000000E+00  0.00000000000E+00  0.47024895859E+03  0.47024895859E+03  0.00000000000E+00 0. -1.
         -2   -1    0    0    0  501 -0.00000000000E+00 -0.00000000000E+00 -0.26725278272E+02  0.26725278272E+02  0.00000000000E+00 0.  1.
         25    2    1    2    0    0  0.17625200768E+02 -0.61953071262E+01  0.26479923626E+03  0.29344697817E+03  0.12507383397E+03 0.  0.
          5    1    3    3  502    0  0.16644089836E+02  0.57369893574E+02  0.15954833676E+03  0.17041559370E+03  0.41800000000E+01 0. -1.
         -5    1    3    3    0  502  0.98111093225E+00 -0.63565200700E+02  0.10525089950E+03  0.12303138447E+03  0.41800000000E+01 0. -1.
        -11    1    1    2    0    0  0.33490271390E+02  0.49345223789E+01  0.12440486884E+03  0.12892834902E+03  0.00000000000E+00 0. -1.
         11    1    1    2    0    0 -0.51115472158E+02  0.12607847473E+01  0.54319575217E+02  0.74598909669E+02  0.00000000000E+00 0.  1.
</event>
<event>
 7    1  0.2334784E-009  0.1656273E+03  0.7561462E-02  0.1182486E+00
         -1   -1    0    0    0  501 -0.00000000000E+00  0.00000000000E+00  0.23016795838E+03  0.23016795838E+03  0.00000000000E+00 0. -1.
          1   -1    0    0  501    0  0.00000000000E+00 -0.00000000000E+00 -0.23149794510E+03  0.23149794510E+03  0.00000000000E+00 0.  1.
         25    2    1    2    0    0 -0.12352968518E+03  0.46203551818E+02 -0.15616319684E+03  0.23964017725E+03  0.12508444822E+03 0.  0.
          5    1    3    3  502    0 -0.40468447068E+02 -0.36679795101E+02 -0.88623105121E+02  0.10418555436E+03  0.41800000000E+01 0. -1.
         -5    1    3    3    0  502 -0.83061238114E+02  0.82883346919E+02 -0.67540091714E+02  0.13545462289E+03  0.41800000000E+01 0. -1.
        -11    1    1    2    0    0 -0.11097418027E+02 -0.18562157054E+02  0.23311927180E+02  0.31798621200E+02  0.00000000000E+00 0.  1.
         11    1    1    2    0    0  0.13462710321E+03 -0.27641394764E+02  0.13152128294E+03  0.19022710503E+03  0.00000000000E+00 0. -1.
</event>
<event>
 7    1  0.2334784E-009  0.9666232E+02  0.7561462E-02  0.1287475E+00
         -1   -1    0    0    0  501 -0.00000000000E+00  0.00000000000E+00  0.71424567525E+02  0.71424567525E+02  0.00000000000E+00 0.  1.
          1   -1    0    0  501    0  0.00000000000E+00 -0.00000000000E+00 -0.28387198964E+03  0.28387198964E+03  0.00000000000E+00 0. -1.
         25    2    1    2    0    0  0.19196932067E+02 -0.90062120145E+02 -0.11216573738E+03  0.19159546501E+03  0.12509181382E+03 0.  0.
          5    1    3    3  502    0 -0.33989790975E+01 -0.65977358366E+02  0.82078020404E+01  0.66703862633E+02  0.41800000000E+01 0. -1.
         -5    1    3    3    0  502  0.22595911164E+02 -0.24084761778E+02 -0.12037353942E+03  0.12489160238E+03  0.41800000000E+01 0. -1.
        -11    1    1    2    0    0 -0.66953556083E+00  0.46449688228E+02  0.64723812261E+01  0.46903235848E+02  0.00000000000E+00 0.  1.
         11    1    1    2    0    0 -0.18527396506E+02  0.43612431917E+02 -0.10675406596E+03  0.11679785631E+03  0.00000000000E+00 0. -1.
</event>
<event>
 7    1  0.2334784E-009  0.1061521E+03  0.7561462E-02  0.1267866E+00
         -1   -1    0    0    0  501 -0.00000000000E+00  0.00000000000E+00  0.47370428335E+02  0.47370428335E+02  0.00000000000E+00 0.  1.
          1   -1    0    0  501    0  0.00000000000E+00 -0.00000000000E+00 -0.32068029145E+03  0.32068029145E+03  0.00000000000E+00 0. -1.
         25    2    1    2    0    0  0.46881942744E+02 -0.35512680397E+02 -0.16360995044E+03  0.21418769469E+03  0.12509630549E+03 0.  0.
          5    1    3    3  502    0 -0.35934209894E+02 -0.56795682481E+01 -0.11480473630E+02  0.38377058394E+02  0.41800000000E+01 0. -1.
         -5    1    3    3    0  502  0.82816152639E+02 -0.29833112149E+02 -0.15212947681E+03  0.17581063629E+03  0.41800000000E+01 0. -1.
        -11    1    1    2    0    0  0.16009343827E+02  0.15507564102E+01 -0.70565623840E+02  0.72375487584E+02  0.00000000000E+00 0. -1.
         11    1    1    2    0    0 -0.62891286571E+02  0.33961923986E+02 -0.39134288829E+02  0.81487537511E+02  0.00000000000E+00 0.  1.
</event>
<event>
 7    1  0.2334784E-009  0.9659111E+02  0.7561462E-02  0.1287632E+00
         -1   -1    0    0    0  501 -0.00000000000E+00  0.00000000000E+00  0.36650773913E+02  0.36650773913E+02  0.00000000000E+00 0.  1.
          1   -1    0    0  501    0  0.00000000000E+00 -0.00000000000E+00 -0.34432210101E+03  0.34432210101E+03  0.00000000000E+00 0. -1.
         25    2    1    2    0    0 -0.83035405057E+01  0.17272400277E+02 -0.20965933206E+03  0.24489082137E+03  0.12508874558E+03 0.  0.
          5    1    3    3  502    0 -0.40673640542E+01 -0.42525921943E+02 -0.22794690728E+02  0.48601109173E+02  0.41800000000E+01 0.  1.
         -5    1    3    3    0  502 -0.42361764516E+01  0.59798322220E+02 -0.18686464134E+03  0.19628971219E+03  0.41800000000E+01 0.  1.
        -11    1    1    2    0    0  0.48619814336E+01  0.36228353724E+02 -0.20720708165E+02  0.42017618018E+02  0.00000000000E+00 0.  1.
         11    1    1    2    0    0  0.34415590721E+01 -0.53500754001E+02 -0.77291286869E+02  0.94064435539E+02  0.00000000000E+00 0. -1.
</event>
<event>
 7    1  0.2334784E-009  0.1164514E+03  0.7561462E-02  0.1249069E+00
          1   -1    0    0  501    0  0.00000000000E+00  0.00000000000E+00  0.61610981168E+02  0.61610981168E+02  0.00000000000E+00 0. -1.
         -1   -1    0    0    0  501 -0.00000000000E+00 -0.00000000000E+00 -0.30725442738E+03  0.30725442738E+03  0.00000000000E+00 0.  1.
         25    2    1    2    0    0  0.17127853474E+02  0.74999504883E+02 -0.87511487685E+02  0.17095033062E+03  0.12508983158E+03 0.  0.
          5    1    3    3  502    0  0.51346715172E+02  0.58507182931E+02 -0.27860543455E+01  0.78005192855E+02  0.41800000000E+01 0. -1.
         -5    1    3    3    0  502 -0.34218861699E+02  0.16492321952E+02 -0.84725433339E+02  0.92945137764E+02  0.41800000000E+01 0. -1.
        -11    1    1    2    0    0  0.36023027058E+02 -0.34847823377E+02 -0.87423966938E+02  0.10077191706E+03  0.00000000000E+00 0. -1.
         11    1    1    2    0    0 -0.53150880532E+02 -0.40151681506E+02 -0.70707991586E+02  0.97143160867E+02  0.00000000000E+00 0.  1.
</event>
<event>
 7    1  0.2334784E-009  0.2087669E+03  0.7561462E-02  0.1142546E+00
          1   -1    0    0  501    0  0.00000000000E+00  0.00000000000E+00  0.13745165802E+03  0.13745165802E+03  0.00000000000E+00 0. -1.
         -1   -1    0    0    0  501 -0.00000000000E+00 -0.00000000000E+00 -0.33910900619E+03  0.33910900619E+03  0.00000000000E+00 0.  1.
         25    2    1    2    0    0 -0.14052214832E+03  0.12394059123E+03 -0.12309259805E+03  0.25672391026E+03  0.12509050356E+03 0.  0.
          5    1    3    3  502    0 -0.90670240742E+02  0.13342357568E+03 -0.12743519816E+03  0.20562136376E+03  0.41800000000E+01 0.  1.
         -5    1    3    3    0  502 -0.49851907575E+02 -0.94829844524E+01  0.43426001084E+01  0.51102546499E+02  0.41800000000E+01 0.  1.
        -11    1    1    2    0    0  0.47949873980E+02 -0.98009368800E+02 -0.38839612646E+02  0.11581684807E+03  0.00000000000E+00 0.  1.
         11    1    1    2    0    0  0.92572274336E+02 -0.25931222427E+02 -0.39725137468E+02  0.10401990588E+03  0.00000000000E+00 0. -1.
</event>
<event>
 7    1  0.2334784E-009  0.1542989E+03  0.7561462E-02  0.1195288E+00
          1   -1    0    0  501    0  0.00000000000E+00  0.00000000000E+00  0.51034964464E+03  0.51034964464E+03  0.00000000000E+00 0. -1.
         -1   -1    0    0    0  501 -0.00000000000E+00 -0.00000000000E+00 -0.59856546966E+02  0.59856546966E+02  0.00000000000E+00 0.  1.
         25    2    1    2    0    0 -0.97513722110E+01  0.12243411252E+03  0.32683620010E+03  0.37088338082E+03  0.12508948517E+03 0.  0.
          5    1    3    3  502    0  0.18314291647E+02 -0.21076764887E+02  0.66817277482E+02  0.72537330160E+02  0.41800000000E+01 0. -1.
         -5    1    3    3    0  502 -0.28065663858E+02  0.14351087741E+03  0.26001892262E+03  0.29834605066E+03  0.41800000000E+01 0. -1.
        -11    1    1    2    0    0  0.27506428855E+02 -0.33305735996E+02  0.94460409253E+02  0.10386840037E+03  0.00000000000E+00 0. -1.
         11    1    1    2    0    0 -0.17755056644E+02 -0.89128376525E+02  0.29196488315E+02  0.95454410418E+02  0.00000000000E+00 0.  1.
</event>
<event>
 7    1  0.2334784E-009  0.1960735E+03  0.7561462E-02  0.1153095E+00
          1   -1    0    0  501    0  0.00000000000E+00  0.00000000000E+00  0.39452502412E+03  0.39452502412E+03  0.00000000000E+00 0.  1.
         -1   -1    0    0    0  501 -0.00000000000E+00 -0.00000000000E+00 -0.11297512434E+03  0.11297512434E+03  0.00000000000E+00 0. -1.
         25    2    1    2    0    0  0.18951969982E+02  0.17507252942E+03  0.99015733623E+02  0.23761641947E+03  0.12509148481E+03 0.  0.
          5    1    3    3  502    0 -0.52266166648E+02  0.58729765519E+02  0.46162535073E+02  0.91265489526E+02  0.41800000000E+01 0. -1.
         -5    1    3    3    0  502  0.71218136631E+02  0.11634276390E+03  0.52853198550E+02  0.14635092994E+03  0.41800000000E+01 0. -1.
        -11    1    1    2    0    0 -0.21567803010E+02 -0.12851529465E+03  0.69673497627E+02  0.14776923684E+03  0.00000000000E+00 0. -1.
         11    1    1    2    0    0  0.26158330280E+01 -0.46557234770E+02  0.11286066853E+03  0.12211449215E+03  0.00000000000E+00 0.  1.
</event>
<event>
 7    1  0.2334784E-009  0.1070466E+03  0.7561462E-02  0.1266139E+00
          2   -1    0    0  501    0  0.00000000000E+00  0.00000000000E+00  0.28301145632E+02  0.28301145632E+02  0.00000000000E+00 0. -1.
         -2   -1    0    0    0  501 -0.00000000000E+00 -0.00000000000E+00 -0.77565292008E+03  0.77565292008E+03  0.00000000000E+00 0.  1.
         25    2    1    2    0    0  0.18739821660E+02 -0.17390923226E+02 -0.67273868923E+03  0.68474666795E+03  0.12508808961E+03 0.  0.
          5    1    3    3  502    0  0.66957188388E+02 -0.28862507079E+02 -0.48776583116E+03  0.49320308985E+03  0.41800000000E+01 0.  1.
         -5    1    3    3    0  502 -0.48217366728E+02  0.11471583853E+02 -0.18497285807E+03  0.19154357811E+03  0.41800000000E+01 0.  1.
        -11    1    1    2    0    0  0.27823000247E+02  0.32110062560E+02 -0.23658011782E+02  0.48630000841E+02  0.00000000000E+00 0. -1.
         11    1    1    2    0    0 -0.46562821907E+02 -0.14719139334E+02 -0.50955073442E+02  0.70577396921E+02  0.00000000000E+00 0.  1.
</event>
<event>
 7    1  0.2334784E-009  0.1139942E+03  0.7561462E-02  0.1253347E+00
          2   -1    0    0  501    0  0.00000000000E+00  0.00000000000E+00  0.79733221793E+02  0.79733221793E+02  0.00000000000E+00 0. -1.
         -2   -1    0    0    0  501 -0.00000000000E+00 -0.00000000000E+00 -0.25818008340E+03  0.25818008340E+03  0.00000000000E+00 0.  1.
         25    2    1    2    0    0 -0.13486349150E+02  0.92807703737E+02 -0.94400019611E+02  0.18262954033E+03  0.12508810420E+03 0.  0.
          5    1    3    3  502    0  0.16832771642E+01 -0.94911016313E+00  0.27589197908E+02  0.27970886174E+02  0.41800000000E+01 0.  1.
         -5    1    3    3    0  502 -0.15169626314E+02  0.93756813901E+02 -0.12198921752E+03  0.15465865416E+03  0.41800000000E+01 0.  1.
        -11    1    1    2    0    0  0.49895956753E+02 -0.67646958698E+02 -0.68301566933E+02  0.10830891730E+03  0.00000000000E+00 0.  1.
         11    1    1    2    0    0 -0.36409607602E+02 -0.25160745040E+02 -0.15745275068E+02  0.46974847564E+02  0.00000000000E+00 0. -1.
</event>
<event>
 7    1  0.2334784E-009  0.1741865E+03  0.7561462E-02  0.1173551E+00
          2   -1    0    0  501    0  0.00000000000E+00  0.00000000000E+00  0.16112710880E+04  0.16112710880E+04  0.00000000000E+00 0. -1.
         -2   -1    0    0    0  501 -0.00000000000E+00 -0.00000000000E+00 -0.19562480043E+02  0.19562480043E+02  0.00000000000E+00 0.  1.
         25    2    1    2    0    0  0.60286651968E+02 -0.12733707475E+03  0.84762620233E+03  0.86831251187E+03  0.12508888196E+03 0.  0.
          5    1    3    3  502    0  0.70124081716E+02 -0.14498256988E+03  0.65232187622E+03  0.67192159885E+03  0.41800000000E+01 0. -1.
         -5    1    3    3    0  502 -0.98374297488E+01  0.17645495123E+02  0.19530432611E+03  0.19639091302E+03  0.41800000000E+01 0. -1.
        -11    1    1    2    0    0  0.23466744319E+02  0.32902886143E+02  0.17386221588E+03  0.17849750171E+03  0.00000000000E+00 0.  1.
         11    1    1    2    0    0 -0.83753396287E+02  0.94434188609E+02  0.57022018973E+03  0.58402355444E+03  0.00000000000E+00 0. -1.
</event>
<event>
 7    1  0.2334784E-009  0.9347603E+02  0.7561462E-02  0.1294646E+00
         -3   -1    0    0    0  501 -0.00000000000E+00  0.00000000000E+00  0.79029283516E+03  0.79029283516E+03  0.00000000000E+00 0.  1.
          3   -1    0    0  501    0  0.00000000000E+00 -0.00000000000E+00 -0.14929383195E+02  0.14929383195E+02  0.00000000000E+00 0. -1.
         25    2    1    2    0    0 -0.12789846251E+02  0.22502574194E+02  0.47963050251E+03  0.49634934403E+03  0.12508919365E+03 0.  0.
          5    1    3    3  502    0 -0.55723954736E+02  0.13838599750E+02  0.11041545611E+03  0.12452193109E+03  0.41800000000E+01 0.  1.
         -5    1    3    3    0  502  0.42934108485E+02  0.86639744443E+01  0.36921504640E+03  0.37182741294E+03  0.41800000000E+01 0.  1.
        -11    1    1    2    0    0  0.14252191533E+02  0.29815316002E+02  0.16046400293E+03  0.16383154235E+03  0.00000000000E+00 0.  1.
         11    1    1    2    0    0 -0.14623452813E+01 -0.52317890196E+02  0.13526894652E+03  0.14504133198E+03  0.00000000000E+00 0. -1.
</event>
<event>
 7    1  0.2334784E-009  0.1972334E+03  0.7561462E-02  0.1152094E+00
         -2   -1    0    0    0  501 -0.00000000000E+00  0.00000000000E+00  0.88913262150E+02  0.88913262150E+02  0.00000000000E+00 0.  1.
          2   -1    0    0  501    0  0.00000000000E+00 -0.00000000000E+00 -0.54007125899E+03  0.54007125899E+03  0.00000000000E+00 0. -1.
         25    2    1    2    0    0 -0.18881446681E+03  0.14509574868E+02 -0.25208013114E+03  0.33920198297E+03  0.12510860122E+03 0.  0.
          5    1    3    3  502    0 -0.13353028967E+03  0.28235947691E+02 -0.24652710950E+03  0.28181677579E+03  0.41800000000E+01 0. -1.
         -5    1    3    3    0  502 -0.55284177148E+02 -0.13726372823E+02 -0.55530216367E+01  0.57385207180E+02  0.41800000000E+01 0. -1.
        -11    1    1    2    0    0  0.56046414887E+02 -0.35562660452E+02 -0.11014843904E+03  0.12860241858E+03  0.00000000000E+00 0. -1.
         11    1    1    2    0    0  0.13276805193E+03  0.21053085584E+02 -0.88929426667E+02  0.16118011960E+03  0.00000000000E+00 0.  1.
</event>
<event>
 7    1  0.2334784E-009  0.1316574E+03  0.7561462E-02  0.1225017E+00
         -2   -1    0    0    0  501 -0.00000000000E+00  0.00000000000E+00  0.14129441736E+03  0.14129441736E+03  0.00000000000E+00 0.  1.
          2   -1    0    0  501    0  0.00000000000E+00 -0.00000000000E+00 -0.23360465823E+03  0.23360465823E+03  0.00000000000E+00 0. -1.
         25    2    1    2    0    0 -0.30312565028E+02  0.12185427173E+03 -0.12410328596E+03  0.21637085385E+03  0.12508959058E+03 0.  0.
          5    1    3    3  502    0  0.32774805692E+01  0.90362606897E+02 -0.73731018666E+01  0.90818377189E+02  0.41800000000E+01 0. -1.
         -5    1    3    3    0  502 -0.33590045597E+02  0.31491664830E+02 -0.11673018409E+03  0.12555247666E+03  0.41800000000E+01 0. -1.
        -11    1    1    2    0    0  0.27977588029E+02 -0.82015156201E+02  0.63604573347E+02  0.10749313015E+03  0.00000000000E+00 0.  1.
         11    1    1    2    0    0  0.23349769991E+01 -0.39839115525E+02 -0.31811528262E+02  0.51035091592E+02  0.00000000000E+00 0. -1.
</event>
<event>
 7    1  0.2334784E-009  0.1393647E+03  0.7561462E-02  0.1214186E+00
         -1   -1    0    0    0  501 -0.00000000000E+00  0.00000000000E+00  0.63859036066E+03  0.63859036066E+03  0.00000000000E+00 0.  1.
          1   -1    0    0  501    0  0.00000000000E+00 -0.00000000000E+00 -0.32608802420E+02  0.32608802420E+02  0.00000000000E+00 0. -1.
         25    2    1    2    0    0  0.45952458975E+02 -0.79399459334E+02  0.36290587818E+03  0.39466919253E+03  0.12508873847E+03 0.  0.
          5    1    3    3  502    0  0.51698983089E+02 -0.10701155891E+03  0.33183062603E+03  0.35249580901E+03  0.41800000000E+01 0. -1.
         -5    1    3    3    0  502 -0.57465241140E+01  0.27612099578E+02  0.31075252143E+02  0.42173383529E+02  0.41800000000E+01 0. -1.
        -11    1    1    2    0    0 -0.61688863629E+02  0.12978901410E+02  0.10418463957E+03  0.12177194628E+03  0.00000000000E+00 0.  1.
         11    1    1    2    0    0  0.15736404654E+02  0.66420557924E+02  0.13889104050E+03  0.15475802427E+03  0.00000000000E+00 0. -1.
</event>
<event>
 7    1  0.2334784E-009  0.8028227E+02  0.7561462E-02  0.1328252E+00
         -1   -1    0    0    0  501 -0.00000000000E+00  0.00000000000E+00  0.25447900963E+03  0.25447900963E+03  0.00000000000E+00 0.  1.
          1   -1    0    0  501    0  0.00000000000E+00 -0.00000000000E+00 -0.47832802729E+02  0.47832802729E+02  0.00000000000E+00 0. -1.
         25    2    1    2    0    0  0.13042807671E+02  0.15774004462E+01  0.12437233518E+03  0.17688291031E+03  0.12508590319E+03 0.  0.
          5    1    3    3  502    0 -0.80200305219E+01  0.55840344338E+02  0.25448744651E+02  0.62028831600E+02  0.41800000000E+01 0.  1.
         -5    1    3    3    0  502  0.21062838193E+02 -0.54262943892E+02  0.98923590530E+02  0.11485407871E+03  0.41800000000E+01 0.  1.
        -11    1    1    2    0    0  0.14551966419E+02  0.77798156637E+01  0.92944877615E+02  0.94398281410E+02  0.00000000000E+00 0.  1.
         11    1    1    2    0    0 -0.27594774089E+02 -0.93572161099E+01 -0.10671005897E+02  0.31030620639E+02  0.00000000000E+00 0. -1.
</event>
<event>
 7    1  0.2334784E-009  0.1620081E+03  0.7561462E-02  0.1186448E+00
          1   -1    0    0  501    0  0.00000000000E+00  0.00000000000E+00  0.51862061140E+03  0.51862061140E+03  0.00000000000E+00 0. -1.
         -1   -1    0    0    0  501 -0.00000000000E+00 -0.00000000000E+00 -0.78231299443E+02  0.78231299443E+02  0.00000000000E+00 0.  1.
         25    2    1    2    0    0 -0.15617856528E+03 -0.36644878805E+01  0.12748741682E+03  0.23728846951E+03  0.12509038169E+03 0.  0.
          5    1    3    3  502    0 -0.63981979794E+02 -0.22402088815E+02  0.12595679302E+03  0.14310182888E+03  0.41800000000E+01 0.  1.
         -5    1    3    3    0  502 -0.92196585486E+02  0.18737600935E+02  0.15306238037E+01  0.94186640630E+02  0.41800000000E+01 0.  1.
        -11    1    1    2    0    0  0.12854333970E+03 -0.13721372021E+02  0.17336058710E+03  0.21625346099E+03  0.00000000000E+00 0.  1.
         11    1    1    2    0    0  0.27635225584E+02  0.17385859902E+02  0.13954130803E+03  0.14330998034E+03  0.00000000000E+00 0. -1.
</event>
<event>
 7    1  0.2334784E-009  0.3070011E+03  0.7561462E-02  0.1081792E+00
          1   -1    0    0  501    0  0.00000000000E+00  0.00000000000E+00  0.66740151348E+03  0.66740151348E+03  0.00000000000E+00 0. -1.
         -1   -1    0    0    0  501 -0.00000000000E+00 -0.00000000000E+00 -0.14728974338E+03  0.14728974338E+03  0.00000000000E+00 0.  1.
         25    2    1    2    0    0 -0.18367270554E+03 -0.22687140816E+03  0.20278950229E+03  0.37679691848E+03  0.12508411946E+03 0.  0.
          5    1    3    3  502    0 -0.94282314944E+01  0.12658473165E+02  0.29188676058E+02  0.33445174570E+02  0.41800000000E+01 0. -1.
         -5    1    3    3    0  502 -0.17424447404E+03 -0.23952988132E+03  0.17360082623E+03  0.34335174391E+03  0.41800000000E+01 0. -1.
        -11    1    1    2    0    0  0.10489732028E+03  0.70611957261E+02  0.14304443426E+03  0.19092199057E+03  0.00000000000E+00 0. -1.
         11    1    1    2    0    0  0.78775385257E+02  0.15625945089E+03  0.17427783355E+03  0.24697234781E+03  0.00000000000E+00 0.  1.
</event>
<event>
 7    1  0.2334784E-009  0.1223235E+03  0.7561462E-02  0.1239313E+00
         -3   -1    0    0    0  501 -0.00000000000E+00  0.00000000000E+00  0.86133017808E+02  0.86133017808E+02  0.00000000000E+00 0.  1.
          3   -1    0    0  501    0  0.00000000000E+00 -0.00000000000E+00 -0.26515056330E+03  0.26515056330E+03  0.00000000000E+00 0. -1.
         25    2    1    2    0    0  0.24574140010E+02  0.88881742648E+02 -0.15232238410E+03  0.21760942250E+03  0.12509156458E+03 0.  0.
          5    1    3    3  502    0  0.24788024200E+02 -0.22603202442E+02 -0.72058650839E+01  0.34565123984E+02  0.41800000000E+01 0. -1.
         -5    1    3    3    0  502 -0.21388418973E+00  0.11148494509E+03 -0.14511651902E+03  0.18304429852E+03  0.41800000000E+01 0. -1.
        -11    1    1    2    0    0 -0.34157595721E+02 -0.62753615452E+02  0.24393544092E+02  0.75497036968E+02  0.00000000000E+00 0.  1.
         11    1    1    2    0    0  0.95834557102E+01 -0.26128127196E+02 -0.51088705477E+02  0.58177121633E+02  0.00000000000E+00 0. -1.
</event>
<event>
 7    1  0.2334784E-009  0.1230187E+03  0.7561462E-02  0.1238199E+00
         -1   -1    0    0    0  501 -0.00000000000E+00  0.00000000000E+00  0.22016050512E+03  0.22016050512E+03  0.00000000000E+00 0.  1.
          1   -1    0    0  501    0  0.00000000000E+00 -0.00000000000E+00 -0.11612231217E+03  0.11612231217E+03  0.00000000000E+00 0. -1.
         25    2    1    2    0    0  0.87171091295E+02  0.72628362839E+02  0.83595466495E+02  0.18844164342E+03  0.12509345591E+03 0.  0.
          5    1    3    3  502    0  0.95294296969E+01  0.34133752917E+00  0.81595746869E+02  0.82257308786E+02  0.41800000000E+01 0.  1.
         -5    1    3    3    0  502  0.77641661598E+02  0.72287025310E+02  0.19997196264E+01  0.10618433464E+03  0.41800000000E+01 0.  1.
        -11    1    1    2    0    0 -0.10359310282E+01 -0.35746070423E+02  0.38360428800E+02  0.52444038760E+02  0.00000000000E+00 0.  1.
         11    1    1    2    0    0 -0.86135160267E+02 -0.36882292416E+02 -0.17917702350E+02  0.95397135102E+02  0.00000000000E+00 0. -1.
</event>
<event>
 7    1  0.2334784E-009  0.1032192E+03  0.7561462E-02  0.1273668E+00
         -2   -1    0    0    0  501 -0.00000000000E+00  0.00000000000E+00  0.18124886444E+02  0.18124886444E+02  0.00000000000E+00 0.  1.
          2   -1    0    0  501    0  0.00000000000E+00 -0.00000000000E+00 -0.77739342433E+03  0.77739342433E+03  0.00000000000E+00 0. -1.
         25    2    1    2    0    0 -0.23516109652E+02  0.34759366254E+02 -0.34997458781E+03  0.37401945064E+03  0.12508843428E+03 0.  0.
          5    1    3    3  502    0 -0.32132265329E+02 -0.28040440081E+02 -0.43616005296E+02  0.61143904627E+02  0.41800000000E+01 0.  1.
         -5    1    3    3    0  502  0.86161556772E+01  0.62799806335E+02 -0.30635858251E+03  0.31287554601E+03  0.41800000000E+01 0.  1.
        -11    1    1    2    0    0  0.53882368574E+02 -0.42612779673E+02 -0.30198071146E+03  0.30969583260E+03  0.00000000000E+00 0. -1.
         11    1    1    2    0    0 -0.30366258923E+02  0.78534134188E+01 -0.10731323862E+03  0.11180302753E+03  0.00000000000E+00 0.  1.
</event>
<event>
 7    1  0.2334784E-009  0.1851592E+03  0.7561462E-02  0.1162901E+00
          1   -1    0    0  501    0  0.00000000000E+00  0.00000000000E+00  0.15446077860E+04  0.15446077860E+04  0.00000000000E+00 0. -1.
         -1   -1    0    0    0  501 -0.00000000000E+00 -0.00000000000E+00 -0.27078495224E+02  0.27078495224E+02  0.00000000000E+00 0.  1.
         25    2    1    2    0    0 -0.10094431130E+03 -0.13834304721E+03  0.80749992408E+03  0.83488453291E+03  0.12508998039E+03 0.  0.
          5    1    3    3  502    0  0.12723505679E+02 -0.57740595745E+02  0.12564784966E+03  0.13892702587E+03  0.41800000000E+01 0.  1.
         -5    1    3    3    0  502 -0.11366781698E+03 -0.80602451467E+02  0.68185207443E+03  0.69595750703E+03  0.41800000000E+01 0.  1.
        -11    1    1    2    0    0  0.81187247487E+02  0.11842530250E+03  0.68270213932E+03  0.69763753659E+03  0.00000000000E+00 0.  1.
         11    1    1    2    0    0  0.19757063811E+02  0.19917744714E+02  0.27327227388E+02  0.39164211745E+02  0.00000000000E+00 0. -1.
</event>
<event>
 7    1  0.2334784E-009  0.1753375E+03  0.7561462E-02  0.1172393E+00
          2   -1    0    0  501    0  0.00000000000E+00  0.00000000000E+00  0.16503348672E+03  0.16503348672E+03  0.00000000000E+00 0. -1.
         -2   -1    0    0    0  501 -0.00000000000E+00 -0.00000000000E+00 -0.36554836080E+03  0.36554836080E+03  0.00000000000E+00 0.  1.
         25    2    1    2    0    0 -0.96426109201E+02 -0.10880993070E+03 -0.28239317794E+03  0.34136629319E+03  0.12508974229E+03 0.  0.
          5    1    3    3  502    0 -0.95946092736E+02 -0.21809445273E+02 -0.10629877220E+03  0.14490757739E+03  0.41800000000E+01 0. -1.
         -5    1    3    3    0  502 -0.48001646490E+00 -0.87000485428E+02 -0.17609440574E+03  0.19645871580E+03  0.41800000000E+01 0. -1.
        -11    1    1    2    0    0  0.31007717768E+02  0.92656615302E+02  0.24548332060E+02  0.10074397018E+03  0.00000000000E+00 0.  1.
         11    1    1    2    0    0  0.65418391433E+02  0.16153315399E+02  0.57329971799E+02  0.88471584153E+02  0.00000000000E+00 0. -1.
</event>
<event>
 7    1  0.2334784E-009  0.1802982E+03  0.7561462E-02  0.1167515E+00
         -1   -1    0    0    0  501 -0.00000000000E+00  0.00000000000E+00  0.15997806188E+02  0.15997806188E+02  0.00000000000E+00 0.  1.
          1   -1    0    0  501    0  0.00000000000E+00 -0.00000000000E+00 -0.45308062650E+04  0.45308062650E+04  0.00000000000E+00 0. -1.
         25    2    1    2    0    0 -0.13733427032E+03  0.95910007100E+02 -0.38336548987E+04  0.38393511276E+04  0.12509103453E+03 0.  0.
          5    1    3    3  502    0 -0.42000562333E+02  0.16259149142E+02 -0.23688717589E+04  0.23693035453E+04  0.41800000000E+01 0.  1.
         -5    1    3    3    0  502 -0.95333707983E+02  0.79650857958E+02 -0.14647831398E+04  0.14700475823E+04  0.41800000000E+01 0.  1.
        -11    1    1    2    0    0  0.39162277784E+02  0.15905836706E+02 -0.15635467975E+03  0.16196748291E+03  0.00000000000E+00 0. -1.
         11    1    1    2    0    0  0.98171992533E+02 -0.11181584381E+03 -0.52479888034E+03  0.54548546072E+03  0.00000000000E+00 0.  1.
</event>
<event>
 7    1  0.2334784E-009  0.1339094E+03  0.7561462E-02  0.1221768E+00
         -1   -1    0    0    0  501 -0.00000000000E+00  0.00000000000E+00  0.55677507579E+03  0.55677507579E+03  0.00000000000E+00 0.  1.
          1   -1    0    0  501    0  0.00000000000E+00 -0.00000000000E+00 -0.46355089220E+02  0.46355089220E+02  0.00000000000E+00 0. -1.
         25    2    1    2    0    0  0.71695412890E+02 -0.38266147622E+02  0.11379164103E+03  0.18761320506E+03  0.12508256018E+03 0.  0.
          5    1    3    3  502    0 -0.26258768867E+02  0.16896878278E+02  0.65236838095E+01  0.32172321775E+02  0.41800000000E+01 0.  1.
         -5    1    3    3    0  502  0.97954181757E+02 -0.55163025900E+02  0.10726795723E+03  0.15544088329E+03  0.41800000000E+01 0.  1.
        -11    1    1    2    0    0 -0.66627404435E+01  0.56012783319E+02  0.17559755869E+03  0.18443515561E+03  0.00000000000E+00 0. -1.
         11    1    1    2    0    0 -0.65032672446E+02 -0.17746635698E+02  0.22103078684E+03  0.23108180434E+03  0.00000000000E+00 0.  1.
</event>
<event>
 7    1  0.2334784E-009  0.9648338E+02  0.7561462E-02  0.1287870E+00
          2   -1    0    0  501    0  0.00000000000E+00  0.00000000000E+00  0.15320959930E+03  0.15320959930E+03  0.00000000000E+00 0. -1.
         -2   -1    0    0    0  501 -0.00000000000E+00 -0.00000000000E+00 -0.92840690039E+02  0.92840690039E+02  0.00000000000E+00 0.  1.
         25    2    1    2    0    0 -0.25235197364E+00  0.28881554932E+02  0.71099037203E+02  0.14675357741E+03  0.12508929409E+03 0.  0.
          5    1    3    3  502    0 -0.18548978178E+02 -0.43325895594E+02  0.50828685618E+02  0.69442245803E+02  0.41800000000E+01 0. -1.
         -5    1    3    3    0  502  0.18296626205E+02  0.72207450526E+02  0.20270351585E+02  0.77311331610E+02  0.41800000000E+01 0. -1.
        -11    1    1    2    0    0 -0.32277191667E+02 -0.12381004517E+02 -0.39754185978E+02  0.52683030262E+02  0.00000000000E+00 0.  1.
         11    1    1    2    0    0  0.32529543641E+02 -0.16500550415E+02  0.29024058041E+02  0.46613681668E+02  0.00000000000E+00 0. -1.
</event>
<event>
 7    1  0.2334784E-009  0.1537982E+03  0.7561462E-02  0.1195882E+00
          1   -1    0    0  501    0  0.00000000000E+00  0.00000000000E+00  0.36542267822E+03  0.36542267822E+03  0.00000000000E+00 0. -1.
         -1   -1    0    0    0  501 -0.00000000000E+00 -0.00000000000E+00 -0.82159079198E+02  0.82159079198E+02  0.00000000000E+00 0.  1.
         25    2    1    2    0    0  0.12872282268E+03  0.37118955316E+02  0.15920859224E+03  0.24278074950E+03  0.12509090520E+03 0.  0.
          5    1    3    3  502    0  0.22695778729E+02  0.60159685956E+02  0.22615210690E+02  0.68287673419E+02  0.41800000000E+01 0.  1.
         -5    1    3    3    0  502  0.10602704395E+03 -0.23040730640E+02  0.13659338155E+03  0.17449307608E+03  0.41800000000E+01 0.  1.
        -11    1    1    2    0    0 -0.97251635621E+02 -0.22207714791E+02  0.29482841374E+02  0.10402067661E+03  0.00000000000E+00 0.  1.
         11    1    1    2    0    0 -0.31471187056E+02 -0.14911240525E+02  0.94572165407E+02  0.10078033131E+03  0.00000000000E+00 0. -1.
</event>
<event>
 7    1  0.2485628E-009  0.1851532E+03  0.7561462E-02  0.1162907E+00
         -1   -1    0    0    0  501 -0.00000000000E+00  0.00000000000E+00  0.80993187135E+02  0.80993187135E+02  0.00000000000E+00 0.  1.
          1   -1    0    0  501    0  0.00000000000E+00 -0.00000000000E+00 -0.74449010410E+03  0.74449010410E+03  0.00000000000E+00 0. -1.
         25    2    1    2    0    0  0.15365092975E+03 -0.99209113568E+00 -0.77479305587E+02  0.21275584102E+03  0.12510960249E+03 0.  0.
          5    1    3    3  502    0  0.16778655375E+03  0.21264264230E+02 -0.77437598353E+02  0.18606061000E+03  0.41800000000E+01 0. -1.
         -5    1    3    3    0  502 -0.14135623998E+02 -0.22256355366E+02 -0.41707233547E-01  0.26695231025E+02  0.41800000000E+01 0. -1.
        -11    1    1    2    0    0 -0.94563529821E+02  0.41003965901E+02 -0.27639188746E+03  0.29498485020E+03  0.00000000000E+00 0.  1.
         11    1    1    2    0    0 -0.59087399933E+02 -0.40011874765E+02 -0.30962572391E+03  0.31774260001E+03  0.00000000000E+00 0. -1.
</event>
<event>
 7    1  0.2480674E-009  0.1323234E+03  0.7561462E-02  0.1224048E+00
         -1   -1    0    0    0  501 -0.00000000000E+00  0.00000000000E+00  0.17753774838E+02  0.17753774838E+02  0.00000000000E+00 0.  1.
          1   -1    0    0  501    0  0.00000000000E+00 -0.00000000000E+00 -0.14151381127E+04  0.14151381127E+04  0.00000000000E+00 0. -1.
         25    2    1    2    0    0 -0.68980742722E+02 -0.66603815141E+02 -0.10357792264E+04  0.10477011082E+04  0.12507835615E+03 0.  0.
          5    1    3    3  502    0 -0.45166915137E+02 -0.96712678016E+02 -0.54276331505E+03  0.55317527139E+03  0.41800000000E+01 0. -1.
         -5    1    3    3    0  502 -0.23813827585E+02  0.30108862876E+02 -0.49301591134E+03  0.49452583678E+03  0.41800000000E+01 0. -1.
        -11    1    1    2    0    0 -0.13328408151E+02  0.21653374270E+02 -0.24597424055E+02  0.35377229276E+02  0.00000000000E+00 0.  1.
         11    1    1    2    0    0  0.82309150873E+02  0.44950440870E+02 -0.33700768746E+03  0.34981355013E+03  0.00000000000E+00 0. -1.
</event>
<event>
 7    1  0.2334784E-009  0.1218883E+03  0.7561462E-02  0.1240014E+00
         -2   -1    0    0    0  501 -0.00000000000E+00  0.00000000000E+00  0.54480843196E+02  0.54480843196E+02  0.00000000000E+00 0.  1.
          2   -1    0    0  501    0  0.00000000000E+00 -0.00000000000E+00 -0.45862838345E+03  0.45862838345E+03  0.00000000000E+00 0. -1.
         25    2    1    2    0    0  0.22218511185E+02 -0.89486980711E+02 -0.11115254485E+03  0.19105431397E+03  0.12508109651E+03 0.  0.
          5    1    3    3  502    0  0.44313495359E+02 -0.36370113353E+01  0.49350144254E+01  0.44930396056E+02  0.41800000000E+01 0. -1.
         -5    1    3    3    0  502 -0.22094984174E+02 -0.85849969375E+02 -0.11608755927E+03  0.14612391791E+03  0.41800000000E+01 0.  1.
        -11    1    1    2    0    0 -0.41002410896E+02  0.39342213070E+02 -0.58622390698E+02  0.81643077598E+02  0.00000000000E+00 0.  1.
         11    1    1    2    0    0  0.18783899711E+02  0.50144767641E+02 -0.23437260470E+03  0.24041183508E+03  0.00000000000E+00 0. -1.
</event>
<event>
 7    1  0.2334784E-009  0.1281244E+03  0.7561462E-02  0.1230266E+00
         -1   -1    0    0    0  501 -0.00000000000E+00  0.00000000000E+00  0.24125333530E+03  0.24125333530E+03  0.00000000000E+00 0.  1.
          1   -1    0    0  501    0  0.00000000000E+00 -0.00000000000E+00 -0.10315598475E+03  0.10315598475E+03  0.00000000000E+00 0. -1.
         25    2    1    2    0    0  0.41358778091E+02 -0.92829582247E+02  0.13143824941E+03  0.20796963579E+03  0.12508987225E+03 0.  0.
          5    1    3    3  502    0 -0.15214212857E+02 -0.67345675587E+02  0.12823300930E+03  0.14569862514E+03  0.41800000000E+01 0.  1.
         -5    1    3    3    0  502  0.56572990948E+02 -0.25483906660E+02  0.32052401059E+01  0.62271010651E+02  0.41800000000E+01 0.  1.
        -11    1    1    2    0    0 -0.62332984164E+02  0.73449569687E+02  0.28529795072E+02  0.10046984328E+03  0.00000000000E+00 0.  1.
         11    1    1    2    0    0  0.20974206073E+02  0.19380012560E+02 -0.21870693923E+02  0.35969840976E+02  0.00000000000E+00 0. -1.
</event>
<event>
 7    1  0.2334784E-009  0.1720592E+03  0.7561462E-02  0.1175717E+00
          1   -1    0    0  501    0  0.00000000000E+00  0.00000000000E+00  0.72360860301E+02  0.72360860301E+02  0.00000000000E+00 0. -1.
         -1   -1    0    0    0  501 -0.00000000000E+00 -0.00000000000E+00 -0.90168073061E+03  0.90168073061E+03  0.00000000000E+00 0.  1.
         25    2    1    2    0    0 -0.24222842251E+02 -0.16458157581E+03 -0.73342262403E+03  0.76238403026E+03  0.12508726139E+03 0.  0.
          5    1    3    3  502    0 -0.61720726308E+00 -0.48183847242E+02 -0.53375686595E+02  0.72031245993E+02  0.41800000000E+01 0.  1.
         -5    1    3    3    0  502 -0.23605634988E+02 -0.11639772857E+03 -0.68004693744E+03  0.69035278426E+03  0.41800000000E+01 0.  1.
        -11    1    1    2    0    0 -0.20121264288E+02  0.61047146497E+02 -0.85312779805E+00  0.64283335313E+02  0.00000000000E+00 0. -1.
         11    1    1    2    0    0  0.44344106539E+02  0.10353442931E+03 -0.95044118476E+02  0.14737422534E+03  0.00000000000E+00 0.  1.
</event>
<event>
 7    1  0.2334784E-009  0.2840164E+03  0.7561462E-02  0.1093515E+00
         -2   -1    0    0    0  501 -0.00000000000E+00  0.00000000000E+00  0.54783181711E+02  0.54783181711E+02  0.00000000000E+00 0.  1.
          2   -1    0    0  501    0  0.00000000000E+00 -0.00000000000E+00 -0.23836153547E+04  0.23836153547E+04  0.00000000000E+00 0. -1.
         25    2    1    2    0    0 -0.27934224987E+03  0.18112960974E+02 -0.18601276410E+04  0.18852270794E+04  0.12508448409E+03 0.  0.
          5    1    3    3  502    0 -0.19740269765E+03  0.12071539727E+02 -0.16054635051E+04  0.16176044281E+04  0.41800000000E+01 0.  1.
         -5    1    3    3    0  502 -0.81939552221E+02  0.60414212469E+01 -0.25466413593E+03  0.26762265135E+03  0.41800000000E+01 0.  1.
        -11    1    1    2    0    0  0.32710362934E+02  0.20073152905E+02 -0.31079071190E+02  0.49384288765E+02  0.00000000000E+00 0.  1.
         11    1    1    2    0    0  0.24663188694E+03 -0.38186113879E+02 -0.43762546078E+03  0.50378716823E+03  0.00000000000E+00 0. -1.
</event>
<event>
 7    1  0.2334784E-009  0.6894482E+02  0.7561462E-02  0.1363718E+00
         -2   -1    0    0    0  501 -0.00000000000E+00  0.00000000000E+00  0.69651562209E+02  0.69651562209E+02  0.00000000000E+00 0.  1.
          2   -1    0    0  501    0  0.00000000000E+00 -0.00000000000E+00 -0.17977649365E+03  0.17977649365E+03  0.00000000000E+00 0. -1.
         25    2    1    2    0    0  0.15177779515E+01 -0.24131095023E+02 -0.62688561501E+02  0.14198177735E+03  0.12507739987E+03 0.  0.
          5    1    3    3  502    0 -0.38304230388E+02 -0.22611340798E+01 -0.83383354775E+02  0.91883529789E+02  0.41800000000E+01 0.  1.
         -5    1    3    3    0  502  0.39822008340E+02 -0.21869960943E+02  0.20694793274E+02  0.50098247559E+02  0.41800000000E+01 0.  1.
        -11    1    1    2    0    0 -0.12555088810E+02  0.35600808316E+02  0.16762035716E+02  0.41303918084E+02  0.00000000000E+00 0.  1.
         11    1    1    2    0    0  0.11037310859E+02 -0.11469713293E+02 -0.64198405653E+02  0.66142360423E+02  0.00000000000E+00 0. -1.
</event>
<event>
 7    1  0.2334784E-009  0.1429936E+03  0.7561462E-02  0.1209357E+00
         -2   -1    0    0    0  501 -0.00000000000E+00  0.00000000000E+00  0.22931310170E+03  0.22931310170E+03  0.00000000000E+00 0.  1.
          2   -1    0    0  501    0  0.00000000000E+00 -0.00000000000E+00 -0.23034191251E+03  0.23034191251E+03  0.00000000000E+00 0. -1.
         25    2    1    2    0    0  0.12689650262E+03  0.93483971675E+01 -0.15744570874E+03  0.23796371176E+03  0.12508981576E+03 0.  0.
          5    1    3    3  502    0  0.77991694770E+02 -0.10825682783E+02 -0.78568724273E+01  0.79240789403E+02  0.41800000000E+01 0.  1.
         -5    1    3    3    0  502  0.48904807846E+02  0.20174079951E+02 -0.14958883631E+03  0.15872292235E+03  0.41800000000E+01 0.  1.
        -11    1    1    2    0    0 -0.32191769393E+02  0.36653771638E+02  0.30401861934E+02  0.57481146483E+02  0.00000000000E+00 0. -1.
         11    1    1    2    0    0 -0.94704733223E+02 -0.46002168805E+02  0.12601503599E+03  0.16421015598E+03  0.00000000000E+00 0.  1.
</event>
<event>
 7    1  0.2398895E-009  0.1335989E+03  0.7561462E-02  0.1222211E+00
         -2   -1    0    0    0  501 -0.00000000000E+00  0.00000000000E+00  0.80022440426E+02  0.80022440426E+02  0.00000000000E+00 0.  1.
          2   -1    0    0  501    0  0.00000000000E+00 -0.00000000000E+00 -0.25640022350E+03  0.25640022350E+03  0.00000000000E+00 0. -1.
         25    2    1    2    0    0  0.82993585397E+02 -0.10380288378E+02 -0.14419169634E+03  0.20841193323E+03  0.12509437643E+03 0.  0.
          5    1    3    3  502    0  0.33478162583E+02  0.56099582017E+02 -0.80700214195E+02  0.10391317262E+03  0.41800000000E+01 0.  1.
         -5    1    3    3    0  502  0.49515422814E+02 -0.66479870394E+02 -0.63491482142E+02  0.10449876061E+03  0.41800000000E+01 0.  1.
        -11    1    1    2    0    0 -0.39352589976E+02  0.47330422833E+02  0.16350643857E+01  0.61574903159E+02  0.00000000000E+00 0. -1.
         11    1    1    2    0    0 -0.43640995420E+02 -0.36950134456E+02 -0.33821151118E+02  0.66435827537E+02  0.00000000000E+00 0.  1.
</event>
<event>
 7    1  0.2334784E-009  0.1246738E+03  0.7561462E-02  0.1235580E+00
         -1   -1    0    0    0  501 -0.00000000000E+00  0.00000000000E+00  0.11398218402E+03  0.11398218402E+03  0.00000000000E+00 0.  1.
          1   -1    0    0  501    0  0.00000000000E+00 -0.00000000000E+00 -0.25881758377E+03  0.25881758377E+03  0.00000000000E+00 0. -1.
         25    2    1    2    0    0 -0.16201936948E+02  0.83484266271E+02 -0.18815812477E+03  0.24142637846E+03  0.12510431977E+03 0.  0.
          5    1    3    3  502    0 -0.56876641665E+02  0.47616288854E+02 -0.16751183787E+03  0.18324833303E+03  0.41800000000E+01 0.  1.
         -5    1    3    3    0  502  0.40674704718E+02  0.35867977417E+02 -0.20646286897E+02  0.58178045434E+02  0.41800000000E+01 0.  1.
        -11    1    1    2    0    0  0.51570707196E+02 -0.53281884211E+02  0.41169524163E+02  0.84814071625E+02  0.00000000000E+00 0.  1.
         11    1    1    2    0    0 -0.35368770248E+02 -0.30202382059E+02  0.21532008540E+01  0.46559317702E+02  0.00000000000E+00 0. -1.
</event>
<event>
 7    1  0.2334784E-009  0.7449641E+02  0.7561462E-02  0.1345438E+00
         -2   -1    0    0    0  501 -0.00000000000E+00  0.00000000000E+00  0.39202501161E+03  0.39202501161E+03  0.00000000000E+00 0. -1.
          2   -1    0    0  501    0  0.00000000000E+00 -0.00000000000E+00 -0.30251635856E+02  0.30251635856E+02  0.00000000000E+00 0.  1.
         25    2    1    2    0    0  0.10390404025E+01  0.12609819776E+02  0.19976621787E+03  0.23603380656E+03  0.12508128907E+03 0.  0.
          5    1    3    3  502    0 -0.28336250919E+02 -0.18845421973E+02  0.18816502569E+03  0.19126328017E+03  0.41800000000E+01 0.  1.
         -5    1    3    3    0  502  0.29375291322E+02  0.31455241749E+02  0.11601192180E+02  0.44770526395E+02  0.41800000000E+01 0.  1.
        -11    1    1    2    0    0  0.33875821248E+02 -0.13679938653E+02  0.14061094334E+03  0.14527955594E+03  0.00000000000E+00 0. -1.
         11    1    1    2    0    0 -0.34914861651E+02  0.10701188768E+01  0.21396214541E+02  0.40963284966E+02  0.00000000000E+00 0.  1.
</event>
<event>
 7    1  0.2334784E-009  0.9370028E+02  0.7561462E-02  0.1294131E+00
          2   -1    0    0  501    0  0.00000000000E+00  0.00000000000E+00  0.65557694421E+02  0.65557694421E+02  0.00000000000E+00 0.  1.
         -2   -1    0    0    0  501 -0.00000000000E+00 -0.00000000000E+00 -0.26699724881E+03  0.26699724881E+03  0.00000000000E+00 0. -1.
         25    2    1    2    0    0  0.37433936543E+02  0.40352229645E+02 -0.43861862660E+02  0.14352026034E+03  0.12507837579E+03 0.  0.
          5    1    3    3  502    0 -0.43221572017E+02  0.21913885903E+02 -0.35583483951E+02  0.60265905893E+02  0.41800000000E+01 0.  1.
         -5    1    3    3    0  502  0.80655508560E+02  0.18438343742E+02 -0.82783787086E+01  0.83254354451E+02  0.41800000000E+01 0.  1.
        -11    1    1    2    0    0 -0.13660178703E+02 -0.81999278867E+01  0.86058430799E+01  0.18108004712E+02  0.00000000000E+00 0.  1.
         11    1    1    2    0    0 -0.23773757840E+02 -0.32152301758E+02 -0.16618353481E+03  0.17092667818E+03  0.00000000000E+00 0. -1.
</event>
<event>
 7    1  0.2334784E-009  0.1268972E+03  0.7561462E-02  0.1232134E+00
         -2   -1    0    0    0  501 -0.00000000000E+00  0.00000000000E+00  0.69817061556E+03  0.69817061556E+03  0.00000000000E+00 0.  1.
          2   -1    0    0  501    0  0.00000000000E+00 -0.00000000000E+00 -0.33607451897E+02  0.33607451897E+02  0.00000000000E+00 0. -1.
         25    2    1    2    0    0 -0.27047047946E+02 -0.10460856201E+03  0.38032142381E+03  0.41468937318E+03  0.12509355206E+03 0.  0.
          5    1    3    3  502    0 -0.22183507807E+02 -0.22515796286E+01  0.23900945584E+03  0.24008367293E+03  0.41800000000E+01 0.  1.
         -5    1    3    3    0  502 -0.48635401388E+01 -0.10235698238E+03  0.14131196797E+03  0.17460570024E+03  0.41800000000E+01 0.  1.
        -11    1    1    2    0    0 -0.11333402109E+02  0.84433484339E+02  0.11963760800E+03  0.14686938595E+03  0.00000000000E+00 0. -1.
         11    1    1    2    0    0  0.38380450055E+02  0.20175077672E+02  0.16460413185E+03  0.17021930832E+03  0.00000000000E+00 0.  1.
</event>
<event>
 7    1  0.2334784E-009  0.1006904E+03  0.7561462E-02  0.1278851E+00
          1   -1    0    0  501    0  0.00000000000E+00  0.00000000000E+00  0.66397864034E+03  0.66397864034E+03  0.00000000000E+00 0. -1.
         -1   -1    0    0    0  501 -0.00000000000E+00 -0.00000000000E+00 -0.26159215166E+02  0.26159215166E+02  0.00000000000E+00 0.  1.
         25    2    1    2    0    0 -0.27583148349E+02  0.61919496300E+02  0.28143296594E+03  0.31535330335E+03  0.12509331524E+03 0.  0.
          5    1    3    3  502    0  0.13693812248E+02  0.52576588387E+01 -0.82076651497E+01  0.17320555348E+02  0.41800000000E+01 0. -1.
         -5    1    3    3    0  502 -0.41276960598E+02  0.56661837461E+02  0.28964063109E+03  0.29803274800E+03  0.41800000000E+01 0. -1.
        -11    1    1    2    0    0  0.57699501006E+02 -0.14114336792E+02  0.18968834983E+03  0.19877151954E+03  0.00000000000E+00 0.  1.
         11    1    1    2    0    0 -0.30116352656E+02 -0.47805159508E+02  0.16669810940E+03  0.17601303262E+03  0.00000000000E+00 0. -1.
</event>
<event>
 7    1  0.2334784E-009  0.7158402E+02  0.7561462E-02  0.1354788E+00
         -2   -1    0    0    0  501 -0.00000000000E+00  0.00000000000E+00  0.18100127848E+02  0.18100127848E+02  0.00000000000E+00 0.  1.
          2   -1    0    0  501    0  0.00000000000E+00 -0.00000000000E+00 -0.93562442811E+03  0.93562442811E+03  0.00000000000E+00 0. -1.
         25    2    1    2    0    0  0.21228760663E+02 -0.16732096619E+01 -0.76742017761E+03  0.77783951580E+03  0.12508846244E+03 0.  0.
          5    1    3    3  502    0  0.12565998490E+02 -0.31776146637E+02 -0.72018686068E+03  0.72100916395E+03  0.41800000000E+01 0. -1.
         -5    1    3    3    0  502  0.86627621735E+01  0.30102936975E+02 -0.47233316929E+02  0.56830351848E+02  0.41800000000E+01 0. -1.
        -11    1    1    2    0    0 -0.14337533202E+02 -0.36048182156E+02 -0.27844471973E+02  0.47753019952E+02  0.00000000000E+00 0.  1.
         11    1    1    2    0    0 -0.68912274607E+01  0.37721391818E+02 -0.12225965068E+03  0.12813202021E+03  0.00000000000E+00 0. -1.
</event>
<event>
 7    1  0.2334784E-009  0.2681433E+03  0.7561462E-02  0.1102347E+00
         -1   -1    0    0    0  501 -0.00000000000E+00  0.00000000000E+00  0.75383507252E+03  0.75383507252E+03  0.00000000000E+00 0.  1.
          1   -1    0    0  501    0  0.00000000000E+00 -0.00000000000E+00 -0.10618108602E+03  0.10618108602E+03  0.00000000000E+00 0. -1.
         25    2    1    2    0    0  0.13192147804E+03  0.22131760648E+03  0.25960935339E+03  0.38656068238E+03  0.12508950990E+03 0.  0.
          5    1    3    3  502    0  0.69457159877E+02  0.58172241054E+02  0.16390429685E+03  0.18732431133E+03  0.41800000000E+01 0.  1.
         -5    1    3    3    0  502  0.62464318165E+02  0.16314536543E+03  0.95705056540E+02  0.19923637106E+03  0.41800000000E+01 0.  1.
        -11    1    1    2    0    0 -0.91206388938E+02 -0.20943410107E+03  0.33637626588E+03  0.40660821478E+03  0.00000000000E+00 0.  1.
         11    1    1    2    0    0 -0.40715089104E+02 -0.11883505412E+02  0.51668367228E+02  0.66847261377E+02  0.00000000000E+00 0. -1.
</event>
<event>
 7    1  0.2334784E-009  0.8108412E+02  0.7561462E-02  0.1326003E+00
         -2   -1    0    0    0  501 -0.00000000000E+00  0.00000000000E+00  0.10705266632E+03  0.10705266632E+03  0.00000000000E+00 0.  1.
          2   -1    0    0  501    0  0.00000000000E+00 -0.00000000000E+00 -0.18020568664E+03  0.18020568664E+03  0.00000000000E+00 0. -1.
         25    2    1    2    0    0  0.21906039124E+01  0.14316285527E+02  0.49005219855E+02  0.13517664862E+03  0.12514575495E+03 0.  0.
          5    1    3    3  502    0  0.51296930008E+02 -0.25059534976E+02  0.34164292146E+01  0.57345441929E+02  0.41800000000E+01 0. -1.
         -5    1    3    3    0  502 -0.49106326095E+02  0.39375820503E+02  0.45588790640E+02  0.77831206691E+02  0.41800000000E+01 0. -1.
        -11    1    1    2    0    0 -0.11549876833E+02 -0.25060205420E+02 -0.13194251377E+03  0.13479703443E+03  0.00000000000E+00 0. -1.
         11    1    1    2    0    0  0.93592729205E+01  0.10743919892E+02  0.97842735948E+01  0.17284669914E+02  0.00000000000E+00 0.  1.
</event>
<event>
 6    1  0.2334784E-009  0.9803338E+02  0.7561462E-02  0.1284487E+00
          1   -1    0    0  501    0  0.00000000000E+00  0.00000000000E+00  0.73746833628E+02  0.73746833628E+02  0.00000000000E+00 0. -1.
         -1   -1    0    0    0  501 -0.00000000000E+00 -0.00000000000E+00 -0.37448885338E+03  0.37448885338E+03  0.00000000000E+00 0.  1.
          5    1    1    2  502    0  0.52722048313E+02  0.38466603911E+02 -0.24502214474E+03  0.25359932533E+03  0.41800000000E+01 0.  1.
         -5    1    1    2    0  502 -0.53532990983E+02  0.14169810685E+02 -0.69074992585E+02  0.88630647403E+02  0.41800000000E+01 0.  1.
        -11    1    1    2    0    0  0.20274349621E+02 -0.51831449903E+02  0.43139203394E+02  0.70416896560E+02  0.00000000000E+00 0. -1.
         11    1    1    2    0    0 -0.19463406951E+02 -0.80496469352E+00 -0.29784085826E+02  0.35588817721E+02  0.00000000000E+00 0.  1.
</event>
<event>
 7    1  0.2334784E-009  0.9240964E+02  0.7561462E-02  0.1297119E+00
         -1   -1    0    0    0  501 -0.00000000000E+00  0.00000000000E+00  0.26675666148E+02  0.26675666148E+02  0.00000000000E+00 0.  1.
          1   -1    0    0  501    0  0.00000000000E+00 -0.00000000000E+00 -0.61988273551E+03  0.61988273551E+03  0.00000000000E+00 0. -1.
         25    2    1    2    0    0 -0.45586811409E+02  0.56998804427E+02 -0.26575892330E+03  0.30266045431E+03  0.12509406143E+03 0.  0.
          5    1    3    3  502    0 -0.20262925092E+02  0.52682756178E+02 -0.27036775966E+03  0.27622863138E+03  0.41800000000E+01 0.  1.
         -5    1    3    3    0  502 -0.25323886316E+02  0.43160482495E+01  0.46088363553E+01  0.26431822926E+02  0.41800000000E+01 0.  1.
        -11    1    1    2    0    0  0.63181221529E+02 -0.56233214110E+02 -0.23429617763E+03  0.24909584496E+03  0.00000000000E+00 0.  1.
         11    1    1    2    0    0 -0.17594410121E+02 -0.76559031756E+00 -0.93151968430E+02  0.94802102395E+02  0.00000000000E+00 0. -1.
</event>
<event>
 7    1  0.2334784E-009  0.1158566E+03  0.7561462E-02  0.1250093E+00
          2   -1    0    0  501    0  0.00000000000E+00  0.00000000000E+00  0.21734685024E+03  0.21734685024E+03  0.00000000000E+00 0. -1.
         -2   -1    0    0    0  501 -0.00000000000E+00 -0.00000000000E+00 -0.11801193336E+03  0.11801193336E+03  0.00000000000E+00 0.  1.
         25    2    1    2    0    0  0.10047246963E+03  0.10599054167E+02 -0.90938976024E+01  0.16104700437E+03  0.12508549692E+03 0.  0.
          5    1    3    3  502    0  0.83365790261E+01  0.40918422233E+01 -0.56313745035E+02  0.57227196354E+02  0.41800000000E+01 0.  1.
         -5    1    3    3    0  502  0.92135890606E+02  0.65072119437E+01  0.47219847433E+02  0.10381980802E+03  0.41800000000E+01 0.  1.
        -11    1    1    2    0    0 -0.80679506237E+02  0.28238744847E+02  0.42981522215E+02  0.95676646519E+02  0.00000000000E+00 0. -1.
         11    1    1    2    0    0 -0.19792963395E+02 -0.38837799014E+02  0.65447292261E+02  0.78635132711E+02  0.00000000000E+00 0.  1.
</event>
<event>
 7    1  0.2334784E-009  0.1050266E+03  0.7561462E-02  0.1270067E+00
          2   -1    0    0  501    0  0.00000000000E+00  0.00000000000E+00  0.38468256855E+03  0.38468256855E+03  0.00000000000E+00 0.  1.
         -2   -1    0    0    0  501 -0.00000000000E+00 -0.00000000000E+00 -0.39595838813E+02  0.39595838813E+02  0.00000000000E+00 0. -1.
         25    2    1    2    0    0  0.20042683524E+02  0.49371624512E+02  0.14840868965E+03  0.20127551584E+03  0.12508967841E+03 0.  0.
          5    1    3    3  502    0  0.63776378727E+02 -0.13076441409E+00  0.10225563109E+03  0.12058660818E+03  0.41800000000E+01 0. -1.
         -5    1    3    3    0  502 -0.43733695202E+02  0.49502388927E+02  0.46153058559E+02  0.80688907663E+02  0.41800000000E+01 0. -1.
        -11    1    1    2    0    0  0.20893789426E+02 -0.23875086704E+02  0.15807836647E+03  0.16123070473E+03  0.00000000000E+00 0.  1.
         11    1    1    2    0    0 -0.40936472950E+02 -0.25496537809E+02  0.38599673626E+02  0.61772186799E+02  0.00000000000E+00 0. -1.
</event>
<event>
 7    1  0.2334784E-009  0.1085843E+03  0.7561462E-02  0.1263214E+00
         -2   -1    0    0    0  501 -0.00000000000E+00  0.00000000000E+00  0.22340076877E+02  0.22340076877E+02  0.00000000000E+00 0.  1.
          2   -1    0    0  501    0  0.00000000000E+00 -0.00000000000E+00 -0.66833388444E+03  0.66833388444E+03  0.00000000000E+00 0. -1.
         25    2    1    2    0    0 -0.54779163215E+02  0.85517383870E+01 -0.30942807921E+03  0.33832926054E+03  0.12508822239E+03 0.  0.
          5    1    3    3  502    0 -0.32103553068E+02 -0.48862477375E+02 -0.71328843378E+02  0.92322565565E+02  0.41800000000E+01 0. -1.
         -5    1    3    3    0  502 -0.22675610147E+02  0.57414215762E+02 -0.23809923583E+03  0.24600669497E+03  0.41800000000E+01 0. -1.
        -11    1    1    2    0    0  0.44838043666E+02 -0.42214254421E+02 -0.27169566904E+03  0.27858756256E+03  0.00000000000E+00 0. -1.
         11    1    1    2    0    0  0.99411195498E+01  0.33662516034E+02 -0.64870059310E+02  0.73757138221E+02  0.00000000000E+00 0.  1.
</event>
<event>
 7    1  0.2334784E-009  0.1157962E+03  0.7561462E-02  0.1250198E+00
         -3   -1    0    0    0  501 -0.00000000000E+00  0.00000000000E+00  0.14706329534E+03  0.14706329534E+03  0.00000000000E+00 0.  1.
          3   -1    0    0  501    0  0.00000000000E+00 -0.00000000000E+00 -0.10253870409E+03  0.10253870409E+03  0.00000000000E+00 0. -1.
         25    2    1    2    0    0  0.20059457778E+02  0.42872220800E+02  0.46299125845E+02  0.14153339690E+03  0.12509070398E+03 0.  0.
          5    1    3    3  502    0 -0.35390186502E+02 -0.24100273222E+02  0.31300198923E+02  0.53202098855E+02  0.41800000000E+01 0. -1.
         -5    1    3    3    0  502  0.55449644280E+02  0.66972494022E+02  0.14998926922E+02  0.88331298049E+02  0.41800000000E+01 0. -1.
        -11    1    1    2    0    0  0.31877151378E+02 -0.37638686889E+02 -0.19358961802E+02  0.52986724117E+02  0.00000000000E+00 0.  1.
         11    1    1    2    0    0 -0.51936609156E+02 -0.52335339109E+01  0.17584427207E+02  0.55081878399E+02  0.00000000000E+00 0. -1.
</event>
<event>
 7    1  0.2334784E-009  0.2084312E+03  0.7561462E-02  0.1142814E+00
          1   -1    0    0  501    0  0.00000000000E+00  0.00000000000E+00  0.29487802264E+03  0.29487802264E+03  0.00000000000E+00 0. -1.
         -1   -1    0    0    0  501 -0.00000000000E+00 -0.00000000000E+00 -0.25209766802E+03  0.25209766802E+03  0.00000000000E+00 0.  1.
         25    2    1    2    0    0 -0.20570581546E+03 -0.17459065696E+02  0.15968870441E+03  0.28942506521E+03  0.12508670818E+03 0.  0.
          5    1    3    3  502    0 -0.13484125579E+01 -0.29305832060E+01  0.62336256332E+02  0.62559474006E+02  0.41800000000E+01 0.  1.
         -5    1    3    3    0  502 -0.20435740290E+03 -0.14528482490E+02  0.97352448082E+02  0.22686559120E+03  0.41800000000E+01 0.  1.
        -11    1    1    2    0    0  0.18496856225E+03  0.12790932341E+02 -0.56986289190E+02  0.19397013721E+03  0.00000000000E+00 0. -1.
         11    1    1    2    0    0  0.20737253205E+02  0.46681333549E+01 -0.59922060599E+02  0.63580488249E+02  0.00000000000E+00 0.  1.
</event>
<event>
 7    1  0.2334784E-009  0.1086787E+03  0.7561462E-02  0.1263037E+00
         -1   -1    0    0    0  501 -0.00000000000E+00  0.00000000000E+00  0.54867101989E+02  0.54867101989E+02  0.00000000000E+00 0.  1.
          1   -1    0    0  501    0  0.00000000000E+00 -0.00000000000E+00 -0.30046278918E+03  0.30046278918E+03  0.00000000000E+00 0. -1.
         25    2    1    2    0    0  0.37239869118E+02  0.36718729515E+02 -0.72215870406E+02  0.15361585350E+03  0.12509046950E+03 0.  0.
          5    1    3    3  502    0  0.81300725774E+02  0.32735251766E+02 -0.31149277697E+02  0.93108295122E+02  0.41800000000E+01 0.  1.
         -5    1    3    3    0  502 -0.44060856655E+02  0.39834777489E+01 -0.41066592709E+02  0.60507558379E+02  0.41800000000E+01 0.  1.
        -11    1    1    2    0    0 -0.17627535404E+02 -0.55371977354E+02 -0.16243876462E+03  0.17251996445E+03  0.00000000000E+00 0. -1.
         11    1    1    2    0    0 -0.19612333714E+02  0.18653247839E+02 -0.10941052157E+02  0.29194073216E+02  0.00000000000E+00 0.  1.
</event>
<event>
 7    1  0.2638750E-009  0.1445688E+03  0.7561462E-02  0.1207310E+00
         -1   -1    0    0    0  501 -0.00000000000E+00  0.00000000000E+00  0.12920209933E+03  0.12920209933E+03  0.00000000000E+00 0.  1.
          1   -1    0    0  501    0  0.00000000000E+00 -0.00000000000E+00 -0.20588171605E+03  0.20588171605E+03  0.00000000000E+00 0. -1.
         25    2    1    2    0    0 -0.10665373481E+03  0.58002170559E+02 -0.33417070514E+02  0.17749891547E+03  0.12509953418E+03 0.  0.
          5    1    3    3  502    0 -0.77494417820E+02 -0.20807358449E+02  0.13025428844E+02  0.81396960357E+02  0.41800000000E+01 0. -1.
         -5    1    3    3    0  502 -0.29159316993E+02  0.78809529008E+02 -0.46442499358E+02  0.96101955113E+02  0.41800000000E+01 0. -1.
        -11    1    1    2    0    0  0.45503683497E+02 -0.40836671762E+02  0.23440344146E+02  0.65480292501E+02  0.00000000000E+00 0.  1.
         11    1    1    2    0    0  0.61150051316E+02 -0.17165498796E+02 -0.66702890347E+02  0.92104607407E+02  0.00000000000E+00 0. -1.
</event>
<event>
 7    1  0.2334784E-009  0.1118438E+03  0.7561462E-02  0.1257193E+00
         -2   -1    0    0    0  501 -0.00000000000E+00  0.00000000000E+00  0.11880851937E+03  0.11880851937E+03  0.00000000000E+00 0.  1.
          2   -1    0    0  501    0  0.00000000000E+00 -0.00000000000E+00 -0.21057575825E+03  0.21057575825E+03  0.00000000000E+00 0. -1.
         25    2    1    2    0    0  0.39168838370E+02  0.74768366628E+02  0.32131002991E+02  0.15428279389E+03  0.12508506142E+03 0.  0.
          5    1    3    3  502    0  0.33553700302E+01 -0.10535270159E+02  0.57143768937E+02  0.58353518778E+02  0.41800000000E+01 0. -1.
         -5    1    3    3    0  502  0.35813468340E+02  0.85303636786E+02 -0.25012765947E+02  0.95929275114E+02  0.41800000000E+01 0. -1.
        -11    1    1    2    0    0 -0.65461925671E+02 -0.44461029015E+02 -0.10291991088E+03  0.12982509337E+03  0.00000000000E+00 0. -1.
         11    1    1    2    0    0  0.26293087301E+02 -0.30307337612E+02 -0.20978330990E+02  0.45276390361E+02  0.00000000000E+00 0.  1.
</event>
<event>
 7    1  0.2334784E-009  0.1027955E+03  0.7561462E-02  0.1274525E+00
          1   -1    0    0  501    0  0.00000000000E+00  0.00000000000E+00  0.20251297732E+03  0.20251297732E+03  0.00000000000E+00 0. -1.
         -1   -1    0    0    0  501 -0.00000000000E+00 -0.00000000000E+00 -0.94819702852E+02  0.94819702852E+02  0.00000000000E+00 0.  1.
         25    2    1    2    0    0 -0.62781358177E+02 -0.97778613094E+01 -0.29302764512E+01  0.14033189918E+03  0.12508936766E+03 0.  0.
          5    1    3    3  502    0  0.97879896977E+01  0.46789255464E+02 -0.46499683344E+01  0.48209270630E+02  0.41800000000E+01 0.  1.
         -5    1    3    3    0  502 -0.72569347875E+02 -0.56567116773E+02  0.17196918832E+01  0.92122628551E+02  0.41800000000E+01 0.  1.
        -11    1    1    2    0    0  0.49184076307E+02  0.77089556091E+00  0.12558070711E+03  0.13487098146E+03  0.00000000000E+00 0. -1.
         11    1    1    2    0    0  0.13597281870E+02  0.90069657485E+01 -0.14957156185E+02  0.22129799534E+02  0.00000000000E+00 0.  1.
</event>
<event>
 7    1  0.2334784E-009  0.1536128E+03  0.7561462E-02  0.1196103E+00
         -1   -1    0    0    0  501 -0.00000000000E+00  0.00000000000E+00  0.22303007225E+02  0.22303007225E+02  0.00000000000E+00 0.  1.
          1   -1    0    0  501    0  0.00000000000E+00 -0.00000000000E+00 -0.17028533606E+04  0.17028533606E+04  0.00000000000E+00 0. -1.
         25    2    1    2    0    0  0.12805398192E+03 -0.43450208118E+02 -0.12814836216E+04  0.12946557870E+04  0.12509033376E+03 0.  0.
          5    1    3    3  502    0  0.36807654076E+02 -0.49756873769E+02 -0.90786801904E+03  0.90998481431E+03  0.41800000000E+01 0.  1.
         -5    1    3    3    0  502  0.91246327846E+02  0.63066656518E+01 -0.37361560255E+03  0.38467097271E+03  0.41800000000E+01 0.  1.
        -11    1    1    2    0    0 -0.10348384615E+03 -0.26807879594E+00 -0.19966305460E+03  0.22488733546E+03  0.00000000000E+00 0.  1.
         11    1    1    2    0    0 -0.24570135768E+02  0.43718286913E+02 -0.19940367719E+03  0.20561324534E+03  0.00000000000E+00 0. -1.
</event>
<event>
 7    1  0.2334784E-009  0.1235908E+03  0.7561462E-02  0.1237288E+00
         -2   -1    0    0    0  501 -0.00000000000E+00  0.00000000000E+00  0.11927230537E+02  0.11927230537E+02  0.00000000000E+00 0. -1.
          2   -1    0    0  501    0  0.00000000000E+00 -0.00000000000E+00 -0.25979198594E+04  0.25979198594E+04  0.00000000000E+00 0.  1.
         25    2    1    2    0    0  0.21603276764E+02  0.10427763039E+03 -0.20416582976E+04  0.20482569716E+04  0.12508993487E+03 0.  0.
          5    1    3    3  502    0 -0.81447575006E+01  0.99725445096E+00 -0.94173193642E+01  0.13171556293E+02  0.41800000000E+01 0. -1.
         -5    1    3    3    0  502  0.29748034265E+02  0.10328037594E+03 -0.20322409782E+04  0.20350854153E+04  0.41800000000E+01 0. -1.
        -11    1    1    2    0    0  0.13368280988E+02 -0.92573934606E+02 -0.46201423469E+03  0.47138709928E+03  0.00000000000E+00 0.  1.
         11    1    1    2    0    0 -0.34971557753E+02 -0.11703695785E+02 -0.82320096519E+02  0.90203019005E+02  0.00000000000E+00 0. -1.
</event>
<event>
 7    1  0.2334784E-009  0.1358893E+03  0.7561462E-02  0.1218970E+00
          1   -1    0    0  501    0  0.00000000000E+00  0.00000000000E+00  0.54171487495E+03  0.54171487495E+03  0.00000000000E+00 0. -1.
         -1   -1    0    0    0  501 -0.00000000000E+00 -0.00000000000E+00 -0.36299359301E+02  0.36299359301E+02  0.00000000000E+00 0.  1.
         25    2    1    2    0    0 -0.30121663618E+02 -0.84131413078E+02  0.25493350561E+03  0.29769538291E+03  0.12508412944E+03 0.  0.
          5    1    3    3  502    0 -0.28889353215E+02 -0.11476213202E+03  0.16896358935E+03  0.20632767289E+03  0.41800000000E+01 0.  1.
         -5    1    3    3    0  502 -0.12323104026E+01  0.30630718942E+02  0.85969916263E+02  0.91367710019E+02  0.41800000000E+01 0.  1.
        -11    1    1    2    0    0  0.35691805528E+02  0.99695718820E+02  0.18888932960E+03  0.21654634647E+03  0.00000000000E+00 0.  1.
         11    1    1    2    0    0 -0.55701419101E+01 -0.15564305742E+02  0.61592680440E+02  0.63772504874E+02  0.00000000000E+00 0. -1.
</event>
<event>
 7    1  0.2334784E-009  0.1035320E+03  0.7561462E-02  0.1273039E+00
         -3   -1    0    0    0  501 -0.00000000000E+00  0.00000000000E+00  0.14437070057E+03  0.14437070057E+03  0.00000000000E+00 0.  1.
          3   -1    0    0  501    0  0.00000000000E+00 -0.00000000000E+00 -0.87121320648E+02  0.87121320648E+02  0.00000000000E+00 0. -1.
         25    2    1    2    0    0 -0.25729587921E+02  0.60519595387E+00  0.16711316830E+02  0.12880183688E+03  0.12509303385E+03 0.  0.
          5    1    3    3  502    0  0.34556250837E+02 -0.32874651389E+02  0.32587096272E+02  0.57916046302E+02  0.41800000000E+01 0.  1.
         -5    1    3    3    0  502 -0.60285838758E+02  0.33479847343E+02 -0.15875779442E+02  0.70885790577E+02  0.41800000000E+01 0.  1.
        -11    1    1    2    0    0  0.48974535124E+02 -0.26186170781E+02  0.39426324326E+02  0.68107677105E+02  0.00000000000E+00 0.  1.
         11    1    1    2    0    0 -0.23244947203E+02  0.25580974827E+02  0.11117387674E+01  0.34582507235E+02  0.00000000000E+00 0. -1.
</event>
<event>
 7    1  0.2334784E-009  0.1091735E+03  0.7561462E-02  0.1262108E+00
          4   -1    0    0  501    0  0.00000000000E+00  0.00000000000E+00  0.23232164441E+02  0.23232164441E+02  0.00000000000E+00 0. -1.
         -4   -1    0    0    0  501 -0.00000000000E+00 -0.00000000000E+00 -0.58984656376E+03  0.58984656376E+03  0.00000000000E+00 0.  1.
         25    2    1    2    0    0 -0.26672076349E+02  0.34253590102E+02 -0.29582728479E+03  0.32410636100E+03  0.12508574148E+03 0.  0.
          5    1    3    3  502    0 -0.71291486192E+02 -0.63335644358E+01 -0.17033153749E+03  0.18480501916E+03  0.41800000000E+01 0.  1.
         -5    1    3    3    0  502  0.44619409843E+02  0.40587154538E+02 -0.12549574730E+03  0.13930134184E+03  0.41800000000E+01 0.  1.
        -11    1    1    2    0    0 -0.17728022671E+02 -0.37696568522E+02 -0.20717206089E+03  0.21131866193E+03  0.00000000000E+00 0.  1.
         11    1    1    2    0    0  0.44400099020E+02  0.34429784197E+01 -0.63615053641E+02  0.77653705276E+02  0.00000000000E+00 0. -1.
</event>
<event>
 7    1  0.2334784E-009  0.1622922E+03  0.7561462E-02  0.1186133E+00
          3   -1    0    0  501    0  0.00000000000E+00  0.00000000000E+00  0.27751121934E+03  0.27751121934E+03  0.00000000000E+00 0. -1.
         -3   -1    0    0    0  501 -0.00000000000E+00 -0.00000000000E+00 -0.20512755524E+03  0.20512755524E+03  0.00000000000E+00 0.  1.
         25    2    1    2    0    0  0.14470599367E+03  0.69350684134E+02 -0.10426385170E+03  0.22862296925E+03  0.12509264288E+03 0.  0.
          5    1    3    3  502    0  0.28359110855E+02  0.21782062472E+02  0.28374361755E+02  0.45839657710E+02  0.41800000000E+01 0.  1.
         -5    1    3    3    0  502  0.11634688282E+03  0.47568621662E+02 -0.13263821345E+03  0.18278331154E+03  0.41800000000E+01 0.  1.
        -11    1    1    2    0    0 -0.14007680559E+03 -0.60005547714E+02  0.18568877171E+03  0.24021344084E+03  0.00000000000E+00 0. -1.
         11    1    1    2    0    0 -0.46291880838E+01 -0.93451364194E+01 -0.90412559104E+01  0.13802364488E+02  0.00000000000E+00 0.  1.
</event>
<event>
 7    1  0.2334784E-009  0.1090992E+03  0.7561462E-02  0.1262247E+00
         -1   -1    0    0    0  501 -0.00000000000E+00  0.00000000000E+00  0.31709416113E+02  0.31709416113E+02  0.00000000000E+00 0. -1.
          1   -1    0    0  501    0  0.00000000000E+00 -0.00000000000E+00 -0.56874569787E+03  0.56874569787E+03  0.00000000000E+00 0.  1.
         25    2    1    2    0    0 -0.44920155372E+02 -0.45235617865E+02 -0.44469506670E+03  0.46633174566E+03  0.12509002031E+03 0.  0.
          5    1    3    3  502    0 -0.28364303535E+02  0.36795070404E+02 -0.84506163348E+02  0.96525514580E+02  0.41800000000E+01 0.  1.
         -5    1    3    3    0  502 -0.16555851836E+02 -0.82030688269E+02 -0.36018890335E+03  0.36980623108E+03  0.41800000000E+01 0.  1.
        -11    1    1    2    0    0  0.40630826911E+01  0.46703128759E+02 -0.19872214472E+02  0.50917539069E+02  0.00000000000E+00 0. -1.
         11    1    1    2    0    0  0.40857072681E+02 -0.14675108939E+01 -0.72469000587E+02  0.83205829257E+02  0.00000000000E+00 0.  1.
</event>
<event>
 7    1  0.2334784E-009  0.1087920E+03  0.7561462E-02  0.1262823E+00
         -1   -1    0    0    0  501 -0.00000000000E+00  0.00000000000E+00  0.21526913411E+03  0.21526913411E+03  0.00000000000E+00 0.  1.
          1   -1    0    0  501    0  0.00000000000E+00 -0.00000000000E+00 -0.77665304590E+02  0.77665304590E+02  0.00000000000E+00 0. -1.
         25    2    1    2    0    0  0.40910110394E+02  0.50216507327E+02  0.41928620238E+02  0.14697325727E+03  0.12509114444E+03 0.  0.
          5    1    3    3  502    0  0.39722456299E+02 -0.36280818866E+02  0.20775710233E+02  0.57821050558E+02  0.41800000000E+01 0. -1.
         -5    1    3    3    0  502  0.11876540949E+01  0.86497326192E+02  0.21152910005E+02  0.89152206716E+02  0.41800000000E+01 0. -1.
        -11    1    1    2    0    0 -0.47373958796E+01 -0.38797558894E+02  0.10039623962E+03  0.10773624472E+03  0.00000000000E+00 0.  1.
         11    1    1    2    0    0 -0.36172714514E+02 -0.11418948433E+02 -0.47210303408E+01  0.38224936705E+02  0.00000000000E+00 0. -1.
</event>
<event>
 7    1  0.2334784E-009  0.6196417E+02  0.7561462E-02  0.1389769E+00
          1   -1    0    0  501    0  0.00000000000E+00  0.00000000000E+00  0.14001844108E+03  0.14001844108E+03  0.00000000000E+00 0. -1.
         -1   -1    0    0    0  501 -0.00000000000E+00 -0.00000000000E+00 -0.11282562280E+03  0.11282562280E+03  0.00000000000E+00 0.  1.
         25    2    1    2    0    0 -0.15477723042E+01  0.27126006529E+02 -0.42439775920E+02  0.13486197774E+03  0.12509357550E+03 0.  0.
          5    1    3    3  502    0 -0.35682394978E+01 -0.57031208639E+01 -0.82489487023E+02  0.82868846921E+02  0.41800000000E+01 0. -1.
         -5    1    3    3    0  502  0.20204671937E+01  0.32829127393E+02  0.40049711103E+02  0.51993130820E+02  0.41800000000E+01 0. -1.
        -11    1    1    2    0    0  0.34848944981E+02  0.65861400133E+01  0.59891548040E+02  0.69604768034E+02  0.00000000000E+00 0. -1.
         11    1    1    2    0    0 -0.33301172677E+02 -0.33712146542E+02  0.97410461652E+01  0.48377318100E+02  0.00000000000E+00 0.  1.
</event>
<event>
 7    1  0.2334784E-009  0.1201768E+03  0.7561462E-02  0.1242806E+00
          1   -1    0    0  501    0  0.00000000000E+00  0.00000000000E+00  0.54423492597E+03  0.54423492597E+03  0.00000000000E+00 0. -1.
         -1   -1    0    0    0  501 -0.00000000000E+00 -0.00000000000E+00 -0.33327554006E+02  0.33327554006E+02  0.00000000000E+00 0.  1.
         25    2    1    2    0    0  0.46672590228E+01  0.75766656545E+02  0.31844236727E+03  0.35045260607E+03  0.12509643590E+03 0.  0.
          5    1    3    3  502    0  0.53163378568E+02  0.26567795846E+02  0.23300066879E+03  0.24049735269E+03  0.41800000000E+01 0. -1.
         -5    1    3    3    0  502 -0.48496119545E+02  0.49198860699E+02  0.85441698486E+02  0.10995525338E+03  0.41800000000E+01 0. -1.
        -11    1    1    2    0    0  0.32250733532E+02 -0.65874325008E+02  0.80992925310E+02  0.10926751786E+03  0.00000000000E+00 0.  1.
         11    1    1    2    0    0 -0.36917992554E+02 -0.98923315371E+01  0.11147207938E+03  0.11784235605E+03  0.00000000000E+00 0. -1.
</event>
<event>
 7    1  0.2334784E-009  0.1632759E+03  0.7561462E-02  0.1185047E+00
         -2   -1    0    0    0  501 -0.00000000000E+00  0.00000000000E+00  0.33566363082E+03  0.33566363082E+03  0.00000000000E+00 0.  1.
          2   -1    0    0  501    0  0.00000000000E+00 -0.00000000000E+00 -0.13188508047E+03  0.13188508047E+03  0.00000000000E+00 0. -1.
         25    2    1    2    0    0 -0.12356301319E+03  0.10519033557E+03  0.19427293781E+03  0.28235564392E+03  0.12509960177E+03 0.  0.
          5    1    3    3  502    0 -0.15174579438E+02  0.57667935419E+01  0.11304800569E+03  0.11428406607E+03  0.41800000000E+01 0. -1.
         -5    1    3    3    0  502 -0.10838843376E+03  0.99423542032E+02  0.81224932125E+02  0.16807157785E+03  0.41800000000E+01 0. -1.
        -11    1    1    2    0    0  0.49038092929E+02 -0.34763277980E+02 -0.39111005774E+02  0.71713951409E+02  0.00000000000E+00 0. -1.
         11    1    1    2    0    0  0.74524920264E+02 -0.70427057593E+02  0.48616618319E+02  0.11347911596E+03  0.00000000000E+00 0.  1.
</event>
<event>
 7    1  0.2334784E-009  0.8685567E+02  0.7561462E-02  0.1310650E+00
          2   -1    0    0  501    0  0.00000000000E+00  0.00000000000E+00  0.20310114731E+03  0.20310114731E+03  0.00000000000E+00 0. -1.
         -2   -1    0    0    0  501 -0.00000000000E+00 -0.00000000000E+00 -0.73814025874E+02  0.73814025874E+02  0.00000000000E+00 0.  1.
         25    2    1    2    0    0  0.79440089880E+01 -0.10900788746E+02  0.13371898500E+03  0.18359557278E+03  0.12507850703E+03 0.  0.
          5    1    3    3  502    0 -0.25487991498E+02 -0.47436814001E+02  0.12067721432E+03  0.13221328030E+03  0.41800000000E+01 0. -1.
         -5    1    3    3    0  502  0.33432000486E+02  0.36536025255E+02  0.13041770688E+02  0.51382292481E+02  0.41800000000E+01 0. -1.
        -11    1    1    2    0    0  0.56585524644E+01 -0.28115678719E+02 -0.32517992592E+02  0.43358164722E+02  0.00000000000E+00 0.  1.
         11    1    1    2    0    0 -0.13602561452E+02  0.39016467465E+02  0.28086129024E+02  0.49961435678E+02  0.00000000000E+00 0. -1.
</event>
<event>
 7    1  0.2334784E-009  0.8196363E+02  0.7561462E-02  0.1323570E+00
         -3   -1    0    0    0  501 -0.00000000000E+00  0.00000000000E+00  0.24920183773E+03  0.24920183773E+03  0.00000000000E+00 0.  1.
          3   -1    0    0  501    0  0.00000000000E+00 -0.00000000000E+00 -0.60348638768E+02  0.60348638768E+02  0.00000000000E+00 0. -1.
         25    2    1    2    0    0  0.22333727869E+02 -0.37886181488E+01  0.17274301183E+03  0.21445508887E+03  0.12505074162E+03 0.  0.
          5    1    3    3  502    0  0.60738367575E+02 -0.20036708371E+02  0.15718623331E+03  0.16975159298E+03  0.41800000000E+01 0. -1.
         -5    1    3    3    0  502 -0.38404639705E+02  0.16248090222E+02  0.15556778514E+02  0.44703495887E+02  0.41800000000E+01 0. -1.
        -11    1    1    2    0    0 -0.23464817761E+02 -0.21967314014E+02 -0.28900055477E+02  0.43224689289E+02  0.00000000000E+00 0. -1.
         11    1    1    2    0    0  0.11310898918E+01  0.25755932162E+02  0.45010242612E+02  0.51870698336E+02  0.00000000000E+00 0.  1.
</event>
<event>
 7    1  0.2334784E-009  0.9632210E+02  0.7561462E-02  0.1288226E+00
          1   -1    0    0  501    0  0.00000000000E+00  0.00000000000E+00  0.15198902836E+03  0.15198902836E+03  0.00000000000E+00 0. -1.
         -1   -1    0    0    0  501 -0.00000000000E+00 -0.00000000000E+00 -0.88523440918E+02  0.88523440918E+02  0.00000000000E+00 0.  1.
         25    2    1    2    0    0  0.98053329391E+01 -0.36775218396E+02  0.27569700081E+02  0.13362339264E+03  0.12508621610E+03 0.  0.
          5    1    3    3  502    0 -0.33671041813E+02  0.16843764224E+01  0.58552362780E+02  0.67693631663E+02  0.41800000000E+01 0. -1.
         -5    1    3    3    0  502  0.43476374752E+02 -0.38459594818E+02 -0.30982662698E+02  0.65929760981E+02  0.41800000000E+01 0. -1.
        -11    1    1    2    0    0 -0.21571485052E+02 -0.27602898129E+02  0.15785897529E+02  0.38424517086E+02  0.00000000000E+00 0. -1.
         11    1    1    2    0    0  0.11766152113E+02  0.64378116525E+02  0.20109989831E+02  0.68464559546E+02  0.00000000000E+00 0.  1.
</event>
<event>
 6    1  0.2334784E-009  0.2553671E+03  0.7561462E-02  0.1109959E+00
          2   -1    0    0  501    0  0.00000000000E+00  0.00000000000E+00  0.29409566734E+03  0.29409566734E+03  0.00000000000E+00 0. -1.
         -2   -1    0    0    0  501 -0.00000000000E+00 -0.00000000000E+00 -0.23780260301E+03  0.23780260301E+03  0.00000000000E+00 0.  1.
          5    1    1    2  502    0  0.10035708786E+03  0.85751052195E+02  0.15530032765E+02  0.13297910495E+03  0.41800000000E+01 0.  1.
         -5    1    1    2    0  502 -0.12123063421E+02  0.13765919112E+03 -0.12762410720E+01  0.13826106740E+03  0.41800000000E+01 0.  1.
        -11    1    1    2    0    0 -0.12941322008E+02 -0.43379545420E+02 -0.28115789489E+02  0.53289402275E+02  0.00000000000E+00 0.  1.
         11    1    1    2    0    0 -0.75292702427E+02 -0.18003069790E+03  0.70155062129E+02  0.20736869572E+03  0.00000000000E+00 0. -1.
</event>
<event>
 7    1  0.2334784E-009  0.1047870E+03  0.7561462E-02  0.1270540E+00
          2   -1    0    0  501    0  0.00000000000E+00  0.00000000000E+00  0.27815943327E+02  0.27815943327E+02  0.00000000000E+00 0. -1.
         -2   -1    0    0    0  501 -0.00000000000E+00 -0.00000000000E+00 -0.48788296444E+03  0.48788296444E+03  0.00000000000E+00 0.  1.
         25    2    1    2    0    0  0.35231228316E+02  0.29006400557E+01 -0.30898814466E+03  0.33521876440E+03  0.12509313850E+03 0.  0.
          5    1    3    3  502    0  0.39532451816E+02 -0.46662930077E+02 -0.25248081921E+03  0.25981585837E+03  0.41800000000E+01 0. -1.
         -5    1    3    3    0  502 -0.43012234995E+01  0.49563570133E+02 -0.56507325447E+02  0.75402906026E+02  0.41800000000E+01 0. -1.
        -11    1    1    2    0    0 -0.20679211077E+01 -0.44836646679E+02 -0.61073157420E+02  0.75792689228E+02  0.00000000000E+00 0. -1.
         11    1    1    2    0    0 -0.33163307209E+02  0.41936006623E+02 -0.90005719031E+02  0.10468745414E+03  0.00000000000E+00 0.  1.
</event>
<event>
 7    1  0.2334784E-009  0.1435089E+03  0.7561462E-02  0.1208684E+00
         -2   -1    0    0    0  501 -0.00000000000E+00  0.00000000000E+00  0.38233592531E+02  0.38233592531E+02  0.00000000000E+00 0.  1.
          2   -1    0    0  501    0  0.00000000000E+00 -0.00000000000E+00 -0.64802668679E+03  0.64802668679E+03  0.00000000000E+00 0. -1.
         25    2    1    2    0    0  0.11266741153E+03 -0.73650346445E+01 -0.29663726615E+03  0.34116044241E+03  0.12509432619E+03 0.  0.
          5    1    3    3  502    0  0.10474187682E+03  0.39706124179E+02 -0.25142555590E+03  0.27528116466E+03  0.41800000000E+01 0. -1.
         -5    1    3    3    0  502  0.79255347042E+01 -0.47071158824E+02 -0.45211710245E+02  0.65879277748E+02  0.41800000000E+01 0. -1.
        -11    1    1    2    0    0  0.28299563338E+01  0.11095257780E+02 -0.15804574972E+00  0.11451566553E+02  0.00000000000E+00 0.  1.
         11    1    1    2    0    0 -0.11549736786E+03 -0.37302231355E+01 -0.31299778236E+03  0.33364827035E+03  0.00000000000E+00 0. -1.
</event>
<event>
 7    1  0.2334784E-009  0.8284234E+02  0.7561462E-02  0.1321173E+00
          1   -1    0    0  501    0  0.00000000000E+00  0.00000000000E+00  0.61030397491E+02  0.61030397491E+02  0.00000000000E+00 0. -1.
         -1   -1    0    0    0  501 -0.00000000000E+00 -0.00000000000E+00 -0.18625208081E+03  0.18625208081E+03  0.00000000000E+00 0.  1.
         25    2    1    2    0    0 -0.29852434252E+01 -0.84789175519E+01 -0.88195875026E+02  0.15332506203E+03  0.12509699658E+03 0.  0.
          5    1    3    3  502    0  0.47510560015E+01  0.34712895628E+02 -0.10135788049E+03  0.10732404201E+03  0.41800000000E+01 0. -1.
         -5    1    3    3    0  502 -0.77362994267E+01 -0.43191813180E+02  0.13162005465E+02  0.46001020016E+02  0.41800000000E+01 0. -1.
        -11    1    1    2    0    0  0.16009188257E+02 -0.36307420223E+02 -0.15735377098E+02  0.42686355716E+02  0.00000000000E+00 0. -1.
         11    1    1    2    0    0 -0.13023944832E+02  0.44786337775E+02 -0.21290431193E+02  0.51271060557E+02  0.00000000000E+00 0.  1.
</event>
<event>
 7    1  0.2334784E-009  0.7760139E+02  0.7561462E-02  0.1335999E+00
         -2   -1    0    0    0  501 -0.00000000000E+00  0.00000000000E+00  0.40586194721E+02  0.40586194721E+02  0.00000000000E+00 0.  1.
          2   -1    0    0  501    0  0.00000000000E+00 -0.00000000000E+00 -0.37639624121E+03  0.37639624121E+03  0.00000000000E+00 0. -1.
         25    2    1    2    0    0  0.24571072566E+02 -0.11911051799E+02 -0.28595648081E+03  0.31331179607E+03  0.12509021496E+03 0.  0.
          5    1    3    3  502    0  0.53614219095E+02 -0.48611030692E+01 -0.44481591433E+02  0.69958553363E+02  0.41800000000E+01 0.  1.
         -5    1    3    3    0  502 -0.29043146529E+02 -0.70499487300E+01 -0.24147488938E+03  0.24335324271E+03  0.41800000000E+01 0.  1.
        -11    1    1    2    0    0 -0.46986869282E+02  0.36086849308E+01 -0.61174717811E+02  0.77221335077E+02  0.00000000000E+00 0. -1.
         11    1    1    2    0    0  0.22415796716E+02  0.83023668685E+01  0.11321152129E+02  0.26449304784E+02  0.00000000000E+00 0.  1.
</event>
<event>
 7    1  0.2334784E-009  0.1227581E+03  0.7561462E-02  0.1238615E+00
          2   -1    0    0  501    0  0.00000000000E+00  0.00000000000E+00  0.20736018257E+04  0.20736018257E+04  0.00000000000E+00 0. -1.
         -2   -1    0    0    0  501 -0.00000000000E+00 -0.00000000000E+00 -0.96059012787E+01  0.96059012787E+01  0.00000000000E+00 0.  1.
         25    2    1    2    0    0 -0.74510227667E+02 -0.44297476211E+00  0.16436851087E+04  0.16501213571E+04  0.12509111196E+03 0.  0.
          5    1    3    3  502    0 -0.72561942586E+02 -0.54161359806E+02  0.11230237743E+04  0.11266758888E+04  0.41800000000E+01 0.  1.
         -5    1    3    3    0  502 -0.19482850811E+01  0.53718385044E+02  0.52066133443E+03  0.52344546829E+03  0.41800000000E+01 0.  1.
        -11    1    1    2    0    0  0.38612492789E+02 -0.33822273226E+02  0.15820996201E+03  0.16632877937E+03  0.00000000000E+00 0.  1.
         11    1    1    2    0    0  0.35897734879E+02  0.34265247988E+02  0.26210085370E+03  0.26675759052E+03  0.00000000000E+00 0. -1.
</event>
<event>
 7    1  0.2334784E-009  0.2011378E+03  0.7561462E-02  0.1148783E+00
          2   -1    0    0  501    0  0.00000000000E+00  0.00000000000E+00  0.43205081717E+03  0.43205081717E+03  0.00000000000E+00 0.  1.
         -2   -1    0    0    0  501 -0.00000000000E+00 -0.00000000000E+00 -0.12552777442E+03  0.12552777442E+03  0.00000000000E+00 0. -1.
         25    2    1    2    0    0  0.53190486401E+02  0.17815551941E+03  0.26382917225E+03  0.34615263702E+03  0.12508876466E+03 0.  0.
          5    1    3    3  502    0  0.81415823801E+02  0.81444724511E+02  0.94292849791E+02  0.14889725799E+03  0.41800000000E+01 0. -1.
         -5    1    3    3    0  502 -0.28225337400E+02  0.96710794903E+02  0.16953632246E+03  0.19725537903E+03  0.41800000000E+01 0. -1.
        -11    1    1    2    0    0 -0.24307801614E+02 -0.99217272049E+02 -0.23041528043E+02  0.10471794644E+03  0.00000000000E+00 0. -1.
         11    1    1    2    0    0 -0.28882684788E+02 -0.78938247365E+02  0.65735398547E+02  0.10670800813E+03  0.00000000000E+00 0.  1.
</event>
<event>
 7    1  0.2334784E-009  0.2377957E+03  0.7561462E-02  0.1121270E+00
         -1   -1    0    0    0  501 -0.00000000000E+00  0.00000000000E+00  0.67570245716E+03  0.67570245716E+03  0.00000000000E+00 0.  1.
          1   -1    0    0  501    0  0.00000000000E+00 -0.00000000000E+00 -0.88573794079E+02  0.88573794079E+02  0.00000000000E+00 0. -1.
         25    2    1    2    0    0  0.20178893490E+03  0.83208877728E+02  0.28130145635E+03  0.37738832028E+03  0.12509573679E+03 0.  0.
          5    1    3    3  502    0  0.35230467721E+01  0.49063398920E+02  0.69365165840E+02  0.85138872463E+02  0.41800000000E+01 0. -1.
         -5    1    3    3    0  502  0.19826588813E+03  0.34145478807E+02  0.21193629051E+03  0.29224944782E+03  0.41800000000E+01 0. -1.
        -11    1    1    2    0    0 -0.19029291125E+03 -0.60730511786E+02  0.21876713291E+03  0.29624085737E+03  0.00000000000E+00 0. -1.
         11    1    1    2    0    0 -0.11496023653E+02 -0.22478365942E+02  0.87060073827E+02  0.90647073587E+02  0.00000000000E+00 0.  1.
</event>
<event>
 7    1  0.2334784E-009  0.1016559E+03  0.7561462E-02  0.1276852E+00
         -2   -1    0    0    0  501 -0.00000000000E+00  0.00000000000E+00  0.47545045579E+02  0.47545045579E+02  0.00000000000E+00 0.  1.
          2   -1    0    0  501    0  0.00000000000E+00 -0.00000000000E+00 -0.28060498642E+03  0.28060498642E+03  0.00000000000E+00 0. -1.
         25    2    1    2    0    0  0.13057207154E+02 -0.83783488579E+01 -0.18851541921E+03  0.22677356041E+03  0.12508995577E+03 0.  0.
          5    1    3    3  502    0  0.36524300595E+01 -0.61062488702E+02 -0.14581438812E+03  0.15818114918E+03  0.41800000000E+01 0.  1.
         -5    1    3    3    0  502  0.94047770943E+01  0.52684139844E+02 -0.42701031084E+02  0.68592411234E+02  0.41800000000E+01 0.  1.
        -11    1    1    2    0    0  0.36654986561E+02 -0.45909860642E+01 -0.66459877085E+01  0.37534442123E+02  0.00000000000E+00 0. -1.
         11    1    1    2    0    0 -0.49712193715E+02  0.12969334922E+02 -0.37898533926E+02  0.63842029463E+02  0.00000000000E+00 0.  1.
</event>
<event>
 7    1  0.2334784E-009  0.3212169E+03  0.7561462E-02  0.1075091E+00
         -2   -1    0    0    0  501 -0.00000000000E+00  0.00000000000E+00  0.10948833356E+03  0.10948833356E+03  0.00000000000E+00 0.  1.
          2   -1    0    0  501    0  0.00000000000E+00 -0.00000000000E+00 -0.10195755436E+04  0.10195755436E+04  0.00000000000E+00 0. -1.
         25    2    1    2    0    0  0.29313784321E+03 -0.11584390480E+03 -0.43927211925E+03  0.55493917113E+03  0.12509150052E+03 0.  0.
          5    1    3    3  502    0  0.66170805214E+02 -0.21834000560E+02 -0.20060203971E+03  0.21240044675E+03  0.41800000000E+01 0.  1.
         -5    1    3    3    0  502  0.22696703800E+03 -0.94009904240E+02 -0.23867007954E+03  0.34253872438E+03  0.41800000000E+01 0.  1.
        -11    1    1    2    0    0 -0.13538223119E+02  0.32441616309E+02 -0.34601411830E+02  0.49325446319E+02  0.00000000000E+00 0.  1.
         11    1    1    2    0    0 -0.27959962010E+03  0.83402288491E+02 -0.43621367898E+03  0.52479925973E+03  0.00000000000E+00 0. -1.
</event>
<event>
 7    1  0.2334784E-009  0.5904093E+02  0.7561462E-02  0.1401901E+00
          1   -1    0    0  501    0  0.00000000000E+00  0.00000000000E+00  0.42955579394E+02  0.42955579394E+02  0.00000000000E+00 0. -1.
         -1   -1    0    0    0  501 -0.00000000000E+00 -0.00000000000E+00 -0.28832975912E+03  0.28832975912E+03  0.00000000000E+00 0.  1.
         25    2    1    2    0    0  0.43827099280E+01 -0.28633193974E+02 -0.14063178477E+03  0.19042952214E+03  0.12508811323E+03 0.  0.
          5    1    3    3  502    0 -0.15435054246E+02 -0.18244185261E+02 -0.15920988415E+03  0.16104766626E+03  0.41800000000E+01 0. -1.
         -5    1    3    3    0  502  0.19817764174E+02 -0.10389008713E+02  0.18578099376E+02  0.29381855886E+02  0.41800000000E+01 0. -1.
        -11    1    1    2    0    0 -0.31332209948E+02  0.30910335329E+02 -0.10495444199E+03  0.11380945085E+03  0.00000000000E+00 0.  1.
         11    1    1    2    0    0  0.26949500020E+02 -0.22771413550E+01  0.21204703230E+00  0.27046365523E+02  0.00000000000E+00 0. -1.
</event>
<event>
 7    1  0.2334784E-009  0.1148156E+03  0.7561462E-02  0.1251903E+00
         -1   -1    0    0    0  501 -0.00000000000E+00  0.00000000000E+00  0.75399939310E+03  0.75399939310E+03  0.00000000000E+00 0.  1.
          1   -1    0    0  501    0  0.00000000000E+00 -0.00000000000E+00 -0.19366535025E+02  0.19366535025E+02  0.00000000000E+00 0. -1.
         25    2    1    2    0    0 -0.12550877247E+02 -0.48829667241E+01  0.33639715182E+03  0.35915497828E+03  0.12509151364E+03 0.  0.
          5    1    3    3  502    0  0.14793486390E+02 -0.59962176826E+02  0.20256329230E+03  0.21181045696E+03  0.41800000000E+01 0. -1.
         -5    1    3    3    0  502 -0.27344363638E+02  0.55079210102E+02  0.13383385952E+03  0.14734452132E+03  0.41800000000E+01 0. -1.
        -11    1    1    2    0    0  0.42496574005E+02 -0.35808715321E+02  0.28272017473E+03  0.28813004025E+03  0.00000000000E+00 0.  1.
         11    1    1    2    0    0 -0.29945696757E+02  0.40691682045E+02  0.11551553153E+03  0.12608090960E+03  0.00000000000E+00 0. -1.
</event>
<event>
 7    1  0.2334784E-009  0.7988182E+02  0.7561462E-02  0.1329387E+00
          3   -1    0    0  501    0  0.00000000000E+00  0.00000000000E+00  0.33573193151E+02  0.33573193151E+02  0.00000000000E+00 0. -1.
         -3   -1    0    0    0  501 -0.00000000000E+00 -0.00000000000E+00 -0.36159007662E+03  0.36159007662E+03  0.00000000000E+00 0.  1.
         25    2    1    2    0    0 -0.65909106751E+01 -0.21435479778E+02 -0.17770798105E+03  0.21847145056E+03  0.12508688294E+03 0.  0.
          5    1    3    3  502    0  0.14914728686E+02  0.40005025261E+02 -0.13206751896E+03  0.13886019279E+03  0.41800000000E+01 0.  1.
         -5    1    3    3    0  502 -0.21505639361E+02 -0.61440505038E+02 -0.45640462089E+02  0.79611257768E+02  0.41800000000E+01 0.  1.
        -11    1    1    2    0    0 -0.15703445394E+02  0.24531066140E+02 -0.15138140485E+03  0.15415803948E+03  0.00000000000E+00 0.  1.
         11    1    1    2    0    0  0.22294356070E+02 -0.30955863624E+01  0.10725024281E+01  0.22533779730E+02  0.00000000000E+00 0. -1.
</event>
<event>
 7    1  0.2334784E-009  0.1094134E+03  0.7561462E-02  0.1261660E+00
         -1   -1    0    0    0  501 -0.00000000000E+00  0.00000000000E+00  0.57591343413E+02  0.57591343413E+02  0.00000000000E+00 0.  1.
          1   -1    0    0  501    0  0.00000000000E+00 -0.00000000000E+00 -0.27642497360E+03  0.27642497360E+03  0.00000000000E+00 0. -1.
         25    2    1    2    0    0  0.99676285326E+01 -0.58016204741E+02 -0.90305069749E+02  0.16513082634E+03  0.12509176854E+03 0.  0.
          5    1    3    3  502    0  0.35427424529E+01  0.25888732557E+02 -0.74955816815E+02  0.79489775266E+02  0.41800000000E+01 0. -1.
         -5    1    3    3    0  502  0.64248860796E+01 -0.83904937298E+02 -0.15349252935E+02  0.85641051079E+02  0.41800000000E+01 0. -1.
        -11    1    1    2    0    0  0.33369287127E+02  0.55426281634E+02 -0.63166444494E+02  0.90418923513E+02  0.00000000000E+00 0.  1.
         11    1    1    2    0    0 -0.43336915659E+02  0.25899231067E+01 -0.65362115941E+02  0.78466567153E+02  0.00000000000E+00 0. -1.
</event>
<event>
 7    1  0.2351596E-009  0.1439825E+03  0.7561462E-02  0.1208068E+00
          1   -1    0    0  501    0  0.00000000000E+00  0.00000000000E+00  0.15829540903E+04  0.15829540903E+04  0.00000000000E+00 0. -1.
         -1   -1    0    0    0  501 -0.00000000000E+00 -0.00000000000E+00 -0.16019822774E+02  0.16019822774E+02  0.00000000000E+00 0.  1.
         25    2    1    2    0    0  0.94938977135E+01 -0.10740914269E+03  0.10542424882E+04  0.10670994905E+04  0.12508893156E+03 0.  0.
          5    1    3    3  502    0  0.41665686242E+02  0.85852598648E+01  0.35432285825E+03  0.35689199539E+03  0.41800000000E+01 0. -1.
         -5    1    3    3    0  502 -0.32171788529E+02 -0.11599440255E+03  0.69991962991E+03  0.71020749513E+03  0.41800000000E+01 0. -1.
        -11    1    1    2    0    0  0.11748025071E+02 -0.31733960635E+01  0.75205966783E+01  0.14305450361E+02  0.00000000000E+00 0.  1.
         11    1    1    2    0    0 -0.21241922784E+02  0.11058253875E+03  0.50517118269E+03  0.51756897220E+03  0.00000000000E+00 0. -1.
</event>
<event>
 7    1  0.2334784E-009  0.1052109E+03  0.7561462E-02  0.1269705E+00
          2   -1    0    0  501    0  0.00000000000E+00  0.00000000000E+00  0.40811213205E+03  0.40811213205E+03  0.00000000000E+00 0. -1.
         -2   -1    0    0    0  501 -0.00000000000E+00 -0.00000000000E+00 -0.46582247072E+02  0.46582247072E+02  0.00000000000E+00 0.  1.
         25    2    1    2    0    0 -0.49287698927E+02  0.48195474687E+02  0.28493112905E+03  0.31872399945E+03  0.12508860250E+03 0.  0.
          5    1    3    3  502    0  0.20160185592E+02 -0.30188873882E+02  0.95155934457E+02  0.10193098377E+03  0.41800000000E+01 0. -1.
         -5    1    3    3    0  502 -0.69447884519E+02  0.78384348569E+02  0.18977519459E+03  0.21679301568E+03  0.41800000000E+01 0. -1.
        -11    1    1    2    0    0  0.29653448309E+02 -0.25978175722E+02  0.93760858814E+02  0.10171180490E+03  0.00000000000E+00 0. -1.
         11    1    1    2    0    0  0.19634250617E+02 -0.22217298965E+02 -0.17162102881E+02  0.34258574779E+02  0.00000000000E+00 0.  1.
</event>
<event>
 7    1  0.2334784E-009  0.1290995E+03  0.7561462E-02  0.1228798E+00
         -1   -1    0    0    0  501 -0.00000000000E+00  0.00000000000E+00  0.67330794644E+02  0.67330794644E+02  0.00000000000E+00 0.  1.
          1   -1    0    0  501    0  0.00000000000E+00 -0.00000000000E+00 -0.26967260181E+03  0.26967260181E+03  0.00000000000E+00 0. -1.
         25    2    1    2    0    0  0.63680201380E+02  0.49648067290E+02 -0.10448757948E+03  0.18190270231E+03  0.12510331813E+03 0.  0.
          5    1    3    3  502    0  0.95376715098E+02  0.46098019073E+02 -0.46869960304E+02  0.11591380731E+03  0.41800000000E+01 0. -1.
         -5    1    3    3    0  502 -0.31696513718E+02  0.35500482168E+01 -0.57617619176E+02  0.65988895003E+02  0.41800000000E+01 0. -1.
        -11    1    1    2    0    0 -0.19197824562E+02 -0.68916144333E+02 -0.63824722918E+02  0.95872762937E+02  0.00000000000E+00 0. -1.
         11    1    1    2    0    0 -0.44482376818E+02  0.19268077043E+02 -0.34029504768E+02  0.59227931207E+02  0.00000000000E+00 0.  1.
</event>
<event>
 7    1  0.2456052E-009  0.1279394E+03  0.7561462E-02  0.1230546E+00
         -3   -1    0    0    0  501 -0.00000000000E+00  0.00000000000E+00  0.16813571436E+02  0.16813571436E+02  0.00000000000E+00 0.  1.
          3   -1    0    0  501    0  0.00000000000E+00 -0.00000000000E+00 -0.11010458024E+04  0.11010458024E+04  0.00000000000E+00 0. -1.
         25    2    1    2    0    0 -0.35038230488E+02  0.68009394883E+02 -0.47988496395E+03  0.50178662474E+03  0.12508909927E+03 0.  0.
          5    1    3    3  502    0 -0.54288880854E+02 -0.10633180966E+02 -0.29094999072E+03  0.29619202660E+03  0.41800000000E+01 0.  1.
         -5    1    3    3    0  502  0.19250650366E+02  0.78642575849E+02 -0.18893497323E+03  0.20559459814E+03  0.41800000000E+01 0.  1.
        -11    1    1    2    0    0 -0.48006640289E+01 -0.78087275645E+02 -0.37517573088E+03  0.38324600198E+03  0.00000000000E+00 0.  1.
         11    1    1    2    0    0  0.39838894517E+02  0.10077880763E+02 -0.22917153619E+03  0.23282674717E+03  0.00000000000E+00 0. -1.
</event>
<event>
 7    1  0.2334784E-009  0.1178099E+03  0.7561462E-02  0.1246754E+00
         -1   -1    0    0    0  501 -0.00000000000E+00  0.00000000000E+00  0.27610115894E+03  0.27610115894E+03  0.00000000000E+00 0.  1.
          1   -1    0    0  501    0  0.00000000000E+00 -0.00000000000E+00 -0.12357836798E+03  0.12357836798E+03  0.00000000000E+00 0. -1.
         25    2    1    2    0    0  0.69045867271E+02 -0.43838741421E+02  0.21529148985E+03  0.26208969574E+03  0.12510561927E+03 0.  0.
          5    1    3    3  502    0  0.53890270736E+02 -0.87595650344E+02  0.15115262229E+03  0.18287084750E+03  0.41800000000E+01 0. -1.
         -5    1    3    3    0  502  0.15155596534E+02  0.43756908923E+02  0.64138867556E+02  0.79218848238E+02  0.41800000000E+01 0. -1.
        -11    1    1    2    0    0 -0.25978807236E+02  0.18482873051E+01  0.21695580162E+02  0.33897091172E+02  0.00000000000E+00 0.  1.
         11    1    1    2    0    0 -0.43067060035E+02  0.41990454116E+02 -0.84464279047E+02  0.10369274001E+03  0.00000000000E+00 0. -1.
</event>
<event>
 7    1  0.2334784E-009  0.4731453E+02  0.7561462E-02  0.1460389E+00
         -1   -1    0    0    0  501 -0.00000000000E+00  0.00000000000E+00  0.12270438629E+03  0.12270438629E+03  0.00000000000E+00 0.  1.
          1   -1    0    0  501    0  0.00000000000E+00 -0.00000000000E+00 -0.10992050163E+03  0.10992050163E+03  0.00000000000E+00 0. -1.
         25    2    1    2    0    0 -0.12021008205E+02 -0.19375042718E+02  0.43866001726E+02  0.13447884012E+03  0.12506172641E+03 0.  0.
          5    1    3    3  502    0 -0.26477301245E+00 -0.69096950682E+01 -0.44063369937E+02  0.44798068718E+02  0.41800000000E+01 0.  1.
         -5    1    3    3    0  502 -0.11756235192E+02 -0.12465347650E+02  0.87929371663E+02  0.89680771400E+02  0.41800000000E+01 0.  1.
        -11    1    1    2    0    0  0.26441960410E+02 -0.15864414717E+02  0.18247667480E+02  0.35830633445E+02  0.00000000000E+00 0.  1.
         11    1    1    2    0    0 -0.14420952205E+02  0.35239457435E+02 -0.49329784545E+02  0.62315414354E+02  0.00000000000E+00 0. -1.
</event>
<event>
 7    1  0.2334784E-009  0.1411702E+03  0.7561462E-02  0.1211763E+00
         -2   -1    0    0    0  501 -0.00000000000E+00  0.00000000000E+00  0.32856802849E+02  0.32856802849E+02  0.00000000000E+00 0. -1.
          2   -1    0    0  501    0  0.00000000000E+00 -0.00000000000E+00 -0.89935972239E+03  0.89935972239E+03  0.00000000000E+00 0.  1.
         25    2    1    2    0    0 -0.76447232196E+02  0.94374644618E+02 -0.30684816340E+03  0.35292326732E+03  0.12509310283E+03 0.  0.
          5    1    3    3  502    0 -0.73484562320E+02  0.10111210223E+03 -0.14764216911E+03  0.19349243039E+03  0.41800000000E+01 0.  1.
         -5    1    3    3    0  502 -0.29626698764E+01 -0.67374576149E+01 -0.15920599428E+03  0.15943083693E+03  0.41800000000E+01 0.  1.
        -11    1    1    2    0    0  0.60739007416E+02 -0.11062984180E+03 -0.49353018732E+03  0.50941165545E+03  0.00000000000E+00 0.  1.
         11    1    1    2    0    0  0.15708224780E+02  0.16255197179E+02 -0.66124568827E+02  0.69881602469E+02  0.00000000000E+00 0. -1.
</event>
<event>
 7    1  0.2334784E-009  0.9988745E+02  0.7561462E-02  0.1280533E+00
          4   -1    0    0  501    0  0.00000000000E+00  0.00000000000E+00  0.12852966935E+03  0.12852966935E+03  0.00000000000E+00 0. -1.
         -4   -1    0    0    0  501 -0.00000000000E+00 -0.00000000000E+00 -0.92401263399E+02  0.92401263399E+02  0.00000000000E+00 0.  1.
         25    2    1    2    0    0  0.86198463964E+01 -0.60119177224E+01  0.17263793919E+02  0.12670998336E+03  0.12508771481E+03 0.  0.
          5    1    3    3  502    0  0.39921093952E+02 -0.45122253434E+02  0.39057269616E+02  0.71921166614E+02  0.41800000000E+01 0.  1.
         -5    1    3    3    0  502 -0.31301247556E+02  0.39110335711E+02 -0.21793475697E+02  0.54788816751E+02  0.41800000000E+01 0.  1.
        -11    1    1    2    0    0 -0.60318991514E+01  0.47331631883E+02  0.22318978545E+02  0.52676408262E+02  0.00000000000E+00 0. -1.
         11    1    1    2    0    0 -0.25879472450E+01 -0.41319714160E+02 -0.34543665118E+01  0.41544541124E+02  0.00000000000E+00 0.  1.
</event>
<event>
 7    1  0.2334784E-009  0.1908894E+03  0.7561462E-02  0.1157662E+00
          1   -1    0    0  501    0  0.00000000000E+00  0.00000000000E+00  0.44225425117E+03  0.44225425117E+03  0.00000000000E+00 0. -1.
         -1   -1    0    0    0  501 -0.00000000000E+00 -0.00000000000E+00 -0.13619910759E+03  0.13619910759E+03  0.00000000000E+00 0.  1.
         25    2    1    2    0    0 -0.12879911312E+03  0.57240880664E+02  0.24969891508E+03  0.31282942046E+03  0.12508784174E+03 0.  0.
          5    1    3    3  502    0 -0.14801757220E+03  0.26928817366E+02  0.21707912649E+03  0.26414992418E+03  0.41800000000E+01 0.  1.
         -5    1    3    3    0  502  0.19218459076E+02  0.30312063299E+02  0.32619788586E+02  0.48679496280E+02  0.41800000000E+01 0.  1.
        -11    1    1    2    0    0 -0.25355244756E+02  0.96085746469E+01 -0.56874300682E+02  0.63007136274E+02  0.00000000000E+00 0.  1.
         11    1    1    2    0    0  0.15415435788E+03 -0.66849455311E+02  0.11323052918E+03  0.20261680203E+03  0.00000000000E+00 0. -1.
</event>
<event>
 7    1  0.2334784E-009  0.9479247E+02  0.7561462E-02  0.1291644E+00
         -1   -1    0    0    0  501 -0.00000000000E+00  0.00000000000E+00  0.11115881371E+03  0.11115881371E+03  0.00000000000E+00 0.  1.
          1   -1    0    0  501    0  0.00000000000E+00 -0.00000000000E+00 -0.17405528717E+03  0.17405528717E+03  0.00000000000E+00 0. -1.
         25    2    1    2    0    0 -0.25721976940E+02 -0.64304219846E+02  0.20286110939E+02  0.14441444732E+03  0.12508938208E+03 0.  0.
          5    1    3    3  502    0 -0.36237013108E+02 -0.77075816656E+01 -0.44231338308E+02  0.57848177349E+02  0.41800000000E+01 0. -1.
         -5    1    3    3    0  502  0.10515036168E+02 -0.56596638181E+02  0.64517449247E+02  0.86566269969E+02  0.41800000000E+01 0. -1.
        -11    1    1    2    0    0  0.42658799621E+02  0.19921933270E+02 -0.80453642989E+02  0.93217194125E+02  0.00000000000E+00 0. -1.
         11    1    1    2    0    0 -0.16936822681E+02  0.44382286576E+02 -0.27289414104E+01  0.47582459431E+02  0.00000000000E+00 0.  1.
</event>
<event>
 7    1  0.2334784E-009  0.9572851E+02  0.7561462E-02  0.1289544E+00
          2   -1    0    0  501    0  0.00000000000E+00  0.00000000000E+00  0.10461232906E+04  0.10461232906E+04  0.00000000000E+00 0. -1.
         -2   -1    0    0    0  501 -0.00000000000E+00 -0.00000000000E+00 -0.20267614106E+02  0.20267614106E+02  0.00000000000E+00 0.  1.
         25    2    1    2    0    0  0.29756185646E+02  0.12154900270E+02  0.89581164828E+03  0.90507555083E+03  0.12510024518E+03 0.  0.
          5    1    3    3  502    0  0.70743344072E+02  0.33428579659E+02  0.44104481893E+03  0.44795099662E+03  0.41800000000E+01 0. -1.
         -5    1    3    3    0  502 -0.40987158427E+02 -0.21273679389E+02  0.45476682935E+03  0.45712455421E+03  0.41800000000E+01 0. -1.
        -11    1    1    2    0    0 -0.33286695850E+02  0.16992589699E+02  0.11371657795E+02  0.39064905302E+02  0.00000000000E+00 0.  1.
         11    1    1    2    0    0  0.35305102043E+01 -0.29147489969E+02  0.11867237043E+03  0.12225044858E+03  0.00000000000E+00 0. -1.
</event>
<event>
 7    1  0.2334784E-009  0.9763545E+02  0.7561462E-02  0.1285348E+00
          1   -1    0    0  501    0  0.00000000000E+00  0.00000000000E+00  0.15793964402E+03  0.15793964402E+03  0.00000000000E+00 0. -1.
         -1   -1    0    0    0  501 -0.00000000000E+00 -0.00000000000E+00 -0.13720178704E+03  0.13720178704E+03  0.00000000000E+00 0.  1.
         25    2    1    2    0    0 -0.36318060872E+01  0.46022202010E+02  0.99049113239E+02  0.16609974423E+03  0.12508862900E+03 0.  0.
          5    1    3    3  502    0 -0.25630209303E+01  0.72104253662E+02  0.96965450825E+01  0.72918364346E+02  0.41800000000E+01 0. -1.
         -5    1    3    3    0  502 -0.10687851569E+01 -0.26082051651E+02  0.89352568156E+02  0.93181379879E+02  0.41800000000E+01 0. -1.
        -11    1    1    2    0    0  0.43906511154E+02 -0.30212385487E+02 -0.64399564808E+02  0.83593503970E+02  0.00000000000E+00 0.  1.
         11    1    1    2    0    0 -0.40274705067E+02 -0.15809816523E+02 -0.13911691453E+02  0.45448182866E+02  0.00000000000E+00 0. -1.
</event>
<event>
 7    1  0.2334784E-009  0.7858197E+02  0.7561462E-02  0.1333124E+00
          2   -1    0    0  501    0  0.00000000000E+00  0.00000000000E+00  0.69687338740E+03  0.69687338740E+03  0.00000000000E+00 0. -1.
         -2   -1    0    0    0  501 -0.00000000000E+00 -0.00000000000E+00 -0.21422927292E+02  0.21422927292E+02  0.00000000000E+00 0.  1.
         25    2    1    2    0    0 -0.12564772251E+01 -0.50676234678E+02  0.45395478112E+03  0.47359350351E+03  0.12508478632E+03 0.  0.
          5    1    3    3  502    0 -0.24942549511E+02 -0.29442497176E+02  0.31677610071E+02  0.50099249454E+02  0.41800000000E+01 0.  1.
         -5    1    3    3    0  502  0.23686072286E+02 -0.21233737502E+02  0.42227717105E+03  0.42349425406E+03  0.41800000000E+01 0.  1.
        -11    1    1    2    0    0 -0.21848534983E+02  0.58040553864E+02  0.80404819402E+02  0.10154309113E+03  0.00000000000E+00 0.  1.
         11    1    1    2    0    0  0.23105012208E+02 -0.73643191865E+01  0.14109085959E+03  0.14315972005E+03  0.00000000000E+00 0. -1.
</event>
<event>
 7    1  0.2514738E-009  0.1593010E+03  0.7561462E-02  0.1189488E+00
         -2   -1    0    0    0  501 -0.00000000000E+00  0.00000000000E+00  0.82213009173E+02  0.82213009173E+02  0.00000000000E+00 0.  1.
          2   -1    0    0  501    0  0.00000000000E+00 -0.00000000000E+00 -0.37641658577E+03  0.37641658577E+03  0.00000000000E+00 0. -1.
         25    2    1    2    0    0  0.11632933991E+03 -0.21167094899E+02 -0.63342734846E+02  0.18341440032E+03  0.12509188205E+03 0.  0.
          5    1    3    3  502    0  0.14040481854E+03 -0.42503640652E+01 -0.62176304400E+02  0.15367154549E+03  0.41800000000E+01 0. -1.
         -5    1    3    3    0  502 -0.24075478630E+02 -0.16916730834E+02 -0.11664304457E+01  0.29742854829E+02  0.41800000000E+01 0. -1.
        -11    1    1    2    0    0 -0.29695407695E+02 -0.34387355188E+02 -0.89344370854E+02  0.10023334794E+03  0.00000000000E+00 0. -1.
         11    1    1    2    0    0 -0.86633932217E+02  0.55554450087E+02 -0.14151647090E+03  0.17498184669E+03  0.00000000000E+00 0.  1.
</event>
<event>
 7    1  0.2334784E-009  0.1076270E+03  0.7561462E-02  0.1265029E+00
         -2   -1    0    0    0  501 -0.00000000000E+00  0.00000000000E+00  0.43983753041E+03  0.43983753041E+03  0.00000000000E+00 0. -1.
          2   -1    0    0  501    0  0.00000000000E+00 -0.00000000000E+00 -0.44116924948E+02  0.44116924948E+02  0.00000000000E+00 0.  1.
         25    2    1    2    0    0  0.49852025899E+02  0.58392032311E+02  0.28827870852E+03  0.32348834871E+03  0.12508094995E+03 0.  0.
          5    1    3    3  502    0  0.81268764243E+02  0.67234323646E+02  0.25805623293E+03  0.27881097194E+03  0.41800000000E+01 0.  1.
         -5    1    3    3    0  502 -0.31416738345E+02 -0.88422913355E+01  0.30222475588E+02  0.44677376769E+02  0.41800000000E+01 0.  1.
        -11    1    1    2    0    0 -0.35394150313E+02 -0.42464144990E+02  0.46816763075E+01  0.55478532597E+02  0.00000000000E+00 0.  1.
         11    1    1    2    0    0 -0.14457875586E+02 -0.15927887321E+02  0.10276022063E+03  0.10498757405E+03  0.00000000000E+00 0. -1.
</event>
<event>
 7    1  0.2334784E-009  0.1021749E+03  0.7561462E-02  0.1275788E+00
         -2   -1    0    0    0  501 -0.00000000000E+00  0.00000000000E+00  0.46834427125E+02  0.46834427125E+02  0.00000000000E+00 0.  1.
          2   -1    0    0  501    0  0.00000000000E+00 -0.00000000000E+00 -0.37503926592E+03  0.37503926592E+03  0.00000000000E+00 0. -1.
         25    2    1    2    0    0 -0.56172695968E+02 -0.52045590758E+02 -0.17740583343E+03  0.23018387027E+03  0.12509064356E+03 0.  0.
          5    1    3    3  502    0 -0.73669380160E+02 -0.11947105660E+02 -0.16987656852E+03  0.18559480552E+03  0.41800000000E+01 0. -1.
         -5    1    3    3    0  502  0.17496684192E+02 -0.40098485098E+02 -0.75292649177E+01  0.44589064748E+02  0.41800000000E+01 0. -1.
        -11    1    1    2    0    0  0.63123364823E+01  0.30823684969E+02 -0.12982562033E+03  0.13358381953E+03  0.00000000000E+00 0. -1.
         11    1    1    2    0    0  0.49860359486E+02  0.21221905790E+02 -0.20973385037E+02  0.58106003247E+02  0.00000000000E+00 0.  1.
</event>
<event>
 7    1  0.2334784E-009  0.1928581E+03  0.7561462E-02  0.1155908E+00
          1   -1    0    0  501    0  0.00000000000E+00  0.00000000000E+00  0.40031548561E+03  0.40031548561E+03  0.00000000000E+00 0. -1.
         -1   -1    0    0    0  501 -0.00000000000E+00 -0.00000000000E+00 -0.13282657827E+03  0.13282657827E+03  0.00000000000E+00 0.  1.
         25    2    1    2    0    0  0.16350656802E+03 -0.62604061047E+02  0.25789273653E+03  0.33587308690E+03  0.12509356778E+03 0.  0.
          5    1    3    3  502    0  0.83917800434E+02 -0.73696298884E+02  0.22036396330E+03  0.24708518859E+03  0.41800000000E+01 0.  1.
         -5    1    3    3    0  502  0.79588767583E+02  0.11092237837E+02  0.37528773235E+02  0.88787898308E+02  0.41800000000E+01 0.  1.
        -11    1    1    2    0    0  0.69621048279E+01  0.14936673126E+02 -0.98457210819E+01  0.19196701053E+02  0.00000000000E+00 0. -1.
         11    1    1    2    0    0 -0.17046867284E+03  0.47667387921E+02  0.19441891892E+02  0.17807227592E+03  0.00000000000E+00 0.  1.
</event>
<event>
 7    1  0.2334784E-009  0.1036847E+03  0.7561462E-02  0.1272733E+00
         -1   -1    0    0    0  501 -0.00000000000E+00  0.00000000000E+00  0.45461603848E+02  0.45461603848E+02  0.00000000000E+00 0.  1.
          1   -1    0    0  501    0  0.00000000000E+00 -0.00000000000E+00 -0.35640270655E+03  0.35640270655E+03  0.00000000000E+00 0. -1.
         25    2    1    2    0    0  0.36340561106E+02  0.53426602976E+02 -0.18973594954E+03  0.23626733816E+03  0.12508991265E+03 0.  0.
          5    1    3    3  502    0  0.51274213205E+02  0.15765217912E+02 -0.13619565787E+02  0.55502720725E+02  0.41800000000E+01 0.  1.
         -5    1    3    3    0  502 -0.14933652100E+02  0.37661385064E+02 -0.17611638375E+03  0.18076461743E+03  0.41800000000E+01 0.  1.
        -11    1    1    2    0    0 -0.15043454384E+01  0.26031686950E+02 -0.28154551338E+02  0.38374347444E+02  0.00000000000E+00 0. -1.
         11    1    1    2    0    0 -0.34836215667E+02 -0.79458289926E+02 -0.93050601823E+02  0.12722262479E+03  0.00000000000E+00 0.  1.
</event>
<event>
 7    1  0.2334784E-009  0.6919046E+02  0.7561462E-02  0.1362868E+00
         -1   -1    0    0    0  501 -0.00000000000E+00  0.00000000000E+00  0.29223068170E+03  0.29223068170E+03  0.00000000000E+00 0.  1.
          1   -1    0    0  501    0  0.00000000000E+00 -0.00000000000E+00 -0.41699851873E+02  0.41699851873E+02  0.00000000000E+00 0. -1.
         25    2    1    2    0    0  0.20534543817E+02  0.21641373029E+02  0.18862267927E+03  0.22828949145E+03  0.12509020848E+03 0.  0.
          5    1    3    3  502    0 -0.30374788309E+01 -0.36458818721E+02  0.15017026336E+03  0.15461905490E+03  0.41800000000E+01 0. -1.
         -5    1    3    3    0  502  0.23572022648E+02  0.58100191749E+02  0.38452415912E+02  0.73670436557E+02  0.41800000000E+01 0. -1.
        -11    1    1    2    0    0  0.49384350747E+01 -0.90360383022E+01 -0.18050624394E+02  0.20781317817E+02  0.00000000000E+00 0. -1.
         11    1    1    2    0    0 -0.25472978891E+02 -0.12605334726E+02  0.79958774954E+02  0.84859724306E+02  0.00000000000E+00 0.  1.
</event>
<event>
 7    1  0.2334784E-009  0.2787358E+03  0.7561462E-02  0.1096381E+00
         -4   -1    0    0    0  501 -0.00000000000E+00  0.00000000000E+00  0.38810463312E+03  0.38810463312E+03  0.00000000000E+00 0.  1.
          4   -1    0    0  501    0  0.00000000000E+00 -0.00000000000E+00 -0.45238028456E+03  0.45238028456E+03  0.00000000000E+00 0. -1.
         25    2    1    2    0    0  0.11688320943E+03 -0.23062019228E+03  0.27960587570E+03  0.40084273139E+03  0.12509233329E+03 0.  0.
          5    1    3    3  502    0 -0.24967488512E+02 -0.20892741612E+02  0.21377572768E+02  0.39170845690E+02  0.41800000000E+01 0.  1.
         -5    1    3    3    0  502  0.14185069794E+03 -0.20972745067E+03  0.25822830293E+03  0.36167188570E+03  0.41800000000E+01 0.  1.
        -11    1    1    2    0    0 -0.37221817681E+02  0.16217885189E+03 -0.23897591310E+03  0.29119912560E+03  0.00000000000E+00 0. -1.
         11    1    1    2    0    0 -0.79661391752E+02  0.68441340387E+02 -0.10490561404E+03  0.14844306069E+03  0.00000000000E+00 0.  1.
</event>
<event>
 7    1  0.2334784E-009  0.7679808E+02  0.7561462E-02  0.1338392E+00
          2   -1    0    0  501    0  0.00000000000E+00  0.00000000000E+00  0.65773080288E+03  0.65773080288E+03  0.00000000000E+00 0. -1.
         -2   -1    0    0    0  501 -0.00000000000E+00 -0.00000000000E+00 -0.18493991027E+02  0.18493991027E+02  0.00000000000E+00 0.  1.
         25    2    1    2    0    0  0.97266877177E+01  0.15998196962E+02  0.40597368588E+03  0.42522032092E+03  0.12508851640E+03 0.  0.
          5    1    3    3  502    0  0.34278227458E+02  0.79015181269E+01  0.39539136326E+03  0.39697510426E+03  0.41800000000E+01 0.  1.
         -5    1    3    3    0  502 -0.24551539741E+02  0.80966788352E+01  0.10582322620E+02  0.28245216654E+02  0.41800000000E+01 0.  1.
        -11    1    1    2    0    0 -0.51515941267E+00 -0.53431315291E+02  0.11994618693E+03  0.13130978106E+03  0.00000000000E+00 0.  1.
         11    1    1    2    0    0 -0.92115283050E+01  0.37433118329E+02  0.11331693905E+03  0.11969469193E+03  0.00000000000E+00 0. -1.
</event>
<event>
 7    1  0.2334784E-009  0.9653588E+02  0.7561462E-02  0.1287754E+00
          1   -1    0    0  501    0  0.00000000000E+00  0.00000000000E+00  0.10446419279E+03  0.10446419279E+03  0.00000000000E+00 0. -1.
         -1   -1    0    0    0  501 -0.00000000000E+00 -0.00000000000E+00 -0.10098096414E+03  0.10098096414E+03  0.00000000000E+00 0.  1.
         25    2    1    2    0    0 -0.10717008268E+02  0.90677105163E+01 -0.96615570696E-01  0.12587719229E+03  0.12509188848E+03 0.  0.
          5    1    3    3  502    0 -0.62643751396E+02 -0.19324392318E+02  0.72761740755E+01  0.66091503513E+02  0.41800000000E+01 0.  1.
         -5    1    3    3    0  502  0.51926743129E+02  0.28392102834E+02 -0.73727896462E+01  0.59785688776E+02  0.41800000000E+01 0.  1.
        -11    1    1    2    0    0  0.39068178037E+02 -0.61956519179E+01 -0.18354724562E+02  0.43607391020E+02  0.00000000000E+00 0.  1.
         11    1    1    2    0    0 -0.28351169770E+02 -0.28720585985E+01  0.21934568773E+02  0.35960573621E+02  0.00000000000E+00 0. -1.
</event>
<event>
 7    1  0.2334784E-009  0.1723028E+03  0.7561462E-02  0.1175467E+00
         -1   -1    0    0    0  501 -0.00000000000E+00  0.00000000000E+00  0.18233855077E+03  0.18233855077E+03  0.00000000000E+00 0.  1.
          1   -1    0    0  501    0  0.00000000000E+00 -0.00000000000E+00 -0.19266140955E+03  0.19266140955E+03  0.00000000000E+00 0. -1.
         25    2    1    2    0    0 -0.10122331205E+03 -0.10648076614E+03  0.33559142967E+02  0.19584986740E+03  0.12508653813E+03 0.  0.
          5    1    3    3  502    0  0.19027659152E+02 -0.40884972333E+02 -0.18947880123E+02  0.49093047742E+02  0.41800000000E+01 0.  1.
         -5    1    3    3    0  502 -0.12025097121E+03 -0.65595793807E+02  0.52507023090E+02  0.14675681965E+03  0.41800000000E+01 0.  1.
        -11    1    1    2    0    0  0.52660856898E+02  0.10034747354E+03 -0.59205214100E+02  0.12785944890E+03  0.00000000000E+00 0.  1.
         11    1    1    2    0    0  0.48562455155E+02  0.61332925987E+01  0.15323212354E+02  0.51290644036E+02  0.00000000000E+00 0. -1.
</event>
<event>
 7    1  0.2334784E-009  0.1132908E+03  0.7561462E-02  0.1254594E+00
         -2   -1    0    0    0  501 -0.00000000000E+00  0.00000000000E+00  0.17642995709E+03  0.17642995709E+03  0.00000000000E+00 0.  1.
          2   -1    0    0  501    0  0.00000000000E+00 -0.00000000000E+00 -0.10083971424E+03  0.10083971424E+03  0.00000000000E+00 0. -1.
         25    2    1    2    0    0  0.75081371690E+02  0.20904047688E+02  0.37040680079E+02  0.15196626199E+03  0.12509013238E+03 0.  0.
          5    1    3    3  502    0  0.37318698821E+02 -0.47841895434E+02 -0.81258992837E+01  0.61359880048E+02  0.41800000000E+01 0. -1.
         -5    1    3    3    0  502  0.37762672869E+02  0.68745943122E+02  0.45166579363E+02  0.90606381946E+02  0.41800000000E+01 0. -1.
        -11    1    1    2    0    0 -0.52439119004E+02  0.51579436665E+01  0.63641824509E+02  0.82624133349E+02  0.00000000000E+00 0.  1.
         11    1    1    2    0    0 -0.22642252686E+02 -0.26061991355E+02 -0.25092261732E+02  0.42679275989E+02  0.00000000000E+00 0. -1.
</event>
<event>
 7    1  0.3489371E-009  0.1433232E+03  0.7561462E-02  0.1208926E+00
         -2   -1    0    0    0  501 -0.00000000000E+00  0.00000000000E+00  0.14291512466E+03  0.14291512466E+03  0.00000000000E+00 0. -1.
          2   -1    0    0  501    0  0.00000000000E+00 -0.00000000000E+00 -0.20348061628E+03  0.20348061628E+03  0.00000000000E+00 0.  1.
         25    2    1    2    0    0 -0.62953092221E+02 -0.10244956733E+03  0.21015101793E+02  0.17478036100E+03  0.12509010521E+03 0.  0.
          5    1    3    3  502    0 -0.68031126504E+02 -0.65004683970E+01  0.36144375108E+02  0.77423371890E+02  0.41800000000E+01 0.  1.
         -5    1    3    3    0  502  0.50780342833E+01 -0.95949098928E+02 -0.15129273315E+02  0.97356989109E+02  0.41800000000E+01 0.  1.
        -11    1    1    2    0    0  0.21183928675E+02  0.18039084547E+02 -0.71711490033E+02  0.76920122258E+02  0.00000000000E+00 0.  1.
         11    1    1    2    0    0  0.41769163546E+02  0.84410482779E+02 -0.98691033709E+01  0.94695257683E+02  0.00000000000E+00 0. -1.
</event>
<event>
 7    1  0.2334784E-009  0.1162215E+03  0.7561462E-02  0.1249464E+00
         -2   -1    0    0    0  501 -0.00000000000E+00  0.00000000000E+00  0.17505014722E+02  0.17505014722E+02  0.00000000000E+00 0. -1.
          2   -1    0    0  501    0  0.00000000000E+00 -0.00000000000E+00 -0.10054566420E+04  0.10054566420E+04  0.00000000000E+00 0.  1.
         25    2    1    2    0    0  0.65178098321E+02 -0.15362619609E+02 -0.69046305418E+03  0.70489124574E+03  0.12509294365E+03 0.  0.
          5    1    3    3  502    0 -0.11659183141E+01 -0.56130734365E+02 -0.18277129215E+03  0.19124548711E+03  0.41800000000E+01 0.  1.
         -5    1    3    3    0  502  0.66344016635E+02  0.40768114756E+02 -0.50769176203E+03  0.51364575863E+03  0.41800000000E+01 0.  1.
        -11    1    1    2    0    0 -0.27064654306E+02 -0.29006688120E+02 -0.50334802771E+02  0.64089592278E+02  0.00000000000E+00 0. -1.
         11    1    1    2    0    0 -0.38113444015E+02  0.44369307729E+02 -0.24715377031E+03  0.25398081869E+03  0.00000000000E+00 0.  1.
</event>
<event>
 7    1  0.2334784E-009  0.1135884E+03  0.7561462E-02  0.1254065E+00
         -2   -1    0    0    0  501 -0.00000000000E+00  0.00000000000E+00  0.72177892730E+01  0.72177892730E+01  0.00000000000E+00 0. -1.
          2   -1    0    0  501    0  0.00000000000E+00 -0.00000000000E+00 -0.20221562191E+04  0.20221562191E+04  0.00000000000E+00 0.  1.
         25    2    1    2    0    0  0.32321243181E+01  0.39634517559E+02 -0.14459089677E+04  0.14518540847E+04  0.12508476632E+03 0.  0.
          5    1    3    3  502    0  0.55203365480E+02  0.50976694011E+02 -0.69833832276E+03  0.70238160591E+03  0.41800000000E+01 0.  1.
         -5    1    3    3    0  502 -0.51971241162E+02 -0.11342176452E+02 -0.74757064492E+03  0.74947247876E+03  0.41800000000E+01 0.  1.
        -11    1    1    2    0    0 -0.43724132616E+02 -0.27850829541E+01 -0.23991788755E+03  0.24388552484E+03  0.00000000000E+00 0. -1.
         11    1    1    2    0    0  0.40492008298E+02 -0.36849434605E+02 -0.32911157461E+03  0.33363439887E+03  0.00000000000E+00 0.  1.
</event>
<event>
 7    1  0.2334784E-009  0.7299984E+02  0.7561462E-02  0.1350179E+00
          2   -1    0    0  501    0  0.00000000000E+00  0.00000000000E+00  0.79156217464E+02  0.79156217464E+02  0.00000000000E+00 0. -1.
         -2   -1    0    0    0  501 -0.00000000000E+00 -0.00000000000E+00 -0.20653935376E+03  0.20653935376E+03  0.00000000000E+00 0.  1.
         25    2    1    2    0    0  0.16693857705E+02  0.13560296455E+01  0.29903574258E+01  0.12621673156E+03  0.12506477277E+03 0.  0.
          5    1    3    3  502    0  0.30553743321E+02 -0.40017922795E+02  0.43396535441E+02  0.66601029002E+02  0.41800000000E+01 0.  1.
         -5    1    3    3    0  502 -0.13859885616E+02  0.41373952441E+02 -0.40406178016E+02  0.59615702560E+02  0.41800000000E+01 0.  1.
        -11    1    1    2    0    0 -0.27689224123E+02  0.15338981234E+02 -0.13524778876E+03  0.13890263439E+03  0.00000000000E+00 0.  1.
         11    1    1    2    0    0  0.10995366418E+02 -0.16695010879E+02  0.48742950405E+01  0.20576205264E+02  0.00000000000E+00 0. -1.
</event>
<event>
 7    1  0.2334784E-009  0.2058851E+03  0.7561462E-02  0.1144867E+00
         -3   -1    0    0    0  501 -0.00000000000E+00  0.00000000000E+00  0.12729701774E+03  0.12729701774E+03  0.00000000000E+00 0.  1.
          3   -1    0    0  501    0  0.00000000000E+00 -0.00000000000E+00 -0.35474752464E+03  0.35474752464E+03  0.00000000000E+00 0. -1.
         25    2    1    2    0    0 -0.37454281187E+01 -0.17933254369E+03 -0.15399120128E+03  0.26746036635E+03  0.12509023958E+03 0.  0.
          5    1    3    3  502    0  0.17493792015E+02  0.13811310758E+02 -0.68454036354E+01  0.23687908622E+02  0.41800000000E+01 0.  1.
         -5    1    3    3    0  502 -0.21239220134E+02 -0.19314385445E+03 -0.14714579765E+03  0.24377245773E+03  0.41800000000E+01 0.  1.
        -11    1    1    2    0    0  0.29786607314E+02  0.15882291603E+03 -0.37912192599E+02  0.16597980293E+03  0.00000000000E+00 0.  1.
         11    1    1    2    0    0 -0.26041179196E+02  0.20509627658E+02 -0.35547113022E+02  0.48604373103E+02  0.00000000000E+00 0. -1.
</event>
<event>
 7    1  0.2334784E-009  0.1166974E+03  0.7561462E-02  0.1248647E+00
         -2   -1    0    0    0  501 -0.00000000000E+00  0.00000000000E+00  0.10785465415E+03  0.10785465415E+03  0.00000000000E+00 0.  1.
          2   -1    0    0  501    0  0.00000000000E+00 -0.00000000000E+00 -0.14358859756E+03  0.14358859756E+03  0.00000000000E+00 0. -1.
         25    2    1    2    0    0  0.33283910063E+02 -0.50168997877E+02 -0.30382258025E+02  0.14211220739E+03  0.12509216950E+03 0.  0.
          5    1    3    3  502    0  0.46138855984E+02 -0.79683046404E+02  0.71981114702E+01  0.92452512808E+02  0.41800000000E+01 0. -1.
         -5    1    3    3    0  502 -0.12854945921E+02  0.29514048526E+02 -0.37580369495E+02  0.49659694587E+02  0.41800000000E+01 0. -1.
        -11    1    1    2    0    0  0.65967389441E+01  0.65650049629E+02 -0.80288552765E+01  0.66467349112E+02  0.00000000000E+00 0. -1.
         11    1    1    2    0    0 -0.39880649007E+02 -0.15481051751E+02  0.26771698908E+01  0.42863695212E+02  0.00000000000E+00 0.  1.
</event>
<event>
 7    1  0.2334784E-009  0.7225795E+02  0.7561462E-02  0.1352579E+00
         -1   -1    0    0    0  501 -0.00000000000E+00  0.00000000000E+00  0.17155319610E+02  0.17155319610E+02  0.00000000000E+00 0.  1.
          1   -1    0    0  501    0  0.00000000000E+00 -0.00000000000E+00 -0.70718156790E+03  0.70718156790E+03  0.00000000000E+00 0. -1.
         25    2    1    2    0    0 -0.18696356751E+02 -0.61493400421E+01 -0.42071904000E+03  0.43936214193E+03  0.12508882046E+03 0.  0.
          5    1    3    3  502    0 -0.38318557142E+02 -0.30635989280E+01 -0.41692248414E+03  0.41871174768E+03  0.41800000000E+01 0.  1.
         -5    1    3    3    0  502  0.19622200391E+02 -0.30857411141E+01 -0.37965558572E+01  0.20650394252E+02  0.41800000000E+01 0.  1.
        -11    1    1    2    0    0  0.30048947991E+02  0.39895293048E+02 -0.20950367990E+03  0.21537494184E+03  0.00000000000E+00 0. -1.
         11    1    1    2    0    0 -0.11352591240E+02 -0.33745953006E+02 -0.59803528395E+02  0.69599803740E+02  0.00000000000E+00 0.  1.
</event>
<event>
 7    1  0.2837372E-009  0.1022439E+03  0.7561462E-02  0.1275647E+00
          1   -1    0    0  501    0  0.00000000000E+00  0.00000000000E+00  0.17681653150E+03  0.17681653150E+03  0.00000000000E+00 0. -1.
         -1   -1    0    0    0  501 -0.00000000000E+00 -0.00000000000E+00 -0.12168890540E+03  0.12168890540E+03  0.00000000000E+00 0.  1.
         25    2    1    2    0    0  0.89746127531E+01 -0.85420713660E+02 -0.18191978914E+02  0.15282577003E+03  0.12509007112E+03 0.  0.
          5    1    3    3  502    0 -0.25533778042E+02  0.42242402239E+00  0.36896518290E+02  0.45066370223E+02  0.41800000000E+01 0. -1.
         -5    1    3    3    0  502  0.34508390795E+02 -0.85843137682E+02 -0.55088497204E+02  0.10775939981E+03  0.41800000000E+01 0. -1.
        -11    1    1    2    0    0 -0.63523517302E+01  0.40084697234E+02 -0.17455232210E+02  0.44179412132E+02  0.00000000000E+00 0.  1.
         11    1    1    2    0    0 -0.26222610229E+01  0.45336016427E+02  0.90774837225E+02  0.10150025474E+03  0.00000000000E+00 0. -1.
</event>
<event>
 7    1  0.2334784E-009  0.1347073E+03  0.7561462E-02  0.1220633E+00
          1   -1    0    0  501    0  0.00000000000E+00  0.00000000000E+00  0.74666783357E+02  0.74666783357E+02  0.00000000000E+00 0. -1.
         -1   -1    0    0    0  501 -0.00000000000E+00 -0.00000000000E+00 -0.41491849184E+03  0.41491849184E+03  0.00000000000E+00 0.  1.
         25    2    1    2    0    0  0.64709614805E+02  0.82524007520E+02 -0.30752656601E+03  0.34816072898E+03  0.12508300580E+03 0.  0.
          5    1    3    3  502    0  0.71606399302E+02 -0.69489516308E+01 -0.11512968840E+03  0.13582371626E+03  0.41800000000E+01 0. -1.
         -5    1    3    3    0  502 -0.68967844966E+01  0.89472959150E+02 -0.19239687761E+03  0.21233701272E+03  0.41800000000E+01 0. -1.
        -11    1    1    2    0    0 -0.13953067939E+02 -0.49378002978E+01 -0.45488914000E+02  0.47836296612E+02  0.00000000000E+00 0.  1.
         11    1    1    2    0    0 -0.50756546866E+02 -0.77586207222E+02  0.12763771521E+02  0.93588249606E+02  0.00000000000E+00 0. -1.
</event>
<event>
 7    1  0.2334784E-009  0.1687312E+03  0.7561462E-02  0.1179177E+00
          2   -1    0    0  501    0  0.00000000000E+00  0.00000000000E+00  0.57840386832E+03  0.57840386832E+03  0.00000000000E+00 0. -1.
         -2   -1    0    0    0  501 -0.00000000000E+00 -0.00000000000E+00 -0.65050922480E+02  0.65050922480E+02  0.00000000000E+00 0.  1.
         25    2    1    2    0    0  0.85157386996E+02 -0.13567213335E+03  0.27953402966E+03  0.34560970678E+03  0.12509231534E+03 0.  0.
          5    1    3    3  502    0  0.24721777927E+02 -0.10555085429E+03  0.79652667543E+02  0.13458888881E+03  0.41800000000E+01 0.  1.
         -5    1    3    3    0  502  0.60435609069E+02 -0.30121279059E+02  0.19988136212E+03  0.21102081797E+03  0.41800000000E+01 0.  1.
        -11    1    1    2    0    0 -0.28625442850E+02  0.63407044523E+02  0.17636548138E+03  0.18959074950E+03  0.00000000000E+00 0. -1.
         11    1    1    2    0    0 -0.56531944146E+02  0.72265088823E+02  0.57453434800E+02  0.10825433452E+03  0.00000000000E+00 0.  1.
</event>
<event>
 7    1  0.2334784E-009  0.1733521E+03  0.7561462E-02  0.1174397E+00
          2   -1    0    0  501    0  0.00000000000E+00  0.00000000000E+00  0.20801258695E+04  0.20801258695E+04  0.00000000000E+00 0. -1.
         -2   -1    0    0    0  501 -0.00000000000E+00 -0.00000000000E+00 -0.17997189468E+02  0.17997189468E+02  0.00000000000E+00 0.  1.
         25    2    1    2    0    0 -0.10048067437E+03  0.90782242227E+02  0.14612268591E+04  0.14728104400E+04  0.12509547176E+03 0.  0.
          5    1    3    3  502    0 -0.12783812781E+03  0.74454435043E+02  0.10573718718E+04  0.10676791641E+04  0.41800000000E+01 0.  1.
         -5    1    3    3    0  502  0.27357453444E+02  0.16327807184E+02  0.40385498737E+03  0.40513127597E+03  0.41800000000E+01 0.  1.
        -11    1    1    2    0    0  0.38825774844E+02  0.17014323439E+02  0.23815315669E+03  0.24189637045E+03  0.00000000000E+00 0.  1.
         11    1    1    2    0    0  0.61654899525E+02 -0.10779656567E+03  0.36274866425E+03  0.38341624851E+03  0.00000000000E+00 0. -1.
</event>
<event>
 7    1  0.2334784E-009  0.5999894E+02  0.7561462E-02  0.1397836E+00
         -1   -1    0    0    0  501 -0.00000000000E+00  0.00000000000E+00  0.27593104303E+02  0.27593104303E+02  0.00000000000E+00 0.  1.
          1   -1    0    0  501    0  0.00000000000E+00 -0.00000000000E+00 -0.45239123683E+03  0.45239123683E+03  0.00000000000E+00 0. -1.
         25    2    1    2    0    0  0.25902445494E+02 -0.12248403980E+02 -0.24770812563E+03  0.27897596541E+03  0.12508922291E+03 0.  0.
          5    1    3    3  502    0  0.37295594552E+01 -0.23798275120E+02 -0.25207236965E+03  0.25325524566E+03  0.41800000000E+01 0. -1.
         -5    1    3    3    0  502  0.22172886039E+02  0.11549871140E+02  0.43642440165E+01  0.25720719750E+02  0.41800000000E+01 0. -1.
        -11    1    1    2    0    0 -0.61855623350E+01  0.37588555671E+02 -0.16032314670E+03  0.16478674724E+03  0.00000000000E+00 0. -1.
         11    1    1    2    0    0 -0.19716883159E+02 -0.25340151691E+02 -0.16766860195E+02  0.36221628484E+02  0.00000000000E+00 0.  1.
</event>
<event>
 7    1  0.2644945E-009  0.1211105E+03  0.7561462E-02  0.1241276E+00
         -1   -1    0    0    0  501 -0.00000000000E+00  0.00000000000E+00  0.19961254092E+03  0.19961254092E+03  0.00000000000E+00 0.  1.
          1   -1    0    0  501    0  0.00000000000E+00 -0.00000000000E+00 -0.12760832271E+03  0.12760832271E+03  0.00000000000E+00 0. -1.
         25    2    1    2    0    0 -0.19142719847E+02  0.68680382799E+02  0.13340474937E+03  0.19627935582E+03  0.12508125224E+03 0.  0.
          5    1    3    3  502    0 -0.18933561660E+02 -0.30481469243E+02  0.91779209585E+01  0.37273400133E+02  0.41800000000E+01 0.  1.
         -5    1    3    3    0  502 -0.20915818653E+00  0.99161852042E+02  0.12422682841E+03  0.15900595569E+03  0.41800000000E+01 0.  1.
        -11    1    1    2    0    0 -0.28925973939E+02 -0.44402395075E+02 -0.54296775698E+01  0.53270686641E+02  0.00000000000E+00 0.  1.
         11    1    1    2    0    0  0.48068693786E+02 -0.24277987724E+02 -0.55970853583E+02  0.77670821169E+02  0.00000000000E+00 0. -1.
</event>
<event>
 7    1  0.2334784E-009  0.1674148E+03  0.7561462E-02  0.1180571E+00
          1   -1    0    0  501    0  0.00000000000E+00  0.00000000000E+00  0.20061744293E+03  0.20061744293E+03  0.00000000000E+00 0. -1.
         -1   -1    0    0    0  501 -0.00000000000E+00 -0.00000000000E+00 -0.20672292699E+03  0.20672292699E+03  0.00000000000E+00 0.  1.
         25    2    1    2    0    0  0.78727285471E+00 -0.14549861019E+03 -0.10147512237E+03  0.21706043701E+03  0.12509023738E+03 0.  0.
          5    1    3    3  502    0 -0.58077372493E+02 -0.86986253596E+02 -0.34143995031E+02  0.11010392503E+03  0.41800000000E+01 0. -1.
         -5    1    3    3    0  502  0.58864645348E+02 -0.58512356597E+02 -0.67331127337E+02  0.10695651198E+03  0.41800000000E+01 0. -1.
        -11    1    1    2    0    0 -0.11039557184E+02  0.77860444906E+02  0.76101044714E+01  0.79006546525E+02  0.00000000000E+00 0.  1.
         11    1    1    2    0    0  0.10252284330E+02  0.67638165287E+02  0.87759533835E+02  0.11127338638E+03  0.00000000000E+00 0. -1.
</event>
<event>
 7    1  0.2334784E-009  0.8708826E+02  0.7561462E-02  0.1310060E+00
         -3   -1    0    0    0  501 -0.00000000000E+00  0.00000000000E+00  0.20927543188E+03  0.20927543188E+03  0.00000000000E+00 0.  1.
          3   -1    0    0  501    0  0.00000000000E+00 -0.00000000000E+00 -0.64983874228E+02  0.64983874228E+02  0.00000000000E+00 0. -1.
         25    2    1    2    0    0 -0.11692251466E+02  0.60036487228E+01  0.32829514315E+02  0.12999409391E+03  0.12509170596E+03 0.  0.
          5    1    3    3  502    0  0.55760033509E+02  0.95292333910E+01  0.24580622621E+02  0.61819633082E+02  0.41800000000E+01 0.  1.
         -5    1    3    3    0  502 -0.67452284975E+02 -0.35255846682E+01  0.82488916938E+01  0.68174460832E+02  0.41800000000E+01 0.  1.
        -11    1    1    2    0    0 -0.17599701756E+02 -0.99596900242E+01  0.11287634054E+03  0.11467350688E+03  0.00000000000E+00 0.  1.
         11    1    1    2    0    0  0.29291953222E+02  0.39560413014E+01 -0.14142972078E+01  0.29591705306E+02  0.00000000000E+00 0. -1.
</event>
<event>
 7    1  0.2334784E-009  0.1165310E+03  0.7561462E-02  0.1248932E+00
         -1   -1    0    0    0  501 -0.00000000000E+00  0.00000000000E+00  0.33342697899E+02  0.33342697899E+02  0.00000000000E+00 0.  1.
          1   -1    0    0  501    0  0.00000000000E+00 -0.00000000000E+00 -0.42003768433E+03  0.42003768433E+03  0.00000000000E+00 0. -1.
         25    2    1    2    0    0 -0.46100331852E+02 -0.15027811200E+02 -0.20418134000E+03  0.24431282562E+03  0.12509061296E+03 0.  0.
          5    1    3    3  502    0 -0.78533766160E+02  0.23757733571E+02 -0.10945807480E+03  0.13685950779E+03  0.41800000000E+01 0. -1.
         -5    1    3    3    0  502  0.32433434308E+02 -0.38785544770E+02 -0.94723265199E+02  0.10745331784E+03  0.41800000000E+01 0. -1.
        -11    1    1    2    0    0  0.24419788036E+02 -0.36703251150E+02 -0.10009573105E+03  0.10937371744E+03  0.00000000000E+00 0. -1.
         11    1    1    2    0    0  0.21680543816E+02  0.51731062350E+02 -0.82417915378E+02  0.99693839164E+02  0.00000000000E+00 0.  1.
</event>
<event>
 7    1  0.2334784E-009  0.1509312E+03  0.7561462E-02  0.1199333E+00
         -3   -1    0    0    0  501 -0.00000000000E+00  0.00000000000E+00  0.43763870738E+03  0.43763870738E+03  0.00000000000E+00 0.  1.
          3   -1    0    0  501    0  0.00000000000E+00 -0.00000000000E+00 -0.67946245338E+02  0.67946245338E+02  0.00000000000E+00 0. -1.
         25    2    1    2    0    0  0.45408680675E+02 -0.11704788855E+03  0.26346782403E+03  0.31752726486E+03  0.12508442403E+03 0.  0.
          5    1    3    3  502    0  0.47319183121E+01  0.26357582665E+02  0.29337706567E+02  0.39941039564E+02  0.41800000000E+01 0.  1.
         -5    1    3    3    0  502  0.40676762363E+02 -0.14340547122E+03  0.23413011746E+03  0.27758622529E+03  0.41800000000E+01 0.  1.
        -11    1    1    2    0    0 -0.12761756344E+02  0.27275203472E+02 -0.15062472889E+02  0.33670123833E+02  0.00000000000E+00 0. -1.
         11    1    1    2    0    0 -0.32646924331E+02  0.89772685079E+02  0.12128711090E+03  0.15438756403E+03  0.00000000000E+00 0.  1.
</event>
<event>
 7    1  0.2334784E-009  0.1420710E+03  0.7561462E-02  0.1210569E+00
         -1   -1    0    0    0  501 -0.00000000000E+00  0.00000000000E+00  0.13476625895E+03  0.13476625895E+03  0.00000000000E+00 0.  1.
          1   -1    0    0  501    0  0.00000000000E+00 -0.00000000000E+00 -0.18585721301E+03  0.18585721301E+03  0.00000000000E+00 0. -1.
         25    2    1    2    0    0 -0.65219397080E+02  0.66046784494E+02 -0.96183427956E+02  0.18306348018E+03  0.12508092766E+03 0.  0.
          5    1    3    3  502    0  0.30877169098E+02 -0.91303723532E+01 -0.29952160224E+02  0.44174286331E+02  0.41800000000E+01 0.  1.
         -5    1    3    3    0  502 -0.96096566178E+02  0.75177156848E+02 -0.66231267732E+02  0.13888919385E+03  0.41800000000E+01 0.  1.
        -11    1    1    2    0    0  0.86634616852E+02 -0.38771105000E+02  0.37541994424E+02  0.10206937232E+03  0.00000000000E+00 0. -1.
         11    1    1    2    0    0 -0.21415219771E+02 -0.27275679494E+02  0.75504794760E+01  0.35490619465E+02  0.00000000000E+00 0.  1.
</event>
<event>
 7    1  0.2334784E-009  0.1007479E+03  0.7561462E-02  0.1278731E+00
         -2   -1    0    0    0  501 -0.00000000000E+00  0.00000000000E+00  0.84754806160E+02  0.84754806160E+02  0.00000000000E+00 0. -1.
          2   -1    0    0  501    0  0.00000000000E+00 -0.00000000000E+00 -0.23355871298E+03  0.23355871298E+03  0.00000000000E+00 0.  1.
         25    2    1    2    0    0 -0.25834072652E+02  0.34249319136E+02 -0.17412378016E+03  0.21864742028E+03  0.12508872213E+03 0.  0.
          5    1    3    3  502    0 -0.61156094620E+02 -0.69834025722E+01 -0.14343571413E+03  0.15614132160E+03  0.41800000000E+01 0. -1.
         -5    1    3    3    0  502  0.35322021968E+02  0.41232721709E+02 -0.30688066029E+02  0.62506098678E+02  0.41800000000E+01 0. -1.
        -11    1    1    2    0    0  0.51726525963E+02 -0.17957914682E+02 -0.69573602239E+01  0.55195335393E+02  0.00000000000E+00 0.  1.
         11    1    1    2    0    0 -0.25892453310E+02 -0.16291404455E+02  0.32277233564E+02  0.44470763475E+02  0.00000000000E+00 0. -1.
</event>
<event>
 7    1  0.2334784E-009  0.1134314E+03  0.7561462E-02  0.1254344E+00
         -1   -1    0    0    0  501 -0.00000000000E+00  0.00000000000E+00  0.30522490317E+03  0.30522490317E+03  0.00000000000E+00 0.  1.
          1   -1    0    0  501    0  0.00000000000E+00 -0.00000000000E+00 -0.46900249361E+02  0.46900249361E+02  0.00000000000E+00 0. -1.
         25    2    1    2    0    0 -0.10506494806E+02  0.66584026197E+02  0.18563370555E+03  0.23379852014E+03  0.12513215577E+03 0.  0.
          5    1    3    3  502    0 -0.59276907956E+02  0.78594993138E+01  0.49804109645E+02  0.77932312194E+02  0.41800000000E+01 0. -1.
         -5    1    3    3    0  502  0.48770413150E+02  0.58724526883E+02  0.13582959590E+03  0.15586620795E+03  0.41800000000E+01 0. -1.
        -11    1    1    2    0    0 -0.92677797583E+01 -0.69821289521E+02  0.67661158408E+02  0.97667479589E+02  0.00000000000E+00 0.  1.
         11    1    1    2    0    0  0.19774274564E+02  0.32372633244E+01  0.50297898484E+01  0.20659152797E+02  0.00000000000E+00 0. -1.
</event>
<event>
 7    1  0.2334784E-009  0.1073082E+03  0.7561462E-02  0.1265637E+00
          1   -1    0    0  501    0  0.00000000000E+00  0.00000000000E+00  0.26524685572E+03  0.26524685572E+03  0.00000000000E+00 0. -1.
         -1   -1    0    0    0  501 -0.00000000000E+00 -0.00000000000E+00 -0.56186123966E+02  0.56186123966E+02  0.00000000000E+00 0.  1.
         25    2    1    2    0    0 -0.22667007885E+02 -0.47997171468E+02  0.12139003402E+03  0.18220358677E+03  0.12508031403E+03 0.  0.
          5    1    3    3  502    0 -0.57383321239E+02 -0.59188583763E+02  0.37563936804E+02  0.90689887819E+02  0.41800000000E+01 0. -1.
         -5    1    3    3    0  502  0.34716313354E+02  0.11191412294E+02  0.83826097217E+02  0.91513698956E+02  0.41800000000E+01 0. -1.
        -11    1    1    2    0    0  0.37834012776E+02  0.63342729116E+02  0.33715197679E+02  0.81119839799E+02  0.00000000000E+00 0.  1.
         11    1    1    2    0    0 -0.15167004891E+02 -0.15345557647E+02  0.53955500054E+02  0.58109553113E+02  0.00000000000E+00 0. -1.
</event>
<event>
 7    1  0.2334784E-009  0.9493753E+02  0.7561462E-02  0.1291317E+00
         -2   -1    0    0    0  501 -0.00000000000E+00  0.00000000000E+00  0.16953260986E+03  0.16953260986E+03  0.00000000000E+00 0.  1.
          2   -1    0    0  501    0  0.00000000000E+00 -0.00000000000E+00 -0.12702473358E+03  0.12702473358E+03  0.00000000000E+00 0. -1.
         25    2    1    2    0    0  0.83273812073E+02  0.31932657293E+02 -0.22045430980E+02  0.15520448646E+03  0.12509280240E+03 0.  0.
          5    1    3    3  502    0  0.49923705440E+02  0.79513823992E+01 -0.73454627702E+02  0.89267326485E+02  0.41800000000E+01 0. -1.
         -5    1    3    3    0  502  0.33350106634E+02  0.23981274894E+02  0.51409196722E+02  0.65937159975E+02  0.41800000000E+01 0. -1.
        -11    1    1    2    0    0 -0.78243201445E+02 -0.14319372442E+02  0.83275558778E+02  0.11516015669E+03  0.00000000000E+00 0.  1.
         11    1    1    2    0    0 -0.50306106286E+01 -0.17613284851E+02 -0.18722251515E+02  0.26192700287E+02  0.00000000000E+00 0. -1.
</event>
<event>
 7    1  0.2334784E-009  0.1040942E+03  0.7561462E-02  0.1271915E+00
          1   -1    0    0  501    0  0.00000000000E+00  0.00000000000E+00  0.71151443252E+03  0.71151443252E+03  0.00000000000E+00 0. -1.
         -1   -1    0    0    0  501 -0.00000000000E+00 -0.00000000000E+00 -0.20543300968E+02  0.20543300968E+02  0.00000000000E+00 0.  1.
         25    2    1    2    0    0 -0.28432344314E+02 -0.20368991775E+02  0.49769835419E+03  0.51436810475E+03  0.12509037291E+03 0.  0.
          5    1    3    3  502    0 -0.12460425417E+01 -0.60510853769E+02  0.12994811653E+03  0.14341234757E+03  0.41800000000E+01 0.  1.
         -5    1    3    3    0  502 -0.27186301773E+02  0.40141861994E+02  0.36775023766E+03  0.37095575718E+03  0.41800000000E+01 0.  1.
        -11    1    1    2    0    0  0.60983595965E+02  0.10216638476E+01  0.13574271634E+03  0.14881575123E+03  0.00000000000E+00 0. -1.
         11    1    1    2    0    0 -0.32551251650E+02  0.19347327927E+02  0.57530061020E+02  0.68873877508E+02  0.00000000000E+00 0.  1.
</event>
<event>
 7    1  0.2334784E-009  0.3999227E+03  0.7561462E-02  0.1043806E+00
         -1   -1    0    0    0  501 -0.00000000000E+00  0.00000000000E+00  0.16645337050E+03  0.16645337050E+03  0.00000000000E+00 0.  1.
          1   -1    0    0  501    0  0.00000000000E+00 -0.00000000000E+00 -0.13026834386E+04  0.13026834386E+04  0.00000000000E+00 0. -1.
         25    2    1    2    0    0 -0.35043462238E+03  0.16667751782E+03 -0.94126933186E+03  0.10257786606E+04  0.12509230978E+03 0.  0.
          5    1    3    3  502    0 -0.29735856880E+03  0.18605414562E+03 -0.79705869126E+03  0.87083769628E+03  0.41800000000E+01 0.  1.
         -5    1    3    3    0  502 -0.53076053583E+02 -0.19376627802E+02 -0.14421064060E+03  0.15494096434E+03  0.41800000000E+01 0.  1.
        -11    1    1    2    0    0  0.12263489480E+03 -0.89708866173E+02 -0.11287221666E+03  0.18928057319E+03  0.00000000000E+00 0. -1.
         11    1    1    2    0    0  0.22779972758E+03 -0.76968651646E+02 -0.82088519575E+02  0.25407757530E+03  0.00000000000E+00 0.  1.
</event>
<event>
 7    1  0.2334784E-009  0.1367983E+03  0.7561462E-02  0.1217703E+00
          2   -1    0    0  501    0  0.00000000000E+00  0.00000000000E+00  0.95354403288E+03  0.95354403288E+03  0.00000000000E+00 0. -1.
         -2   -1    0    0    0  501 -0.00000000000E+00 -0.00000000000E+00 -0.21452724845E+02  0.21452724845E+02  0.00000000000E+00 0.  1.
         25    2    1    2    0    0  0.90483538145E+02 -0.44695244389E+01  0.57784543099E+03  0.59813076300E+03  0.12509124751E+03 0.  0.
          5    1    3    3  502    0 -0.10127169438E+02  0.41425905683E+02  0.19239585137E+03  0.19710987101E+03  0.41800000000E+01 0. -1.
         -5    1    3    3    0  502  0.10061070758E+03 -0.45895430122E+02  0.38544957962E+03  0.40102089200E+03  0.41800000000E+01 0. -1.
        -11    1    1    2    0    0 -0.28949419140E+02  0.39733088289E+02  0.21559536697E+03  0.22112925956E+03  0.00000000000E+00 0. -1.
         11    1    1    2    0    0 -0.61534119005E+02 -0.35263563850E+02  0.13865051007E+03  0.15573673516E+03  0.00000000000E+00 0.  1.
</event>
<event>
 7    1  0.2334784E-009  0.1369945E+03  0.7561462E-02  0.1217431E+00
         -1   -1    0    0    0  501 -0.00000000000E+00  0.00000000000E+00  0.59502581384E+02  0.59502581384E+02  0.00000000000E+00 0.  1.
          1   -1    0    0  501    0  0.00000000000E+00 -0.00000000000E+00 -0.51959708736E+03  0.51959708736E+03  0.00000000000E+00 0. -1.
         25    2    1    2    0    0  0.53355934119E+01 -0.12441350747E+03 -0.34821755627E+03  0.39039805534E+03  0.12509190910E+03 0.  0.
          5    1    3    3  502    0  0.23477706892E+02 -0.67389940080E+00 -0.17550805700E+03  0.17712201256E+03  0.41800000000E+01 0.  1.
         -5    1    3    3    0  502 -0.18142113480E+02 -0.12373960807E+03 -0.17270949926E+03  0.21327604278E+03  0.41800000000E+01 0.  1.
        -11    1    1    2    0    0 -0.68509808258E+00  0.10620334859E+03 -0.12629384018E+03  0.16501440749E+03  0.00000000000E+00 0. -1.
         11    1    1    2    0    0 -0.46504953293E+01  0.18210158879E+02  0.14416890472E+02  0.23687205916E+02  0.00000000000E+00 0.  1.
</event>
<event>
 7    1  0.2334784E-009  0.1004529E+03  0.7561462E-02  0.1279346E+00
          1   -1    0    0  501    0  0.00000000000E+00  0.00000000000E+00  0.55919456202E+02  0.55919456202E+02  0.00000000000E+00 0. -1.
         -1   -1    0    0    0  501 -0.00000000000E+00 -0.00000000000E+00 -0.33263839582E+03  0.33263839582E+03  0.00000000000E+00 0.  1.
         25    2    1    2    0    0  0.50647734658E+02  0.59300194168E+02 -0.16668886997E+03  0.22251730269E+03  0.12508822714E+03 0.  0.
          5    1    3    3  502    0  0.48259009504E+02  0.60752255820E+02 -0.26287713922E+02  0.82026123210E+02  0.41800000000E+01 0. -1.
         -5    1    3    3    0  502  0.23887251542E+01 -0.14520616520E+01 -0.14040115605E+03  0.14049117948E+03  0.41800000000E+01 0. -1.
        -11    1    1    2    0    0  0.22555925695E+02 -0.33848661182E+02 -0.64202993833E+02  0.76003460874E+02  0.00000000000E+00 0.  1.
         11    1    1    2    0    0 -0.73203660354E+02 -0.25451532986E+02 -0.45827075809E+02  0.90037088457E+02  0.00000000000E+00 0. -1.
</event>
<event>
 7    1  0.2334784E-009  0.1061592E+03  0.7561462E-02  0.1267852E+00
         -1   -1    0    0    0  501 -0.00000000000E+00  0.00000000000E+00  0.50283774344E+02  0.50283774344E+02  0.00000000000E+00 0.  1.
          1   -1    0    0  501    0  0.00000000000E+00 -0.00000000000E+00 -0.42137037525E+03  0.42137037525E+03  0.00000000000E+00 0. -1.
         25    2    1    2    0    0 -0.49478118976E+02 -0.77553167003E+02 -0.24683886618E+03  0.29161667610E+03  0.12509309316E+03 0.  0.
          5    1    3    3  502    0 -0.55909594811E+02 -0.36391146730E+02 -0.24007147356E+03  0.24920269495E+03  0.41800000000E+01 0.  1.
         -5    1    3    3    0  502  0.64314758347E+01 -0.41162020273E+02 -0.67673926136E+01  0.42413981152E+02  0.41800000000E+01 0.  1.
        -11    1    1    2    0    0  0.49949462823E+02  0.34859473257E+02 -0.12307746826E+03  0.13732514302E+03  0.00000000000E+00 0. -1.
         11    1    1    2    0    0 -0.47134384654E+00  0.42693693747E+02 -0.11702664719E+01  0.42712330472E+02  0.00000000000E+00 0.  1.
</event>
<event>
 7    1  0.2334784E-009  0.1420876E+03  0.7561462E-02  0.1210547E+00
          1   -1    0    0  501    0  0.00000000000E+00  0.00000000000E+00  0.69527716489E+03  0.69527716489E+03  0.00000000000E+00 0. -1.
         -1   -1    0    0    0  501 -0.00000000000E+00 -0.00000000000E+00 -0.32272673904E+02  0.32272673904E+02  0.00000000000E+00 0.  1.
         25    2    1    2    0    0  0.10161150554E+03 -0.21801283989E+02  0.36062006610E+03  0.39559621411E+03  0.12509731613E+03 0.  0.
          5    1    3    3  502    0  0.10293645253E+03 -0.63216289829E+02  0.26155643808E+03  0.28813443956E+03  0.41800000000E+01 0. -1.
         -5    1    3    3    0  502 -0.13249469921E+01  0.41415005839E+02  0.99063628019E+02  0.10746177455E+03  0.41800000000E+01 0. -1.
        -11    1    1    2    0    0 -0.34595232092E+02  0.39337258624E+02  0.21027659515E+03  0.21670370663E+03  0.00000000000E+00 0. -1.
         11    1    1    2    0    0 -0.67016273444E+02 -0.17535974635E+02  0.92107829745E+02  0.11524991806E+03  0.00000000000E+00 0.  1.
</event>
<event>
 7    1  0.2334784E-009  0.1322782E+03  0.7561462E-02  0.1224114E+00
          2   -1    0    0  501    0  0.00000000000E+00  0.00000000000E+00  0.34344852167E+03  0.34344852167E+03  0.00000000000E+00 0. -1.
         -2   -1    0    0    0  501 -0.00000000000E+00 -0.00000000000E+00 -0.99887357585E+02  0.99887357585E+02  0.00000000000E+00 0.  1.
         25    2    1    2    0    0  0.91848079051E+02 -0.37205456865E+02 -0.50822748749E+01  0.15967414107E+03  0.12509870569E+03 0.  0.
          5    1    3    3  502    0  0.80329115996E+02 -0.78867260680E+02 -0.18634677959E+02  0.11418202707E+03  0.41800000000E+01 0.  1.
         -5    1    3    3    0  502  0.11518963054E+02  0.41661803815E+02  0.13552403084E+02  0.45492114001E+02  0.41800000000E+01 0.  1.
        -11    1    1    2    0    0 -0.72268189349E+02  0.71674843128E+01  0.67982764291E+02  0.99477234902E+02  0.00000000000E+00 0.  1.
         11    1    1    2    0    0 -0.19579889701E+02  0.30037972552E+02  0.18066067467E+03  0.18418450328E+03  0.00000000000E+00 0. -1.
</event>
<event>
 7    1  0.2334784E-009  0.1827235E+03  0.7561462E-02  0.1165193E+00
         -2   -1    0    0    0  501 -0.00000000000E+00  0.00000000000E+00  0.28257395807E+03  0.28257395807E+03  0.00000000000E+00 0.  1.
          2   -1    0    0  501    0  0.00000000000E+00 -0.00000000000E+00 -0.14325199169E+03  0.14325199169E+03  0.00000000000E+00 0. -1.
         25    2    1    2    0    0 -0.49429531399E+02 -0.16141425260E+03  0.84974326808E+02  0.22663866814E+03  0.12508641080E+03 0.  0.
          5    1    3    3  502    0  0.24634159951E+02 -0.83292976711E+02 -0.38013091928E+01  0.87043001772E+02  0.41800000000E+01 0.  1.
         -5    1    3    3    0  502 -0.74063691350E+02 -0.78121275885E+02  0.88775636001E+02  0.13959566637E+03  0.41800000000E+01 0.  1.
        -11    1    1    2    0    0  0.46990377330E+02  0.11434171644E+03  0.78282831750E+02  0.14632267571E+03  0.00000000000E+00 0.  1.
         11    1    1    2    0    0  0.24391540694E+01  0.47072536156E+02 -0.23935192181E+02  0.52864605905E+02  0.00000000000E+00 0. -1.
</event>
<event>
 7    1  0.2334784E-009  0.1309512E+03  0.7561462E-02  0.1226051E+00
         -1   -1    0    0    0  501 -0.00000000000E+00  0.00000000000E+00  0.47968378120E+02  0.47968378120E+02  0.00000000000E+00 0. -1.
          1   -1    0    0  501    0  0.00000000000E+00 -0.00000000000E+00 -0.47434251754E+03  0.47434251754E+03  0.00000000000E+00 0.  1.
         25    2    1    2    0    0 -0.67876580152E+02  0.78570341699E+02 -0.19973569327E+03  0.25752249832E+03  0.12507182435E+03 0.  0.
          5    1    3    3  502    0 -0.33920995316E+02  0.10651184385E+03 -0.17260837348E+03  0.20568551189E+03  0.41800000000E+01 0. -1.
         -5    1    3    3    0  502 -0.33955584836E+02 -0.27941502149E+02 -0.27127319790E+02  0.51836986437E+02  0.41800000000E+01 0. -1.
        -11    1    1    2    0    0  0.14122094452E+02 -0.31093688086E+02 -0.85418701148E+01  0.35202479111E+02  0.00000000000E+00 0. -1.
         11    1    1    2    0    0  0.53754485700E+02 -0.47476653613E+02 -0.21809657603E+03  0.22958591822E+03  0.00000000000E+00 0.  1.
</event>
<event>
 7    1  0.2334784E-009  0.1495916E+03  0.7561462E-02  0.1200976E+00
         -2   -1    0    0    0  501 -0.00000000000E+00  0.00000000000E+00  0.12101633648E+03  0.12101633648E+03  0.00000000000E+00 0.  1.
          2   -1    0    0  501    0  0.00000000000E+00 -0.00000000000E+00 -0.25518874108E+03  0.25518874108E+03  0.00000000000E+00 0. -1.
         25    2    1    2    0    0  0.12259795487E+03  0.60756155891E+01 -0.13791316627E+03  0.22301215578E+03  0.12508880265E+03 0.  0.
          5    1    3    3  502    0 -0.23798288908E+02 -0.13204621314E+02 -0.21830653968E+02  0.35139300387E+02  0.41800000000E+01 0.  1.
         -5    1    3    3    0  502  0.14639624378E+03  0.19280236903E+02 -0.11608251231E+03  0.18787285539E+03  0.41800000000E+01 0.  1.
        -11    1    1    2    0    0 -0.96347755470E+02  0.22970877106E+01  0.42752486142E+02  0.10543216619E+03  0.00000000000E+00 0.  1.
         11    1    1    2    0    0 -0.26250199403E+02 -0.83727032998E+01 -0.39011724462E+02  0.47760755592E+02  0.00000000000E+00 0. -1.
</event>
<event>
 7    1  0.2334784E-009  0.8055838E+02  0.7561462E-02  0.1327474E+00
         -1   -1    0    0    0  501 -0.00000000000E+00  0.00000000000E+00  0.20419518355E+02  0.20419518355E+02  0.00000000000E+00 0.  1.
          1   -1    0    0  501    0  0.00000000000E+00 -0.00000000000E+00 -0.66470048603E+03  0.66470048603E+03  0.00000000000E+00 0. -1.
         25    2    1    2    0    0 -0.24821417770E+02 -0.19667914369E+01 -0.44854946422E+03  0.46632951511E+03  0.12508646513E+03 0.  0.
          5    1    3    3  502    0 -0.14253369002E+02  0.35652202074E+02 -0.38962152857E+02  0.54861277746E+02  0.41800000000E+01 0. -1.
         -5    1    3    3    0  502 -0.10568048768E+02 -0.37618993511E+02 -0.40958731136E+03  0.41146823736E+03  0.41800000000E+01 0. -1.
        -11    1    1    2    0    0 -0.24857201565E+01  0.37946128935E+02 -0.34478370002E+02  0.51330746184E+02  0.00000000000E+00 0.  1.
         11    1    1    2    0    0  0.27307137926E+02 -0.35979337498E+02 -0.16125313345E+03  0.16745974309E+03  0.00000000000E+00 0. -1.
</event>
<event>
 7    1  0.2334784E-009  0.1056025E+03  0.7561462E-02  0.1268937E+00
          2   -1    0    0  501    0  0.00000000000E+00  0.00000000000E+00  0.57728662084E+02  0.57728662084E+02  0.00000000000E+00 0. -1.
         -2   -1    0    0    0  501 -0.00000000000E+00 -0.00000000000E+00 -0.25080122463E+03  0.25080122463E+03  0.00000000000E+00 0.  1.
         25    2    1    2    0    0  0.38327319754E+02  0.36502824302E+02 -0.12248039574E+03  0.18289730304E+03  0.12509411056E+03 0.  0.
          5    1    3    3  502    0  0.53078479928E+02  0.70409869181E+02 -0.50072743190E+02  0.10148707662E+03  0.41800000000E+01 0. -1.
         -5    1    3    3    0  502 -0.14751160173E+02 -0.33907044879E+02 -0.72407652550E+02  0.81410226425E+02  0.41800000000E+01 0. -1.
        -11    1    1    2    0    0 -0.51475411595E+02 -0.46368779030E+02 -0.19516523335E+02  0.71976915401E+02  0.00000000000E+00 0. -1.
         11    1    1    2    0    0  0.13148091840E+02  0.98659547283E+01 -0.51075643475E+02  0.53655668276E+02  0.00000000000E+00 0.  1.
</event>
<event>
 7    1  0.2334784E-009  0.8685456E+02  0.7561462E-02  0.1310653E+00
         -1   -1    0    0    0  501 -0.00000000000E+00  0.00000000000E+00  0.28831995202E+03  0.28831995202E+03  0.00000000000E+00 0.  1.
          1   -1    0    0  501    0  0.00000000000E+00 -0.00000000000E+00 -0.49132874575E+02  0.49132874575E+02  0.00000000000E+00 0. -1.
         25    2    1    2    0    0 -0.36735327326E+02 -0.25547044172E+02  0.11278254093E+03  0.17426951552E+03  0.12509127372E+03 0.  0.
          5    1    3    3  502    0 -0.43187304384E+02  0.63939139633E+01  0.12998543556E+03  0.13718495272E+03  0.41800000000E+01 0. -1.
         -5    1    3    3    0  502  0.64519770584E+01 -0.31940958136E+02 -0.17202894625E+02  0.37084562800E+02  0.41800000000E+01 0. -1.
        -11    1    1    2    0    0  0.30247108535E+02 -0.29096965465E+02  0.28047916439E+02  0.50479764169E+02  0.00000000000E+00 0. -1.
         11    1    1    2    0    0  0.64882187908E+01  0.54644009638E+02  0.98356620072E+02  0.11270354690E+03  0.00000000000E+00 0.  1.
</event>
<event>
 7    1  0.2334784E-009  0.1004719E+03  0.7561462E-02  0.1279307E+00
          2   -1    0    0  501    0  0.00000000000E+00  0.00000000000E+00  0.15593327848E+03  0.15593327848E+03  0.00000000000E+00 0. -1.
         -2   -1    0    0    0  501 -0.00000000000E+00 -0.00000000000E+00 -0.90490265308E+02  0.90490265308E+02  0.00000000000E+00 0.  1.
         25    2    1    2    0    0 -0.18252449337E+02  0.40659440960E+02  0.15983098196E+02  0.13373590055E+03  0.12507393662E+03 0.  0.
          5    1    3    3  502    0 -0.14392081365E+02  0.80203090902E+02 -0.15276132133E+02  0.83009038118E+02  0.41800000000E+01 0.  1.
         -5    1    3    3    0  502 -0.38603679723E+01 -0.39543649942E+02  0.31259230329E+02  0.50726862433E+02  0.41800000000E+01 0.  1.
        -11    1    1    2    0    0  0.33550928715E+02  0.24674951117E+01  0.57120312373E+02  0.66290900095E+02  0.00000000000E+00 0. -1.
         11    1    1    2    0    0 -0.15298479378E+02 -0.43126936072E+02 -0.76603973943E+01  0.46396743145E+02  0.00000000000E+00 0.  1.
</event>
<event>
 7    1  0.2334784E-009  0.1872404E+03  0.7561462E-02  0.1160974E+00
          1   -1    0    0  501    0  0.00000000000E+00  0.00000000000E+00  0.11920186913E+04  0.11920186913E+04  0.00000000000E+00 0. -1.
         -1   -1    0    0    0  501 -0.00000000000E+00 -0.00000000000E+00 -0.55803350644E+02  0.55803350644E+02  0.00000000000E+00 0.  1.
         25    2    1    2    0    0  0.11960812606E+03 -0.12337242089E+03  0.20070043161E+03  0.29233623010E+03  0.12511175054E+03 0.  0.
          5    1    3    3  502    0  0.23221995281E+02 -0.63135995650E+02  0.15634737578E+03  0.17025683342E+03  0.41800000000E+01 0. -1.
         -5    1    3    3    0  502  0.96386130782E+02 -0.60236425237E+02  0.44353055827E+02  0.12207939668E+03  0.41800000000E+01 0. -1.
        -11    1    1    2    0    0 -0.14960659020E+01  0.58632059297E+02  0.32997380792E+03  0.33514574516E+03  0.00000000000E+00 0.  1.
         11    1    1    2    0    0 -0.11811206016E+03  0.64740361590E+02  0.60554110117E+03  0.62034006672E+03  0.00000000000E+00 0. -1.
</event>
<event>
 7    1  0.2334784E-009  0.1346551E+03  0.7561462E-02  0.1220707E+00
         -2   -1    0    0    0  501 -0.00000000000E+00  0.00000000000E+00  0.20187148800E+03  0.20187148800E+03  0.00000000000E+00 0.  1.
          2   -1    0    0  501    0  0.00000000000E+00 -0.00000000000E+00 -0.16627669281E+03  0.16627669281E+03  0.00000000000E+00 0. -1.
         25    2    1    2    0    0  0.40923922580E+02 -0.92735105527E+02 -0.86500505222E+02  0.18276891088E+03  0.12509024800E+03 0.  0.
          5    1    3    3  502    0 -0.44406416897E+02 -0.23138019650E+02 -0.34292886749E+02  0.60833973210E+02  0.41800000000E+01 0. -1.
         -5    1    3    3    0  502  0.85330339477E+02 -0.69597085877E+02 -0.52207618474E+02  0.12193493767E+03  0.41800000000E+01 0. -1.
        -11    1    1    2    0    0 -0.28332797950E+02  0.19107565453E+02  0.10265613800E+03  0.10819486664E+03  0.00000000000E+00 0.  1.
         11    1    1    2    0    0 -0.12591124630E+02  0.73627540074E+02  0.19439162409E+02  0.77184403294E+02  0.00000000000E+00 0. -1.
</event>
<event>
 7    1  0.2334784E-009  0.1255388E+03  0.7561462E-02  0.1234230E+00
         -2   -1    0    0    0  501 -0.00000000000E+00  0.00000000000E+00  0.33334807276E+02  0.33334807276E+02  0.00000000000E+00 0.  1.
          2   -1    0    0  501    0  0.00000000000E+00 -0.00000000000E+00 -0.63349556849E+03  0.63349556849E+03  0.00000000000E+00 0. -1.
         25    2    1    2    0    0 -0.17946312190E+02 -0.74001740421E+02 -0.43119775041E+03  0.45538616335E+03  0.12508689025E+03 0.  0.
          5    1    3    3  502    0  0.25060514648E+02 -0.86218976533E+02 -0.19184459231E+03  0.21185740796E+03  0.41800000000E+01 0. -1.
         -5    1    3    3    0  502 -0.43006826838E+02  0.12217236112E+02 -0.23935315810E+03  0.24352875540E+03  0.41800000000E+01 0. -1.
        -11    1    1    2    0    0  0.53529721529E+02  0.37819893324E+02 -0.13589143516E+03  0.15087165926E+03  0.00000000000E+00 0. -1.
         11    1    1    2    0    0 -0.35583409339E+02  0.36181847097E+02 -0.33071575646E+02  0.60572553152E+02  0.00000000000E+00 0.  1.
</event>
<event>
 7    1  0.2334784E-009  0.1214267E+03  0.7561462E-02  0.1240762E+00
          1   -1    0    0  501    0  0.00000000000E+00  0.00000000000E+00  0.74112533980E+02  0.74112533980E+02  0.00000000000E+00 0. -1.
         -1   -1    0    0    0  501 -0.00000000000E+00 -0.00000000000E+00 -0.28177455745E+03  0.28177455745E+03  0.00000000000E+00 0.  1.
         25    2    1    2    0    0  0.49276348838E+01 -0.92936502433E+02 -0.89912278536E+02  0.17998456094E+03  0.12509496104E+03 0.  0.
          5    1    3    3  502    0  0.31444183243E+02 -0.83062176994E+02 -0.11260303953E+03  0.14347466264E+03  0.41800000000E+01 0. -1.
         -5    1    3    3    0  502 -0.26516548359E+02 -0.98743254391E+01  0.22690760998E+02  0.36509898307E+02  0.41800000000E+01 0. -1.
        -11    1    1    2    0    0  0.16378827967E+02  0.10117638728E+03 -0.73564590182E+02  0.12616131054E+03  0.00000000000E+00 0.  1.
         11    1    1    2    0    0 -0.21306462850E+02 -0.82398848440E+01 -0.44185154754E+02  0.49741219950E+02  0.00000000000E+00 0. -1.
</event>
<event>
 7    1  0.2334784E-009  0.1399706E+03  0.7561462E-02  0.1213369E+00
          4   -1    0    0  501    0  0.00000000000E+00  0.00000000000E+00  0.12175077246E+03  0.12175077246E+03  0.00000000000E+00 0. -1.
         -4   -1    0    0    0  501 -0.00000000000E+00 -0.00000000000E+00 -0.25497061278E+03  0.25497061278E+03  0.00000000000E+00 0.  1.
         25    2    1    2    0    0 -0.69261462874E+02 -0.93096095503E+02 -0.15067919418E+03  0.22762793572E+03  0.12508486849E+03 0.  0.
          5    1    3    3  502    0 -0.52196146499E+02  0.13843539433E+02 -0.19715738883E+02  0.57639084423E+02  0.41800000000E+01 0. -1.
         -5    1    3    3    0  502 -0.17065316374E+02 -0.10693963494E+03 -0.13096345529E+03  0.16998885130E+03  0.41800000000E+01 0. -1.
        -11    1    1    2    0    0  0.19377021476E+02  0.40605418871E+02  0.52085446795E+02  0.68827049703E+02  0.00000000000E+00 0. -1.
         11    1    1    2    0    0  0.49884441398E+02  0.52490676633E+02 -0.34626092945E+02  0.80266399817E+02  0.00000000000E+00 0.  1.
</event>
<event>
 7    1  0.2334784E-009  0.1133085E+03  0.7561462E-02  0.1254563E+00
          1   -1    0    0  501    0  0.00000000000E+00  0.00000000000E+00  0.56695514876E+03  0.56695514876E+03  0.00000000000E+00 0. -1.
         -1   -1    0    0    0  501 -0.00000000000E+00 -0.00000000000E+00 -0.32481291473E+02  0.32481291473E+02  0.00000000000E+00 0.  1.
         25    2    1    2    0    0 -0.10247968703E+02  0.70648171379E+02  0.21127552239E+03  0.25569720441E+03  0.12509008354E+03 0.  0.
          5    1    3    3  502    0  0.42627795419E+02  0.17899439429E+02  0.15579421308E+03  0.16256330491E+03  0.41800000000E+01 0. -1.
         -5    1    3    3    0  502 -0.52875764122E+02  0.52748731950E+02  0.55481309316E+02  0.93133899506E+02  0.41800000000E+01 0. -1.
        -11    1    1    2    0    0  0.40810291549E+02 -0.18194408699E+02  0.67616004864E+02  0.81045916110E+02  0.00000000000E+00 0. -1.
         11    1    1    2    0    0 -0.30562322847E+02 -0.52453762680E+02  0.25558233003E+03  0.26269331971E+03  0.00000000000E+00 0.  1.
</event>
<event>
 7    1  0.2334784E-009  0.1285496E+03  0.7561462E-02  0.1229624E+00
         -1   -1    0    0    0  501 -0.00000000000E+00  0.00000000000E+00  0.30437735716E+02  0.30437735716E+02  0.00000000000E+00 0.  1.
          1   -1    0    0  501    0  0.00000000000E+00 -0.00000000000E+00 -0.90294605431E+03  0.90294605431E+03  0.00000000000E+00 0. -1.
         25    2    1    2    0    0 -0.53775431066E+02 -0.11046292027E+03 -0.46706507122E+03  0.49889011776E+03  0.12509082745E+03 0.  0.
          5    1    3    3  502    0 -0.69275832390E+01 -0.47946318550E+02 -0.35280163614E+02  0.60074979956E+02  0.41800000000E+01 0. -1.
         -5    1    3    3    0  502 -0.46847847827E+02 -0.62516601717E+02 -0.43178490760E+03  0.43881513781E+03  0.41800000000E+01 0. -1.
        -11    1    1    2    0    0  0.57501576911E+02  0.74618536504E+02 -0.37697783191E+03  0.38856999767E+03  0.00000000000E+00 0. -1.
         11    1    1    2    0    0 -0.37261458444E+01  0.35844383764E+02 -0.28465415465E+02  0.45923674590E+02  0.00000000000E+00 0.  1.
</event>
<event>
 7    1  0.2334784E-009  0.1579358E+03  0.7561462E-02  0.1191047E+00
         -1   -1    0    0    0  501 -0.00000000000E+00  0.00000000000E+00  0.48220578167E+03  0.48220578167E+03  0.00000000000E+00 0.  1.
          1   -1    0    0  501    0  0.00000000000E+00 -0.00000000000E+00 -0.68063211095E+02  0.68063211095E+02  0.00000000000E+00 0. -1.
         25    2    1    2    0    0 -0.10619751947E+03  0.65532824871E+02  0.32925391596E+03  0.37366877412E+03  0.12509095613E+03 0.  0.
          5    1    3    3  502    0  0.16120160820E+02  0.46157646101E+02  0.61861725832E+02  0.78960328023E+02  0.41800000000E+01 0.  1.
         -5    1    3    3    0  502 -0.12231768029E+03  0.19375178770E+02  0.26739219012E+03  0.29470844610E+03  0.41800000000E+01 0.  1.
        -11    1    1    2    0    0  0.33543521102E+02  0.12934061705E+02 -0.57629517657E+01  0.36409742833E+02  0.00000000000E+00 0. -1.
         11    1    1    2    0    0  0.72653998368E+02 -0.78466886576E+02  0.90651606388E+02  0.14019047581E+03  0.00000000000E+00 0.  1.
</event>
<event>
 7    1  0.2334784E-009  0.9469187E+02  0.7561462E-02  0.1291872E+00
          1   -1    0    0  501    0  0.00000000000E+00  0.00000000000E+00  0.34549531530E+03  0.34549531530E+03  0.00000000000E+00 0. -1.
         -1   -1    0    0    0  501 -0.00000000000E+00 -0.00000000000E+00 -0.30698871200E+02  0.30698871200E+02  0.00000000000E+00 0.  1.
         25    2    1    2    0    0  0.13130970686E+02  0.25893531533E+01  0.19888449706E+03  0.23533191544E+03  0.12508772968E+03 0.  0.
          5    1    3    3  502    0  0.54959270396E+02 -0.38309709993E+02  0.10367079459E+03  0.12350409440E+03  0.41800000000E+01 0.  1.
         -5    1    3    3    0  502 -0.41828299710E+02  0.40899063146E+02  0.95213702465E+02  0.11182782105E+03  0.41800000000E+01 0.  1.
        -11    1    1    2    0    0 -0.35112624621E+02 -0.15207086636E+02  0.10757990228E+03  0.11418225460E+03  0.00000000000E+00 0. -1.
         11    1    1    2    0    0  0.21981653934E+02  0.12617733483E+02  0.83320447644E+01  0.26680016452E+02  0.00000000000E+00 0.  1.
</event>
<event>
 7    1  0.2334784E-009  0.1733926E+03  0.7561462E-02  0.1174355E+00
         -2   -1    0    0    0  501 -0.00000000000E+00  0.00000000000E+00  0.13929493101E+03  0.13929493101E+03  0.00000000000E+00 0.  1.
          2   -1    0    0  501    0  0.00000000000E+00 -0.00000000000E+00 -0.26145583117E+03  0.26145583117E+03  0.00000000000E+00 0. -1.
         25    2    1    2    0    0 -0.11701684683E+03 -0.10471291089E+03 -0.74877744982E+02  0.21426664707E+03  0.12508310519E+03 0.  0.
          5    1    3    3  502    0  0.90543353508E+01 -0.51366097097E+02 -0.54931788422E+02  0.75864554957E+02  0.41800000000E+01 0. -1.
         -5    1    3    3    0  502 -0.12607118218E+03 -0.53346813796E+02 -0.19945956560E+02  0.13840209211E+03  0.41800000000E+01 0. -1.
        -11    1    1    2    0    0  0.69297879700E+02  0.69948622623E+02  0.16204014360E+02  0.99787654643E+02  0.00000000000E+00 0.  1.
         11    1    1    2    0    0  0.47718967128E+02  0.34764288270E+02 -0.63487169538E+02  0.86696460473E+02  0.00000000000E+00 0. -1.
</event>
<event>
 7    1  0.2334784E-009  0.1060037E+03  0.7561462E-02  0.1268155E+00
          2   -1    0    0  501    0  0.00000000000E+00  0.00000000000E+00  0.41697974937E+03  0.41697974937E+03  0.00000000000E+00 0.  1.
         -2   -1    0    0    0  501 -0.00000000000E+00 -0.00000000000E+00 -0.36517305835E+02  0.36517305835E+02  0.00000000000E+00 0. -1.
         25    2    1    2    0    0  0.75061882862E+01  0.43905542762E+02  0.14899427357E+03  0.19957765909E+03  0.12509160205E+03 0.  0.
          5    1    3    3  502    0 -0.48003489501E+02 -0.15807789521E+02  0.65073354130E+02  0.82499909282E+02  0.41800000000E+01 0. -1.
         -5    1    3    3    0  502  0.55509677787E+02  0.59713332283E+02  0.83920919439E+02  0.11707774981E+03  0.41800000000E+01 0. -1.
        -11    1    1    2    0    0 -0.36595150074E+02 -0.30459760969E+02  0.21004031780E+03  0.21536930410E+03  0.00000000000E+00 0.  1.
         11    1    1    2    0    0  0.29088961788E+02 -0.13445781793E+02  0.21427852164E+02  0.38550092014E+02  0.00000000000E+00 0. -1.
</event>
<event>
 7    1  0.2334784E-009  0.1700959E+03  0.7561462E-02  0.1177748E+00
         -2   -1    0    0    0  501 -0.00000000000E+00  0.00000000000E+00  0.46607310356E+02  0.46607310356E+02  0.00000000000E+00 0.  1.
          2   -1    0    0  501    0  0.00000000000E+00 -0.00000000000E+00 -0.10434990525E+04  0.10434990525E+04  0.00000000000E+00 0. -1.
         25    2    1    2    0    0  0.10240333463E+03  0.53857701023E+02 -0.80231675819E+03  0.82021119274E+03  0.12508846998E+03 0.  0.
          5    1    3    3  502    0  0.12353447320E+03  0.45201405577E+02 -0.50089931689E+03  0.51790108244E+03  0.41800000000E+01 0.  1.
         -5    1    3    3    0  502 -0.21131138571E+02  0.86562954462E+01 -0.30141744131E+03  0.30231011030E+03  0.41800000000E+01 0.  1.
        -11    1    1    2    0    0 -0.83153915779E+02 -0.10312380995E+03 -0.12200815038E+03  0.18009742543E+03  0.00000000000E+00 0.  1.
         11    1    1    2    0    0 -0.19249418851E+02  0.49266108932E+02 -0.72566833595E+02  0.89797744701E+02  0.00000000000E+00 0. -1.
</event>
<event>
 7    1  0.2334784E-009  0.1096160E+03  0.7561462E-02  0.1261283E+00
          1   -1    0    0  501    0  0.00000000000E+00  0.00000000000E+00  0.27338846994E+03  0.27338846994E+03  0.00000000000E+00 0. -1.
         -1   -1    0    0    0  501 -0.00000000000E+00 -0.00000000000E+00 -0.62023673393E+02  0.62023673393E+02  0.00000000000E+00 0.  1.
         25    2    1    2    0    0 -0.52919362026E+02 -0.25155091681E+02  0.16989744204E+03  0.21897198304E+03  0.12510136303E+03 0.  0.
          5    1    3    3  502    0 -0.62518498851E+02 -0.63913965748E+02  0.78135684329E+02  0.11881167990E+03  0.41800000000E+01 0. -1.
         -5    1    3    3    0  502  0.95991368251E+01  0.38758874067E+02  0.91761757706E+02  0.10016030314E+03  0.41800000000E+01 0. -1.
        -11    1    1    2    0    0 -0.67458933558E+01 -0.15820681836E+02  0.40557822540E+02  0.44053808236E+02  0.00000000000E+00 0.  1.
         11    1    1    2    0    0  0.59665255382E+02  0.40975773517E+02  0.90953196776E+00  0.72386352053E+02  0.00000000000E+00 0. -1.
</event>
<event>
 7    1  0.2972574E-009  0.1526326E+03  0.7561462E-02  0.1197275E+00
          2   -1    0    0  501    0  0.00000000000E+00  0.00000000000E+00  0.10032147417E+04  0.10032147417E+04  0.00000000000E+00 0. -1.
         -2   -1    0    0    0  501 -0.00000000000E+00 -0.00000000000E+00 -0.34764311666E+02  0.34764311666E+02  0.00000000000E+00 0.  1.
         25    2    1    2    0    0 -0.66012988690E+02 -0.13040357778E+03  0.39920452960E+03  0.44314225578E+03  0.12509194473E+03 0.  0.
          5    1    3    3  502    0 -0.94743771095E+01 -0.44086297102E+02  0.28738281514E+03  0.29092906395E+03  0.41800000000E+01 0.  1.
         -5    1    3    3    0  502 -0.56538611580E+02 -0.86317280683E+02  0.11182171445E+03  0.15221319183E+03  0.41800000000E+01 0.  1.
        -11    1    1    2    0    0  0.71293186131E+00  0.62490793086E+02  0.11460828010E+03  0.13053989949E+03  0.00000000000E+00 0.  1.
         11    1    1    2    0    0  0.65300056828E+02  0.67912784699E+02  0.45463762034E+03  0.46429689809E+03  0.00000000000E+00 0. -1.
</event>
<event>
 7    1  0.2334784E-009  0.2365873E+03  0.7561462E-02  0.1122087E+00
          3   -1    0    0  501    0  0.00000000000E+00  0.00000000000E+00  0.16211559156E+03  0.16211559156E+03  0.00000000000E+00 0. -1.
         -3   -1    0    0    0  501 -0.00000000000E+00 -0.00000000000E+00 -0.46372484285E+03  0.46372484285E+03  0.00000000000E+00 0.  1.
         25    2    1    2    0    0 -0.14886404961E+03  0.16645701242E+03 -0.21350360384E+02  0.25685793909E+03  0.12510683729E+03 0.  0.
          5    1    3    3  502    0 -0.32940682620E+02  0.10306636400E+03  0.34076456005E+02  0.11351846199E+03  0.41800000000E+01 0. -1.
         -5    1    3    3    0  502 -0.11592336699E+03  0.63390648426E+02 -0.55426816390E+02  0.14333947710E+03  0.41800000000E+01 0. -1.
        -11    1    1    2    0    0  0.13996549688E+03 -0.11692869926E+03 -0.25260343571E+03  0.31156244440E+03  0.00000000000E+00 0.  1.
         11    1    1    2    0    0  0.88985527270E+01 -0.49528313161E+02 -0.27655455188E+02  0.57420050913E+02  0.00000000000E+00 0. -1.
</event>
<event>
 7    1  0.2334784E-009  0.2308683E+03  0.7561462E-02  0.1126030E+00
          1   -1    0    0  501    0  0.00000000000E+00  0.00000000000E+00  0.11641161183E+03  0.11641161183E+03  0.00000000000E+00 0. -1.
         -1   -1    0    0    0  501 -0.00000000000E+00 -0.00000000000E+00 -0.56166251743E+03  0.56166251743E+03  0.00000000000E+00 0.  1.
         25    2    1    2    0    0 -0.20783572658E+02 -0.22400757438E+03 -0.15856571489E+03  0.30232716003E+03  0.12508907019E+03 0.  0.
          5    1    3    3  502    0  0.13326741435E+01 -0.12685743271E+03 -0.15415547643E+02  0.12786592886E+03  0.41800000000E+01 0. -1.
         -5    1    3    3    0  502 -0.22116246801E+02 -0.97150141669E+02 -0.14315016725E+03  0.17446123117E+03  0.41800000000E+01 0. -1.
        -11    1    1    2    0    0 -0.24465579922E+02  0.10362867238E+03 -0.83632410614E+02  0.13539514927E+03  0.00000000000E+00 0. -1.
         11    1    1    2    0    0  0.45249152580E+02  0.12037890199E+03 -0.20305278010E+03  0.24035181996E+03  0.00000000000E+00 0.  1.
</event>
<event>
 7    1  0.2334784E-009  0.1443489E+03  0.7561462E-02  0.1207594E+00
         -2   -1    0    0    0  501 -0.00000000000E+00  0.00000000000E+00  0.38389369108E+02  0.38389369108E+02  0.00000000000E+00 0.  1.
          2   -1    0    0  501    0  0.00000000000E+00 -0.00000000000E+00 -0.71661216559E+03  0.71661216559E+03  0.00000000000E+00 0. -1.
         25    2    1    2    0    0 -0.10008614047E+03  0.55960219969E+02 -0.47746414870E+03  0.50672331768E+03  0.12509086959E+03 0.  0.
          5    1    3    3  502    0 -0.96975333594E+02  0.78906840636E+02 -0.46183191834E+03  0.47847329918E+03  0.41800000000E+01 0.  1.
         -5    1    3    3    0  502 -0.31108068779E+01 -0.22946620667E+02 -0.15632230352E+02  0.28250018499E+02  0.41800000000E+01 0.  1.
        -11    1    1    2    0    0  0.20945680509E+02  0.21017356448E+02 -0.17834640203E+02  0.34619722633E+02  0.00000000000E+00 0.  1.
         11    1    1    2    0    0  0.79140459963E+02 -0.76977576417E+02 -0.18292400759E+03  0.21365849439E+03  0.00000000000E+00 0. -1.
</event>
<event>
 7    1  0.2334784E-009  0.1122530E+03  0.7561462E-02  0.1256454E+00
         -1   -1    0    0    0  501 -0.00000000000E+00  0.00000000000E+00  0.43719105237E+02  0.43719105237E+02  0.00000000000E+00 0.  1.
          1   -1    0    0  501    0  0.00000000000E+00 -0.00000000000E+00 -0.33760907992E+03  0.33760907992E+03  0.00000000000E+00 0. -1.
         25    2    1    2    0    0  0.39254027328E+02  0.27340840096E+02 -0.20557889360E+03  0.24535386879E+03  0.12508972475E+03 0.  0.
          5    1    3    3  502    0  0.79318130690E+02  0.21901734125E+02 -0.86193495685E+02  0.11923859657E+03  0.41800000000E+01 0. -1.
         -5    1    3    3    0  502 -0.40064103361E+02  0.54391059704E+01 -0.11938539792E+03  0.12611527222E+03  0.41800000000E+01 0. -1.
        -11    1    1    2    0    0  0.24686784912E+02  0.10874512673E+02 -0.35845257680E+02  0.44861730610E+02  0.00000000000E+00 0.  1.
         11    1    1    2    0    0 -0.63940812240E+02 -0.38215352769E+02 -0.52465823395E+02  0.91112585748E+02  0.00000000000E+00 0. -1.
</event>
<event>
 7    1  0.2334784E-009  0.7716716E+02  0.7561462E-02  0.1337288E+00
          1   -1    0    0  501    0  0.00000000000E+00  0.00000000000E+00  0.21239491383E+03  0.21239491383E+03  0.00000000000E+00 0. -1.
         -1   -1    0    0    0  501 -0.00000000000E+00 -0.00000000000E+00 -0.61625518334E+02  0.61625518334E+02  0.00000000000E+00 0.  1.
         25    2    1    2    0    0  0.30260693807E+02  0.22065219514E+02  0.87748811012E+02  0.15731302895E+03  0.12507978150E+03 0.  0.
          5    1    3    3  502    0  0.35707701892E+02  0.39567446378E+02 -0.12840687422E+02  0.54981619117E+02  0.41800000000E+01 0. -1.
         -5    1    3    3    0  502 -0.54470080850E+01 -0.17502226864E+02  0.10058949843E+03  0.10233140983E+03  0.41800000000E+01 0. -1.
        -11    1    1    2    0    0 -0.32951162407E+02  0.20901708164E+02 -0.16060792324E+01  0.39054321127E+02  0.00000000000E+00 0.  1.
         11    1    1    2    0    0  0.26904686006E+01 -0.42966927678E+02  0.64626663721E+02  0.77653082097E+02  0.00000000000E+00 0. -1.
</event>
<event>
 7    1  0.2743535E-009  0.1149108E+03  0.7561462E-02  0.1251737E+00
          2   -1    0    0  501    0  0.00000000000E+00  0.00000000000E+00  0.59368028801E+03  0.59368028801E+03  0.00000000000E+00 0.  1.
         -2   -1    0    0    0  501 -0.00000000000E+00 -0.00000000000E+00 -0.26335768584E+02  0.26335768584E+02  0.00000000000E+00 0. -1.
         25    2    1    2    0    0  0.56996982561E+02 -0.25170116916E+02  0.30537338760E+03  0.33583102317E+03  0.12508948582E+03 0.  0.
          5    1    3    3  502    0  0.91912659618E+02  0.43304720457E-01  0.16474646440E+03  0.18869766508E+03  0.41800000000E+01 0. -1.
         -5    1    3    3    0  502 -0.34915677058E+02 -0.25213421636E+02  0.14062692319E+03  0.14713335809E+03  0.41800000000E+01 0. -1.
        -11    1    1    2    0    0 -0.27946227457E+02 -0.24392831920E+02  0.18185633996E+03  0.18560099747E+03  0.00000000000E+00 0.  1.
         11    1    1    2    0    0 -0.29050755103E+02  0.49562948835E+02  0.80114791871E+02  0.98584035959E+02  0.00000000000E+00 0. -1.
</event>
<event>
 7    1  0.2334784E-009  0.8113732E+02  0.7561462E-02  0.1325855E+00
         -1   -1    0    0    0  501 -0.00000000000E+00  0.00000000000E+00  0.64862462842E+02  0.64862462842E+02  0.00000000000E+00 0.  1.
          1   -1    0    0  501    0  0.00000000000E+00 -0.00000000000E+00 -0.19489550296E+03  0.19489550296E+03  0.00000000000E+00 0. -1.
         25    2    1    2    0    0  0.31441680145E+02  0.26815095363E+02 -0.95430908159E+02  0.16267185633E+03  0.12508975186E+03 0.  0.
          5    1    3    3  502    0 -0.10984916586E+02  0.26656020850E+02 -0.11290094232E+03  0.11659891516E+03  0.41800000000E+01 0. -1.
         -5    1    3    3    0  502  0.42426596732E+02  0.15907451292E+00  0.17470034159E+02  0.46072941174E+02  0.41800000000E+01 0. -1.
        -11    1    1    2    0    0 -0.54951153527E+02 -0.13675167820E+00 -0.24142116563E+02  0.60020744473E+02  0.00000000000E+00 0. -1.
         11    1    1    2    0    0  0.23509473381E+02 -0.26678343685E+02 -0.10460015399E+02  0.37065365000E+02  0.00000000000E+00 0.  1.
</event>
<event>
 7    1  0.2334784E-009  0.1099626E+03  0.7561462E-02  0.1260639E+00
         -2   -1    0    0    0  501 -0.00000000000E+00  0.00000000000E+00  0.11821196558E+02  0.11821196558E+02  0.00000000000E+00 0.  1.
          2   -1    0    0  501    0  0.00000000000E+00 -0.00000000000E+00 -0.17214088746E+04  0.17214088746E+04  0.00000000000E+00 0. -1.
         25    2    1    2    0    0 -0.11889611578E+02 -0.92017982745E+01 -0.14765064112E+04  0.14818724652E+04  0.12509510258E+03 0.  0.
          5    1    3    3  502    0  0.48428499401E+02  0.26786034630E+02 -0.68500787951E+03  0.68725255809E+03  0.41800000000E+01 0. -1.
         -5    1    3    3    0  502 -0.60318110978E+02 -0.35987832905E+02 -0.79149853171E+03  0.79461990708E+03  0.41800000000E+01 0. -1.
        -11    1    1    2    0    0  0.43909647709E+02 -0.22210176984E+02 -0.11865512146E+03  0.12845383207E+03  0.00000000000E+00 0.  1.
         11    1    1    2    0    0 -0.32020036132E+02  0.31411975259E+02 -0.11442614539E+03  0.12290377395E+03  0.00000000000E+00 0. -1.
</event>
<event>
 7    1  0.2334784E-009  0.1296238E+03  0.7561462E-02  0.1228015E+00
          3   -1    0    0  501    0  0.00000000000E+00  0.00000000000E+00  0.48213340355E+03  0.48213340355E+03  0.00000000000E+00 0. -1.
         -3   -1    0    0    0  501 -0.00000000000E+00 -0.00000000000E+00 -0.46741058303E+02  0.46741058303E+02  0.00000000000E+00 0.  1.
         25    2    1    2    0    0  0.79469948946E+02 -0.66456669888E+02  0.24576600921E+03  0.29458533206E+03  0.12509046656E+03 0.  0.
          5    1    3    3  502    0  0.96358423044E+02 -0.73212400973E+02  0.24780805732E+03  0.27581027360E+03  0.41800000000E+01 0. -1.
         -5    1    3    3    0  502 -0.16888474098E+02  0.67557310851E+01 -0.20420481099E+01  0.18775058464E+02  0.41800000000E+01 0. -1.
        -11    1    1    2    0    0 -0.59230910708E+02  0.76622280345E+02  0.90300974804E+02  0.13241427672E+03  0.00000000000E+00 0.  1.
         11    1    1    2    0    0 -0.20239038238E+02 -0.10165610457E+02  0.99325361234E+02  0.10187485307E+03  0.00000000000E+00 0. -1.
</event>
<event>
 7    1  0.2336414E-009  0.1171518E+03  0.7561462E-02  0.1247871E+00
          2   -1    0    0  501    0  0.00000000000E+00  0.00000000000E+00  0.40226577987E+03  0.40226577987E+03  0.00000000000E+00 0.  1.
         -2   -1    0    0    0  501 -0.00000000000E+00 -0.00000000000E+00 -0.49784273544E+02  0.49784273544E+02  0.00000000000E+00 0. -1.
         25    2    1    2    0    0 -0.32698523349E+02  0.73594266071E+02  0.12558867518E+03  0.19469286227E+03  0.12508991110E+03 0.  0.
          5    1    3    3  502    0 -0.80704421575E+02  0.44479741433E+02  0.83147980776E+02  0.12418820462E+03  0.41800000000E+01 0.  1.
         -5    1    3    3    0  502  0.48005898226E+02  0.29114524639E+02  0.42440694403E+02  0.70504657653E+02  0.41800000000E+01 0.  1.
        -11    1    1    2    0    0  0.31740758114E+02 -0.35375921308E+02  0.21043381782E+03  0.21573438116E+03  0.00000000000E+00 0.  1.
         11    1    1    2    0    0  0.95776523521E+00 -0.38218344764E+02  0.16459013330E+02  0.41622809979E+02  0.00000000000E+00 0. -1.
</event>
<event>
 7    1  0.2334784E-009  0.1507989E+03  0.7561462E-02  0.1199495E+00
         -2   -1    0    0    0  501 -0.00000000000E+00  0.00000000000E+00  0.50133460404E+02  0.50133460404E+02  0.00000000000E+00 0.  1.
          2   -1    0    0  501    0  0.00000000000E+00 -0.00000000000E+00 -0.63625120345E+03  0.63625120345E+03  0.00000000000E+00 0. -1.
         25    2    1    2    0    0 -0.13466352396E+03 -0.16919329786E+02 -0.23396862545E+03  0.29800991600E+03  0.12509222172E+03 0.  0.
          5    1    3    3  502    0 -0.26323507028E+02  0.83863881794E+01  0.10128960338E+02  0.29720813692E+02  0.41800000000E+01 0.  1.
         -5    1    3    3    0  502 -0.10834001693E+03 -0.25305717966E+02 -0.24409758579E+03  0.26828910231E+03  0.41800000000E+01 0.  1.
        -11    1    1    2    0    0  0.74215490867E+01  0.33220700889E+02 -0.96860507075E+02  0.10266767841E+03  0.00000000000E+00 0.  1.
         11    1    1    2    0    0  0.12724197488E+03 -0.16301371103E+02 -0.25528861052E+03  0.28570706945E+03  0.00000000000E+00 0. -1.
</event>
<event>
 7    1  0.2334784E-009  0.1192036E+03  0.7561462E-02  0.1244417E+00
          1   -1    0    0  501    0  0.00000000000E+00  0.00000000000E+00  0.19099422215E+02  0.19099422215E+02  0.00000000000E+00 0. -1.
         -1   -1    0    0    0  501 -0.00000000000E+00 -0.00000000000E+00 -0.78373052648E+03  0.78373052648E+03  0.00000000000E+00 0.  1.
         25    2    1    2    0    0  0.57945439093E+02 -0.21579832018E+01 -0.49401905768E+03  0.51289768578E+03  0.12508747308E+03 0.  0.
          5    1    3    3  502    0  0.48119211625E+02  0.57610606028E+02 -0.31561390725E+03  0.32444421910E+03  0.41800000000E+01 0. -1.
         -5    1    3    3    0  502  0.98262274684E+01 -0.59768589229E+02 -0.17840515043E+03  0.18845346668E+03  0.41800000000E+01 0. -1.
        -11    1    1    2    0    0 -0.12096003040E+02 -0.39041524001E+02 -0.13315887313E+03  0.13929048560E+03  0.00000000000E+00 0.  1.
         11    1    1    2    0    0 -0.45849436054E+02  0.41199507203E+02 -0.13745317345E+03  0.15064177732E+03  0.00000000000E+00 0. -1.
</event>
<event>
 7    1  0.2334784E-009  0.1538318E+03  0.7561462E-02  0.1195842E+00
          2   -1    0    0  501    0  0.00000000000E+00  0.00000000000E+00  0.41175467964E+03  0.41175467964E+03  0.00000000000E+00 0. -1.
         -2   -1    0    0    0  501 -0.00000000000E+00 -0.00000000000E+00 -0.72591539357E+02  0.72591539357E+02  0.00000000000E+00 0.  1.
         25    2    1    2    0    0 -0.71152977917E+02 -0.84701400942E+02  0.76475870922E+02  0.18366563232E+03  0.12508969612E+03 0.  0.
          5    1    3    3  502    0 -0.63343598076E+02  0.16284111132E+02  0.27318553252E+02  0.71002531253E+02  0.41800000000E+01 0.  1.
         -5    1    3    3    0  502 -0.78093798418E+01 -0.10098551207E+03  0.49157317670E+02  0.11266310107E+03  0.41800000000E+01 0.  1.
        -11    1    1    2    0    0  0.54048569552E+02 -0.29908215362E+00  0.14311352370E+03  0.15297979601E+03  0.00000000000E+00 0. -1.
         11    1    1    2    0    0  0.17104408365E+02  0.85000483095E+02  0.11957374566E+03  0.14770079066E+03  0.00000000000E+00 0.  1.
</event>
<event>
 7    1  0.2334784E-009  0.1089766E+03  0.7561462E-02  0.1262477E+00
          2   -1    0    0  501    0  0.00000000000E+00  0.00000000000E+00  0.26074348703E+02  0.26074348703E+02  0.00000000000E+00 0.  1.
         -2   -1    0    0    0  501 -0.00000000000E+00 -0.00000000000E+00 -0.68862902624E+03  0.68862902624E+03  0.00000000000E+00 0. -1.
         25    2    1    2    0    0 -0.57340603310E+02 -0.46472655598E+01 -0.49688528930E+03  0.51560840175E+03  0.12508993312E+03 0.  0.
          5    1    3    3  502    0  0.30333857473E+02 -0.29874457552E+02 -0.21775407802E+03  0.22191650911E+03  0.41800000000E+01 0. -1.
         -5    1    3    3    0  502 -0.87674460783E+02  0.25227191992E+02 -0.27913121128E+03  0.29369189264E+03  0.41800000000E+01 0. -1.
        -11    1    1    2    0    0  0.25022779578E+02  0.32614246482E+02 -0.14667313581E+03  0.15232477586E+03  0.00000000000E+00 0. -1.
         11    1    1    2    0    0  0.32317823732E+02 -0.27966980922E+02 -0.18996252429E+02  0.46770197338E+02  0.00000000000E+00 0.  1.
</event>
<event>
 7    1  0.2334784E-009  0.8893754E+02  0.7561462E-02  0.1305445E+00
         -2   -1    0    0    0  501 -0.00000000000E+00  0.00000000000E+00  0.26087875205E+02  0.26087875205E+02  0.00000000000E+00 0.  1.
          2   -1    0    0  501    0  0.00000000000E+00 -0.00000000000E+00 -0.52033225967E+03  0.52033225967E+03  0.00000000000E+00 0. -1.
         25    2    1    2    0    0  0.27664535644E+02  0.23004067494E+02 -0.36850453100E+03  0.39081689726E+03  0.12509094354E+03 0.  0.
          5    1    3    3  502    0 -0.13557306870E+02 -0.26907790609E+02 -0.20180602476E+02  0.36504231006E+02  0.41800000000E+01 0. -1.
         -5    1    3    3    0  502  0.41221842514E+02  0.49911858102E+02 -0.34832392853E+03  0.35431266625E+03  0.41800000000E+01 0. -1.
        -11    1    1    2    0    0 -0.36805676259E+02 -0.45372561070E+02 -0.52737650035E+02  0.78705697596E+02  0.00000000000E+00 0.  1.
         11    1    1    2    0    0  0.91411406153E+01  0.22368493576E+02 -0.73002203429E+02  0.76897540026E+02  0.00000000000E+00 0. -1.
</event>
<event>
 7    1  0.2334784E-009  0.9748232E+02  0.7561462E-02  0.1285681E+00
         -2   -1    0    0    0  501 -0.00000000000E+00  0.00000000000E+00  0.11969656890E+02  0.11969656890E+02  0.00000000000E+00 0.  1.
          2   -1    0    0  501    0  0.00000000000E+00 -0.00000000000E+00 -0.19386453977E+04  0.19386453977E+04  0.00000000000E+00 0. -1.
         25    2    1    2    0    0  0.46332198040E+02 -0.96718746263E+01 -0.16511744491E+04  0.16565823508E+04  0.12509119047E+03 0.  0.
          5    1    3    3  502    0  0.78084738289E+02  0.13448615746E+02 -0.14068331917E+04  0.14090689101E+04  0.41800000000E+01 0.  1.
         -5    1    3    3    0  502 -0.31752540249E+02 -0.23120490373E+02 -0.24434125735E+03  0.24751344070E+03  0.41800000000E+01 0.  1.
        -11    1    1    2    0    0  0.47976616640E+01  0.22826347277E+02 -0.13890432281E+02  0.27147813842E+02  0.00000000000E+00 0.  1.
         11    1    1    2    0    0 -0.51129859704E+02 -0.13154472651E+02 -0.26161085946E+03  0.26688488996E+03  0.00000000000E+00 0. -1.
</event>
<event>
 7    1  0.2334784E-009  0.1058058E+03  0.7561462E-02  0.1268540E+00
          1   -1    0    0  501    0  0.00000000000E+00  0.00000000000E+00  0.50408022297E+03  0.50408022297E+03  0.00000000000E+00 0. -1.
         -1   -1    0    0    0  501 -0.00000000000E+00 -0.00000000000E+00 -0.33537784125E+02  0.33537784125E+02  0.00000000000E+00 0.  1.
         25    2    1    2    0    0  0.31211555000E+02 -0.65959670915E+02  0.24063058637E+03  0.28084730036E+03  0.12508911892E+03 0.  0.
          5    1    3    3  502    0 -0.33137244614E+02  0.13727385334E+02  0.10362619140E+03  0.10973776940E+03  0.41800000000E+01 0. -1.
         -5    1    3    3    0  502  0.64348799614E+02 -0.79687056249E+02  0.13700439497E+03  0.17110953096E+03  0.41800000000E+01 0. -1.
        -11    1    1    2    0    0 -0.52374782665E+01  0.12606455416E+02 -0.49557690310E+01  0.14522862784E+02  0.00000000000E+00 0.  1.
         11    1    1    2    0    0 -0.25974076733E+02  0.53353215498E+02  0.23486762150E+03  0.24224784395E+03  0.00000000000E+00 0. -1.
</event>
<event>
 7    1  0.2334784E-009  0.1230189E+03  0.7561462E-02  0.1238198E+00
         -1   -1    0    0    0  501 -0.00000000000E+00  0.00000000000E+00  0.72183110873E+02  0.72183110873E+02  0.00000000000E+00 0.  1.
          1   -1    0    0  501    0  0.00000000000E+00 -0.00000000000E+00 -0.71810213314E+03  0.71810213314E+03  0.00000000000E+00 0. -1.
         25    2    1    2    0    0 -0.48137382549E+02  0.11209067826E+03 -0.59513905730E+02  0.18458042221E+03  0.12508596859E+03 0.  0.
          5    1    3    3  502    0 -0.25808129693E+02  0.43821027293E+02  0.37838036068E+02  0.63525832264E+02  0.41800000000E+01 0. -1.
         -5    1    3    3    0  502 -0.22329252856E+02  0.68269650963E+02 -0.97351941798E+02  0.12105458995E+03  0.41800000000E+01 0. -1.
        -11    1    1    2    0    0  0.41038807494E+01 -0.26407450264E+02 -0.26725676510E+02  0.37794934205E+02  0.00000000000E+00 0.  1.
         11    1    1    2    0    0  0.44033501800E+02 -0.85683227992E+02 -0.55967944003E+03  0.56790988759E+03  0.00000000000E+00 0. -1.
</event>
<event>
 7    1  0.2334784E-009  0.1117856E+03  0.7561462E-02  0.1257298E+00
          1   -1    0    0  501    0  0.00000000000E+00  0.00000000000E+00  0.68546313710E+03  0.68546313710E+03  0.00000000000E+00 0. -1.
         -1   -1    0    0    0  501 -0.00000000000E+00 -0.00000000000E+00 -0.27249467503E+02  0.27249467503E+02  0.00000000000E+00 0.  1.
         25    2    1    2    0    0  0.61632816803E+00  0.69108975937E+02  0.24008678869E+03  0.27940294016E+03  0.12509159225E+03 0.  0.
          5    1    3    3  502    0 -0.41330742771E+02  0.66892163469E+02  0.74074472844E+02  0.10810777844E+03  0.41800000000E+01 0. -1.
         -5    1    3    3    0  502  0.41947070939E+02  0.22168124682E+01  0.16601231584E+03  0.17129516172E+03  0.41800000000E+01 0. -1.
        -11    1    1    2    0    0  0.15927688446E+01  0.16701637475E+02  0.20340479457E+02  0.26366962500E+02  0.00000000000E+00 0.  1.
         11    1    1    2    0    0 -0.22090970126E+01 -0.85810613412E+02  0.39778640145E+03  0.40694270194E+03  0.00000000000E+00 0. -1.
</event>
<event>
 7    1  0.2415928E-009  0.1136998E+03  0.7561462E-02  0.1253868E+00
          3   -1    0    0  501    0  0.00000000000E+00  0.00000000000E+00  0.18928816840E+03  0.18928816840E+03  0.00000000000E+00 0. -1.
         -3   -1    0    0    0  501 -0.00000000000E+00 -0.00000000000E+00 -0.11279161450E+03  0.11279161450E+03  0.00000000000E+00 0.  1.
         25    2    1    2    0    0 -0.42634718664E+02 -0.74700221409E+02  0.89051222153E+02  0.17600982023E+03  0.12510593245E+03 0.  0.
          5    1    3    3  502    0 -0.46010395002E+02  0.12055211272E+02 -0.49230275444E+01  0.47999928825E+02  0.41800000000E+01 0.  1.
         -5    1    3    3    0  502  0.33756763376E+01 -0.86755432681E+02  0.93974249697E+02  0.12800989140E+03  0.41800000000E+01 0.  1.
        -11    1    1    2    0    0  0.19244873688E+02  0.60000123497E+01 -0.42906375735E+02  0.47405932015E+02  0.00000000000E+00 0.  1.
         11    1    1    2    0    0  0.23389844976E+02  0.68700209059E+02  0.30351707485E+02  0.78664030662E+02  0.00000000000E+00 0. -1.
</event>
<event>
 7    1  0.2334784E-009  0.1381213E+03  0.7561462E-02  0.1215879E+00
         -3   -1    0    0    0  501 -0.00000000000E+00  0.00000000000E+00  0.12921210002E+03  0.12921210002E+03  0.00000000000E+00 0.  1.
          3   -1    0    0  501    0  0.00000000000E+00 -0.00000000000E+00 -0.15507613752E+03  0.15507613752E+03  0.00000000000E+00 0. -1.
         25    2    1    2    0    0  0.88775074692E+02 -0.17927837526E+02 -0.94613266856E+01  0.15473123987E+03  0.12509923519E+03 0.  0.
          5    1    3    3  502    0  0.54433013670E+02  0.51689820010E+02 -0.15480680192E+02  0.76758806199E+02  0.41800000000E+01 0. -1.
         -5    1    3    3    0  502  0.34342061022E+02 -0.69617657536E+02  0.60193535067E+01  0.77972433672E+02  0.41800000000E+01 0. -1.
        -11    1    1    2    0    0 -0.28994376554E+01 -0.26483370947E+02  0.11371215776E+02  0.28966881497E+02  0.00000000000E+00 0. -1.
         11    1    1    2    0    0 -0.85875637036E+02  0.44411208473E+02 -0.27773926592E+02  0.10059011618E+03  0.00000000000E+00 0.  1.
</event>
<event>
 7    1  0.2334784E-009  0.7560075E+02  0.7561462E-02  0.1342021E+00
         -2   -1    0    0    0  501 -0.00000000000E+00  0.00000000000E+00  0.10677745363E+02  0.10677745363E+02  0.00000000000E+00 0.  1.
          2   -1    0    0  501    0  0.00000000000E+00 -0.00000000000E+00 -0.11238058504E+04  0.11238058504E+04  0.00000000000E+00 0. -1.
         25    2    1    2    0    0 -0.34649038864E+01  0.16013576402E+02 -0.64874551800E+03  0.66089877162E+03  0.12509196227E+03 0.  0.
          5    1    3    3  502    0  0.24246097417E+02  0.17796695788E+02 -0.34292447330E+02  0.45804366220E+02  0.41800000000E+01 0.  1.
         -5    1    3    3    0  502 -0.27711001304E+02 -0.17831193865E+01 -0.61445307067E+03  0.61509440540E+03  0.41800000000E+01 0.  1.
        -11    1    1    2    0    0  0.44720013573E+02  0.73856515395E+01 -0.21347200066E+03  0.21823089270E+03  0.00000000000E+00 0.  1.
         11    1    1    2    0    0 -0.41255109687E+02 -0.23399227941E+02 -0.25091058639E+03  0.25535393145E+03  0.00000000000E+00 0. -1.
</event>
<event>
 7    1  0.2334784E-009  0.2031566E+03  0.7561462E-02  0.1147103E+00
          2   -1    0    0  501    0  0.00000000000E+00  0.00000000000E+00  0.70832971529E+03  0.70832971529E+03  0.00000000000E+00 0. -1.
         -2   -1    0    0    0  501 -0.00000000000E+00 -0.00000000000E+00 -0.61673907581E+02  0.61673907581E+02  0.00000000000E+00 0.  1.
         25    2    1    2    0    0 -0.17984505676E+03  0.23052044245E+02  0.36199655092E+03  0.42375199331E+03  0.12509439542E+03 0.  0.
          5    1    3    3  502    0 -0.17681414162E+03  0.52879832682E+02  0.33799404315E+03  0.38511941393E+03  0.41800000000E+01 0. -1.
         -5    1    3    3    0  502 -0.30309151345E+01 -0.29827788437E+02  0.24002507770E+02  0.38632579370E+02  0.41800000000E+01 0. -1.
        -11    1    1    2    0    0  0.58059278079E+02 -0.37020777602E+02  0.14437340185E+03  0.15995342105E+03  0.00000000000E+00 0.  1.
         11    1    1    2    0    0  0.12178577868E+03  0.13968733356E+02  0.14028585494E+03  0.18629820851E+03  0.00000000000E+00 0. -1.
</event>
<event>
 7    1  0.2334784E-009  0.1114770E+03  0.7561462E-02  0.1257859E+00
         -3   -1    0    0    0  501 -0.00000000000E+00  0.00000000000E+00  0.75664441972E+03  0.75664441972E+03  0.00000000000E+00 0.  1.
          3   -1    0    0  501    0  0.00000000000E+00 -0.00000000000E+00 -0.20254640374E+02  0.20254640374E+02  0.00000000000E+00 0. -1.
         25    2    1    2    0    0 -0.56399894508E+02  0.14821254514E+02  0.38953743068E+03  0.41326488268E+03  0.12509130934E+03 0.  0.
          5    1    3    3  502    0  0.36590387491E+02  0.14958746260E+02  0.70599627337E+02  0.81020986951E+02  0.41800000000E+01 0.  1.
         -5    1    3    3    0  502 -0.92990281999E+02 -0.13749174561E+00  0.31893780334E+03  0.33224389573E+03  0.41800000000E+01 0.  1.
        -11    1    1    2    0    0  0.14173749309E+02  0.27121999795E+02  0.36522696719E+02  0.47648771422E+02  0.00000000000E+00 0. -1.
         11    1    1    2    0    0  0.42226145199E+02 -0.41943254309E+02  0.31032965195E+03  0.31598540599E+03  0.00000000000E+00 0.  1.
</event>
<event>
 7    1  0.2334784E-009  0.1178065E+03  0.7561462E-02  0.1246760E+00
          2   -1    0    0  501    0  0.00000000000E+00  0.00000000000E+00  0.26460166575E+02  0.26460166575E+02  0.00000000000E+00 0.  1.
         -2   -1    0    0    0  501 -0.00000000000E+00 -0.00000000000E+00 -0.54457410360E+03  0.54457410360E+03  0.00000000000E+00 0. -1.
         25    2    1    2    0    0  0.28031857154E+02  0.41612939419E+02 -0.34395657372E+03  0.36941982915E+03  0.12508982303E+03 0.  0.
          5    1    3    3  502    0  0.60340791918E+02  0.69164381321E+02 -0.22464336641E+03  0.24270730785E+03  0.41800000000E+01 0.  1.
         -5    1    3    3    0  502 -0.32308934764E+02 -0.27551441903E+02 -0.11931320731E+03  0.12671252130E+03  0.41800000000E+01 0.  1.
        -11    1    1    2    0    0 -0.53000274136E+02 -0.51789522560E+02 -0.13622789219E+03  0.15507811681E+03  0.00000000000E+00 0. -1.
         11    1    1    2    0    0  0.24968416982E+02  0.10176583141E+02 -0.37929471120E+02  0.46536324205E+02  0.00000000000E+00 0.  1.
</event>
<event>
 7    1  0.2334784E-009  0.2590514E+03  0.7561462E-02  0.1107714E+00
         -1   -1    0    0    0  501 -0.00000000000E+00  0.00000000000E+00  0.26281066302E+03  0.26281066302E+03  0.00000000000E+00 0.  1.
          1   -1    0    0  501    0  0.00000000000E+00 -0.00000000000E+00 -0.40340123584E+03  0.40340123584E+03  0.00000000000E+00 0. -1.
         25    2    1    2    0    0 -0.13094704790E+03 -0.21324358338E+03 -0.25205824654E+03  0.37656710767E+03  0.12509784857E+03 0.  0.
          5    1    3    3  502    0 -0.21274184127E+02 -0.46960954708E+02 -0.13712469039E+03  0.14655570712E+03  0.41800000000E+01 0.  1.
         -5    1    3    3    0  502 -0.10967286377E+03 -0.16628262868E+03 -0.11493355616E+03  0.23001140054E+03  0.41800000000E+01 0.  1.
        -11    1    1    2    0    0  0.87258918374E+02  0.20484147402E+03  0.88719037720E+02  0.23967731634E+03  0.00000000000E+00 0. -1.
         11    1    1    2    0    0  0.43688129528E+02  0.84021093657E+01  0.22748636001E+02  0.49967474855E+02  0.00000000000E+00 0.  1.
</event>
<event>
 7    1  0.2334784E-009  0.1810417E+03  0.7561462E-02  0.1166799E+00
         -2   -1    0    0    0  501 -0.00000000000E+00  0.00000000000E+00  0.21174387919E+02  0.21174387919E+02  0.00000000000E+00 0. -1.
          2   -1    0    0  501    0  0.00000000000E+00 -0.00000000000E+00 -0.18107945267E+04  0.18107945267E+04  0.00000000000E+00 0.  1.
         25    2    1    2    0    0 -0.12466637174E+03 -0.94061952353E+02 -0.11232780551E+04  0.11409601100E+04  0.12508808268E+03 0.  0.
          5    1    3    3  502    0 -0.11700776511E+03 -0.11139597497E+03 -0.75171484633E+03  0.76889047524E+03  0.41800000000E+01 0. -1.
         -5    1    3    3    0  502 -0.76586066369E+01  0.17334022621E+02 -0.37156320879E+03  0.37206963478E+03  0.41800000000E+01 0. -1.
        -11    1    1    2    0    0  0.60840434300E+01 -0.17333615012E+02 -0.42510276596E+02  0.46309755021E+02  0.00000000000E+00 0. -1.
         11    1    1    2    0    0  0.11858232831E+03  0.11139556736E+03 -0.62383180709E+03  0.64469904960E+03  0.00000000000E+00 0.  1.
</event>
<event>
 7    1  0.2334784E-009  0.1066725E+03  0.7561462E-02  0.1266859E+00
         -4   -1    0    0    0  501 -0.00000000000E+00  0.00000000000E+00  0.33197785613E+02  0.33197785613E+02  0.00000000000E+00 0.  1.
          4   -1    0    0  501    0  0.00000000000E+00 -0.00000000000E+00 -0.46051784152E+03  0.46051784152E+03  0.00000000000E+00 0. -1.
         25    2    1    2    0    0 -0.41388511485E+02  0.30985071534E+02 -0.18680861999E+03  0.23067619361E+03  0.12506383272E+03 0.  0.
          5    1    3    3  502    0 -0.71866272030E+02  0.18088701305E+02 -0.49125204050E+02  0.89009663764E+02  0.41800000000E+01 0. -1.
         -5    1    3    3    0  502  0.30477760545E+02  0.12896370229E+02 -0.13768341594E+03  0.14166652984E+03  0.41800000000E+01 0. -1.
        -11    1    1    2    0    0  0.33887633090E+01  0.32012687889E+02 -0.88176569296E+02  0.93869075181E+02  0.00000000000E+00 0.  1.
         11    1    1    2    0    0  0.37999748176E+02 -0.62997759423E+02 -0.15233486662E+03  0.16917035834E+03  0.00000000000E+00 0. -1.
</event>
<event>
 6    1  0.2334784E-009  0.1482215E+03  0.7561462E-02  0.1202676E+00
         -1   -1    0    0    0  501 -0.00000000000E+00  0.00000000000E+00  0.13642490263E+03  0.13642490263E+03  0.00000000000E+00 0.  1.
          1   -1    0    0  501    0  0.00000000000E+00 -0.00000000000E+00 -0.22469706223E+03  0.22469706223E+03  0.00000000000E+00 0. -1.
          5    1    1    2  502    0 -0.32448303380E+02  0.31244418748E+02  0.36404147849E+02  0.58067550971E+02  0.41800000000E+01 0. -1.
         -5    1    1    2    0  502 -0.90633758237E+02  0.24294811336E+02 -0.98952496587E+02  0.13643234576E+03  0.41800000000E+01 0. -1.
        -11    1    1    2    0    0  0.40941727058E+01 -0.36556117181E+02  0.14578074750E+02  0.39568070675E+02  0.00000000000E+00 0.  1.
         11    1    1    2    0    0  0.11898788891E+03 -0.18983112903E+02 -0.40301885622E+02  0.12705399745E+03  0.00000000000E+00 0. -1.
</event>
<event>
 7    1  0.2334784E-009  0.1405412E+03  0.7561462E-02  0.1212603E+00
          1   -1    0    0  501    0  0.00000000000E+00  0.00000000000E+00  0.57939176941E+03  0.57939176941E+03  0.00000000000E+00 0. -1.
         -1   -1    0    0    0  501 -0.00000000000E+00 -0.00000000000E+00 -0.52837153781E+02  0.52837153781E+02  0.00000000000E+00 0.  1.
         25    2    1    2    0    0  0.93963416719E+02  0.10071012424E+03  0.29715866924E+03  0.35060300234E+03  0.12509011850E+03 0.  0.
          5    1    3    3  502    0  0.41374968121E+02  0.36289072323E+02  0.16134452805E+02  0.57502849707E+02  0.41800000000E+01 0.  1.
         -5    1    3    3    0  502  0.52588448598E+02  0.64421051913E+02  0.28102421643E+03  0.29310015264E+03  0.41800000000E+01 0.  1.
        -11    1    1    2    0    0 -0.21617324262E+02 -0.42212065836E+01 -0.48549634109E+00  0.22030955494E+02  0.00000000000E+00 0.  1.
         11    1    1    2    0    0 -0.72346092456E+02 -0.96488917653E+02  0.22988144274E+03  0.25959496535E+03  0.00000000000E+00 0. -1.
</event>
<event>
 7    1  0.2334784E-009  0.1159440E+03  0.7561462E-02  0.1249942E+00
          1   -1    0    0  501    0  0.00000000000E+00  0.00000000000E+00  0.40887984110E+02  0.40887984110E+02  0.00000000000E+00 0. -1.
         -1   -1    0    0    0  501 -0.00000000000E+00 -0.00000000000E+00 -0.47308575952E+03  0.47308575952E+03  0.00000000000E+00 0.  1.
         25    2    1    2    0    0  0.43301787477E+02 -0.65087504996E+02 -0.29934409226E+03  0.33371548327E+03  0.12509080739E+03 0.  0.
          5    1    3    3  502    0 -0.16556544542E+02 -0.72068541759E+02 -0.23059275530E+03  0.24219513843E+03  0.41800000000E+01 0. -1.
         -5    1    3    3    0  502  0.59858332018E+02  0.69810367625E+01 -0.68751336959E+02  0.91520344842E+02  0.41800000000E+01 0. -1.
        -11    1    1    2    0    0  0.59838850842E+01  0.42986572747E+02 -0.11572097879E+03  0.12359205982E+03  0.00000000000E+00 0.  1.
         11    1    1    2    0    0 -0.49285672561E+02  0.22100932249E+02 -0.17132704359E+02  0.56666200549E+02  0.00000000000E+00 0. -1.
</event>
<event>
 7    1  0.2334784E-009  0.6963412E+02  0.7561462E-02  0.1361342E+00
         -2   -1    0    0    0  501 -0.00000000000E+00  0.00000000000E+00  0.36528810682E+03  0.36528810682E+03  0.00000000000E+00 0.  1.
          2   -1    0    0  501    0  0.00000000000E+00 -0.00000000000E+00 -0.54202355172E+02  0.54202355172E+02  0.00000000000E+00 0. -1.
         25    2    1    2    0    0 -0.41461597750E+01  0.22063028843E+02  0.38173206628E+02  0.13270883031E+03  0.12510184673E+03 0.  0.
          5    1    3    3  502    0 -0.26285410468E+02 -0.49669412309E+01  0.76218868057E+02  0.80884989686E+02  0.41800000000E+01 0.  1.
         -5    1    3    3    0  502  0.22139250693E+02  0.27029970074E+02 -0.38045661429E+02  0.51823840624E+02  0.41800000000E+01 0.  1.
        -11    1    1    2    0    0  0.17855289653E+02  0.23448629380E+02  0.43815440755E+02  0.52805704587E+02  0.00000000000E+00 0. -1.
         11    1    1    2    0    0 -0.13709129878E+02 -0.45511658223E+02  0.22909710426E+03  0.23397592709E+03  0.00000000000E+00 0.  1.
</event>
<event>
 7    1  0.2334784E-009  0.9596837E+02  0.7561462E-02  0.1289010E+00
          1   -1    0    0  501    0  0.00000000000E+00  0.00000000000E+00  0.21844030405E+03  0.21844030405E+03  0.00000000000E+00 0. -1.
         -1   -1    0    0    0  501 -0.00000000000E+00 -0.00000000000E+00 -0.80254372957E+02  0.80254372957E+02  0.00000000000E+00 0.  1.
         25    2    1    2    0    0 -0.45621550481E+02 -0.53151645186E+02  0.10492751622E+03  0.17763611803E+03  0.12505352260E+03 0.  0.
          5    1    3    3  502    0 -0.74166250680E+02 -0.52174939754E+02  0.27264625218E+02  0.94782325708E+02  0.41800000000E+01 0.  1.
         -5    1    3    3    0  502  0.28544700199E+02 -0.97670543172E+00  0.77662891003E+02  0.82853792321E+02  0.41800000000E+01 0.  1.
        -11    1    1    2    0    0  0.21882218006E+02  0.38826348558E+02 -0.28816586203E+02  0.53072709066E+02  0.00000000000E+00 0.  1.
         11    1    1    2    0    0  0.23739332475E+02  0.14325296628E+02  0.62075001076E+02  0.67985849913E+02  0.00000000000E+00 0. -1.
</event>
<event>
 7    1  0.2334784E-009  0.8304711E+02  0.7561462E-02  0.1320620E+00
          2   -1    0    0  501    0  0.00000000000E+00  0.00000000000E+00  0.30112929545E+03  0.30112929545E+03  0.00000000000E+00 0. -1.
         -2   -1    0    0    0  501 -0.00000000000E+00 -0.00000000000E+00 -0.44654055705E+02  0.44654055705E+02  0.00000000000E+00 0.  1.
         25    2    1    2    0    0 -0.36046189289E+02 -0.20086005512E+02  0.16959300604E+03  0.21473654089E+03  0.12508884410E+03 0.  0.
          5    1    3    3  502    0 -0.48616600627E+01 -0.59780018859E+02  0.31982506285E+02  0.68100216605E+02  0.41800000000E+01 0.  1.
         -5    1    3    3    0  502 -0.31184529226E+02  0.39694013347E+02  0.13761049975E+03  0.14663632429E+03  0.41800000000E+01 0.  1.
        -11    1    1    2    0    0  0.35132313666E+01  0.22429259881E+02  0.94801475454E+02  0.97481968803E+02  0.00000000000E+00 0. -1.
         11    1    1    2    0    0  0.32532957922E+02 -0.23432543691E+01 -0.79192417480E+01  0.33564841457E+02  0.00000000000E+00 0.  1.
</event>
<event>
 7    1  0.2334784E-009  0.7552160E+02  0.7561462E-02  0.1342263E+00
         -2   -1    0    0    0  501 -0.00000000000E+00  0.00000000000E+00  0.22295385864E+02  0.22295385864E+02  0.00000000000E+00 0. -1.
          2   -1    0    0  501    0  0.00000000000E+00 -0.00000000000E+00 -0.87656279384E+03  0.87656279384E+03  0.00000000000E+00 0.  1.
         25    2    1    2    0    0 -0.41975711400E+02 -0.17290714609E+02 -0.72064286851E+03  0.73282712641E+03  0.12509406103E+03 0.  0.
          5    1    3    3  502    0 -0.15982403064E+02 -0.20538027753E+02 -0.69637734574E+03  0.69687597738E+03  0.41800000000E+01 0.  1.
         -5    1    3    3    0  502 -0.25993308336E+02  0.32473131441E+01 -0.24265522769E+02  0.35951149025E+02  0.41800000000E+01 0.  1.
        -11    1    1    2    0    0  0.64838485226E+02 -0.64998604204E+01 -0.95461745315E+02  0.11558210143E+03  0.00000000000E+00 0.  1.
         11    1    1    2    0    0 -0.22862773826E+02  0.23790575030E+02 -0.38162794148E+02  0.50448951867E+02  0.00000000000E+00 0. -1.
</event>
<event>
 7    1  0.2334784E-009  0.1146259E+03  0.7561462E-02  0.1252236E+00
          1   -1    0    0  501    0  0.00000000000E+00  0.00000000000E+00  0.64097712815E+02  0.64097712815E+02  0.00000000000E+00 0. -1.
         -1   -1    0    0    0  501 -0.00000000000E+00 -0.00000000000E+00 -0.22994996258E+03  0.22994996258E+03  0.00000000000E+00 0.  1.
         25    2    1    2    0    0 -0.51339381148E+02  0.10574640060E+02 -0.83631223322E+02  0.15934429707E+03  0.12509543727E+03 0.  0.
          5    1    3    3  502    0 -0.66976386176E+02 -0.39408101470E+02 -0.70920943761E+02  0.10529049069E+03  0.41800000000E+01 0. -1.
         -5    1    3    3    0  502  0.15637005029E+02  0.49982741531E+02 -0.12710279562E+02  0.54053806376E+02  0.41800000000E+01 0. -1.
        -11    1    1    2    0    0  0.50477765664E+02  0.29726801754E+02 -0.22717839264E+02  0.62831423586E+02  0.00000000000E+00 0. -1.
         11    1    1    2    0    0  0.86161548328E+00 -0.40301441814E+02 -0.59503187177E+02  0.71871954737E+02  0.00000000000E+00 0.  1.
</event>
<event>
 7    1  0.2334784E-009  0.8034108E+02  0.7561462E-02  0.1328086E+00
         -2   -1    0    0    0  501 -0.00000000000E+00  0.00000000000E+00  0.10497567389E+03  0.10497567389E+03  0.00000000000E+00 0.  1.
          2   -1    0    0  501    0  0.00000000000E+00 -0.00000000000E+00 -0.11752600665E+03  0.11752600665E+03  0.00000000000E+00 0. -1.
         25    2    1    2    0    0 -0.15619668033E+01 -0.37663519675E+01 -0.28707016080E+02  0.12840594707E+03  0.12508944529E+03 0.  0.
          5    1    3    3  502    0  0.32516795492E+02 -0.16185378658E+02 -0.66480486613E+02  0.75871180113E+02  0.41800000000E+01 0. -1.
         -5    1    3    3    0  502 -0.34078762295E+02  0.12419026691E+02  0.37773470533E+02  0.52534766961E+02  0.41800000000E+01 0. -1.
        -11    1    1    2    0    0 -0.41968973008E+02 -0.75231141155E+01 -0.74835618146E+01  0.43289671272E+02  0.00000000000E+00 0. -1.
         11    1    1    2    0    0  0.43530939812E+02  0.11289466083E+02  0.23640245136E+02  0.50806062191E+02  0.00000000000E+00 0.  1.
</event>
<event>
 7    1  0.2334784E-009  0.1257629E+03  0.7561462E-02  0.1233882E+00
          1   -1    0    0  501    0  0.00000000000E+00  0.00000000000E+00  0.95371882419E+02  0.95371882419E+02  0.00000000000E+00 0. -1.
         -1   -1    0    0    0  501 -0.00000000000E+00 -0.00000000000E+00 -0.26368986430E+03  0.26368986430E+03  0.00000000000E+00 0.  1.
         25    2    1    2    0    0  0.60242773790E+02  0.68048479088E+02 -0.10183435682E+02  0.15495588894E+03  0.12509131807E+03 0.  0.
          5    1    3    3  502    0  0.42136727503E+02  0.95807476077E+02 -0.38059855854E+02  0.11144775146E+03  0.41800000000E+01 0.  1.
         -5    1    3    3    0  502  0.18106046286E+02 -0.27758996989E+02  0.27876420172E+02  0.43508137486E+02  0.41800000000E+01 0.  1.
        -11    1    1    2    0    0 -0.38519033995E+02  0.34257484567E+01 -0.12865982030E+02  0.40755186492E+02  0.00000000000E+00 0. -1.
         11    1    1    2    0    0 -0.21723739794E+02 -0.71474227544E+02 -0.14526856417E+03  0.16335067129E+03  0.00000000000E+00 0.  1.
</event>
<event>
 6    1  0.2334784E-009  0.1005974E+03  0.7561462E-02  0.1279045E+00
         -3   -1    0    0    0  501 -0.00000000000E+00  0.00000000000E+00  0.54865381079E+02  0.54865381079E+02  0.00000000000E+00 0.  1.
          3   -1    0    0  501    0  0.00000000000E+00 -0.00000000000E+00 -0.23467328593E+03  0.23467328593E+03  0.00000000000E+00 0. -1.
          5    1    1    2  502    0 -0.45077228145E+02  0.39173489621E+02 -0.49582780075E+02  0.77733154228E+02  0.41800000000E+01 0.  1.
         -5    1    1    2    0  502  0.67841407909E+02 -0.15071531772E+02 -0.64245620212E+02  0.94734258922E+02  0.41800000000E+01 0.  1.
        -11    1    1    2    0    0  0.20986228573E+02 -0.17774446945E+02  0.99205437993E+01  0.29236448881E+02  0.00000000000E+00 0.  1.
         11    1    1    2    0    0 -0.43750408337E+02 -0.63275109038E+01 -0.75900048359E+02  0.87834804974E+02  0.00000000000E+00 0. -1.
</event>
<event>
 7    1  0.2334784E-009  0.1305879E+03  0.7561462E-02  0.1226586E+00
         -1   -1    0    0    0  501 -0.00000000000E+00  0.00000000000E+00  0.18658404140E+02  0.18658404140E+02  0.00000000000E+00 0.  1.
          1   -1    0    0  501    0  0.00000000000E+00 -0.00000000000E+00 -0.10683276219E+04  0.10683276219E+04  0.00000000000E+00 0. -1.
         25    2    1    2    0    0  0.29706877652E+02 -0.82141609487E+02 -0.52840275785E+03  0.54998830328E+03  0.12509163301E+03 0.  0.
          5    1    3    3  502    0  0.27282028447E+02 -0.11552763001E+03 -0.40515422128E+03  0.42220653452E+03  0.41800000000E+01 0. -1.
         -5    1    3    3    0  502  0.24248492050E+01  0.33386020519E+02 -0.12324853658E+03  0.12778176876E+03  0.41800000000E+01 0. -1.
        -11    1    1    2    0    0 -0.29077081358E+02  0.93177576611E+02 -0.51524698433E+03  0.52441109094E+03  0.00000000000E+00 0. -1.
         11    1    1    2    0    0 -0.62979629363E+00 -0.11035967124E+02 -0.60194755342E+01  0.12586631775E+02  0.00000000000E+00 0.  1.
</event>
<event>
 7    1  0.2334784E-009  0.2720066E+03  0.7561462E-02  0.1100137E+00
          1   -1    0    0  501    0  0.00000000000E+00  0.00000000000E+00  0.31629948763E+03  0.31629948763E+03  0.00000000000E+00 0. -1.
         -1   -1    0    0    0  501 -0.00000000000E+00 -0.00000000000E+00 -0.26146206237E+03  0.26146206237E+03  0.00000000000E+00 0.  1.
         25    2    1    2    0    0 -0.24319699494E+03  0.10828313894E+03  0.31878659124E+02  0.29585999608E+03  0.12508745680E+03 0.  0.
          5    1    3    3  502    0 -0.72930797094E+02  0.42954743465E+02  0.69507370520E+02  0.10960272856E+03  0.41800000000E+01 0.  1.
         -5    1    3    3    0  502 -0.17026619785E+03  0.65328395475E+02 -0.37628711396E+02  0.18625726752E+03  0.41800000000E+01 0.  1.
        -11    1    1    2    0    0  0.20696230877E+03 -0.58113851618E+02  0.37790013356E+02  0.21826291969E+03  0.00000000000E+00 0. -1.
         11    1    1    2    0    0  0.36234686173E+02 -0.50169287322E+02 -0.14831247220E+02  0.63638634229E+02  0.00000000000E+00 0.  1.
</event>
<event>
 7    1  0.2334784E-009  0.8431868E+02  0.7561462E-02  0.1317224E+00
         -4   -1    0    0    0  501 -0.00000000000E+00  0.00000000000E+00  0.23941347567E+02  0.23941347567E+02  0.00000000000E+00 0.  1.
          4   -1    0    0  501    0  0.00000000000E+00 -0.00000000000E+00 -0.60430343580E+03  0.60430343580E+03  0.00000000000E+00 0. -1.
         25    2    1    2    0    0 -0.14693654804E+02  0.48517694905E+02 -0.35686474025E+03  0.38153585896E+03  0.12508916270E+03 0.  0.
          5    1    3    3  502    0 -0.26840697762E+02  0.41314098726E+02 -0.38073692114E+02  0.62404777389E+02  0.41800000000E+01 0.  1.
         -5    1    3    3    0  502  0.12147042958E+02  0.72035961791E+01 -0.31879104814E+03  0.31913108157E+03  0.41800000000E+01 0.  1.
        -11    1    1    2    0    0 -0.35618809937E+02 -0.15745936970E+01 -0.75002561716E+02  0.83045549132E+02  0.00000000000E+00 0.  1.
         11    1    1    2    0    0  0.50312464741E+02 -0.46943101208E+02 -0.14849478627E+03  0.16366337528E+03  0.00000000000E+00 0. -1.
</event>
<event>
 7    1  0.3255281E-009  0.1236302E+03  0.7561462E-02  0.1237226E+00
          1   -1    0    0  501    0  0.00000000000E+00  0.00000000000E+00  0.23843188624E+03  0.23843188624E+03  0.00000000000E+00 0. -1.
         -1   -1    0    0    0  501 -0.00000000000E+00 -0.00000000000E+00 -0.95949540216E+02  0.95949540216E+02  0.00000000000E+00 0.  1.
         25    2    1    2    0    0 -0.40638423715E+02  0.64685186764E+02 -0.30338519447E+01  0.14660558124E+03  0.12509331447E+03 0.  0.
          5    1    3    3  502    0  0.37178676150E+02 -0.97392389106E+01 -0.37800898417E+01  0.38844152894E+02  0.41800000000E+01 0. -1.
         -5    1    3    3    0  502 -0.77817099865E+02  0.74424425675E+02  0.74623789700E+00  0.10776142835E+03  0.41800000000E+01 0. -1.
        -11    1    1    2    0    0  0.49500296255E+02 -0.16996961163E+02  0.25276230450E+02  0.58121113581E+02  0.00000000000E+00 0.  1.
         11    1    1    2    0    0 -0.88618725404E+01 -0.47688225601E+02  0.12023996752E+03  0.12965473163E+03  0.00000000000E+00 0. -1.
</event>
<event>
 7    1  0.2334784E-009  0.9841865E+02  0.7561462E-02  0.1283657E+00
         -1   -1    0    0    0  501 -0.00000000000E+00  0.00000000000E+00  0.76464281503E+02  0.76464281503E+02  0.00000000000E+00 0.  1.
          1   -1    0    0  501    0  0.00000000000E+00 -0.00000000000E+00 -0.28219341944E+03  0.28219341944E+03  0.00000000000E+00 0. -1.
         25    2    1    2    0    0 -0.31957014446E+01  0.26102194739E+02 -0.22677448598E+03  0.26031791629E+03  0.12508882034E+03 0.  0.
          5    1    3    3  502    0 -0.63797017275E+02  0.91468792240E+01 -0.12146328907E+03  0.13756644868E+03  0.41800000000E+01 0.  1.
         -5    1    3    3    0  502  0.60601315831E+02  0.16955315515E+02 -0.10531119691E+03  0.12275146761E+03  0.41800000000E+01 0.  1.
        -11    1    1    2    0    0  0.24751644806E+02 -0.37399538164E+02 -0.21183907839E+02  0.49599670633E+02  0.00000000000E+00 0. -1.
         11    1    1    2    0    0 -0.21555943361E+02  0.11297343425E+02  0.42229255880E+02  0.48740114021E+02  0.00000000000E+00 0.  1.
</event>
<event>
 7    1  0.2334784E-009  0.7376483E+02  0.7561462E-02  0.1347739E+00
          1   -1    0    0  501    0  0.00000000000E+00  0.00000000000E+00  0.16932622924E+02  0.16932622924E+02  0.00000000000E+00 0. -1.
         -1   -1    0    0    0  501 -0.00000000000E+00 -0.00000000000E+00 -0.84041327169E+03  0.84041327169E+03  0.00000000000E+00 0.  1.
         25    2    1    2    0    0  0.17913315612E+02 -0.29258805012E+02 -0.60539691585E+03  0.61913635561E+03  0.12508971407E+03 0.  0.
          5    1    3    3  502    0  0.32137422252E+02 -0.14217120772E+02 -0.59416034277E+03  0.59521334474E+03  0.41800000000E+01 0.  1.
         -5    1    3    3    0  502 -0.14224106640E+02 -0.15041684240E+02 -0.11236573079E+02  0.23923010869E+02  0.41800000000E+01 0.  1.
        -11    1    1    2    0    0  0.34063834417E+02  0.89824381677E+01 -0.50428029495E+02  0.61514349296E+02  0.00000000000E+00 0. -1.
         11    1    1    2    0    0 -0.51977150029E+02  0.20276366844E+02 -0.16765570342E+03  0.17669518971E+03  0.00000000000E+00 0.  1.
</event>
<event>
 7    1  0.2334784E-009  0.1007645E+03  0.7561462E-02  0.1278696E+00
         -1   -1    0    0    0  501 -0.00000000000E+00  0.00000000000E+00  0.46227213676E+03  0.46227213676E+03  0.00000000000E+00 0.  1.
          1   -1    0    0  501    0  0.00000000000E+00 -0.00000000000E+00 -0.39984601347E+02  0.39984601347E+02  0.00000000000E+00 0. -1.
         25    2    1    2    0    0  0.43555420762E+02 -0.47676807309E+02  0.32410301091E+03  0.35335564434E+03  0.12508915649E+03 0.  0.
          5    1    3    3  502    0  0.21901068212E+02  0.18669309680E+02  0.24920640363E+03  0.25089739721E+03  0.41800000000E+01 0. -1.
         -5    1    3    3    0  502  0.21654352550E+02 -0.66346116989E+02  0.74896607278E+02  0.10245824713E+03  0.41800000000E+01 0. -1.
        -11    1    1    2    0    0 -0.48345415382E+01  0.61296345441E+02  0.86679295894E+02  0.10627283328E+03  0.00000000000E+00 0.  1.
         11    1    1    2    0    0 -0.38720879223E+02 -0.13619538132E+02  0.11505228603E+02  0.42628260485E+02  0.00000000000E+00 0. -1.
</event>
<event>
 7    1  0.2334784E-009  0.1294671E+03  0.7561462E-02  0.1228249E+00
          2   -1    0    0  501    0  0.00000000000E+00  0.00000000000E+00  0.20856435107E+03  0.20856435107E+03  0.00000000000E+00 0. -1.
         -2   -1    0    0    0  501 -0.00000000000E+00 -0.00000000000E+00 -0.14441271485E+03  0.14441271485E+03  0.00000000000E+00 0.  1.
         25    2    1    2    0    0 -0.25518033144E+02 -0.10172060266E+03  0.11853434322E+03  0.20173492300E+03  0.12509331562E+03 0.  0.
          5    1    3    3  502    0 -0.59930599554E+02 -0.78944424075E+02  0.12518498043E+03  0.15972679982E+03  0.41800000000E+01 0. -1.
         -5    1    3    3    0  502  0.34412566410E+02 -0.22776178588E+02 -0.66506372064E+01  0.42008123182E+02  0.41800000000E+01 0. -1.
        -11    1    1    2    0    0  0.22241762171E+01  0.93535774948E+02 -0.22850964321E+01  0.93590116041E+02  0.00000000000E+00 0. -1.
         11    1    1    2    0    0  0.23293856927E+02  0.81848277153E+01 -0.52097610578E+02  0.57652026879E+02  0.00000000000E+00 0.  1.
</event>
<event>
 7    1  0.2334784E-009  0.1052966E+03  0.7561462E-02  0.1269536E+00
          2   -1    0    0  501    0  0.00000000000E+00  0.00000000000E+00  0.78410900778E+03  0.78410900778E+03  0.00000000000E+00 0.  1.
         -2   -1    0    0    0  501 -0.00000000000E+00 -0.00000000000E+00 -0.25707604810E+02  0.25707604810E+02  0.00000000000E+00 0. -1.
         25    2    1    2    0    0 -0.12646799136E+02  0.52680702742E+02  0.61953048645E+03  0.63435037865E+03  0.12508869368E+03 0.  0.
          5    1    3    3  502    0 -0.55026889991E+02  0.28558001530E+02  0.51718303308E+03  0.52090237106E+03  0.41800000000E+01 0. -1.
         -5    1    3    3    0  502  0.42380090855E+02  0.24122701212E+02  0.10234745336E+03  0.11344800758E+03  0.41800000000E+01 0. -1.
        -11    1    1    2    0    0  0.11366392512E+02  0.22030978493E+02  0.10480559377E+02  0.26914698902E+02  0.00000000000E+00 0. -1.
         11    1    1    2    0    0  0.12804066233E+01 -0.74711681235E+02  0.12839035715E+03  0.14855153504E+03  0.00000000000E+00 0.  1.
</event>
<event>
 7    1  0.2334784E-009  0.1787734E+03  0.7561462E-02  0.1168995E+00
         -1   -1    0    0    0  501 -0.00000000000E+00  0.00000000000E+00  0.78345468385E+02  0.78345468385E+02  0.00000000000E+00 0.  1.
          1   -1    0    0  501    0  0.00000000000E+00 -0.00000000000E+00 -0.43826911422E+03  0.43826911422E+03  0.00000000000E+00 0. -1.
         25    2    1    2    0    0  0.14378235684E+03  0.40021418048E+02 -0.21191038275E+03  0.28779852925E+03  0.12508758164E+03 0.  0.
          5    1    3    3  502    0  0.30892721638E+02  0.60747132027E+02 -0.12963602564E+03  0.14651807344E+03  0.41800000000E+01 0.  1.
         -5    1    3    3    0  502  0.11288963520E+03 -0.20725713979E+02 -0.82274357101E+02  0.14128045581E+03  0.41800000000E+01 0.  1.
        -11    1    1    2    0    0 -0.50278687142E+02  0.29140102673E+02 -0.46055910369E+02  0.74150110212E+02  0.00000000000E+00 0.  1.
         11    1    1    2    0    0 -0.93503669700E+02 -0.69161520721E+02 -0.10195735272E+03  0.15466594315E+03  0.00000000000E+00 0. -1.
</event>
<event>
 7    1  0.2334784E-009  0.7843432E+02  0.7561462E-02  0.1333554E+00
          1   -1    0    0  501    0  0.00000000000E+00  0.00000000000E+00  0.26032217116E+03  0.26032217116E+03  0.00000000000E+00 0. -1.
         -1   -1    0    0    0  501 -0.00000000000E+00 -0.00000000000E+00 -0.64726322657E+02  0.64726322657E+02  0.00000000000E+00 0.  1.
         25    2    1    2    0    0  0.40166581368E+02 -0.22344010313E+02  0.17978198736E+03  0.22378794472E+03  0.12508745807E+03 0.  0.
          5    1    3    3  502    0  0.16124292046E+02 -0.61485517674E+02  0.16248493158E+03  0.17452589225E+03  0.41800000000E+01 0.  1.
         -5    1    3    3    0  502  0.24042289322E+02  0.39141507362E+02  0.17297055785E+02  0.49262052467E+02  0.41800000000E+01 0.  1.
        -11    1    1    2    0    0 -0.33267172623E+02  0.13690873630E+02 -0.34440193796E+02  0.49802326691E+02  0.00000000000E+00 0.  1.
         11    1    1    2    0    0 -0.68994087445E+01  0.86531366827E+01  0.50254054939E+02  0.51458222407E+02  0.00000000000E+00 0. -1.
</event>
<event>
 7    1  0.2334784E-009  0.1354234E+03  0.7561462E-02  0.1219623E+00
         -2   -1    0    0    0  501 -0.00000000000E+00  0.00000000000E+00  0.10298111177E+03  0.10298111177E+03  0.00000000000E+00 0.  1.
          2   -1    0    0  501    0  0.00000000000E+00 -0.00000000000E+00 -0.20005239006E+03  0.20005239006E+03  0.00000000000E+00 0. -1.
         25    2    1    2    0    0  0.44046844055E+01  0.91166197566E+02 -0.59912566080E+02  0.16602154681E+03  0.12507182580E+03 0.  0.
          5    1    3    3  502    0 -0.51259998717E+02  0.36337805884E+02 -0.61136374454E+02  0.87767603854E+02  0.41800000000E+01 0.  1.
         -5    1    3    3    0  502  0.55664683122E+02  0.54828391683E+02  0.12238083741E+01  0.78253942959E+02  0.41800000000E+01 0.  1.
        -11    1    1    2    0    0 -0.45769476585E+02 -0.26563775812E+02 -0.28998992879E+01  0.52998948935E+02  0.00000000000E+00 0.  1.
         11    1    1    2    0    0  0.41364792180E+02 -0.64602421754E+02 -0.34258812921E+02  0.84013006084E+02  0.00000000000E+00 0. -1.
</event>
<event>
 7    1  0.2334784E-009  0.7999175E+02  0.7561462E-02  0.1329075E+00
          1   -1    0    0  501    0  0.00000000000E+00  0.00000000000E+00  0.69234136201E+03  0.69234136201E+03  0.00000000000E+00 0. -1.
         -1   -1    0    0    0  501 -0.00000000000E+00 -0.00000000000E+00 -0.19601958677E+02  0.19601958677E+02  0.00000000000E+00 0.  1.
         25    2    1    2    0    0  0.15108290610E+02  0.39250431871E+02  0.44362042282E+03  0.46283214612E+03  0.12508260907E+03 0.  0.
          5    1    3    3  502    0 -0.17253418433E+02  0.24815365470E+02  0.17406896330E+02  0.35127699197E+02  0.41800000000E+01 0. -1.
         -5    1    3    3    0  502  0.32361709043E+02  0.14435066400E+02  0.42621352649E+03  0.42770444692E+03  0.41800000000E+01 0. -1.
        -11    1    1    2    0    0 -0.47197466131E+02 -0.59925988965E+01  0.80881204624E+02  0.93836460463E+02  0.00000000000E+00 0.  1.
         11    1    1    2    0    0  0.32089175521E+02 -0.33257832974E+02  0.14823777589E+03  0.15527471411E+03  0.00000000000E+00 0. -1.
</event>
<event>
 7    1  0.2334784E-009  0.2237520E+03  0.7561462E-02  0.1131116E+00
         -2   -1    0    0    0  501 -0.00000000000E+00  0.00000000000E+00  0.92361790436E+02  0.92361790436E+02  0.00000000000E+00 0.  1.
          2   -1    0    0  501    0  0.00000000000E+00 -0.00000000000E+00 -0.56017338976E+03  0.56017338976E+03  0.00000000000E+00 0. -1.
         25    2    1    2    0    0  0.14147889327E+03  0.13714573400E+03 -0.29010367484E+03  0.37234594448E+03  0.12512446053E+03 0.  0.
          5    1    3    3  502    0 -0.23041560206E+02  0.11022771763E+02 -0.37053664411E+02  0.45198024739E+02  0.41800000000E+01 0.  1.
         -5    1    3    3    0  502  0.16452045347E+03  0.12612296224E+03 -0.25305001043E+03  0.32714791974E+03  0.41800000000E+01 0.  1.
        -11    1    1    2    0    0 -0.60183263678E+02 -0.11535809677E+03 -0.87403630856E+02  0.15674473007E+03  0.00000000000E+00 0.  1.
         11    1    1    2    0    0 -0.81295629588E+02 -0.21787637236E+02 -0.90304293623E+02  0.12344450564E+03  0.00000000000E+00 0. -1.
</event>
<event>
 7    1  0.2334784E-009  0.1337548E+03  0.7561462E-02  0.1221988E+00
         -1   -1    0    0    0  501 -0.00000000000E+00  0.00000000000E+00  0.55967977885E+02  0.55967977885E+02  0.00000000000E+00 0.  1.
          1   -1    0    0  501    0  0.00000000000E+00 -0.00000000000E+00 -0.34998735202E+03  0.34998735202E+03  0.00000000000E+00 0. -1.
         25    2    1    2    0    0 -0.46455036453E+02 -0.62701019402E+02 -0.21442370688E+03  0.26022028863E+03  0.12509030455E+03 0.  0.
          5    1    3    3  502    0  0.41664989377E+02 -0.54420587967E+01 -0.58834166239E+02  0.72419050400E+02  0.41800000000E+01 0.  1.
         -5    1    3    3    0  502 -0.88120025830E+02 -0.57258960605E+02 -0.15558954064E+03  0.18780123823E+03  0.41800000000E+01 0.  1.
        -11    1    1    2    0    0  0.44638664034E+02  0.85918612818E+02 -0.52982657597E+02  0.11037110293E+03  0.00000000000E+00 0.  1.
         11    1    1    2    0    0  0.18163724194E+01 -0.23217593416E+02 -0.26613009656E+02  0.35363938352E+02  0.00000000000E+00 0. -1.
</event>
<event>
 7    1  0.2334784E-009  0.1441153E+03  0.7561462E-02  0.1207896E+00
         -2   -1    0    0    0  501 -0.00000000000E+00  0.00000000000E+00  0.19811638350E+03  0.19811638350E+03  0.00000000000E+00 0.  1.
          2   -1    0    0  501    0  0.00000000000E+00 -0.00000000000E+00 -0.14675690387E+03  0.14675690387E+03  0.00000000000E+00 0. -1.
         25    2    1    2    0    0  0.43342544288E+02  0.10876652069E+03  0.86311336185E+02  0.19185277668E+03  0.12509639883E+03 0.  0.
          5    1    3    3  502    0 -0.43382567908E+02  0.27019089270E+02  0.34661535305E+02  0.61894852880E+02  0.41800000000E+01 0. -1.
         -5    1    3    3    0  502  0.86725112196E+02  0.81747431418E+02  0.51649800880E+02  0.12995792381E+03  0.41800000000E+01 0. -1.
        -11    1    1    2    0    0 -0.10605761846E+02 -0.42267218030E+02 -0.60552844164E+02  0.74603262936E+02  0.00000000000E+00 0. -1.
         11    1    1    2    0    0 -0.32736782442E+02 -0.66499302658E+02  0.25600987605E+02  0.78417247752E+02  0.00000000000E+00 0.  1.
</event>
<event>
 7    1  0.2334784E-009  0.1410929E+03  0.7561462E-02  0.1211866E+00
         -3   -1    0    0    0  501 -0.00000000000E+00  0.00000000000E+00  0.27608523582E+03  0.27608523582E+03  0.00000000000E+00 0.  1.
          3   -1    0    0  501    0  0.00000000000E+00 -0.00000000000E+00 -0.74984033600E+02  0.74984033600E+02  0.00000000000E+00 0. -1.
         25    2    1    2    0    0  0.79785333187E+02  0.48547205734E+02  0.96713032726E+02  0.18363921816E+03  0.12508965253E+03 0.  0.
          5    1    3    3  502    0  0.64402258355E+02  0.89009061454E+02  0.83906100183E+02  0.13830390432E+03  0.41800000000E+01 0.  1.
         -5    1    3    3    0  502  0.15383074832E+02 -0.40461855720E+02  0.12806932544E+02  0.45335313838E+02  0.41800000000E+01 0.  1.
        -11    1    1    2    0    0 -0.71872459299E+02  0.73966709202E+01  0.43365621994E+02  0.84267065437E+02  0.00000000000E+00 0.  1.
         11    1    1    2    0    0 -0.79128738878E+01 -0.55943876654E+02  0.61022547504E+02  0.83162985830E+02  0.00000000000E+00 0. -1.
</event>
<event>
 7    1  0.2334784E-009  0.1616612E+03  0.7561462E-02  0.1186834E+00
          1   -1    0    0  501    0  0.00000000000E+00  0.00000000000E+00  0.49924711196E+02  0.49924711196E+02  0.00000000000E+00 0. -1.
         -1   -1    0    0    0  501 -0.00000000000E+00 -0.00000000000E+00 -0.58270249470E+03  0.58270249470E+03  0.00000000000E+00 0.  1.
         25    2    1    2    0    0 -0.12284629800E+03  0.35248964840E+02 -0.23049098237E+03  0.29171070677E+03  0.12504135729E+03 0.  0.
          5    1    3    3  502    0 -0.11126255830E+03 -0.22783358718E+02 -0.18430314490E+03  0.21652611836E+03  0.41800000000E+01 0.  1.
         -5    1    3    3    0  502 -0.11583739702E+02  0.58032323558E+02 -0.46187837477E+02  0.75184588406E+02  0.41800000000E+01 0.  1.
        -11    1    1    2    0    0  0.63221874025E+02  0.22729597771E+02 -0.85589451890E+02  0.10880806149E+03  0.00000000000E+00 0. -1.
         11    1    1    2    0    0  0.59624423972E+02 -0.57978562610E+02 -0.21669734924E+03  0.23210843764E+03  0.00000000000E+00 0.  1.
</event>
<event>
 7    1  0.2334784E-009  0.8826120E+02  0.7561462E-02  0.1307118E+00
         -2   -1    0    0    0  501 -0.00000000000E+00  0.00000000000E+00  0.27916378438E+02  0.27916378438E+02  0.00000000000E+00 0.  1.
          2   -1    0    0  501    0  0.00000000000E+00 -0.00000000000E+00 -0.55766330897E+03  0.55766330897E+03  0.00000000000E+00 0. -1.
         25    2    1    2    0    0  0.41153607055E+02  0.26622718849E+02 -0.20815252327E+03  0.24774385970E+03  0.12508860277E+03 0.  0.
          5    1    3    3  502    0 -0.95646556920E+01  0.35913418554E+02 -0.18886740003E+03  0.19253473314E+03  0.41800000000E+01 0. -1.
         -5    1    3    3    0  502  0.50718262747E+02 -0.92906997052E+01 -0.19285123237E+02  0.55209126558E+02  0.41800000000E+01 0. -1.
        -11    1    1    2    0    0  0.14261458024E+02  0.12976690919E+02 -0.16956714774E+02  0.25677107861E+02  0.00000000000E+00 0.  1.
         11    1    1    2    0    0 -0.55415065079E+02 -0.39599409768E+02 -0.30463769249E+03  0.31215871985E+03  0.00000000000E+00 0. -1.
</event>
<event>
 7    1  0.2334784E-009  0.1618538E+03  0.7561462E-02  0.1186620E+00
         -1   -1    0    0    0  501 -0.00000000000E+00  0.00000000000E+00  0.10692844259E+03  0.10692844259E+03  0.00000000000E+00 0.  1.
          1   -1    0    0  501    0  0.00000000000E+00 -0.00000000000E+00 -0.27026147658E+03  0.27026147658E+03  0.00000000000E+00 0. -1.
         25    2    1    2    0    0 -0.12614847019E+03  0.30017353948E+02 -0.10329320187E+03  0.20767994387E+03  0.12508795092E+03 0.  0.
          5    1    3    3  502    0 -0.13116465539E+03 -0.16392214998E+02 -0.85850647157E+02  0.15767269121E+03  0.41800000000E+01 0. -1.
         -5    1    3    3    0  502  0.50161852007E+01  0.46409568947E+02 -0.17442554708E+02  0.50007252659E+02  0.41800000000E+01 0. -1.
        -11    1    1    2    0    0  0.94760272485E+02 -0.50236615723E+02 -0.73278062651E+02  0.12989573229E+03  0.00000000000E+00 0. -1.
         11    1    1    2    0    0  0.31388197705E+02  0.20219261774E+02  0.13238230529E+02  0.39614243012E+02  0.00000000000E+00 0.  1.
</event>
<event>
 7    1  0.2334784E-009  0.9223048E+02  0.7561462E-02  0.1297538E+00
         -2   -1    0    0    0  501 -0.00000000000E+00  0.00000000000E+00  0.14968743110E+03  0.14968743110E+03  0.00000000000E+00 0.  1.
          2   -1    0    0  501    0  0.00000000000E+00 -0.00000000000E+00 -0.21526113127E+03  0.21526113127E+03  0.00000000000E+00 0. -1.
         25    2    1    2    0    0  0.52032936760E+02 -0.62144612382E+02 -0.15344960602E+03  0.21392420001E+03  0.12508957752E+03 0.  0.
          5    1    3    3  502    0  0.12563721835E+02 -0.22913238733E+01  0.21191602864E+02  0.25092901454E+02  0.41800000000E+01 0.  1.
         -5    1    3    3    0  502  0.39469214925E+02 -0.59853288508E+02 -0.17464120889E+03  0.18883129856E+03  0.41800000000E+01 0.  1.
        -11    1    1    2    0    0 -0.78186867740E+01 -0.11144089091E+02  0.59216109013E+02  0.60760761608E+02  0.00000000000E+00 0.  1.
         11    1    1    2    0    0 -0.44214249986E+02  0.73288701473E+02  0.28659796842E+02  0.90263600750E+02  0.00000000000E+00 0. -1.
</event>
<event>
 7    1  0.2334784E-009  0.1265663E+03  0.7561462E-02  0.1232641E+00
          2   -1    0    0  501    0  0.00000000000E+00  0.00000000000E+00  0.24979934521E+03  0.24979934521E+03  0.00000000000E+00 0. -1.
         -2   -1    0    0    0  501 -0.00000000000E+00 -0.00000000000E+00 -0.65464739689E+02  0.65464739689E+02  0.00000000000E+00 0.  1.
         25    2    1    2    0    0  0.21243263598E+02 -0.70334174242E+02  0.95808056293E+02  0.17385222259E+03  0.12508892570E+03 0.  0.
          5    1    3    3  502    0  0.35906141646E+02 -0.10226457306E+03  0.81554977958E+02  0.13570549267E+03  0.41800000000E+01 0. -1.
         -5    1    3    3    0  502 -0.14662878048E+02  0.31930398819E+02  0.14253078335E+02  0.38146729918E+02  0.41800000000E+01 0. -1.
        -11    1    1    2    0    0 -0.92207440707E+01 -0.17952353432E+02  0.94656365427E+01  0.22291419652E+02  0.00000000000E+00 0.  1.
         11    1    1    2    0    0 -0.12022519527E+02  0.88286527673E+02  0.79060912683E+02  0.11912044266E+03  0.00000000000E+00 0. -1.
</event>
<event>
 7    1  0.2334784E-009  0.1979371E+03  0.7561462E-02  0.1151491E+00
         -2   -1    0    0    0  501 -0.00000000000E+00  0.00000000000E+00  0.73080810845E+02  0.73080810845E+02  0.00000000000E+00 0.  1.
          2   -1    0    0  501    0  0.00000000000E+00 -0.00000000000E+00 -0.56050634747E+03  0.56050634747E+03  0.00000000000E+00 0. -1.
         25    2    1    2    0    0  0.53764066332E+02 -0.16107999441E+03 -0.28015346493E+03  0.35067255178E+03  0.12509170729E+03 0.  0.
          5    1    3    3  502    0  0.62204450383E+02 -0.17952707108E+03 -0.24839942198E+03  0.31276046447E+03  0.41800000000E+01 0.  1.
         -5    1    3    3    0  502 -0.84403840513E+01  0.18447076665E+02 -0.31754042952E+02  0.37912087310E+02  0.41800000000E+01 0.  1.
        -11    1    1    2    0    0 -0.41364188258E+02  0.24705749074E+02 -0.92274518286E+02  0.10409590209E+03  0.00000000000E+00 0. -1.
         11    1    1    2    0    0 -0.12399878074E+02  0.13637424534E+03 -0.11499755341E+03  0.17881870444E+03  0.00000000000E+00 0.  1.
</event>
<event>
 7    1  0.2334784E-009  0.6829506E+02  0.7561462E-02  0.1365989E+00
          2   -1    0    0  501    0  0.00000000000E+00  0.00000000000E+00  0.13226490491E+04  0.13226490491E+04  0.00000000000E+00 0.  1.
         -2   -1    0    0    0  501 -0.00000000000E+00 -0.00000000000E+00 -0.12503243417E+02  0.12503243417E+02  0.00000000000E+00 0. -1.
         25    2    1    2    0    0 -0.31321045466E+02  0.77226560863E+01  0.10379187226E+04  0.10459268327E+04  0.12508803828E+03 0.  0.
          5    1    3    3  502    0 -0.37104227854E+02  0.10682000457E+02  0.10374616795E+04  0.10381883441E+04  0.41800000000E+01 0.  1.
         -5    1    3    3    0  502  0.57831823876E+01 -0.29593443706E+01  0.45704305102E+00  0.77384886110E+01  0.41800000000E+01 0.  1.
        -11    1    1    2    0    0  0.46316697011E+02  0.26004645139E+02  0.21229228330E+03  0.21883667778E+03  0.00000000000E+00 0. -1.
         11    1    1    2    0    0 -0.14995651545E+02 -0.33727301225E+02  0.59934799790E+02  0.70388782054E+02  0.00000000000E+00 0.  1.
</event>
<event>
 7    1  0.2334784E-009  0.6755529E+02  0.7561462E-02  0.1368609E+00
          3   -1    0    0  501    0  0.00000000000E+00  0.00000000000E+00  0.97118718134E+02  0.97118718134E+02  0.00000000000E+00 0. -1.
         -3   -1    0    0    0  501 -0.00000000000E+00 -0.00000000000E+00 -0.14662124029E+03  0.14662124029E+03  0.00000000000E+00 0.  1.
         25    2    1    2    0    0 -0.18670750289E+02 -0.59603677774E+01  0.22229358317E+02  0.12855093331E+03  0.12508826957E+03 0.  0.
          5    1    3    3  502    0 -0.61765354433E+01  0.45573801685E+02  0.50402143404E+02  0.68359121190E+02  0.41800000000E+01 0.  1.
         -5    1    3    3    0  502 -0.12494214846E+02 -0.51534169462E+02 -0.28172785088E+02  0.60191812121E+02  0.41800000000E+01 0.  1.
        -11    1    1    2    0    0  0.42284619549E+01  0.17026985558E+02 -0.88634774720E+02  0.90354421128E+02  0.00000000000E+00 0.  1.
         11    1    1    2    0    0  0.14442288334E+02 -0.11066617780E+02  0.16902894245E+02  0.24834603989E+02  0.00000000000E+00 0. -1.
</event>
<event>
 7    1  0.2334784E-009  0.1400641E+03  0.7561462E-02  0.1213243E+00
          1   -1    0    0  501    0  0.00000000000E+00  0.00000000000E+00  0.84151265666E+03  0.84151265666E+03  0.00000000000E+00 0. -1.
         -1   -1    0    0    0  501 -0.00000000000E+00 -0.00000000000E+00 -0.38418760275E+02  0.38418760275E+02  0.00000000000E+00 0.  1.
         25    2    1    2    0    0  0.13583354877E+03  0.26337690230E+02  0.51186387623E+03  0.54479030951E+03  0.12508967445E+03 0.  0.
          5    1    3    3  502    0  0.15634726481E+02  0.12773406453E+02  0.30064515624E+03  0.30135126838E+03  0.41800000000E+01 0. -1.
         -5    1    3    3    0  502  0.12019882229E+03  0.13564283778E+02  0.21121871999E+03  0.24343904114E+03  0.41800000000E+01 0. -1.
        -11    1    1    2    0    0 -0.83145856849E+02 -0.13333694385E+02  0.25826086611E+03  0.27164258849E+03  0.00000000000E+00 0. -1.
         11    1    1    2    0    0 -0.52687691923E+02 -0.13003995845E+02  0.32969154050E+02  0.63498518935E+02  0.00000000000E+00 0.  1.
</event>
<event>
 7    1  0.2334784E-009  0.9109647E+02  0.7561462E-02  0.1300218E+00
         -1   -1    0    0    0  501 -0.00000000000E+00  0.00000000000E+00  0.23641283879E+02  0.23641283879E+02  0.00000000000E+00 0.  1.
          1   -1    0    0  501    0  0.00000000000E+00 -0.00000000000E+00 -0.57753088641E+03  0.57753088641E+03  0.00000000000E+00 0. -1.
         25    2    1    2    0    0 -0.30307627697E+02  0.24914950671E+02 -0.23303633225E+03  0.26738043914E+03  0.12508820897E+03 0.  0.
          5    1    3    3  502    0 -0.41984171193E+02 -0.20925653525E+02 -0.23695853349E+02  0.52721148244E+02  0.41800000000E+01 0. -1.
         -5    1    3    3    0  502  0.11676543496E+02  0.45840604197E+02 -0.20934047890E+03  0.21465929090E+03  0.41800000000E+01 0. -1.
        -11    1    1    2    0    0  0.54137354124E+02 -0.31822711131E+02 -0.27002827551E+03  0.27723421078E+03  0.00000000000E+00 0. -1.
         11    1    1    2    0    0 -0.23829726426E+02  0.69077604601E+01 -0.50824994772E+02  0.56557520364E+02  0.00000000000E+00 0.  1.
</event>
<event>
 7    1  0.2334784E-009  0.1116480E+03  0.7561462E-02  0.1257548E+00
          1   -1    0    0  501    0  0.00000000000E+00  0.00000000000E+00  0.14279835664E+04  0.14279835664E+04  0.00000000000E+00 0. -1.
         -1   -1    0    0    0  501 -0.00000000000E+00 -0.00000000000E+00 -0.12845931340E+02  0.12845931340E+02  0.00000000000E+00 0.  1.
         25    2    1    2    0    0 -0.45591162199E+02 -0.38943504256E+02  0.10644103777E+04  0.10734114644E+04  0.12509024398E+03 0.  0.
          5    1    3    3  502    0 -0.77061677974E+02 -0.49979469915E+02  0.94180949622E+03  0.94628698036E+03  0.41800000000E+01 0.  1.
         -5    1    3    3    0  502  0.31470515776E+02  0.11035965658E+02  0.12260088147E+03  0.12712448403E+03  0.41800000000E+01 0.  1.
        -11    1    1    2    0    0  0.65648820983E+01  0.55108939774E+02  0.11215870281E+03  0.12513859331E+03  0.00000000000E+00 0.  1.
         11    1    1    2    0    0  0.39026280100E+02 -0.16165435517E+02  0.23856855455E+03  0.24227944004E+03  0.00000000000E+00 0. -1.
</event>
<event>
 7    1  0.2334784E-009  0.1022562E+03  0.7561462E-02  0.1275622E+00
          2   -1    0    0  501    0  0.00000000000E+00  0.00000000000E+00  0.33263057221E+03  0.33263057221E+03  0.00000000000E+00 0.  1.
         -2   -1    0    0    0  501 -0.00000000000E+00 -0.00000000000E+00 -0.95701894613E+02  0.95701894613E+02  0.00000000000E+00 0. -1.
         25    2    1    2    0    0  0.99579612435E+01 -0.13004477195E+01 -0.43501362608E+02  0.13281881614E+03  0.12509043614E+03 0.  0.
          5    1    3    3  502    0  0.60127848280E+02 -0.19046249876E+02  0.11574984704E+01  0.63221277873E+02  0.41800000000E+01 0.  1.
         -5    1    3    3    0  502 -0.50169887037E+02  0.17745802157E+02 -0.44658861078E+02  0.69597538263E+02  0.41800000000E+01 0.  1.
        -11    1    1    2    0    0  0.34684876393E+02 -0.18241630529E+02  0.77887666278E+02  0.87191090675E+02  0.00000000000E+00 0. -1.
         11    1    1    2    0    0 -0.44642837637E+02  0.19542078248E+02  0.20254237393E+03  0.20832256001E+03  0.00000000000E+00 0.  1.
</event>
<event>
 7    1  0.2334784E-009  0.1355999E+03  0.7561462E-02  0.1219375E+00
          2   -1    0    0  501    0  0.00000000000E+00  0.00000000000E+00  0.71901869978E+03  0.71901869978E+03  0.00000000000E+00 0. -1.
         -2   -1    0    0    0  501 -0.00000000000E+00 -0.00000000000E+00 -0.54365177927E+02  0.54365177927E+02  0.00000000000E+00 0.  1.
         25    2    1    2    0    0 -0.41087156614E+02 -0.11608206839E+03  0.56907748414E+03  0.59553293154E+03  0.12508832298E+03 0.  0.
          5    1    3    3  502    0  0.21005004561E+02 -0.39277237859E+02  0.37569718261E+03  0.37835136719E+03  0.41800000000E+01 0.  1.
         -5    1    3    3    0  502 -0.62092161175E+02 -0.76804830530E+02  0.19338030153E+03  0.21718156435E+03  0.41800000000E+01 0.  1.
        -11    1    1    2    0    0  0.33106508222E+02  0.43878691628E+02  0.89399244546E+02  0.10494572593E+03  0.00000000000E+00 0. -1.
         11    1    1    2    0    0  0.79806483925E+01  0.72203376761E+02  0.61767931619E+01  0.72905220240E+02  0.00000000000E+00 0.  1.
</event>
<event>
 6    1  0.2334784E-009  0.8803913E+02  0.7561462E-02  0.1307671E+00
          2   -1    0    0  501    0  0.00000000000E+00  0.00000000000E+00  0.75070855995E+03  0.75070855995E+03  0.00000000000E+00 0. -1.
         -2   -1    0    0    0  501 -0.00000000000E+00 -0.00000000000E+00 -0.17974376003E+02  0.17974376003E+02  0.00000000000E+00 0.  1.
          5    1    1    2  502    0  0.55654282957E+02  0.12757339642E+01  0.36897783089E+03  0.37317708772E+03  0.41800000000E+01 0. -1.
         -5    1    1    2    0  502 -0.21867532593E+02 -0.23458085090E+01  0.52078792085E+01  0.22984477482E+02  0.41800000000E+01 0. -1.
        -11    1    1    2    0    0  0.31949333037E+02 -0.23921228617E+01  0.77390980148E+02  0.83760646735E+02  0.00000000000E+00 0.  1.
         11    1    1    2    0    0 -0.65736083400E+02  0.34621974064E+01  0.28115749370E+03  0.28876072402E+03  0.00000000000E+00 0. -1.
</event>
<event>
 7    1  0.2334784E-009  0.1945681E+03  0.7561462E-02  0.1154405E+00
         -1   -1    0    0    0  501 -0.00000000000E+00  0.00000000000E+00  0.83653829956E+03  0.83653829956E+03  0.00000000000E+00 0.  1.
          1   -1    0    0  501    0  0.00000000000E+00 -0.00000000000E+00 -0.56554050170E+02  0.56554050170E+02  0.00000000000E+00 0. -1.
         25    2    1    2    0    0  0.13999571573E+03 -0.88366319416E+02  0.58603633256E+03  0.62168601491E+03  0.12509001254E+03 0.  0.
          5    1    3    3  502    0  0.12200127647E+03 -0.11581564114E+03  0.53521024612E+03  0.56103926257E+03  0.41800000000E+01 0. -1.
         -5    1    3    3    0  502  0.17994439262E+02  0.27449321728E+02  0.50826086436E+02  0.60646752346E+02  0.41800000000E+01 0. -1.
        -11    1    1    2    0    0 -0.15130229911E+02 -0.18166971947E+02  0.39466449147E+02  0.46006122801E+02  0.00000000000E+00 0.  1.
         11    1    1    2    0    0 -0.12486548582E+03  0.10653329136E+03  0.15448146769E+03  0.22540021201E+03  0.00000000000E+00 0. -1.
</event>
<event>
 7    1  0.2334784E-009  0.2063095E+03  0.7561462E-02  0.1144522E+00
         -2   -1    0    0    0  501 -0.00000000000E+00  0.00000000000E+00  0.41246617643E+02  0.41246617643E+02  0.00000000000E+00 0.  1.
          2   -1    0    0  501    0  0.00000000000E+00 -0.00000000000E+00 -0.12403139275E+04  0.12403139275E+04  0.00000000000E+00 0. -1.
         25    2    1    2    0    0  0.15619897857E+02  0.19678689777E+03 -0.68224969003E+03  0.72116751968E+03  0.12509551370E+03 0.  0.
          5    1    3    3  502    0 -0.39059231665E+01  0.10859450731E+03 -0.17584811838E+03  0.20675603109E+03  0.41800000000E+01 0. -1.
         -5    1    3    3    0  502  0.19525821023E+02  0.88192390463E+02 -0.50640157166E+03  0.51441148860E+03  0.41800000000E+01 0. -1.
        -11    1    1    2    0    0  0.31338585290E+02 -0.11444686494E+03 -0.23871883295E+03  0.26658370735E+03  0.00000000000E+00 0. -1.
         11    1    1    2    0    0 -0.46958483147E+02 -0.82340032837E+02 -0.27809878691E+03  0.29380931815E+03  0.00000000000E+00 0.  1.
</event>
<event>
 7    1  0.2334784E-009  0.1457515E+03  0.7561462E-02  0.1205793E+00
          1   -1    0    0  501    0  0.00000000000E+00  0.00000000000E+00  0.84429338383E+03  0.84429338383E+03  0.00000000000E+00 0. -1.
         -1   -1    0    0    0  501 -0.00000000000E+00 -0.00000000000E+00 -0.28028598357E+02  0.28028598357E+02  0.00000000000E+00 0.  1.
         25    2    1    2    0    0 -0.10163607105E+03  0.40003304488E+02  0.48002483038E+03  0.50794025613E+03  0.12509720505E+03 0.  0.
          5    1    3    3  502    0 -0.53758138538E+01  0.61322996467E+02  0.12414475582E+03  0.13863189412E+03  0.41800000000E+01 0.  1.
         -5    1    3    3    0  502 -0.96260257197E+02 -0.21319691980E+02  0.35588007456E+03  0.36930836201E+03  0.41800000000E+01 0.  1.
        -11    1    1    2    0    0  0.76264840841E+02  0.81440360806E+01  0.12866571852E+03  0.14979158319E+03  0.00000000000E+00 0. -1.
         11    1    1    2    0    0  0.25371230210E+02 -0.48147340568E+02  0.20757423658E+03  0.21459014287E+03  0.00000000000E+00 0.  1.
</event>
<event>
 7    1  0.2334784E-009  0.1099046E+03  0.7561462E-02  0.1260747E+00
         -2   -1    0    0    0  501 -0.00000000000E+00  0.00000000000E+00  0.45545719946E+02  0.45545719946E+02  0.00000000000E+00 0.  1.
          2   -1    0    0  501    0  0.00000000000E+00 -0.00000000000E+00 -0.38831928151E+03  0.38831928151E+03  0.00000000000E+00 0. -1.
         25    2    1    2    0    0  0.84437367553E+01  0.67963006330E+02 -0.12473126095E+03  0.18945795867E+03  0.12508462625E+03 0.  0.
          5    1    3    3  502    0 -0.44719215168E+02 -0.24192649086E+01 -0.76755320208E+02  0.88963546625E+02  0.41800000000E+01 0. -1.
         -5    1    3    3    0  502  0.53162951923E+02  0.70382271238E+02 -0.47975940747E+02  0.10049441205E+03  0.41800000000E+01 0. -1.
        -11    1    1    2    0    0  0.44188769026E+01 -0.72689211231E+02 -0.21888140520E+03  0.23067795180E+03  0.00000000000E+00 0. -1.
         11    1    1    2    0    0 -0.12862613658E+02  0.47262049011E+01  0.83910459074E+00  0.13729090989E+02  0.00000000000E+00 0.  1.
</event>
<event>
 7    1  0.2334784E-009  0.2734040E+03  0.7561462E-02  0.1099347E+00
          1   -1    0    0  501    0  0.00000000000E+00  0.00000000000E+00  0.95822270555E+03  0.95822270555E+03  0.00000000000E+00 0. -1.
         -1   -1    0    0    0  501 -0.00000000000E+00 -0.00000000000E+00 -0.17729361160E+03  0.17729361160E+03  0.00000000000E+00 0.  1.
         25    2    1    2    0    0 -0.25028824663E+03  0.78636648328E+02  0.80607898384E+03  0.85687729202E+03  0.12508971397E+03 0.  0.
          5    1    3    3  502    0 -0.20537111759E+03  0.18610756130E+02  0.48314507967E+03  0.52532875097E+03  0.41800000000E+01 0. -1.
         -5    1    3    3    0  502 -0.44917129033E+02  0.60025892199E+02  0.32293390417E+03  0.33154854105E+03  0.41800000000E+01 0. -1.
        -11    1    1    2    0    0  0.14149779655E+03 -0.65373700424E+02  0.25436877898E+02  0.15793157345E+03  0.00000000000E+00 0. -1.
         11    1    1    2    0    0  0.10879045008E+03 -0.13262947904E+02 -0.50586767785E+02  0.12070745168E+03  0.00000000000E+00 0.  1.
</event>
<event>
 7    1  0.2334784E-009  0.9443063E+02  0.7561462E-02  0.1292464E+00
          1   -1    0    0  501    0  0.00000000000E+00  0.00000000000E+00  0.38669286944E+03  0.38669286944E+03  0.00000000000E+00 0. -1.
         -1   -1    0    0    0  501 -0.00000000000E+00 -0.00000000000E+00 -0.31614578265E+02  0.31614578265E+02  0.00000000000E+00 0.  1.
         25    2    1    2    0    0  0.16483445074E+02  0.20184619340E+02  0.20714948677E+03  0.24339240971E+03  0.12509929023E+03 0.  0.
          5    1    3    3  502    0 -0.56353283211E+00 -0.37352457019E+02  0.16674111951E+03  0.17092570593E+03  0.41800000000E+01 0. -1.
         -5    1    3    3    0  502  0.17046977906E+02  0.57537076359E+02  0.40408367263E+02  0.72466703779E+02  0.41800000000E+01 0. -1.
        -11    1    1    2    0    0 -0.21796685304E+01  0.34511985373E+02  0.38539121278E+02  0.51779261854E+02  0.00000000000E+00 0.  1.
         11    1    1    2    0    0 -0.14303776544E+02 -0.54696604713E+02  0.10938968313E+03  0.12313577614E+03  0.00000000000E+00 0. -1.
</event>
<event>
 7    1  0.2334784E-009  0.1519008E+03  0.7561462E-02  0.1198157E+00
          1   -1    0    0  501    0  0.00000000000E+00  0.00000000000E+00  0.12860846797E+03  0.12860846797E+03  0.00000000000E+00 0. -1.
         -1   -1    0    0    0  501 -0.00000000000E+00 -0.00000000000E+00 -0.21364100109E+03  0.21364100109E+03  0.00000000000E+00 0.  1.
         25    2    1    2    0    0  0.34118123552E+02 -0.10388859158E+03  0.16057862954E+02  0.16692297189E+03  0.12509411563E+03 0.  0.
          5    1    3    3  502    0 -0.44265072645E+02 -0.31145186259E+02 -0.13418487579E+02  0.55919115625E+02  0.41800000000E+01 0.  1.
         -5    1    3    3    0  502  0.78383196198E+02 -0.72743405323E+02  0.29476350533E+02  0.11100385626E+03  0.41800000000E+01 0.  1.
        -11    1    1    2    0    0 -0.47312664170E+02  0.10866619651E+02 -0.26105449807E+02  0.55118654946E+02  0.00000000000E+00 0.  1.
         11    1    1    2    0    0  0.13194540617E+02  0.93021971931E+02 -0.74984946268E+02  0.12020784222E+03  0.00000000000E+00 0. -1.
</event>
<event>
 7    1  0.2334784E-009  0.8692392E+02  0.7561462E-02  0.1310477E+00
         -4   -1    0    0    0  501 -0.00000000000E+00  0.00000000000E+00  0.50275855996E+02  0.50275855996E+02  0.00000000000E+00 0.  1.
          4   -1    0    0  501    0  0.00000000000E+00 -0.00000000000E+00 -0.31673189201E+03  0.31673189201E+03  0.00000000000E+00 0. -1.
         25    2    1    2    0    0  0.38547223487E+02  0.30821699946E+02 -0.88053942062E+02  0.16073643387E+03  0.12508732484E+03 0.  0.
          5    1    3    3  502    0 -0.23233546750E+02  0.25665101671E+02  0.16913864942E+02  0.38756242924E+02  0.41800000000E+01 0.  1.
         -5    1    3    3    0  502  0.61780770237E+02  0.51565982757E+01 -0.10496780700E+03  0.12198019095E+03  0.41800000000E+01 0.  1.
        -11    1    1    2    0    0 -0.70988481184E+01 -0.42653570676E+02 -0.26537899383E+02  0.50734414747E+02  0.00000000000E+00 0.  1.
         11    1    1    2    0    0 -0.31448375369E+02  0.11831870729E+02 -0.15186419457E+03  0.15553689939E+03  0.00000000000E+00 0. -1.
</event>
<event>
 7    1  0.2334784E-009  0.1150690E+03  0.7561462E-02  0.1251461E+00
         -2   -1    0    0    0  501 -0.00000000000E+00  0.00000000000E+00  0.20931102621E+03  0.20931102621E+03  0.00000000000E+00 0.  1.
          2   -1    0    0  501    0  0.00000000000E+00 -0.00000000000E+00 -0.69968168040E+02  0.69968168040E+02  0.00000000000E+00 0. -1.
         25    2    1    2    0    0  0.41398316798E+02 -0.12137102104E+02  0.41219505058E+02  0.13859165030E+03  0.12508983994E+03 0.  0.
          5    1    3    3  502    0 -0.12101468484E+02  0.47442902758E+02  0.16307559472E+01  0.49167126483E+02  0.41800000000E+01 0.  1.
         -5    1    3    3    0  502  0.53499785282E+02 -0.59580004862E+02  0.39588749111E+02  0.89424523821E+02  0.41800000000E+01 0.  1.
        -11    1    1    2    0    0 -0.44569666853E+02 -0.33068280497E+02  0.54820243191E+02  0.78007855002E+02  0.00000000000E+00 0. -1.
         11    1    1    2    0    0  0.31713500555E+01  0.45205382601E+02  0.43303109921E+02  0.62679688944E+02  0.00000000000E+00 0.  1.
</event>
<event>
 7    1  0.2334784E-009  0.1432334E+03  0.7561462E-02  0.1209043E+00
          2   -1    0    0  501    0  0.00000000000E+00  0.00000000000E+00  0.72630840048E+03  0.72630840048E+03  0.00000000000E+00 0.  1.
         -2   -1    0    0    0  501 -0.00000000000E+00 -0.00000000000E+00 -0.41256525537E+02  0.41256525537E+02  0.00000000000E+00 0. -1.
         25    2    1    2    0    0  0.55706014453E+02  0.12327240693E+03  0.35394163590E+03  0.39902582884E+03  0.12509070352E+03 0.  0.
          5    1    3    3  502    0  0.46525813461E+02  0.10649706015E+03  0.36017443174E+03  0.37848298353E+03  0.41800000000E+01 0.  1.
         -5    1    3    3    0  502  0.91802009917E+01  0.16775346775E+02 -0.62327958440E+01  0.20542845316E+02  0.41800000000E+01 0.  1.
        -11    1    1    2    0    0  0.14312006746E+02 -0.10089851176E+02  0.10270812542E+03  0.10419019945E+03  0.00000000000E+00 0.  1.
         11    1    1    2    0    0 -0.70018021198E+02 -0.11318255575E+03  0.22840211363E+03  0.26434889772E+03  0.00000000000E+00 0. -1.
</event>
<event>
 7    1  0.2334784E-009  0.1039652E+03  0.7561462E-02  0.1272172E+00
         -2   -1    0    0    0  501 -0.00000000000E+00  0.00000000000E+00  0.29555998658E+03  0.29555998658E+03  0.00000000000E+00 0. -1.
          2   -1    0    0  501    0  0.00000000000E+00 -0.00000000000E+00 -0.74219134200E+02  0.74219134200E+02  0.00000000000E+00 0.  1.
         25    2    1    2    0    0 -0.45502837494E+02 -0.50431155384E+02  0.21775150077E+03  0.26014777692E+03  0.12508932848E+03 0.  0.
          5    1    3    3  502    0 -0.76977910586E+02 -0.68761684652E+02  0.13807770758E+03  0.17244330583E+03  0.41800000000E+01 0. -1.
         -5    1    3    3    0  502  0.31475073092E+02  0.18330529268E+02  0.79673793185E+02  0.87704471094E+02  0.41800000000E+01 0. -1.
        -11    1    1    2    0    0  0.33201779686E+02  0.38329258902E+02 -0.38808724322E+02  0.63856145717E+02  0.00000000000E+00 0.  1.
         11    1    1    2    0    0  0.12301057808E+02  0.12101896483E+02  0.42398075937E+02  0.45775198141E+02  0.00000000000E+00 0. -1.
</event>
<event>
 7    1  0.2334784E-009  0.1057572E+03  0.7561462E-02  0.1268635E+00
         -3   -1    0    0    0  501 -0.00000000000E+00  0.00000000000E+00  0.23233925860E+03  0.23233925860E+03  0.00000000000E+00 0.  1.
          3   -1    0    0  501    0  0.00000000000E+00 -0.00000000000E+00 -0.67442138748E+02  0.67442138748E+02  0.00000000000E+00 0. -1.
         25    2    1    2    0    0  0.21908610259E+01  0.54485426464E+02  0.51660701170E+02  0.14590845280E+03  0.12508791702E+03 0.  0.
          5    1    3    3  502    0 -0.42994176658E+02 -0.11260133145E+02 -0.90790890470E+01  0.45554276231E+02  0.41800000000E+01 0.  1.
         -5    1    3    3    0  502  0.45185037684E+02  0.65745559610E+02  0.60739790217E+02  0.10035417657E+03  0.41800000000E+01 0.  1.
        -11    1    1    2    0    0 -0.33838425802E+02 -0.16805682166E+02  0.93518722376E+02  0.10086238867E+03  0.00000000000E+00 0.  1.
         11    1    1    2    0    0  0.31647564776E+02 -0.37679744298E+02  0.19717696302E+02  0.53010555874E+02  0.00000000000E+00 0. -1.
</event>
<event>
 7    1  0.2334784E-009  0.9982506E+02  0.7561462E-02  0.1280664E+00
         -2   -1    0    0    0  501 -0.00000000000E+00  0.00000000000E+00  0.20456634652E+03  0.20456634652E+03  0.00000000000E+00 0.  1.
          2   -1    0    0  501    0  0.00000000000E+00 -0.00000000000E+00 -0.12121718042E+03  0.12121718042E+03  0.00000000000E+00 0. -1.
         25    2    1    2    0    0 -0.43376584730E+01  0.56726108520E+02  0.14769153357E+03  0.20174023211E+03  0.12509862307E+03 0.  0.
          5    1    3    3  502    0  0.97012275157E+01  0.88866151852E+02  0.13908084787E+03  0.16538519101E+03  0.41800000000E+01 0. -1.
         -5    1    3    3    0  502 -0.14038885989E+02 -0.32140043332E+02  0.86106856965E+01  0.36355041100E+02  0.41800000000E+01 0. -1.
        -11    1    1    2    0    0  0.26561321249E+02 -0.29590840256E+02 -0.77076382541E+02  0.86728832341E+02  0.00000000000E+00 0. -1.
         11    1    1    2    0    0 -0.22223662776E+02 -0.27135268264E+02  0.12734015076E+02  0.37314462490E+02  0.00000000000E+00 0.  1.
</event>
<event>
 7    1  0.2334784E-009  0.9965082E+02  0.7561462E-02  0.1281032E+00
         -4   -1    0    0    0  501 -0.00000000000E+00  0.00000000000E+00  0.42695324429E+03  0.42695324429E+03  0.00000000000E+00 0.  1.
          4   -1    0    0  501    0  0.00000000000E+00 -0.00000000000E+00 -0.33999586472E+02  0.33999586472E+02  0.00000000000E+00 0. -1.
         25    2    1    2    0    0  0.50192026907E+02 -0.59540712429E+02  0.24257112334E+03  0.28381683971E+03  0.12508761978E+03 0.  0.
          5    1    3    3  502    0  0.69660435134E+02 -0.54249373104E+02  0.24734795239E+03  0.26266718991E+03  0.41800000000E+01 0. -1.
         -5    1    3    3    0  502 -0.19468408227E+02 -0.52913393248E+01 -0.47768290507E+01  0.21149649797E+02  0.41800000000E+01 0. -1.
        -11    1    1    2    0    0 -0.50153296292E+02  0.25495175402E+02  0.11505048095E+03  0.12807017711E+03  0.00000000000E+00 0.  1.
         11    1    1    2    0    0 -0.38730614806E-01  0.34045537027E+02  0.35332053530E+02  0.49065813946E+02  0.00000000000E+00 0. -1.
</event>
<event>
 7    1  0.2334784E-009  0.1248835E+03  0.7561462E-02  0.1235251E+00
          1   -1    0    0  501    0  0.00000000000E+00  0.00000000000E+00  0.47659863317E+03  0.47659863317E+03  0.00000000000E+00 0. -1.
         -1   -1    0    0    0  501 -0.00000000000E+00 -0.00000000000E+00 -0.66446858299E+02  0.66446858299E+02  0.00000000000E+00 0.  1.
         25    2    1    2    0    0 -0.96378417920E+02  0.65168015812E+02  0.95919744905E+02  0.19591928093E+03  0.12509235569E+03 0.  0.
          5    1    3    3  502    0 -0.99823431690E+02  0.66641404748E+02  0.12084336773E+03  0.17037131879E+03  0.41800000000E+01 0.  1.
         -5    1    3    3    0  502  0.34450137704E+01 -0.14733889356E+01 -0.24923622828E+02  0.25547962144E+02  0.41800000000E+01 0.  1.
        -11    1    1    2    0    0  0.41637829911E+02 -0.37833132126E+01  0.30603129104E+02  0.51812873396E+02  0.00000000000E+00 0.  1.
         11    1    1    2    0    0  0.54740588009E+02 -0.61384702600E+02  0.28362890086E+03  0.29531333714E+03  0.00000000000E+00 0. -1.
</event>
<event>
 7    1  0.2334784E-009  0.1639381E+03  0.7561462E-02  0.1184321E+00
          1   -1    0    0  501    0  0.00000000000E+00  0.00000000000E+00  0.58008523329E+03  0.58008523329E+03  0.00000000000E+00 0. -1.
         -1   -1    0    0    0  501 -0.00000000000E+00 -0.00000000000E+00 -0.58740240228E+02  0.58740240228E+02  0.00000000000E+00 0.  1.
         25    2    1    2    0    0  0.11465235939E+03 -0.65928917789E+02  0.15606643801E+03  0.23978668704E+03  0.12509650874E+03 0.  0.
          5    1    3    3  502    0  0.13003141638E+03 -0.18939020349E+02  0.10196336360E+03  0.16637564622E+03  0.41800000000E+01 0. -1.
         -5    1    3    3    0  502 -0.15379056992E+02 -0.46989897440E+02  0.54103074405E+02  0.73411040828E+02  0.41800000000E+01 0. -1.
        -11    1    1    2    0    0 -0.33636909007E+01  0.29495461681E+02  0.23828721493E+02  0.38067107117E+02  0.00000000000E+00 0.  1.
         11    1    1    2    0    0 -0.11128866849E+03  0.36433456107E+02  0.34144983356E+03  0.36097167935E+03  0.00000000000E+00 0. -1.
</event>
<event>
 7    1  0.2334784E-009  0.1099261E+03  0.7561462E-02  0.1260707E+00
         -1   -1    0    0    0  501 -0.00000000000E+00  0.00000000000E+00  0.15858514055E+02  0.15858514055E+02  0.00000000000E+00 0.  1.
          1   -1    0    0  501    0  0.00000000000E+00 -0.00000000000E+00 -0.86578287257E+03  0.86578287257E+03  0.00000000000E+00 0. -1.
         25    2    1    2    0    0 -0.26116384215E+02  0.27371427397E+02 -0.57589916255E+03  0.59054064170E+03  0.12508854267E+03 0.  0.
          5    1    3    3  502    0  0.39895680004E+02 -0.15536376318E+02 -0.11176876072E+03  0.11976131489E+03  0.41800000000E+01 0. -1.
         -5    1    3    3    0  502 -0.66012064219E+02  0.42907803715E+02 -0.46413040184E+03  0.47077932681E+03  0.41800000000E+01 0. -1.
        -11    1    1    2    0    0  0.52833995854E+02 -0.42034362835E+02 -0.19799263511E+03  0.20918748130E+03  0.00000000000E+00 0. -1.
         11    1    1    2    0    0 -0.26717611639E+02  0.14662935438E+02 -0.76032560850E+02  0.81913263619E+02  0.00000000000E+00 0.  1.
</event>
<event>
 7    1  0.2334784E-009  0.7550372E+02  0.7561462E-02  0.1342318E+00
          1   -1    0    0  501    0  0.00000000000E+00  0.00000000000E+00  0.32989827060E+03  0.32989827060E+03  0.00000000000E+00 0. -1.
         -1   -1    0    0    0  501 -0.00000000000E+00 -0.00000000000E+00 -0.41148519321E+02  0.41148519321E+02  0.00000000000E+00 0.  1.
         25    2    1    2    0    0  0.16385291737E+02 -0.95243312895E+01  0.18630491737E+03  0.22520298569E+03  0.12509065455E+03 0.  0.
          5    1    3    3  502    0  0.42669719710E+02 -0.32115158675E+01  0.19242824338E+03  0.19717281777E+03  0.41800000000E+01 0. -1.
         -5    1    3    3    0  502 -0.26284427973E+02 -0.63128154220E+01 -0.61233260119E+01  0.28030167924E+02  0.41800000000E+01 0. -1.
        -11    1    1    2    0    0 -0.38022656743E+02  0.31827933454E+02  0.13154700590E+02  0.51300934898E+02  0.00000000000E+00 0.  1.
         11    1    1    2    0    0  0.21637365006E+02 -0.22303602164E+02  0.89290133319E+02  0.94542869335E+02  0.00000000000E+00 0. -1.
</event>
<event>
 7    1  0.2334784E-009  0.7921767E+02  0.7561462E-02  0.1331286E+00
         -2   -1    0    0    0  501 -0.00000000000E+00  0.00000000000E+00  0.80835367561E+02  0.80835367561E+02  0.00000000000E+00 0.  1.
          2   -1    0    0  501    0  0.00000000000E+00 -0.00000000000E+00 -0.17926738813E+03  0.17926738813E+03  0.00000000000E+00 0. -1.
         25    2    1    2    0    0 -0.50990941045E+02  0.78812075090E+01 -0.63509532994E+02  0.14947513285E+03  0.12508862881E+03 0.  0.
          5    1    3    3  502    0 -0.43393087508E+02  0.33889752021E+01  0.31547253514E+02  0.53917963618E+02  0.41800000000E+01 0. -1.
         -5    1    3    3    0  502 -0.75978535368E+01  0.44922323069E+01 -0.95056786508E+02  0.95557169228E+02  0.41800000000E+01 0. -1.
        -11    1    1    2    0    0  0.53800002612E+02  0.33558818264E+02 -0.19864899115E+02  0.66447338406E+02  0.00000000000E+00 0. -1.
         11    1    1    2    0    0 -0.28090615677E+01 -0.41440025773E+02 -0.15057588460E+02  0.44180284440E+02  0.00000000000E+00 0.  1.
</event>
<event>
 7    1  0.2334784E-009  0.9238167E+02  0.7561462E-02  0.1297185E+00
          2   -1    0    0  501    0  0.00000000000E+00  0.00000000000E+00  0.31864845144E+02  0.31864845144E+02  0.00000000000E+00 0.  1.
         -2   -1    0    0    0  501 -0.00000000000E+00 -0.00000000000E+00 -0.41312424195E+03  0.41312424195E+03  0.00000000000E+00 0. -1.
         25    2    1    2    0    0 -0.24128885254E+02 -0.30386841582E+02 -0.23107519121E+03  0.26561080440E+03  0.12509113547E+03 0.  0.
          5    1    3    3  502    0  0.14080854976E+02 -0.57126351766E+02 -0.46273124617E+02  0.74969093664E+02  0.41800000000E+01 0. -1.
         -5    1    3    3    0  502 -0.38209740230E+02  0.26739510184E+02 -0.18480206659E+03  0.19064171073E+03  0.41800000000E+01 0. -1.
        -11    1    1    2    0    0 -0.17390207091E+02  0.33055093102E+02 -0.12563778482E+03  0.13107216126E+03  0.00000000000E+00 0. -1.
         11    1    1    2    0    0  0.41519092345E+02 -0.26682515206E+01 -0.24546420768E+02  0.48306121432E+02  0.00000000000E+00 0.  1.
</event>
<event>
 7    1  0.2334784E-009  0.8812573E+02  0.7561462E-02  0.1307455E+00
         -1   -1    0    0    0  501 -0.00000000000E+00  0.00000000000E+00  0.20152389171E+03  0.20152389171E+03  0.00000000000E+00 0.  1.
          1   -1    0    0  501    0  0.00000000000E+00 -0.00000000000E+00 -0.70171545662E+02  0.70171545662E+02  0.00000000000E+00 0. -1.
         25    2    1    2    0    0 -0.17555521910E+02 -0.32851737373E+02  0.45589071067E+02  0.13825767453E+03  0.12509751463E+03 0.  0.
          5    1    3    3  502    0  0.27697358071E+02 -0.29448105750E+01  0.72342550004E+02  0.77632032658E+02  0.41800000000E+01 0. -1.
         -5    1    3    3    0  502 -0.45252879981E+02 -0.29906926798E+02 -0.26753478937E+02  0.60625641871E+02  0.41800000000E+01 0. -1.
        -11    1    1    2    0    0  0.49183456336E+02  0.15852863923E+01  0.18028790102E+02  0.52407659580E+02  0.00000000000E+00 0. -1.
         11    1    1    2    0    0 -0.31627934427E+02  0.31266450981E+02  0.67734484874E+02  0.81030103259E+02  0.00000000000E+00 0.  1.
</event>
<event>
 7    1  0.2334784E-009  0.1111331E+03  0.7561462E-02  0.1258486E+00
         -2   -1    0    0    0  501 -0.00000000000E+00  0.00000000000E+00  0.10310879848E+03  0.10310879848E+03  0.00000000000E+00 0.  1.
          2   -1    0    0  501    0  0.00000000000E+00 -0.00000000000E+00 -0.23911620555E+03  0.23911620555E+03  0.00000000000E+00 0. -1.
         25    2    1    2    0    0  0.28468546656E+02  0.23685401920E+02  0.43664662952E+02  0.13757323674E+03  0.12509331022E+03 0.  0.
          5    1    3    3  502    0  0.51737353907E+02  0.61141736888E+02  0.47332525703E+02  0.93128439096E+02  0.41800000000E+01 0.  1.
         -5    1    3    3    0  502 -0.23268807251E+02 -0.37456334969E+02 -0.36678627506E+01  0.44444797641E+02  0.41800000000E+01 0.  1.
        -11    1    1    2    0    0 -0.34003634279E+02 -0.55711612853E+02 -0.12614303730E+03  0.14202850703E+03  0.00000000000E+00 0.  1.
         11    1    1    2    0    0  0.55350876232E+01  0.32026210933E+02 -0.53529032724E+02  0.62623260264E+02  0.00000000000E+00 0. -1.
</event>
<event>
 7    1  0.2334784E-009  0.1279415E+03  0.7561462E-02  0.1230543E+00
          2   -1    0    0  501    0  0.00000000000E+00  0.00000000000E+00  0.13439502688E+04  0.13439502688E+04  0.00000000000E+00 0. -1.
         -2   -1    0    0    0  501 -0.00000000000E+00 -0.00000000000E+00 -0.13077837025E+02  0.13077837025E+02  0.00000000000E+00 0.  1.
         25    2    1    2    0    0 -0.68571502771E+02 -0.16296380144E+02  0.91266976754E+03  0.92389619694E+03  0.12510177917E+03 0.  0.
          5    1    3    3  502    0 -0.10262699970E+03 -0.28726155654E+02  0.64697070629E+03  0.65570272249E+03  0.41800000000E+01 0.  1.
         -5    1    3    3    0  502  0.34055496929E+02  0.12429775511E+02  0.26569906125E+03  0.26819347446E+03  0.41800000000E+01 0.  1.
        -11    1    1    2    0    0  0.63015759494E+02  0.48837067772E+02  0.29669152426E+03  0.30721638254E+03  0.00000000000E+00 0. -1.
         11    1    1    2    0    0  0.55557432771E+01 -0.32540687628E+02  0.12151113993E+03  0.12591552630E+03  0.00000000000E+00 0.  1.
</event>
<event>
 7    1  0.2334784E-009  0.9047577E+02  0.7561462E-02  0.1301704E+00
          1   -1    0    0  501    0  0.00000000000E+00  0.00000000000E+00  0.29537060881E+02  0.29537060881E+02  0.00000000000E+00 0. -1.
         -1   -1    0    0    0  501 -0.00000000000E+00 -0.00000000000E+00 -0.41461751589E+03  0.41461751589E+03  0.00000000000E+00 0.  1.
         25    2    1    2    0    0 -0.19908424140E+02 -0.40519955253E+00 -0.26607712605E+03  0.29469873073E+03  0.12511512838E+03 0.  0.
          5    1    3    3  502    0 -0.65835567098E+02 -0.21023764427E+02 -0.10406222958E+03  0.12499096204E+03  0.41800000000E+01 0.  1.
         -5    1    3    3    0  502  0.45927142958E+02  0.20618564874E+02 -0.16201489647E+03  0.16970776869E+03  0.41800000000E+01 0.  1.
        -11    1    1    2    0    0  0.25515421288E+02 -0.24677212280E+02 -0.91788102148E+01  0.36664043508E+02  0.00000000000E+00 0. -1.
         11    1    1    2    0    0 -0.56069971484E+01  0.25082411832E+02 -0.10982451874E+03  0.11279180253E+03  0.00000000000E+00 0.  1.
</event>
<event>
 6    1  0.2334784E-009  0.1140341E+03  0.7561462E-02  0.1253277E+00
          2   -1    0    0  501    0  0.00000000000E+00  0.00000000000E+00  0.67683817484E+03  0.67683817484E+03  0.00000000000E+00 0. -1.
         -2   -1    0    0    0  501 -0.00000000000E+00 -0.00000000000E+00 -0.20346884805E+02  0.20346884805E+02  0.00000000000E+00 0.  1.
          5    1    1    2  502    0  0.54761664299E+02 -0.38412350541E+02  0.22890640634E+03  0.23851617097E+03  0.41800000000E+01 0. -1.
         -5    1    1    2    0  502 -0.18621014832E+02  0.58040705964E+02  0.12696027393E+03  0.14089659080E+03  0.41800000000E+01 0. -1.
        -11    1    1    2    0    0 -0.32611580682E+02  0.33471915766E+02  0.10296161289E+03  0.11307067732E+03  0.00000000000E+00 0. -1.
         11    1    1    2    0    0 -0.35290687859E+01 -0.53100271189E+02  0.19766299688E+03  0.20470162057E+03  0.00000000000E+00 0.  1.
</event>
<event>
 7    1  0.2334784E-009  0.1312610E+03  0.7561462E-02  0.1225597E+00
          2   -1    0    0  501    0  0.00000000000E+00  0.00000000000E+00  0.10241508736E+03  0.10241508736E+03  0.00000000000E+00 0. -1.
         -2   -1    0    0    0  501 -0.00000000000E+00 -0.00000000000E+00 -0.27289309443E+03  0.27289309443E+03  0.00000000000E+00 0.  1.
         25    2    1    2    0    0  0.12311355414E+02 -0.77979521514E+02  0.21139632536E+02  0.14941882684E+03  0.12508687582E+03 0.  0.
          5    1    3    3  502    0  0.66690543852E+02 -0.34872739773E+02 -0.40379229557E+01  0.75481877563E+02  0.41800000000E+01 0. -1.
         -5    1    3    3    0  502 -0.54379188438E+02 -0.43106781741E+02  0.25177555491E+02  0.73936949273E+02  0.41800000000E+01 0. -1.
        -11    1    1    2    0    0 -0.47942736787E+02  0.25795626914E+02 -0.68465119556E+02  0.87472241164E+02  0.00000000000E+00 0. -1.
         11    1    1    2    0    0  0.35631381373E+02  0.52183894600E+02 -0.12315252006E+03  0.13841711379E+03  0.00000000000E+00 0.  1.
</event>
<event>
 7    1  0.2334784E-009  0.1041848E+03  0.7561462E-02  0.1271734E+00
          2   -1    0    0  501    0  0.00000000000E+00  0.00000000000E+00  0.32096854592E+02  0.32096854592E+02  0.00000000000E+00 0. -1.
         -2   -1    0    0    0  501 -0.00000000000E+00 -0.00000000000E+00 -0.52204231323E+03  0.52204231323E+03  0.00000000000E+00 0.  1.
         25    2    1    2    0    0  0.50545593850E+02 -0.42169720527E+02 -0.22459651298E+03  0.26537700715E+03  0.12509284510E+03 0.  0.
          5    1    3    3  502    0 -0.58357491611E+01 -0.52695697666E+02 -0.27121305279E+02  0.59698660963E+02  0.41800000000E+01 0.  1.
         -5    1    3    3    0  502  0.56381343011E+02  0.10525977139E+02 -0.19747520770E+03  0.20567834618E+03  0.41800000000E+01 0.  1.
        -11    1    1    2    0    0  0.24587737725E+00 -0.18530641428E+02 -0.92513069742E+01  0.20713083019E+02  0.00000000000E+00 0. -1.
         11    1    1    2    0    0 -0.50791471227E+02  0.60700361955E+02 -0.25609763869E+03  0.26804907766E+03  0.00000000000E+00 0.  1.
</event>
<event>
 7    1  0.2334784E-009  0.1075554E+03  0.7561462E-02  0.1265165E+00
          1   -1    0    0  501    0  0.00000000000E+00  0.00000000000E+00  0.88696518684E+03  0.88696518684E+03  0.00000000000E+00 0. -1.
         -1   -1    0    0    0  501 -0.00000000000E+00 -0.00000000000E+00 -0.23400078180E+02  0.23400078180E+02  0.00000000000E+00 0.  1.
         25    2    1    2    0    0 -0.85624392454E+02  0.18139482703E+02  0.35937760133E+03  0.39046178834E+03  0.12509024901E+03 0.  0.
          5    1    3    3  502    0 -0.55048923183E+02  0.76679255954E+01  0.38051834791E+02  0.67487743757E+02  0.41800000000E+01 0. -1.
         -5    1    3    3    0  502 -0.30575469271E+02  0.10471557108E+02  0.32132576654E+03  0.32297404458E+03  0.41800000000E+01 0. -1.
        -11    1    1    2    0    0  0.27917601769E+02  0.37415194157E+02  0.19458417515E+03  0.20010569822E+03  0.00000000000E+00 0.  1.
         11    1    1    2    0    0  0.57706790686E+02 -0.55554676860E+02  0.30960333218E+03  0.31979777846E+03  0.00000000000E+00 0. -1.
</event>
<event>
 7    1  0.2334784E-009  0.1351979E+03  0.7561462E-02  0.1219941E+00
          3   -1    0    0  501    0  0.00000000000E+00  0.00000000000E+00  0.11536464619E+03  0.11536464619E+03  0.00000000000E+00 0. -1.
         -3   -1    0    0    0  501 -0.00000000000E+00 -0.00000000000E+00 -0.22175115637E+03  0.22175115637E+03  0.00000000000E+00 0.  1.
         25    2    1    2    0    0  0.92665002583E+02  0.57613517712E+02 -0.10306918248E+03  0.19540630597E+03  0.12511693694E+03 0.  0.
          5    1    3    3  502    0  0.59013496080E+02  0.93988840930E+02 -0.47374530898E+02  0.12074068708E+03  0.41800000000E+01 0. -1.
         -5    1    3    3    0  502  0.33651506503E+02 -0.36375323218E+02 -0.55694651581E+02  0.74665618888E+02  0.41800000000E+01 0. -1.
        -11    1    1    2    0    0 -0.57344671461E+02 -0.29641865290E+02 -0.46300120280E+02  0.79440245851E+02  0.00000000000E+00 0.  1.
         11    1    1    2    0    0 -0.35320331122E+02 -0.27971652421E+02  0.42982792577E+02  0.62269250738E+02  0.00000000000E+00 0. -1.
</event>
<event>
 7    1  0.2334784E-009  0.1222074E+03  0.7561462E-02  0.1239499E+00
         -2   -1    0    0    0  501 -0.00000000000E+00  0.00000000000E+00  0.28731388855E+02  0.28731388855E+02  0.00000000000E+00 0.  1.
          2   -1    0    0  501    0  0.00000000000E+00 -0.00000000000E+00 -0.63428763389E+03  0.63428763389E+03  0.00000000000E+00 0. -1.
         25    2    1    2    0    0  0.36385630847E+02 -0.51987676917E+02 -0.46072905374E+03  0.48160575538E+03  0.12508481113E+03 0.  0.
          5    1    3    3  502    0 -0.25669692017E+02 -0.66688037267E+02 -0.30470790921E+03  0.31300257145E+03  0.41800000000E+01 0. -1.
         -5    1    3    3    0  502  0.62055322864E+02  0.14700360350E+02 -0.15602114453E+03  0.16860318393E+03  0.41800000000E+01 0. -1.
        -11    1    1    2    0    0  0.19324950059E+02  0.49523091332E+02 -0.63689468303E+02  0.82959861635E+02  0.00000000000E+00 0.  1.
         11    1    1    2    0    0 -0.55710580905E+02  0.24645855844E+01 -0.81137722993E+02  0.98453405728E+02  0.00000000000E+00 0. -1.
</event>
<event>
 7    1  0.2334784E-009  0.1131756E+03  0.7561462E-02  0.1254800E+00
          2   -1    0    0  501    0  0.00000000000E+00  0.00000000000E+00  0.98851702553E+02  0.98851702553E+02  0.00000000000E+00 0. -1.
         -2   -1    0    0    0  501 -0.00000000000E+00 -0.00000000000E+00 -0.15536326705E+03  0.15536326705E+03  0.00000000000E+00 0.  1.
         25    2    1    2    0    0  0.56130475711E+02 -0.81155827967E+01 -0.33534054480E+02  0.14138088070E+03  0.12509007806E+03 0.  0.
          5    1    3    3  502    0  0.80522556130E+02  0.19622664351E+02  0.10621268332E+02  0.83661309713E+02  0.41800000000E+01 0. -1.
         -5    1    3    3    0  502 -0.24392080419E+02 -0.27738247148E+02 -0.44155322812E+02  0.57719570985E+02  0.41800000000E+01 0. -1.
        -11    1    1    2    0    0  0.24725746331E+02  0.53051933584E+01 -0.19359748727E+02  0.31848194281E+02  0.00000000000E+00 0.  1.
         11    1    1    2    0    0 -0.80856222042E+02  0.28103894383E+01 -0.36177612936E+01  0.80985894627E+02  0.00000000000E+00 0. -1.
</event>
<event>
 7    1  0.2334784E-009  0.8761443E+02  0.7561462E-02  0.1308734E+00
          2   -1    0    0  501    0  0.00000000000E+00  0.00000000000E+00  0.48147107534E+02  0.48147107534E+02  0.00000000000E+00 0. -1.
         -2   -1    0    0    0  501 -0.00000000000E+00 -0.00000000000E+00 -0.41145502419E+03  0.41145502419E+03  0.00000000000E+00 0.  1.
         25    2    1    2    0    0  0.21112899202E+02  0.10144099164E+02 -0.33654299738E+03  0.35980261428E+03  0.12509226554E+03 0.  0.
          5    1    3    3  502    0  0.27406140681E+02  0.55261704609E+02 -0.90877800990E+02  0.10991451067E+03  0.41800000000E+01 0.  1.
         -5    1    3    3    0  502 -0.62932414792E+01 -0.45117605444E+02 -0.24566519639E+03  0.24988810361E+03  0.41800000000E+01 0.  1.
        -11    1    1    2    0    0 -0.94838929085E+01 -0.37103692032E+02 -0.49557346492E+02  0.62630334331E+02  0.00000000000E+00 0.  1.
         11    1    1    2    0    0 -0.11629006294E+02  0.26959592868E+02  0.22792427213E+02  0.37169183112E+02  0.00000000000E+00 0. -1.
</event>
<event>
 7    1  0.2334784E-009  0.7528342E+02  0.7561462E-02  0.1342996E+00
         -1   -1    0    0    0  501 -0.00000000000E+00  0.00000000000E+00  0.19338244809E+03  0.19338244809E+03  0.00000000000E+00 0.  1.
          1   -1    0    0  501    0  0.00000000000E+00 -0.00000000000E+00 -0.86606797180E+02  0.86606797180E+02  0.00000000000E+00 0. -1.
         25    2    1    2    0    0 -0.39208191811E+02 -0.64861478311E+01  0.12294201399E+03  0.17982642841E+03  0.12507379075E+03 0.  0.
          5    1    3    3  502    0 -0.58496619517E+02  0.13146921284E+01  0.37721108211E+01  0.58781664917E+02  0.41800000000E+01 0. -1.
         -5    1    3    3    0  502  0.19288427706E+02 -0.78008399596E+01  0.11916990317E+03  0.12104476349E+03  0.41800000000E+01 0. -1.
        -11    1    1    2    0    0  0.50147433058E+02 -0.97700176042E+01  0.23259967043E+02  0.56135945285E+02  0.00000000000E+00 0.  1.
         11    1    1    2    0    0 -0.10939241247E+02  0.16256165435E+02 -0.39426330123E+02  0.44026871575E+02  0.00000000000E+00 0. -1.
</event>
<event>
 7    1  0.2334784E-009  0.1709581E+03  0.7561462E-02  0.1176852E+00
          1   -1    0    0  501    0  0.00000000000E+00  0.00000000000E+00  0.16581077263E+03  0.16581077263E+03  0.00000000000E+00 0. -1.
         -1   -1    0    0    0  501 -0.00000000000E+00 -0.00000000000E+00 -0.22027359622E+03  0.22027359622E+03  0.00000000000E+00 0.  1.
         25    2    1    2    0    0  0.16514840785E+02 -0.15013985024E+03  0.14298769352E+02  0.19663835516E+03  0.12508986098E+03 0.  0.
          5    1    3    3  502    0  0.34750467221E+02 -0.16290844965E+03 -0.52641924264E+01  0.16670915410E+03  0.41800000000E+01 0.  1.
         -5    1    3    3    0  502 -0.18235626437E+02  0.12768599412E+02  0.19562961779E+02  0.29929201059E+02  0.41800000000E+01 0.  1.
        -11    1    1    2    0    0 -0.15890476307E+02  0.49295226887E+02 -0.71826784169E+02  0.88552885640E+02  0.00000000000E+00 0.  1.
         11    1    1    2    0    0 -0.62436447791E+00  0.10084462335E+03  0.30651912272E+01  0.10089312805E+03  0.00000000000E+00 0. -1.
</event>
<event>
 7    1  0.2334784E-009  0.1371877E+03  0.7561462E-02  0.1217164E+00
         -2   -1    0    0    0  501 -0.00000000000E+00  0.00000000000E+00  0.83326382712E+02  0.83326382712E+02  0.00000000000E+00 0.  1.
          2   -1    0    0  501    0  0.00000000000E+00 -0.00000000000E+00 -0.26743817156E+03  0.26743817156E+03  0.00000000000E+00 0. -1.
         25    2    1    2    0    0  0.64951687341E+02 -0.78766474712E+02 -0.10491603858E+03  0.19255870061E+03  0.12509435960E+03 0.  0.
          5    1    3    3  502    0  0.49892734712E+02 -0.99699610758E+02 -0.33456185108E+02  0.11647354242E+03  0.41800000000E+01 0.  1.
         -5    1    3    3    0  502  0.15058952628E+02  0.20933136046E+02 -0.71459853470E+02  0.76085158191E+02  0.41800000000E+01 0.  1.
        -11    1    1    2    0    0 -0.40863628150E+02  0.97795219282E+02 -0.65470633344E+02  0.12457987338E+03  0.00000000000E+00 0. -1.
         11    1    1    2    0    0 -0.24088059191E+02 -0.19028744570E+02 -0.13725116930E+02  0.33625980286E+02  0.00000000000E+00 0.  1.
</event>
<event>
 7    1  0.2334784E-009  0.2499787E+03  0.7561462E-02  0.1113318E+00
         -2   -1    0    0    0  501 -0.00000000000E+00  0.00000000000E+00  0.13856590041E+03  0.13856590041E+03  0.00000000000E+00 0.  1.
          2   -1    0    0  501    0  0.00000000000E+00 -0.00000000000E+00 -0.71415270073E+03  0.71415270073E+03  0.00000000000E+00 0. -1.
         25    2    1    2    0    0 -0.18162343163E+03  0.15704312472E+03 -0.52616204569E+03  0.59172761229E+03  0.12508179276E+03 0.  0.
          5    1    3    3  502    0 -0.15064050242E+03  0.16690687921E+03 -0.37672058169E+03  0.43873264793E+03  0.41800000000E+01 0.  1.
         -5    1    3    3    0  502 -0.30982929211E+02 -0.98637544841E+01 -0.14944146400E+03  0.15299496435E+03  0.41800000000E+01 0.  1.
        -11    1    1    2    0    0  0.13661635115E+03 -0.98333869971E+02 -0.72822624286E+02  0.18340314063E+03  0.00000000000E+00 0.  1.
         11    1    1    2    0    0  0.45007080483E+02 -0.58709254750E+02  0.23397869656E+02  0.77587848220E+02  0.00000000000E+00 0. -1.
</event>
<event>
 7    1  0.2334784E-009  0.1080691E+03  0.7561462E-02  0.1264188E+00
          2   -1    0    0  501    0  0.00000000000E+00  0.00000000000E+00  0.97419431851E+03  0.97419431851E+03  0.00000000000E+00 0. -1.
         -2   -1    0    0    0  501 -0.00000000000E+00 -0.00000000000E+00 -0.15291576222E+02  0.15291576222E+02  0.00000000000E+00 0.  1.
         25    2    1    2    0    0 -0.33612629061E+02  0.74215728544E+01  0.69559317423E+03  0.70758929322E+03  0.12509138770E+03 0.  0.
          5    1    3    3  502    0 -0.43494955328E+02  0.59868688924E+02  0.46452401055E+03  0.47039993605E+03  0.41800000000E+01 0. -1.
         -5    1    3    3    0  502  0.98823262670E+01 -0.52447116070E+02  0.23106916367E+03  0.23718935718E+03  0.41800000000E+01 0. -1.
        -11    1    1    2    0    0  0.35294182957E+01 -0.42288264292E+02  0.60335122481E+02  0.73763684121E+02  0.00000000000E+00 0.  1.
         11    1    1    2    0    0  0.30083210765E+02  0.34866691438E+02  0.20297444557E+03  0.20813291738E+03  0.00000000000E+00 0. -1.
</event>
<event>
 7    1  0.2334784E-009  0.1034611E+03  0.7561462E-02  0.1273182E+00
          2   -1    0    0  501    0  0.00000000000E+00  0.00000000000E+00  0.77679729671E+02  0.77679729671E+02  0.00000000000E+00 0. -1.
         -2   -1    0    0    0  501 -0.00000000000E+00 -0.00000000000E+00 -0.15022801596E+03  0.15022801596E+03  0.00000000000E+00 0.  1.
         25    2    1    2    0    0  0.62174108754E+01 -0.34859138254E+01 -0.41299252697E+02  0.13192739201E+03  0.12509356777E+03 0.  0.
          5    1    3    3  502    0  0.50401067762E+02  0.31593197256E+02  0.35482640557E+01  0.59736591150E+02  0.41800000000E+01 0.  1.
         -5    1    3    3    0  502 -0.44183656886E+02 -0.35079111082E+02 -0.44847516753E+02  0.72190800862E+02  0.41800000000E+01 0.  1.
        -11    1    1    2    0    0  0.34295369709E+02  0.27204729334E+02 -0.16318479947E+02  0.46717903092E+02  0.00000000000E+00 0. -1.
         11    1    1    2    0    0 -0.40512780584E+02 -0.23718815508E+02 -0.14930553643E+02  0.49262450526E+02  0.00000000000E+00 0.  1.
</event>
<event>
 7    1  0.2334784E-009  0.1109884E+03  0.7561462E-02  0.1258750E+00
          2   -1    0    0  501    0  0.00000000000E+00  0.00000000000E+00  0.36027303657E+03  0.36027303657E+03  0.00000000000E+00 0. -1.
         -2   -1    0    0    0  501 -0.00000000000E+00 -0.00000000000E+00 -0.39979789729E+02  0.39979789729E+02  0.00000000000E+00 0.  1.
         25    2    1    2    0    0  0.19106412798E+02 -0.24735410778E+02  0.11129436329E+03  0.17032630218E+03  0.12509084041E+03 0.  0.
          5    1    3    3  502    0 -0.41524588211E+02 -0.47080971696E+02  0.42948679484E+02  0.76177232762E+02  0.41800000000E+01 0. -1.
         -5    1    3    3    0  502  0.60631001009E+02  0.22345560917E+02  0.68345683810E+02  0.94149069414E+02  0.41800000000E+01 0. -1.
        -11    1    1    2    0    0  0.23329098734E+02  0.42359418821E+02  0.12756021762E+03  0.13641912010E+03  0.00000000000E+00 0.  1.
         11    1    1    2    0    0 -0.42435511532E+02 -0.17624008043E+02  0.81438665930E+02  0.93507404022E+02  0.00000000000E+00 0. -1.
</event>
<event>
 7    1  0.2334784E-009  0.9061836E+02  0.7561462E-02  0.1301361E+00
          1   -1    0    0  501    0  0.00000000000E+00  0.00000000000E+00  0.36603605824E+02  0.36603605824E+02  0.00000000000E+00 0. -1.
         -1   -1    0    0    0  501 -0.00000000000E+00 -0.00000000000E+00 -0.33424608227E+03  0.33424608227E+03  0.00000000000E+00 0.  1.
         25    2    1    2    0    0  0.11026953726E+02 -0.11334469029E+02 -0.14393540301E+03  0.19135141756E+03  0.12509156991E+03 0.  0.
          5    1    3    3  502    0 -0.53900555098E+02 -0.16722972721E+02 -0.91636935152E+02  0.10770203313E+03  0.41800000000E+01 0. -1.
         -5    1    3    3    0  502  0.64927508824E+02  0.53885036921E+01 -0.52298467859E+02  0.83649384424E+02  0.41800000000E+01 0. -1.
        -11    1    1    2    0    0  0.13394130542E+02  0.27145203748E+02 -0.14640770041E+03  0.14950411218E+03  0.00000000000E+00 0.  1.
         11    1    1    2    0    0 -0.24421084268E+02 -0.15810734719E+02 -0.72993730266E+01  0.29994158361E+02  0.00000000000E+00 0. -1.
</event>
<event>
 7    1  0.2334784E-009  0.1373261E+03  0.7561462E-02  0.1216973E+00
         -2   -1    0    0    0  501 -0.00000000000E+00  0.00000000000E+00  0.34289747121E+02  0.34289747121E+02  0.00000000000E+00 0.  1.
          2   -1    0    0  501    0  0.00000000000E+00 -0.00000000000E+00 -0.84168079065E+03  0.84168079065E+03  0.00000000000E+00 0. -1.
         25    2    1    2    0    0  0.81960689141E+02 -0.29357950806E+02 -0.68164162734E+03  0.69847205109E+03  0.12509378158E+03 0.  0.
          5    1    3    3  502    0 -0.30892983591E+02 -0.20419921927E+02 -0.12580276071E+03  0.13120654195E+03  0.41800000000E+01 0. -1.
         -5    1    3    3    0  502  0.11285367273E+03 -0.89380288794E+01 -0.55583886663E+03  0.56726550914E+03  0.41800000000E+01 0. -1.
        -11    1    1    2    0    0 -0.82779212077E+01  0.47501522750E+02 -0.37317113574E+02  0.60971186708E+02  0.00000000000E+00 0.  1.
         11    1    1    2    0    0 -0.73682767934E+02 -0.18143571944E+02 -0.88432302610E+02  0.11652729997E+03  0.00000000000E+00 0. -1.
</event>
<event>
 6    1  0.2334784E-009  0.9428908E+02  0.7561462E-02  0.1292785E+00
          1   -1    0    0  501    0  0.00000000000E+00  0.00000000000E+00  0.11810336405E+03  0.11810336405E+03  0.00000000000E+00 0. -1.
         -1   -1    0    0    0  501 -0.00000000000E+00 -0.00000000000E+00 -0.11397081886E+03  0.11397081886E+03  0.00000000000E+00 0.  1.
          5    1    1    2  502    0 -0.43238204953E+02  0.80832012115E+02 -0.24452979230E+02  0.94967242475E+02  0.41800000000E+01 0.  1.
         -5    1    1    2    0  502  0.60124349781E+01 -0.43279353874E+02 -0.93762469782E+01  0.44884721827E+02  0.41800000000E+01 0.  1.
        -11    1    1    2    0    0  0.30791621999E+02 -0.29893225288E+02 -0.93016205308E+01  0.43911832665E+02  0.00000000000E+00 0.  1.
         11    1    1    2    0    0  0.64341479752E+01 -0.76594329528E+01  0.47263391931E+02  0.48310385944E+02  0.00000000000E+00 0. -1.
</event>
<event>
 7    1  0.2334784E-009  0.1687526E+03  0.7561462E-02  0.1179155E+00
          1   -1    0    0  501    0  0.00000000000E+00  0.00000000000E+00  0.22663197362E+02  0.22663197362E+02  0.00000000000E+00 0. -1.
         -1   -1    0    0    0  501 -0.00000000000E+00 -0.00000000000E+00 -0.13335227826E+04  0.13335227826E+04  0.00000000000E+00 0.  1.
         25    2    1    2    0    0 -0.13329124878E+03 -0.69278781753E+01 -0.60180474714E+03  0.62899271936E+03  0.12509330449E+03 0.  0.
          5    1    3    3  502    0 -0.93356732585E+02  0.53431803421E+02 -0.30417959895E+03  0.32266567520E+03  0.41800000000E+01 0. -1.
         -5    1    3    3    0  502 -0.39934516191E+02 -0.60359681596E+02 -0.29762514820E+03  0.30632704416E+03  0.41800000000E+01 0. -1.
        -11    1    1    2    0    0  0.10340930987E+03  0.41712826898E+02 -0.56897597921E+03  0.57979919818E+03  0.00000000000E+00 0. -1.
         11    1    1    2    0    0  0.29881938907E+02 -0.34784948723E+02 -0.14007885893E+03  0.14739406246E+03  0.00000000000E+00 0.  1.
</event>
<event>
 7    1  0.2334784E-009  0.1198010E+03  0.7561462E-02  0.1243426E+00
          2   -1    0    0  501    0  0.00000000000E+00  0.00000000000E+00  0.87883412641E+03  0.87883412641E+03  0.00000000000E+00 0.  1.
         -2   -1    0    0    0  501 -0.00000000000E+00 -0.00000000000E+00 -0.22439751538E+02  0.22439751538E+02  0.00000000000E+00 0. -1.
         25    2    1    2    0    0  0.59890139121E+02 -0.63198675844E+02  0.40925219857E+03  0.43671141578E+03  0.12509435338E+03 0.  0.
          5    1    3    3  502    0  0.76568369632E+02 -0.41576198760E+02  0.39703663402E+03  0.40650566624E+03  0.41800000000E+01 0. -1.
         -5    1    3    3    0  502 -0.16678230511E+02 -0.21622477084E+02  0.12215564555E+02  0.30205749546E+02  0.41800000000E+01 0. -1.
        -11    1    1    2    0    0 -0.14000489551E+02  0.75862295952E+02  0.30749627098E+03  0.31702532757E+03  0.00000000000E+00 0. -1.
         11    1    1    2    0    0 -0.45889649570E+02 -0.12663620108E+02  0.13964590533E+03  0.14753713460E+03  0.00000000000E+00 0.  1.
</event>
<event>
 7    1  0.2334784E-009  0.4610545E+02  0.7561462E-02  0.1467556E+00
         -1   -1    0    0    0  501 -0.00000000000E+00  0.00000000000E+00  0.29924306993E+02  0.29924306993E+02  0.00000000000E+00 0.  1.
          1   -1    0    0  501    0  0.00000000000E+00 -0.00000000000E+00 -0.39895274093E+03  0.39895274093E+03  0.00000000000E+00 0. -1.
         25    2    1    2    0    0  0.15353654422E+02 -0.42346618471E+01 -0.23680617855E+03  0.26828365427E+03  0.12508111722E+03 0.  0.
          5    1    3    3  502    0  0.12714367128E+02 -0.81559275449E+01  0.11786810153E+02  0.19610598644E+02  0.41800000000E+01 0.  1.
         -5    1    3    3    0  502  0.26392872933E+01  0.39212656978E+01 -0.24859298870E+03  0.24867305563E+03  0.41800000000E+01 0.  1.
        -11    1    1    2    0    0  0.94279823064E+01  0.31795614863E+02 -0.12794339284E+02  0.35546351326E+02  0.00000000000E+00 0.  1.
         11    1    1    2    0    0 -0.24781636728E+02 -0.27560953016E+02 -0.11942791610E+03  0.12504704233E+03  0.00000000000E+00 0. -1.
</event>
<event>
 7    1  0.2334784E-009  0.6657348E+02  0.7561462E-02  0.1372149E+00
         -2   -1    0    0    0  501 -0.00000000000E+00  0.00000000000E+00  0.12061382509E+02  0.12061382509E+02  0.00000000000E+00 0.  1.
          2   -1    0    0  501    0  0.00000000000E+00 -0.00000000000E+00 -0.10011089963E+04  0.10011089963E+04  0.00000000000E+00 0. -1.
         25    2    1    2    0    0  0.38609539814E+01 -0.16954287798E+02 -0.60852854479E+03  0.62149756191E+03  0.12509945960E+03 0.  0.
          5    1    3    3  502    0  0.24110630788E+01  0.12542070824E+02 -0.12603282291E+01  0.13497317992E+02  0.41800000000E+01 0. -1.
         -5    1    3    3    0  502  0.14498909026E+01 -0.29496358622E+02 -0.60726821656E+03  0.60800024392E+03  0.41800000000E+01 0. -1.
        -11    1    1    2    0    0  0.41924585176E+02  0.13152123125E+02 -0.23503260207E+03  0.23910452363E+03  0.00000000000E+00 0. -1.
         11    1    1    2    0    0 -0.45785539157E+02  0.38021646728E+01 -0.14548646695E+03  0.15256829329E+03  0.00000000000E+00 0.  1.
</event>
<event>
 7    1  0.2334784E-009  0.1107509E+03  0.7561462E-02  0.1259186E+00
         -1   -1    0    0    0  501 -0.00000000000E+00  0.00000000000E+00  0.11512395501E+03  0.11512395501E+03  0.00000000000E+00 0.  1.
          1   -1    0    0  501    0  0.00000000000E+00 -0.00000000000E+00 -0.13186894337E+03  0.13186894337E+03  0.00000000000E+00 0. -1.
         25    2    1    2    0    0 -0.44769344666E+02  0.44538986140E+02 -0.27173233303E+02  0.14273656803E+03  0.12508927907E+03 0.  0.
          5    1    3    3  502    0  0.14111921643E+01  0.80993974941E+02 -0.17150588949E+02  0.82907361201E+02  0.41800000000E+01 0. -1.
         -5    1    3    3    0  502 -0.46180536830E+02 -0.36454988801E+02 -0.10022644354E+02  0.59829206833E+02  0.41800000000E+01 0. -1.
        -11    1    1    2    0    0 -0.54932499773E-01 -0.35720462452E+02  0.36981986108E+02  0.51416162360E+02  0.00000000000E+00 0.  1.
         11    1    1    2    0    0  0.44824277166E+02 -0.88185236883E+01 -0.26553741165E+02  0.52840167991E+02  0.00000000000E+00 0. -1.
</event>
<event>
 7    1  0.2334784E-009  0.1038714E+03  0.7561462E-02  0.1272359E+00
         -2   -1    0    0    0  501 -0.00000000000E+00  0.00000000000E+00  0.27998148956E+02  0.27998148956E+02  0.00000000000E+00 0.  1.
          2   -1    0    0  501    0  0.00000000000E+00 -0.00000000000E+00 -0.43307473859E+03  0.43307473859E+03  0.00000000000E+00 0. -1.
         25    2    1    2    0    0 -0.30212208325E+02  0.84076308883E+01 -0.18620728637E+03  0.22650371648E+03  0.12508922534E+03 0.  0.
          5    1    3    3  502    0 -0.30071631525E+02 -0.55265739901E+02 -0.72243896868E+02  0.95891908231E+02  0.41800000000E+01 0.  1.
         -5    1    3    3    0  502 -0.14057679986E+00  0.63673370789E+02 -0.11396338950E+03  0.13061180825E+03  0.41800000000E+01 0.  1.
        -11    1    1    2    0    0  0.26256381949E+02 -0.40649808553E+02 -0.16203190153E+03  0.16910393740E+03  0.00000000000E+00 0. -1.
         11    1    1    2    0    0  0.39558263764E+01  0.32242177664E+02 -0.56837401733E+02  0.65465233664E+02  0.00000000000E+00 0.  1.
</event>
<event>
 7    1  0.2334784E-009  0.1135967E+03  0.7561462E-02  0.1254051E+00
         -1   -1    0    0    0  501 -0.00000000000E+00  0.00000000000E+00  0.11653236113E+03  0.11653236113E+03  0.00000000000E+00 0.  1.
          1   -1    0    0  501    0  0.00000000000E+00 -0.00000000000E+00 -0.12306490495E+03  0.12306490495E+03  0.00000000000E+00 0. -1.
         25    2    1    2    0    0  0.35321673040E+02 -0.37194819266E+02  0.36735480570E+01  0.13524573976E+03  0.12508732950E+03 0.  0.
          5    1    3    3  502    0  0.33669665405E+02  0.37082969625E+02  0.27266515935E+02  0.57181538069E+02  0.41800000000E+01 0. -1.
         -5    1    3    3    0  502  0.16520076348E+01 -0.74277788892E+02 -0.23592967878E+02  0.78064201688E+02  0.41800000000E+01 0. -1.
        -11    1    1    2    0    0  0.30051822081E+02  0.13983079867E+02 -0.11156657274E+02  0.34972982923E+02  0.00000000000E+00 0.  1.
         11    1    1    2    0    0 -0.65373495121E+02  0.23211739399E+02  0.95056540109E+00  0.69378543404E+02  0.00000000000E+00 0. -1.
</event>
<event>
 7    1  0.2334784E-009  0.1113278E+03  0.7561462E-02  0.1258131E+00
         -2   -1    0    0    0  501 -0.00000000000E+00  0.00000000000E+00  0.28818663725E+02  0.28818663725E+02  0.00000000000E+00 0.  1.
          2   -1    0    0  501    0  0.00000000000E+00 -0.00000000000E+00 -0.73517015428E+03  0.73517015428E+03  0.00000000000E+00 0. -1.
         25    2    1    2    0    0 -0.18517457709E+02 -0.10414560634E+03 -0.53075625662E+03  0.55545999742E+03  0.12507758085E+03 0.  0.
          5    1    3    3  502    0  0.87160345573E+01 -0.31678242201E+02 -0.41390803643E+03  0.41523103847E+03  0.41800000000E+01 0. -1.
         -5    1    3    3    0  502 -0.27233492267E+02 -0.72467364141E+02 -0.11684822019E+03  0.14022895895E+03  0.41800000000E+01 0. -1.
        -11    1    1    2    0    0 -0.60492083465E+01  0.68203870277E+02 -0.97918496965E+02  0.11948386038E+03  0.00000000000E+00 0.  1.
         11    1    1    2    0    0  0.24566666056E+02  0.35941736065E+02 -0.77676736964E+02  0.89044960204E+02  0.00000000000E+00 0. -1.
</event>
<event>
 7    1  0.2334784E-009  0.2042987E+03  0.7561462E-02  0.1146162E+00
         -2   -1    0    0    0  501 -0.00000000000E+00  0.00000000000E+00  0.86187842201E+03  0.86187842201E+03  0.00000000000E+00 0.  1.
          2   -1    0    0  501    0  0.00000000000E+00 -0.00000000000E+00 -0.77842699981E+02  0.77842699981E+02  0.00000000000E+00 0. -1.
         25    2    1    2    0    0 -0.95194250221E+02  0.17733685675E+03  0.18254562498E+03  0.29913303411E+03  0.12508941144E+03 0.  0.
          5    1    3    3  502    0 -0.60688916880E+02  0.78779818065E+02  0.16567367027E+03  0.19327348962E+03  0.41800000000E+01 0.  1.
         -5    1    3    3    0  502 -0.34505333342E+02  0.98557038688E+02  0.16871954708E+02  0.10585954449E+03  0.41800000000E+01 0.  1.
        -11    1    1    2    0    0  0.43850573648E+02 -0.46050908830E+02  0.31427071041E+03  0.32063942121E+03  0.00000000000E+00 0.  1.
         11    1    1    2    0    0  0.51343676574E+02 -0.13128594792E+03  0.28721938664E+03  0.31994866668E+03  0.00000000000E+00 0. -1.
</event>
<event>
 7    1  0.2334784E-009  0.1802784E+03  0.7561462E-02  0.1167534E+00
          1   -1    0    0  501    0  0.00000000000E+00  0.00000000000E+00  0.14119334364E+04  0.14119334364E+04  0.00000000000E+00 0. -1.
         -1   -1    0    0    0  501 -0.00000000000E+00 -0.00000000000E+00 -0.31276881242E+02  0.31276881242E+02  0.00000000000E+00 0.  1.
         25    2    1    2    0    0  0.10127832847E+03 -0.11771470855E+03  0.10241665269E+04  0.10433985791E+04  0.12509783261E+03 0.  0.
          5    1    3    3  502    0  0.75267855963E+02 -0.11741263290E+02  0.24462621403E+03  0.25624707685E+03  0.41800000000E+01 0.  1.
         -5    1    3    3    0  502  0.26010472503E+02 -0.10597344526E+03  0.77954031285E+03  0.78715150228E+03  0.41800000000E+01 0.  1.
        -11    1    1    2    0    0 -0.70481942143E+02  0.20967180208E+02  0.20177744237E+03  0.21475908145E+03  0.00000000000E+00 0. -1.
         11    1    1    2    0    0 -0.30796386323E+02  0.96747528342E+02  0.15471258594E+03  0.18505265710E+03  0.00000000000E+00 0.  1.
</event>
<event>
 7    1  0.2334784E-009  0.9017819E+02  0.7561462E-02  0.1302421E+00
         -2   -1    0    0    0  501 -0.00000000000E+00  0.00000000000E+00  0.15344823908E+02  0.15344823908E+02  0.00000000000E+00 0.  1.
          2   -1    0    0  501    0  0.00000000000E+00 -0.00000000000E+00 -0.11137989713E+04  0.11137989713E+04  0.00000000000E+00 0. -1.
         25    2    1    2    0    0  0.32445927902E+02 -0.98017198095E+01 -0.89375834207E+03  0.90310437331E+03  0.12507886766E+03 0.  0.
          5    1    3    3  502    0  0.59203140425E+02 -0.44089374138E+02 -0.35728313475E+03  0.36485284092E+03  0.41800000000E+01 0.  1.
         -5    1    3    3    0  502 -0.26757212523E+02  0.34287654329E+02 -0.53647520731E+03  0.53825153239E+03  0.41800000000E+01 0.  1.
        -11    1    1    2    0    0  0.14327988240E+02 -0.20571252008E+01  0.12380486033E+01  0.14527758789E+02  0.00000000000E+00 0.  1.
         11    1    1    2    0    0 -0.46773916142E+02  0.11858845010E+02 -0.20593385393E+03  0.21151166311E+03  0.00000000000E+00 0. -1.
</event>
<event>
 7    1  0.2334784E-009  0.2108415E+03  0.7561462E-02  0.1140901E+00
         -1   -1    0    0    0  501 -0.00000000000E+00  0.00000000000E+00  0.28655948904E+02  0.28655948904E+02  0.00000000000E+00 0.  1.
          1   -1    0    0  501    0  0.00000000000E+00 -0.00000000000E+00 -0.18711038758E+04  0.18711038758E+04  0.00000000000E+00 0. -1.
         25    2    1    2    0    0 -0.10575621669E+02 -0.20090237889E+03 -0.10884747998E+04  0.11139564041E+04  0.12509144972E+03 0.  0.
          5    1    3    3  502    0  0.14759039629E+02 -0.13474372098E+03 -0.41146746354E+03  0.43323970911E+03  0.41800000000E+01 0. -1.
         -5    1    3    3    0  502 -0.25334661298E+02 -0.66158657908E+02 -0.67700733624E+03  0.68071669496E+03  0.41800000000E+01 0. -1.
        -11    1    1    2    0    0 -0.19103964885E+02  0.17399672413E+03 -0.67398603959E+03  0.69634546243E+03  0.00000000000E+00 0. -1.
         11    1    1    2    0    0  0.29679586554E+02  0.26905654754E+02 -0.79987087532E+02  0.89457958213E+02  0.00000000000E+00 0.  1.
</event>
<event>
 7    1  0.2334784E-009  0.6395826E+02  0.7561462E-02  0.1381933E+00
          2   -1    0    0  501    0  0.00000000000E+00  0.00000000000E+00  0.39197102143E+03  0.39197102143E+03  0.00000000000E+00 0. -1.
         -2   -1    0    0    0  501 -0.00000000000E+00 -0.00000000000E+00 -0.33575759417E+02  0.33575759417E+02  0.00000000000E+00 0.  1.
         25    2    1    2    0    0  0.10785887865E+02  0.23252967509E+02  0.26085913546E+03  0.29043462493E+03  0.12509095463E+03 0.  0.
          5    1    3    3  502    0 -0.19247735636E+02  0.32267971137E+02  0.12131335630E+02  0.39703135803E+02  0.41800000000E+01 0.  1.
         -5    1    3    3    0  502  0.30033623501E+02 -0.90150036282E+01  0.24872779983E+03  0.25073148913E+03  0.41800000000E+01 0.  1.
        -11    1    1    2    0    0  0.18322695875E+02 -0.22950184566E+02  0.10156410710E+03  0.10572464238E+03  0.00000000000E+00 0. -1.
         11    1    1    2    0    0 -0.29108583739E+02 -0.30278294323E+00 -0.40279805437E+01  0.29387513540E+02  0.00000000000E+00 0.  1.
</event>
<event>
 7    1  0.2334784E-009  0.1005425E+03  0.7561462E-02  0.1279159E+00
         -2   -1    0    0    0  501 -0.00000000000E+00  0.00000000000E+00  0.98899397503E+02  0.98899397503E+02  0.00000000000E+00 0.  1.
          2   -1    0    0  501    0  0.00000000000E+00 -0.00000000000E+00 -0.16385421537E+03  0.16385421537E+03  0.00000000000E+00 0. -1.
         25    2    1    2    0    0  0.48082041579E+02  0.43613351856E+02 -0.49724874714E+02  0.14944455001E+03  0.12508838147E+03 0.  0.
          5    1    3    3  502    0  0.37548103187E+02  0.83047865489E+02 -0.57274790767E+02  0.10772502993E+03  0.41800000000E+01 0.  1.
         -5    1    3    3    0  502  0.10533938392E+02 -0.39434513633E+02  0.75499160534E+01  0.41719520083E+02  0.41800000000E+01 0.  1.
        -11    1    1    2    0    0 -0.17388883236E+02 -0.31179746980E+02  0.37031957648E+02  0.51438465852E+02  0.00000000000E+00 0.  1.
         11    1    1    2    0    0 -0.30693158344E+02 -0.12433604875E+02 -0.52261900801E+02  0.61870597012E+02  0.00000000000E+00 0. -1.
</event>
<event>
 7    1  0.2334784E-009  0.2071979E+03  0.7561462E-02  0.1143804E+00
         -1   -1    0    0    0  501 -0.00000000000E+00  0.00000000000E+00  0.44793967835E+03  0.44793967835E+03  0.00000000000E+00 0.  1.
          1   -1    0    0  501    0  0.00000000000E+00 -0.00000000000E+00 -0.10575273691E+03  0.10575273691E+03  0.00000000000E+00 0. -1.
         25    2    1    2    0    0  0.17958206425E+03  0.21179586395E+02  0.24575061280E+03  0.32974717800E+03  0.12506616259E+03 0.  0.
          5    1    3    3  502    0  0.91086492836E+02  0.67433943344E+02  0.90422430574E+02  0.14504404242E+03  0.41800000000E+01 0.  1.
         -5    1    3    3    0  502  0.88495571416E+02 -0.46254356949E+02  0.15532818222E+03  0.18470313557E+03  0.41800000000E+01 0.  1.
        -11    1    1    2    0    0 -0.11109770147E+03 -0.55781858988E+02  0.70706795013E+02  0.14301666310E+03  0.00000000000E+00 0. -1.
         11    1    1    2    0    0 -0.68484362782E+02  0.34602272593E+02  0.25729533631E+02  0.80928574157E+02  0.00000000000E+00 0.  1.
</event>
<event>
 7    1  0.2334784E-009  0.2437307E+03  0.7561462E-02  0.1117332E+00
         -2   -1    0    0    0  501 -0.00000000000E+00  0.00000000000E+00  0.78029842086E+02  0.78029842086E+02  0.00000000000E+00 0.  1.
          2   -1    0    0  501    0  0.00000000000E+00 -0.00000000000E+00 -0.10399026240E+04  0.10399026240E+04  0.00000000000E+00 0. -1.
         25    2    1    2    0    0  0.14108635837E+03 -0.18139375528E+03 -0.24068651435E+03  0.35550979614E+03  0.12509261366E+03 0.  0.
          5    1    3    3  502    0  0.90878964035E+02 -0.16265846072E+03 -0.11546850212E+03  0.21924235067E+03  0.41800000000E+01 0.  1.
         -5    1    3    3    0  502  0.50207394334E+02 -0.18735294562E+02 -0.12521801223E+03  0.13626744547E+03  0.41800000000E+01 0.  1.
        -11    1    1    2    0    0 -0.52167148454E+02  0.13971329286E+03 -0.43723617770E+03  0.46197044351E+03  0.00000000000E+00 0.  1.
         11    1    1    2    0    0 -0.88919209915E+02  0.41680462414E+02 -0.28395008991E+03  0.30045222648E+03  0.00000000000E+00 0. -1.
</event>
<event>
 6    1  0.2334784E-009  0.1080755E+03  0.7561462E-02  0.1264176E+00
         -2   -1    0    0    0  501 -0.00000000000E+00  0.00000000000E+00  0.21463817215E+03  0.21463817215E+03  0.00000000000E+00 0.  1.
          2   -1    0    0  501    0  0.00000000000E+00 -0.00000000000E+00 -0.75016767661E+02  0.75016767661E+02  0.00000000000E+00 0. -1.
          5    1    1    2  502    0  0.33109668034E+02  0.49582193548E+02  0.10535337653E+03  0.12112576266E+03  0.41800000000E+01 0.  1.
         -5    1    1    2    0  502  0.24531140439E+02 -0.50096936949E+02  0.70537463326E+01  0.56380029090E+02  0.41800000000E+01 0.  1.
        -11    1    1    2    0    0 -0.59049392075E+02  0.33192262923E+02  0.38048903043E+02  0.77693474920E+02  0.00000000000E+00 0.  1.
         11    1    1    2    0    0  0.14085836014E+01 -0.32677519523E+02 -0.10834621419E+02  0.34455673135E+02  0.00000000000E+00 0. -1.
</event>
<event>
 7    1  0.2334784E-009  0.9875284E+02  0.7561462E-02  0.1282941E+00
         -2   -1    0    0    0  501 -0.00000000000E+00  0.00000000000E+00  0.15296930917E+02  0.15296930917E+02  0.00000000000E+00 0.  1.
          2   -1    0    0  501    0  0.00000000000E+00 -0.00000000000E+00 -0.12115409346E+04  0.12115409346E+04  0.00000000000E+00 0. -1.
         25    2    1    2    0    0 -0.23405833341E+02  0.73731528560E+02 -0.77774463384E+03  0.79152966622E+03  0.12509326800E+03 0.  0.
          5    1    3    3  502    0 -0.30980376040E+02  0.65250268543E+02 -0.77591034013E+03  0.77927640126E+03  0.41800000000E+01 0. -1.
         -5    1    3    3    0  502  0.75745426986E+01  0.84812600176E+01 -0.18342937063E+01  0.12253264952E+02  0.41800000000E+01 0. -1.
        -11    1    1    2    0    0  0.52463425945E+02 -0.63183597961E+02 -0.35881474412E+03  0.36809319297E+03  0.00000000000E+00 0. -1.
         11    1    1    2    0    0 -0.29057592604E+02 -0.10547930599E+02 -0.59684625719E+02  0.67215006323E+02  0.00000000000E+00 0.  1.
</event>
<event>
 7    1  0.2334784E-009  0.2933565E+03  0.7561462E-02  0.1088610E+00
          3   -1    0    0  501    0  0.00000000000E+00  0.00000000000E+00  0.34835626194E+03  0.34835626194E+03  0.00000000000E+00 0. -1.
         -3   -1    0    0    0  501 -0.00000000000E+00 -0.00000000000E+00 -0.51108894605E+03  0.51108894605E+03  0.00000000000E+00 0.  1.
         25    2    1    2    0    0 -0.92024675590E+02  0.26472638716E+03  0.21952553308E+03  0.37734106452E+03  0.12508484450E+03 0.  0.
          5    1    3    3  502    0 -0.45210179727E+02  0.26503517190E+02  0.40905773138E+01  0.52731413760E+02  0.41800000000E+01 0.  1.
         -5    1    3    3    0  502 -0.46814495862E+02  0.23822286997E+03  0.21543495577E+03  0.32460965076E+03  0.41800000000E+01 0.  1.
        -11    1    1    2    0    0  0.81967067880E+02 -0.11478429974E+03 -0.15412991447E+03  0.20892598263E+03  0.00000000000E+00 0. -1.
         11    1    1    2    0    0  0.10057607710E+02 -0.14994208742E+03 -0.22812830273E+03  0.27317816084E+03  0.00000000000E+00 0.  1.
</event>
<event>
 7    1  0.2334784E-009  0.1201480E+03  0.7561462E-02  0.1242853E+00
          2   -1    0    0  501    0  0.00000000000E+00  0.00000000000E+00  0.32205534965E+03  0.32205534965E+03  0.00000000000E+00 0. -1.
         -2   -1    0    0    0  501 -0.00000000000E+00 -0.00000000000E+00 -0.52282759733E+02  0.52282759733E+02  0.00000000000E+00 0.  1.
         25    2    1    2    0    0 -0.36583199553E+02  0.60450508477E+02  0.13056095682E+03  0.19411822819E+03  0.12507249340E+03 0.  0.
          5    1    3    3  502    0  0.88572640869E+01  0.76791814246E+02  0.12260489828E+03  0.14499954257E+03  0.41800000000E+01 0.  1.
         -5    1    3    3    0  502 -0.45440463640E+02 -0.16341305769E+02  0.79560585381E+01  0.49118685624E+02  0.41800000000E+01 0.  1.
        -11    1    1    2    0    0  0.29122526321E+02  0.18895907419E+02  0.44456723589E+02  0.56405470734E+02  0.00000000000E+00 0. -1.
         11    1    1    2    0    0  0.74606732316E+01 -0.79346415896E+02  0.94754909504E+02  0.12381441045E+03  0.00000000000E+00 0.  1.
</event>
<event>
 7    1  0.2334784E-009  0.2537066E+03  0.7561462E-02  0.1110985E+00
          2   -1    0    0  501    0  0.00000000000E+00  0.00000000000E+00  0.16575157272E+04  0.16575157272E+04  0.00000000000E+00 0. -1.
         -2   -1    0    0    0  501 -0.00000000000E+00 -0.00000000000E+00 -0.42961216746E+02  0.42961216746E+02  0.00000000000E+00 0.  1.
         25    2    1    2    0    0  0.11698090730E+03  0.20367454816E+03  0.62402780151E+03  0.67840006528E+03  0.12509235497E+03 0.  0.
          5    1    3    3  502    0  0.11876746209E+03  0.86044681603E+02  0.30803784677E+03  0.34119522964E+03  0.41800000000E+01 0.  1.
         -5    1    3    3    0  502 -0.17865547938E+01  0.11762986656E+03  0.31598995474E+03  0.33720483564E+03  0.41800000000E+01 0.  1.
        -11    1    1    2    0    0 -0.17661468108E+02 -0.91334033326E+02  0.25543359554E+03  0.27184582915E+03  0.00000000000E+00 0.  1.
         11    1    1    2    0    0 -0.99319439191E+02 -0.11234051484E+03  0.73509311344E+03  0.75023104955E+03  0.00000000000E+00 0. -1.
</event>
<event>
 7    1  0.2334784E-009  0.1999418E+03  0.7561462E-02  0.1149788E+00
          1   -1    0    0  501    0  0.00000000000E+00  0.00000000000E+00  0.13736319992E+03  0.13736319992E+03  0.00000000000E+00 0. -1.
         -1   -1    0    0    0  501 -0.00000000000E+00 -0.00000000000E+00 -0.31032114828E+03  0.31032114828E+03  0.00000000000E+00 0.  1.
         25    2    1    2    0    0  0.87185027688E+02  0.15165019948E+03 -0.79521633168E+02  0.22927971369E+03  0.12508591012E+03 0.  0.
          5    1    3    3  502    0 -0.42119288947E+01 -0.19462390744E+02 -0.13052034560E+02  0.24173394561E+02  0.41800000000E+01 0. -1.
         -5    1    3    3    0  502  0.91396956583E+02  0.17111259022E+03 -0.66469598608E+02  0.20510631912E+03  0.41800000000E+01 0. -1.
        -11    1    1    2    0    0 -0.36727541322E+02 -0.12102565555E+03 -0.26611008234E+02  0.12924498966E+03  0.00000000000E+00 0. -1.
         11    1    1    2    0    0 -0.50457486366E+02 -0.30624543934E+02 -0.66825306957E+02  0.89159644859E+02  0.00000000000E+00 0.  1.
</event>
<event>
 7    1  0.2334784E-009  0.1233610E+03  0.7561462E-02  0.1237653E+00
         -4   -1    0    0    0  501 -0.00000000000E+00  0.00000000000E+00  0.22492904561E+03  0.22492904561E+03  0.00000000000E+00 0. -1.
          4   -1    0    0  501    0  0.00000000000E+00 -0.00000000000E+00 -0.90769419130E+02  0.90769419130E+02  0.00000000000E+00 0.  1.
         25    2    1    2    0    0 -0.61983920548E+02  0.67885285578E+02  0.86036274929E+02  0.17748309726E+03  0.12509033058E+03 0.  0.
          5    1    3    3  502    0  0.76721853071E+01  0.70870961259E+02  0.66066191751E+01  0.71712449366E+02  0.41800000000E+01 0. -1.
         -5    1    3    3    0  502 -0.69656105856E+02 -0.29856756812E+01  0.79429655754E+02  0.10577064789E+03  0.41800000000E+01 0. -1.
        -11    1    1    2    0    0  0.24270575799E+02 -0.62909700619E+02 -0.10590329439E+02  0.68255742317E+02  0.00000000000E+00 0. -1.
         11    1    1    2    0    0  0.37713344749E+02 -0.49755849585E+01  0.58713680987E+02  0.69959625162E+02  0.00000000000E+00 0.  1.
</event>
<event>
 7    1  0.2334784E-009  0.1247330E+03  0.7561462E-02  0.1235487E+00
          1   -1    0    0  501    0  0.00000000000E+00  0.00000000000E+00  0.10829468506E+03  0.10829468506E+03  0.00000000000E+00 0. -1.
         -1   -1    0    0    0  501 -0.00000000000E+00 -0.00000000000E+00 -0.20753866030E+03  0.20753866030E+03  0.00000000000E+00 0.  1.
         25    2    1    2    0    0  0.17650827992E+02 -0.10023070596E+03 -0.59445438637E+02  0.17187088475E+03  0.12509234471E+03 0.  0.
          5    1    3    3  502    0  0.33214602195E+02 -0.88655339798E+02  0.13998807460E+02  0.95793622355E+02  0.41800000000E+01 0. -1.
         -5    1    3    3    0  502 -0.15563774204E+02 -0.11575366166E+02 -0.73444246096E+02  0.76077262398E+02  0.41800000000E+01 0. -1.
        -11    1    1    2    0    0  0.36055290598E+02  0.33657943310E+02  0.68944635771E+00  0.49328657636E+02  0.00000000000E+00 0.  1.
         11    1    1    2    0    0 -0.53706118589E+02  0.66572762654E+02 -0.40487982964E+02  0.94633802976E+02  0.00000000000E+00 0. -1.
</event>
<event>
 7    1  0.2334784E-009  0.1057265E+03  0.7561462E-02  0.1268695E+00
          2   -1    0    0  501    0  0.00000000000E+00  0.00000000000E+00  0.10869930559E+03  0.10869930559E+03  0.00000000000E+00 0.  1.
         -2   -1    0    0    0  501 -0.00000000000E+00 -0.00000000000E+00 -0.12384541733E+03  0.12384541733E+03  0.00000000000E+00 0. -1.
         25    2    1    2    0    0 -0.37885507021E+02 -0.22725103606E+02 -0.38977254651E+02  0.13827064540E+03  0.12509117884E+03 0.  0.
          5    1    3    3  502    0 -0.27320208418E+01  0.46021021223E+02  0.91558227623E+01  0.47187920306E+02  0.41800000000E+01 0. -1.
         -5    1    3    3    0  502 -0.35153486179E+02 -0.68746124829E+02 -0.48133077413E+02  0.91082725095E+02  0.41800000000E+01 0. -1.
        -11    1    1    2    0    0 -0.23375385313E+02  0.90598001476E+01  0.18743142388E+02  0.31301661358E+02  0.00000000000E+00 0.  1.
         11    1    1    2    0    0  0.61260892334E+02  0.13665303458E+02  0.50880005204E+01  0.62972416163E+02  0.00000000000E+00 0. -1.
</event>
<event>
 7    1  0.2334784E-009  0.2266038E+03  0.7561462E-02  0.1129053E+00
         -2   -1    0    0    0  501 -0.00000000000E+00  0.00000000000E+00  0.59969163460E+02  0.59969163460E+02  0.00000000000E+00 0.  1.
          2   -1    0    0  501    0  0.00000000000E+00 -0.00000000000E+00 -0.10456220568E+04  0.10456220568E+04  0.00000000000E+00 0. -1.
         25    2    1    2    0    0  0.15151746154E+02 -0.21473965083E+03 -0.65615759171E+03  0.70180687359E+03  0.12508960635E+03 0.  0.
          5    1    3    3  502    0 -0.26586721555E+02 -0.26804511171E+02 -0.35597077731E+02  0.52057275430E+02  0.41800000000E+01 0.  1.
         -5    1    3    3    0  502  0.41738467709E+02 -0.18793513966E+03 -0.62056051398E+03  0.64974959816E+03  0.41800000000E+01 0.  1.
        -11    1    1    2    0    0  0.21553136389E+02  0.95532311020E+02 -0.20682556228E+03  0.22884006063E+03  0.00000000000E+00 0. -1.
         11    1    1    2    0    0 -0.36704882543E+02  0.11920733981E+03 -0.12266973938E+03  0.17494428606E+03  0.00000000000E+00 0.  1.
</event>
<event>
 7    1  0.2334784E-009  0.1293871E+03  0.7561462E-02  0.1228368E+00
          3   -1    0    0  501    0  0.00000000000E+00  0.00000000000E+00  0.12984679932E+03  0.12984679932E+03  0.00000000000E+00 0. -1.
         -3   -1    0    0    0  501 -0.00000000000E+00 -0.00000000000E+00 -0.16936885493E+03  0.16936885493E+03  0.00000000000E+00 0.  1.
         25    2    1    2    0    0 -0.47164847760E+02  0.88912421037E+02 -0.14697335302E+02  0.16121190217E+03  0.12507327555E+03 0.  0.
          5    1    3    3  502    0 -0.78554525165E+02  0.46602152547E+02  0.25374843613E+02  0.94889035901E+02  0.41800000000E+01 0.  1.
         -5    1    3    3    0  502  0.31389677405E+02  0.42310268490E+02 -0.40072178915E+02  0.66322866270E+02  0.41800000000E+01 0.  1.
        -11    1    1    2    0    0  0.50660587093E+02 -0.37669593419E+02  0.23615103044E+02  0.67403015101E+02  0.00000000000E+00 0.  1.
         11    1    1    2    0    0 -0.34957393327E+01 -0.51242827618E+02 -0.48439823345E+02  0.70600736975E+02  0.00000000000E+00 0. -1.
</event>
<event>
 7    1  0.2334784E-009  0.1694691E+03  0.7561462E-02  0.1178403E+00
          1   -1    0    0  501    0  0.00000000000E+00  0.00000000000E+00  0.92915820221E+03  0.92915820221E+03  0.00000000000E+00 0. -1.
         -1   -1    0    0    0  501 -0.00000000000E+00 -0.00000000000E+00 -0.36014744939E+02  0.36014744939E+02  0.00000000000E+00 0.  1.
         25    2    1    2    0    0  0.18633002247E+02 -0.14554511559E+03  0.49623958825E+03  0.53238298193E+03  0.12508933231E+03 0.  0.
          5    1    3    3  502    0 -0.30698705175E+02 -0.49799984006E+02  0.32349164183E+03  0.32876551468E+03  0.41800000000E+01 0. -1.
         -5    1    3    3    0  502  0.49331707421E+02 -0.95745131580E+02  0.17274794642E+03  0.20361746725E+03  0.41800000000E+01 0. -1.
        -11    1    1    2    0    0 -0.10940405989E+02 -0.11146893897E+02  0.39126879202E+02  0.42129068383E+02  0.00000000000E+00 0.  1.
         11    1    1    2    0    0 -0.76925962577E+01  0.15669200948E+03  0.35777698981E+03  0.39066089683E+03  0.00000000000E+00 0. -1.
</event>
<event>
 7    1  0.2334784E-009  0.1437124E+03  0.7561462E-02  0.1208419E+00
          2   -1    0    0  501    0  0.00000000000E+00  0.00000000000E+00  0.11923160761E+04  0.11923160761E+04  0.00000000000E+00 0. -1.
         -2   -1    0    0    0  501 -0.00000000000E+00 -0.00000000000E+00 -0.21706819739E+02  0.21706819739E+02  0.00000000000E+00 0.  1.
         25    2    1    2    0    0  0.10111521508E+03  0.49201831413E+02  0.78844718923E+03  0.80618937596E+03  0.12508889947E+03 0.  0.
          5    1    3    3  502    0  0.91424244909E+02  0.87519993362E+02  0.54492653636E+03  0.55944664109E+03  0.41800000000E+01 0. -1.
         -5    1    3    3    0  502  0.96909701763E+01 -0.38318161949E+02  0.24352065287E+03  0.24674273487E+03  0.41800000000E+01 0. -1.
        -11    1    1    2    0    0 -0.53148749607E+02 -0.11624613036E+01  0.28113072228E+03  0.28611295656E+03  0.00000000000E+00 0. -1.
         11    1    1    2    0    0 -0.47966465478E+02 -0.48039370109E+02  0.10103134481E+03  0.12172056328E+03  0.00000000000E+00 0.  1.
</event>
