<event>
 7    1  0.2619826E-009  0.1013419E+03  0.7561462E-02  0.1277499E+00
         -1   -1    0    0    0  501 -0.00000000000E+00  0.00000000000E+00  0.27523552035E+02  0.27523552035E+02  0.00000000000E+00 0.  1.
          1   -1    0    0  501    0  0.00000000000E+00 -0.00000000000E+00 -0.59257520102E+03  0.59257520102E+03  0.00000000000E+00 0. -1.
         25    2    1    2    0    0 -0.50644395432E+02  0.47681024965E+02 -0.30002355319E+03  0.33241557080E+03  0.12509054445E+03 0.  0.
          5    1    3    3  502    0 -0.40520454234E+02  0.62193484836E+02 -0.30470235142E+03  0.31364140691E+03  0.41800000000E+01 0.  1.
         -5    1    3    3    0  502 -0.10123941198E+02 -0.14512459871E+02  0.46787982287E+01  0.18774163890E+02  0.41800000000E+01 0.  1.
        -11    1    1    2    0    0 -0.18458434013E+01 -0.56841878670E+02 -0.11140631789E+03  0.12508306830E+03  0.00000000000E+00 0.  1.
         11    1    1    2    0    0  0.52490238834E+02  0.91608537046E+01 -0.15362177790E+03  0.16260011396E+03  0.00000000000E+00 0. -1.
</event>
<event>
 7    1  0.2619826E-009  0.1136040E+03  0.7561462E-02  0.1254038E+00
         -2   -1    0    0    0  501 -0.00000000000E+00  0.00000000000E+00  0.82630682416E+03  0.82630682416E+03  0.00000000000E+00 0.  1.
          2   -1    0    0  501    0  0.00000000000E+00 -0.00000000000E+00 -0.17367084109E+02  0.17367084109E+02  0.00000000000E+00 0. -1.
         25    2    1    2    0    0 -0.35047095869E+02  0.28681858804E+02  0.40019986832E+03  0.42173429490E+03  0.12509569514E+03 0.  0.
          5    1    3    3  502    0  0.41941258834E+02  0.85787472980E+01  0.70863136189E+02  0.82895841683E+02  0.41800000000E+01 0. -1.
         -5    1    3    3    0  502 -0.76988354702E+02  0.20103111506E+02  0.32933673213E+03  0.33883845322E+03  0.41800000000E+01 0. -1.
        -11    1    1    2    0    0  0.57740015615E+02  0.11023288809E+02  0.21694791335E+03  0.22477059284E+03  0.00000000000E+00 0.  1.
         11    1    1    2    0    0 -0.22692919747E+02 -0.39705147613E+02  0.19179195838E+03  0.19716902052E+03  0.00000000000E+00 0. -1.
</event>
<event>
 7    1  0.2619826E-009  0.1821203E+03  0.7561462E-02  0.1165767E+00
          2   -1    0    0  501    0  0.00000000000E+00  0.00000000000E+00  0.14402113867E+04  0.14402113867E+04  0.00000000000E+00 0. -1.
         -2   -1    0    0    0  501 -0.00000000000E+00 -0.00000000000E+00 -0.25947688224E+02  0.25947688224E+02  0.00000000000E+00 0.  1.
         25    2    1    2    0    0 -0.15669405731E+03  0.15019903939E+02  0.62508159690E+03  0.65662299140E+03  0.12509246556E+03 0.  0.
          5    1    3    3  502    0 -0.17753194453E+03  0.66681214602E+01  0.53756549011E+03  0.56617681313E+03  0.41800000000E+01 0.  1.
         -5    1    3    3    0  502  0.20837887227E+02  0.83517824789E+01  0.87516106798E+02  0.90446178271E+02  0.41800000000E+01 0.  1.
        -11    1    1    2    0    0  0.21856854399E+02 -0.18769179914E+02  0.46483104444E+02  0.54687139234E+02  0.00000000000E+00 0.  1.
         11    1    1    2    0    0  0.13483720291E+03  0.37492759753E+01  0.74269899708E+03  0.75484894424E+03  0.00000000000E+00 0. -1.
</event>
<event>
 7    1  0.2619826E-009  0.1021812E+03  0.7561462E-02  0.1275775E+00
         -2   -1    0    0    0  501 -0.00000000000E+00  0.00000000000E+00  0.39026090672E+02  0.39026090672E+02  0.00000000000E+00 0.  1.
          2   -1    0    0  501    0  0.00000000000E+00 -0.00000000000E+00 -0.53757730652E+03  0.53757730652E+03  0.00000000000E+00 0. -1.
         25    2    1    2    0    0  0.49577538049E+02  0.35930825795E+02 -0.12501505548E+03  0.18717053015E+03  0.12512028907E+03 0.  0.
          5    1    3    3  502    0  0.77197023348E+02  0.11392371533E+02 -0.27558128510E+02  0.82861869337E+02  0.41800000000E+01 0. -1.
         -5    1    3    3    0  502 -0.27619485300E+02  0.24538454262E+02 -0.97456926968E+02  0.10430866081E+03  0.41800000000E+01 0. -1.
        -11    1    1    2    0    0 -0.64019838875E+02 -0.18994683735E+02 -0.35262680202E+03  0.35889413381E+03  0.00000000000E+00 0. -1.
         11    1    1    2    0    0  0.14442300826E+02 -0.16936142060E+02 -0.20909358348E+02  0.30538733234E+02  0.00000000000E+00 0.  1.
</event>
<event>
 7    1  0.2619826E-009  0.1699597E+03  0.7561462E-02  0.1177890E+00
         -2   -1    0    0    0  501 -0.00000000000E+00  0.00000000000E+00  0.16967347550E+03  0.16967347550E+03  0.00000000000E+00 0.  1.
          2   -1    0    0  501    0  0.00000000000E+00 -0.00000000000E+00 -0.20523735580E+03  0.20523735580E+03  0.00000000000E+00 0. -1.
         25    2    1    2    0    0  0.35715506360E+02  0.12949243777E+03 -0.88445114566E+02  0.20375083598E+03  0.12509187039E+03 0.  0.
          5    1    3    3  502    0  0.66446693934E+02  0.20360952473E+02 -0.26550198059E+02  0.74512528727E+02  0.41800000000E+01 0.  1.
         -5    1    3    3    0  502 -0.30731187574E+02  0.10913148530E+03 -0.61894916506E+02  0.12923830725E+03  0.41800000000E+01 0.  1.
        -11    1    1    2    0    0  0.57915080106E+01 -0.11142579820E+03  0.15894359086E+02  0.11270262074E+03  0.00000000000E+00 0.  1.
         11    1    1    2    0    0 -0.41507014370E+02 -0.18066639567E+02  0.36986875184E+02  0.58457374582E+02  0.00000000000E+00 0. -1.
</event>
<event>
 7    1  0.2619826E-009  0.7165408E+02  0.7561462E-02  0.1354557E+00
          2   -1    0    0  501    0  0.00000000000E+00  0.00000000000E+00  0.88676851074E+03  0.88676851074E+03  0.00000000000E+00 0. -1.
         -2   -1    0    0    0  501 -0.00000000000E+00 -0.00000000000E+00 -0.16815818263E+02  0.16815818263E+02  0.00000000000E+00 0.  1.
         25    2    1    2    0    0 -0.22262243189E+02  0.36490095216E+02  0.62329164432E+03  0.63715422712E+03  0.12508357502E+03 0.  0.
          5    1    3    3  502    0 -0.15545192801E+02  0.97309460925E+01  0.67545820832E+01  0.19986022871E+02  0.41800000000E+01 0. -1.
         -5    1    3    3    0  502 -0.67170503876E+01  0.26759149123E+02  0.61653706224E+03  0.61716820425E+03  0.41800000000E+01 0. -1.
        -11    1    1    2    0    0 -0.33348547762E+02 -0.18552659810E+02  0.13646502580E+03  0.14170049432E+03  0.00000000000E+00 0.  1.
         11    1    1    2    0    0  0.55610790951E+02 -0.17937435406E+02  0.11019602236E+03  0.12472960757E+03  0.00000000000E+00 0. -1.
</event>
<event>
 7    1  0.2619826E-009  0.1023753E+03  0.7561462E-02  0.1275379E+00
         -1   -1    0    0    0  501 -0.00000000000E+00  0.00000000000E+00  0.81263122490E+02  0.81263122490E+02  0.00000000000E+00 0.  1.
          1   -1    0    0  501    0  0.00000000000E+00 -0.00000000000E+00 -0.25776465600E+03  0.25776465600E+03  0.00000000000E+00 0. -1.
         25    2    1    2    0    0 -0.58204633940E+01  0.81621599288E+02 -0.35539067627E+02  0.15366898245E+03  0.12512061211E+03 0.  0.
          5    1    3    3  502    0  0.10547727407E+02  0.21361178179E+02 -0.75591033281E+02  0.79366436226E+02  0.41800000000E+01 0.  1.
         -5    1    3    3    0  502 -0.16368190801E+02  0.60260421109E+02  0.40051965654E+02  0.74302546222E+02  0.41800000000E+01 0.  1.
        -11    1    1    2    0    0 -0.34003189081E+02 -0.67758756631E+02 -0.72168145806E+02  0.10466951436E+03  0.00000000000E+00 0. -1.
         11    1    1    2    0    0  0.39823652475E+02 -0.13862842656E+02 -0.68794320074E+02  0.80689281676E+02  0.00000000000E+00 0.  1.
</event>
<event>
 7    1  0.2619826E-009  0.9189119E+02  0.7561462E-02  0.1298335E+00
         -2   -1    0    0    0  501 -0.00000000000E+00  0.00000000000E+00  0.28223415076E+02  0.28223415076E+02  0.00000000000E+00 0.  1.
          2   -1    0    0  501    0  0.00000000000E+00 -0.00000000000E+00 -0.58671444913E+03  0.58671444913E+03  0.00000000000E+00 0. -1.
         25    2    1    2    0    0 -0.27676872087E+02 -0.45523535552E+02 -0.19468814357E+03  0.23746898043E+03  0.12509852869E+03 0.  0.
          5    1    3    3  502    0  0.18245854858E+02 -0.41727551988E+02 -0.96590058693E+01  0.46742578114E+02  0.41800000000E+01 0. -1.
         -5    1    3    3    0  502 -0.45922726945E+02 -0.37959835645E+01 -0.18502913770E+03  0.19072640231E+03  0.41800000000E+01 0. -1.
        -11    1    1    2    0    0  0.51294732671E+02  0.15510070796E+02 -0.28382970860E+03  0.28884427531E+03  0.00000000000E+00 0. -1.
         11    1    1    2    0    0 -0.23617860583E+02  0.30013464757E+02 -0.79973181879E+02  0.88624608463E+02  0.00000000000E+00 0.  1.
</event>
<event>
 7    1  0.2619826E-009  0.1204228E+03  0.7561462E-02  0.1242401E+00
         -1   -1    0    0    0  501 -0.00000000000E+00  0.00000000000E+00  0.14468097387E+03  0.14468097387E+03  0.00000000000E+00 0.  1.
          1   -1    0    0  501    0  0.00000000000E+00 -0.00000000000E+00 -0.11189309288E+03  0.11189309288E+03  0.00000000000E+00 0. -1.
         25    2    1    2    0    0 -0.85355417401E+01 -0.57289232181E+02 -0.15933521417E+02  0.13876779620E+03  0.12509081725E+03 0.  0.
          5    1    3    3  502    0 -0.52783725625E+02  0.12380931686E+02 -0.13798415164E+02  0.56100604465E+02  0.41800000000E+01 0. -1.
         -5    1    3    3    0  502  0.44248183885E+02 -0.69670163867E+02 -0.21351062525E+01  0.82667191734E+02  0.41800000000E+01 0. -1.
        -11    1    1    2    0    0  0.25997245970E+02 -0.14622415198E+02  0.11822526197E+01  0.29850788021E+02  0.00000000000E+00 0. -1.
         11    1    1    2    0    0 -0.17461704229E+02  0.71911647379E+02  0.47539149792E+02  0.87955482526E+02  0.00000000000E+00 0.  1.
</event>
<event>
 7    1  0.2619826E-009  0.3890879E+03  0.7561462E-02  0.1047625E+00
          2   -1    0    0  501    0  0.00000000000E+00  0.00000000000E+00  0.32562420119E+03  0.32562420119E+03  0.00000000000E+00 0. -1.
         -2   -1    0    0    0  501 -0.00000000000E+00 -0.00000000000E+00 -0.49766474472E+03  0.49766474472E+03  0.00000000000E+00 0.  1.
         25    2    1    2    0    0 -0.73545190653E+02  0.38017433323E+03 -0.99585814248E+02  0.41893654808E+03  0.12509627572E+03 0.  0.
          5    1    3    3  502    0 -0.15925050858E+02  0.21113017847E+02 -0.43326446879E+02  0.50931524291E+02  0.41800000000E+01 0. -1.
         -5    1    3    3    0  502 -0.57620139796E+02  0.35906131539E+03 -0.56259367369E+02  0.36800502379E+03  0.41800000000E+01 0. -1.
        -11    1    1    2    0    0  0.21742453289E+02 -0.16363252110E+03 -0.75876044513E+02  0.18167418740E+03  0.00000000000E+00 0.  1.
         11    1    1    2    0    0  0.51802737364E+02 -0.21654181214E+03  0.34213152332E+01  0.22267821043E+03  0.00000000000E+00 0. -1.
</event>
<event>
 7    1  0.2619826E-009  0.1073750E+03  0.7561462E-02  0.1265510E+00
         -4   -1    0    0    0  501 -0.00000000000E+00  0.00000000000E+00  0.45153112751E+02  0.45153112751E+02  0.00000000000E+00 0.  1.
          4   -1    0    0  501    0  0.00000000000E+00 -0.00000000000E+00 -0.29232107625E+03  0.29232107625E+03  0.00000000000E+00 0. -1.
         25    2    1    2    0    0 -0.82793863979E+01  0.38578799692E+01 -0.19678484527E+03  0.23335632368E+03  0.12508983569E+03 0.  0.
          5    1    3    3  502    0 -0.19729942113E+02  0.61538914973E+02 -0.12205613378E+03  0.13817192502E+03  0.41800000000E+01 0. -1.
         -5    1    3    3    0  502  0.11450555715E+02 -0.57681035003E+02 -0.74728711494E+02  0.95184398652E+02  0.41800000000E+01 0. -1.
        -11    1    1    2    0    0 -0.41332581509E+02 -0.11057718586E+01 -0.25060610504E+02  0.48349138818E+02  0.00000000000E+00 0.  1.
         11    1    1    2    0    0  0.49611967907E+02 -0.27521081106E+01 -0.25322507720E+02  0.55768726504E+02  0.00000000000E+00 0. -1.
</event>
<event>
 7    1  0.2619826E-009  0.1564975E+03  0.7561462E-02  0.1192709E+00
          4   -1    0    0  501    0  0.00000000000E+00  0.00000000000E+00  0.42313159155E+02  0.42313159155E+02  0.00000000000E+00 0. -1.
         -4   -1    0    0    0  501 -0.00000000000E+00 -0.00000000000E+00 -0.71873221582E+03  0.71873221582E+03  0.00000000000E+00 0.  1.
         25    2    1    2    0    0 -0.10196907152E+03  0.75225267548E+02 -0.27690061942E+03  0.32920729615E+03  0.12508780269E+03 0.  0.
          5    1    3    3  502    0 -0.43997346785E+02  0.86118480775E+02 -0.86429523300E+02  0.12976784715E+03  0.41800000000E+01 0.  1.
         -5    1    3    3    0  502 -0.57971724739E+02 -0.10893213228E+02 -0.19047109612E+03  0.19943944901E+03  0.41800000000E+01 0.  1.
        -11    1    1    2    0    0  0.37755737970E+02 -0.84151344334E+02 -0.29267250510E+03  0.30686175999E+03  0.00000000000E+00 0.  1.
         11    1    1    2    0    0  0.64213333553E+02  0.89260767867E+01 -0.10684593216E+03  0.12497631884E+03  0.00000000000E+00 0. -1.
</event>
<event>
 7    1  0.2619826E-009  0.1296892E+03  0.7561462E-02  0.1227918E+00
         -1   -1    0    0    0  501 -0.00000000000E+00  0.00000000000E+00  0.18743166679E+02  0.18743166679E+02  0.00000000000E+00 0.  1.
          1   -1    0    0  501    0  0.00000000000E+00 -0.00000000000E+00 -0.10650547196E+04  0.10650547196E+04  0.00000000000E+00 0. -1.
         25    2    1    2    0    0  0.85729616233E+02 -0.53959980936E+01 -0.67287583848E+03  0.68977348485E+03  0.12508749932E+03 0.  0.
          5    1    3    3  502    0  0.95835773077E+02 -0.44792753565E+02 -0.39654890347E+03  0.41043804821E+03  0.41800000000E+01 0. -1.
         -5    1    3    3    0  502 -0.10106156844E+02  0.39396755472E+02 -0.27632693501E+03  0.27933543663E+03  0.41800000000E+01 0. -1.
        -11    1    1    2    0    0 -0.23401687032E+02  0.36194000172E+02 -0.23710572763E+03  0.24099122531E+03  0.00000000000E+00 0. -1.
         11    1    1    2    0    0 -0.62327929202E+02 -0.30798002079E+02 -0.13632998685E+03  0.15303317615E+03  0.00000000000E+00 0.  1.
</event>
<event>
 7    1  0.2619826E-009  0.1041519E+03  0.7561462E-02  0.1271800E+00
          1   -1    0    0  501    0  0.00000000000E+00  0.00000000000E+00  0.22034030419E+03  0.22034030419E+03  0.00000000000E+00 0. -1.
         -1   -1    0    0    0  501 -0.00000000000E+00 -0.00000000000E+00 -0.82206040259E+02  0.82206040259E+02  0.00000000000E+00 0.  1.
         25    2    1    2    0    0 -0.35768629016E+02  0.17547021417E+02 -0.20554466004E+01  0.13129550928E+03  0.12508794153E+03 0.  0.
          5    1    3    3  502    0 -0.83263879272E+01  0.70461664979E+02  0.42990722099E+01  0.71204841053E+02  0.41800000000E+01 0.  1.
         -5    1    3    3    0  502 -0.27442241089E+02 -0.52914643561E+02 -0.63545188103E+01  0.60090668232E+02  0.41800000000E+01 0.  1.
        -11    1    1    2    0    0 -0.16553026666E+02 -0.18915424478E+02  0.41316742786E+01  0.25472862174E+02  0.00000000000E+00 0.  1.
         11    1    1    2    0    0  0.52321655682E+02  0.13684030607E+01  0.13605803625E+03  0.14577797299E+03  0.00000000000E+00 0. -1.
</event>
<event>
 7    1  0.2619826E-009  0.1175341E+03  0.7561462E-02  0.1247221E+00
         -2   -1    0    0    0  501 -0.00000000000E+00  0.00000000000E+00  0.17631786567E+02  0.17631786567E+02  0.00000000000E+00 0.  1.
          2   -1    0    0  501    0  0.00000000000E+00 -0.00000000000E+00 -0.92305598955E+03  0.92305598955E+03  0.00000000000E+00 0. -1.
         25    2    1    2    0    0  0.17928181719E+02  0.41386237711E+02 -0.68383034335E+03  0.69664028564E+03  0.12509799646E+03 0.  0.
          5    1    3    3  502    0 -0.47459374566E+02  0.47278604709E+02 -0.35700559253E+03  0.36326040824E+03  0.41800000000E+01 0.  1.
         -5    1    3    3    0  502  0.65387556285E+02 -0.58923669980E+01 -0.32682475082E+03  0.33337987740E+03  0.41800000000E+01 0.  1.
        -11    1    1    2    0    0 -0.54921397889E+02 -0.33519431232E+02 -0.14441991835E+03  0.15810447506E+03  0.00000000000E+00 0.  1.
         11    1    1    2    0    0  0.36993216170E+02 -0.78668064781E+01 -0.77173941283E+02  0.85943015422E+02  0.00000000000E+00 0. -1.
</event>
<event>
 7    1  0.2619826E-009  0.1378902E+03  0.7561462E-02  0.1216196E+00
          1   -1    0    0  501    0  0.00000000000E+00  0.00000000000E+00  0.10040038977E+04  0.10040038977E+04  0.00000000000E+00 0. -1.
         -1   -1    0    0    0  501 -0.00000000000E+00 -0.00000000000E+00 -0.20921094025E+02  0.20921094025E+02  0.00000000000E+00 0.  1.
         25    2    1    2    0    0 -0.68640222445E+02  0.64968230645E+02  0.49693300439E+03  0.52107756278E+03  0.12508822665E+03 0.  0.
          5    1    3    3  502    0 -0.38467611308E+02  0.93803419556E+02  0.43213734247E+03  0.44389074534E+03  0.41800000000E+01 0. -1.
         -5    1    3    3    0  502 -0.30172611137E+02 -0.28835188911E+02  0.64795661921E+02  0.77186817437E+02  0.41800000000E+01 0. -1.
        -11    1    1    2    0    0  0.52872933800E+02 -0.89060207453E+02  0.38036368094E+03  0.39421288342E+03  0.00000000000E+00 0. -1.
         11    1    1    2    0    0  0.15767288645E+02  0.24091976808E+02  0.10578611832E+03  0.10963454550E+03  0.00000000000E+00 0.  1.
</event>
<event>
 7    1  0.2619826E-009  0.1582678E+03  0.7561462E-02  0.1190666E+00
         -2   -1    0    0    0  501 -0.00000000000E+00  0.00000000000E+00  0.65146841242E+02  0.65146841242E+02  0.00000000000E+00 0.  1.
          2   -1    0    0  501    0  0.00000000000E+00 -0.00000000000E+00 -0.42373956385E+03  0.42373956385E+03  0.00000000000E+00 0. -1.
         25    2    1    2    0    0  0.38548230164E+02  0.11864323811E+03 -0.20863109645E+03  0.27337884599E+03  0.12508746952E+03 0.  0.
          5    1    3    3  502    0  0.26390001414E+02  0.14241580893E+03 -0.14864198844E+03  0.20758277370E+03  0.41800000000E+01 0. -1.
         -5    1    3    3    0  502  0.12158228750E+02 -0.23772570819E+02 -0.59989108004E+02  0.65796072290E+02  0.41800000000E+01 0. -1.
        -11    1    1    2    0    0  0.22050246600E+02 -0.33337474609E+02 -0.80603344487E+02  0.89969437760E+02  0.00000000000E+00 0. -1.
         11    1    1    2    0    0 -0.60598476764E+02 -0.85305763504E+02 -0.69358281675E+02  0.12553812134E+03  0.00000000000E+00 0.  1.
</event>
<event>
 7    1  0.2619826E-009  0.1278593E+03  0.7561462E-02  0.1230667E+00
          1   -1    0    0  501    0  0.00000000000E+00  0.00000000000E+00  0.20440460753E+03  0.20440460753E+03  0.00000000000E+00 0. -1.
         -1   -1    0    0    0  501 -0.00000000000E+00 -0.00000000000E+00 -0.84625707070E+02  0.84625707070E+02  0.00000000000E+00 0.  1.
         25    2    1    2    0    0  0.35432977776E+02 -0.43681107258E+02  0.63702312781E+02  0.15122709432E+03  0.12509242326E+03 0.  0.
          5    1    3    3  502    0  0.60132689117E+02 -0.71221462136E+02  0.23064248541E+02  0.96113833188E+02  0.41800000000E+01 0.  1.
         -5    1    3    3    0  502 -0.24699711341E+02  0.27540354877E+02  0.40638064240E+02  0.55113261129E+02  0.41800000000E+01 0.  1.
        -11    1    1    2    0    0 -0.73960150920E+02  0.45107765654E+02  0.32012558365E+02  0.92355932888E+02  0.00000000000E+00 0.  1.
         11    1    1    2    0    0  0.38527173145E+02 -0.14266583953E+01  0.24064029313E+02  0.45447287394E+02  0.00000000000E+00 0. -1.
</event>
<event>
 7    1  0.2619826E-009  0.9569864E+02  0.7561462E-02  0.1289610E+00
          2   -1    0    0  501    0  0.00000000000E+00  0.00000000000E+00  0.27470140066E+03  0.27470140066E+03  0.00000000000E+00 0. -1.
         -2   -1    0    0    0  501 -0.00000000000E+00 -0.00000000000E+00 -0.47646995734E+02  0.47646995734E+02  0.00000000000E+00 0.  1.
         25    2    1    2    0    0 -0.29923749915E+02  0.51983777104E+01  0.20302372329E+03  0.24039328473E+03  0.12509134738E+03 0.  0.
          5    1    3    3  502    0 -0.57727189003E+02  0.38475817202E+02  0.17575590263E+03  0.18899848298E+03  0.41800000000E+01 0.  1.
         -5    1    3    3    0  502  0.27803439088E+02 -0.33277439491E+02  0.27267820660E+02  0.51394801758E+02  0.41800000000E+01 0.  1.
        -11    1    1    2    0    0 -0.98351781309E+01 -0.29932921842E+02  0.87447055433E+01  0.32698324328E+02  0.00000000000E+00 0. -1.
         11    1    1    2    0    0  0.39758928045E+02  0.24734544131E+02  0.15285976093E+02  0.49256787327E+02  0.00000000000E+00 0.  1.
</event>
<event>
 7    1  0.3630639E-009  0.1221185E+03  0.7561462E-02  0.1239643E+00
          1   -1    0    0  501    0  0.00000000000E+00  0.00000000000E+00  0.19882470796E+03  0.19882470796E+03  0.00000000000E+00 0. -1.
         -1   -1    0    0    0  501 -0.00000000000E+00 -0.00000000000E+00 -0.12223821774E+03  0.12223821774E+03  0.00000000000E+00 0.  1.
         25    2    1    2    0    0  0.83086427542E+02  0.51853990565E+02  0.96975720893E+02  0.18612886269E+03  0.12508985692E+03 0.  0.
          5    1    3    3  502    0  0.10180346028E+03  0.66872334579E+02  0.47167296572E+02  0.13068312792E+03  0.41800000000E+01 0.  1.
         -5    1    3    3    0  502 -0.18717032734E+02 -0.15018344013E+02  0.49808424322E+02  0.55445734774E+02  0.41800000000E+01 0.  1.
        -11    1    1    2    0    0 -0.54590011360E+02 -0.36038857399E+02 -0.56396304529E+02  0.86367886089E+02  0.00000000000E+00 0.  1.
         11    1    1    2    0    0 -0.28496416183E+02 -0.15815133166E+02  0.36007073859E+02  0.48566176916E+02  0.00000000000E+00 0. -1.
</event>
<event>
 7    1  0.2619826E-009  0.1473853E+03  0.7561462E-02  0.1203723E+00
         -2   -1    0    0    0  501 -0.00000000000E+00  0.00000000000E+00  0.79285187537E+03  0.79285187537E+03  0.00000000000E+00 0.  1.
          2   -1    0    0  501    0  0.00000000000E+00 -0.00000000000E+00 -0.36094065110E+02  0.36094065110E+02  0.00000000000E+00 0. -1.
         25    2    1    2    0    0 -0.12299573788E+03  0.13645742111E+02  0.50134492348E+03  0.53132664610E+03  0.12508842769E+03 0.  0.
          5    1    3    3  502    0 -0.36086566775E+01 -0.39745983533E+02  0.17886962953E+03  0.18331552683E+03  0.41800000000E+01 0.  1.
         -5    1    3    3    0  502 -0.11938708120E+03  0.53391725644E+02  0.32247529395E+03  0.34801111927E+03  0.41800000000E+01 0.  1.
        -11    1    1    2    0    0  0.10355798670E+03 -0.12691711667E+02  0.25770488755E+03  0.27802364148E+03  0.00000000000E+00 0.  1.
         11    1    1    2    0    0  0.19437751178E+02 -0.95403044394E+00 -0.22920007744E+01  0.19595652898E+02  0.00000000000E+00 0. -1.
</event>
<event>
 7    1  0.2619826E-009  0.1148543E+03  0.7561462E-02  0.1251836E+00
         -1   -1    0    0    0  501 -0.00000000000E+00  0.00000000000E+00  0.11778136219E+02  0.11778136219E+02  0.00000000000E+00 0.  1.
          1   -1    0    0  501    0  0.00000000000E+00 -0.00000000000E+00 -0.14679159447E+04  0.14679159447E+04  0.00000000000E+00 0. -1.
         25    2    1    2    0    0  0.26888484123E+02  0.61195349040E+02 -0.10047098095E+04  0.10146709035E+04  0.12508948667E+03 0.  0.
          5    1    3    3  502    0  0.64068510872E+02  0.36122495491E+02 -0.85914693925E+03  0.86229956766E+03  0.41800000000E+01 0.  1.
         -5    1    3    3    0  502 -0.37180026749E+02  0.25072853548E+02 -0.14556287026E+03  0.15237133580E+03  0.41800000000E+01 0.  1.
        -11    1    1    2    0    0 -0.49598846059E+02 -0.70716029680E+02 -0.37027708397E+03  0.38021825482E+03  0.00000000000E+00 0.  1.
         11    1    1    2    0    0  0.22710361935E+02  0.95206806400E+01 -0.81150915008E+02  0.84804922651E+02  0.00000000000E+00 0. -1.
</event>
<event>
 7    1  0.2619826E-009  0.1239856E+03  0.7561462E-02  0.1236663E+00
          1   -1    0    0  501    0  0.00000000000E+00  0.00000000000E+00  0.17149151808E+04  0.17149151808E+04  0.00000000000E+00 0. -1.
         -1   -1    0    0    0  501 -0.00000000000E+00 -0.00000000000E+00 -0.22932108460E+02  0.22932108460E+02  0.00000000000E+00 0.  1.
         25    2    1    2    0    0 -0.58018058258E+02 -0.91071429914E+02  0.14481244789E+04  0.14575226731E+04  0.12509090944E+03 0.  0.
          5    1    3    3  502    0 -0.18303098639E+02 -0.92679627003E+02  0.13182613042E+04  0.13216485370E+04  0.41800000000E+01 0. -1.
         -5    1    3    3    0  502 -0.39714959618E+02  0.16081970890E+01  0.12986317467E+03  0.13587413606E+03  0.41800000000E+01 0. -1.
        -11    1    1    2    0    0  0.45204724502E+02  0.38641728292E+02  0.45851425391E+02  0.75093298590E+02  0.00000000000E+00 0.  1.
         11    1    1    2    0    0  0.12813333756E+02  0.52429701622E+02  0.19800716802E+03  0.20523131759E+03  0.00000000000E+00 0. -1.
</event>
<event>
 7    1  0.2619826E-009  0.2372518E+03  0.7561462E-02  0.1121637E+00
         -1   -1    0    0    0  501 -0.00000000000E+00  0.00000000000E+00  0.89434040436E+02  0.89434040436E+02  0.00000000000E+00 0.  1.
          1   -1    0    0  501    0  0.00000000000E+00 -0.00000000000E+00 -0.94654499519E+03  0.94654499519E+03  0.00000000000E+00 0. -1.
         25    2    1    2    0    0  0.41818383594E+02  0.21510477362E+03 -0.15822347124E+03  0.29782620554E+03  0.12508773328E+03 0.  0.
          5    1    3    3  502    0  0.83313264251E+02  0.10800406531E+03 -0.73187953132E+02  0.15485453499E+03  0.41800000000E+01 0.  1.
         -5    1    3    3    0  502 -0.41494880657E+02  0.10710070830E+03 -0.85035518111E+02  0.14297167055E+03  0.41800000000E+01 0.  1.
        -11    1    1    2    0    0 -0.45713565121E+02 -0.12814514852E+03 -0.29316430963E+03  0.32319687741E+03  0.00000000000E+00 0.  1.
         11    1    1    2    0    0  0.38951815275E+01 -0.86959625099E+02 -0.40572317389E+03  0.41495595268E+03  0.00000000000E+00 0. -1.
</event>
<event>
 7    1  0.2619826E-009  0.7843593E+02  0.7561462E-02  0.1333550E+00
         -2   -1    0    0    0  501 -0.00000000000E+00  0.00000000000E+00  0.28847471784E+02  0.28847471784E+02  0.00000000000E+00 0.  1.
          2   -1    0    0  501    0  0.00000000000E+00 -0.00000000000E+00 -0.49987999789E+03  0.49987999789E+03  0.00000000000E+00 0. -1.
         25    2    1    2    0    0  0.32168840865E+02 -0.26536629988E+02 -0.33451915563E+03  0.35956765562E+03  0.12508719531E+03 0.  0.
          5    1    3    3  502    0 -0.99728163716E+01  0.22864661922E+00 -0.29644892268E+03  0.29664616213E+03  0.41800000000E+01 0. -1.
         -5    1    3    3    0  502  0.42141657236E+02 -0.26765276608E+02 -0.38070232947E+02  0.62921493491E+02  0.41800000000E+01 0. -1.
        -11    1    1    2    0    0 -0.39070084511E+02 -0.23403749533E+02 -0.88542910843E+02  0.99569342955E+02  0.00000000000E+00 0. -1.
         11    1    1    2    0    0  0.69012436469E+01  0.49940379521E+02 -0.47970459633E+02  0.69590471100E+02  0.00000000000E+00 0.  1.
</event>
<event>
 7    1  0.2619826E-009  0.1389668E+03  0.7561462E-02  0.1214726E+00
          1   -1    0    0  501    0  0.00000000000E+00  0.00000000000E+00  0.58150294537E+02  0.58150294537E+02  0.00000000000E+00 0. -1.
         -1   -1    0    0    0  501 -0.00000000000E+00 -0.00000000000E+00 -0.40392733887E+03  0.40392733887E+03  0.00000000000E+00 0.  1.
         25    2    1    2    0    0 -0.61247947870E+02  0.82945339319E+02 -0.13825477722E+03  0.21305727957E+03  0.12509108890E+03 0.  0.
          5    1    3    3  502    0  0.90928753287E+01  0.70035364387E+02 -0.17868120294E+02  0.72968313462E+02  0.41800000000E+01 0. -1.
         -5    1    3    3    0  502 -0.70340823198E+02  0.12909974931E+02 -0.12038665692E+03  0.14008896611E+03  0.41800000000E+01 0. -1.
        -11    1    1    2    0    0  0.66209857616E+02 -0.15602197800E+02 -0.12576700968E+03  0.14298431573E+03  0.00000000000E+00 0.  1.
         11    1    1    2    0    0 -0.49619097461E+01 -0.67343141518E+02 -0.81755257439E+02  0.10603603810E+03  0.00000000000E+00 0. -1.
</event>
<event>
 7    1  0.2619826E-009  0.1625361E+03  0.7561462E-02  0.1185863E+00
         -2   -1    0    0    0  501 -0.00000000000E+00  0.00000000000E+00  0.38054577726E+03  0.38054577726E+03  0.00000000000E+00 0.  1.
          2   -1    0    0  501    0  0.00000000000E+00 -0.00000000000E+00 -0.10633316027E+03  0.10633316027E+03  0.00000000000E+00 0. -1.
         25    2    1    2    0    0  0.30206567861E+02  0.15537132967E+03  0.76469199812E+02  0.21574894250E+03  0.12508949134E+03 0.  0.
          5    1    3    3  502    0  0.30860236171E+02  0.12237529743E+03 -0.64145892568E+01  0.12643847102E+03  0.41800000000E+01 0. -1.
         -5    1    3    3    0  502 -0.65366831072E+00  0.32996032240E+02  0.82883789069E+02  0.89310471482E+02  0.41800000000E+01 0. -1.
        -11    1    1    2    0    0 -0.14974778051E+02 -0.72671460255E+01  0.78878602371E+02  0.80615688926E+02  0.00000000000E+00 0.  1.
         11    1    1    2    0    0 -0.15231789809E+02 -0.14810418365E+03  0.11886481480E+03  0.19051430611E+03  0.00000000000E+00 0. -1.
</event>
<event>
 7    1  0.2619826E-009  0.2224700E+03  0.7561462E-02  0.1132055E+00
         -2   -1    0    0    0  501 -0.00000000000E+00  0.00000000000E+00  0.34009564428E+02  0.34009564428E+02  0.00000000000E+00 0.  1.
          2   -1    0    0  501    0  0.00000000000E+00 -0.00000000000E+00 -0.14929775465E+04  0.14929775465E+04  0.00000000000E+00 0. -1.
         25    2    1    2    0    0 -0.75876942378E+01  0.19569923481E+03 -0.81149404617E+03  0.84411590407E+03  0.12511318442E+03 0.  0.
          5    1    3    3  502    0 -0.60984044337E+02  0.14448792511E+03 -0.59277001829E+03  0.61317989298E+03  0.41800000000E+01 0. -1.
         -5    1    3    3    0  502  0.53396350100E+02  0.51211309705E+02 -0.21872402788E+03  0.23093601109E+03  0.41800000000E+01 0. -1.
        -11    1    1    2    0    0 -0.25590583958E+02 -0.17018066256E+03 -0.46964865455E+03  0.50018615997E+03  0.00000000000E+00 0.  1.
         11    1    1    2    0    0  0.33178278196E+02 -0.25518572249E+02 -0.17782528137E+03  0.18268504692E+03  0.00000000000E+00 0. -1.
</event>
<event>
 7    1  0.2619826E-009  0.1491594E+03  0.7561462E-02  0.1201510E+00
         -2   -1    0    0    0  501 -0.00000000000E+00  0.00000000000E+00  0.72705681846E+02  0.72705681846E+02  0.00000000000E+00 0.  1.
          2   -1    0    0  501    0  0.00000000000E+00 -0.00000000000E+00 -0.35254649824E+03  0.35254649824E+03  0.00000000000E+00 0. -1.
         25    2    1    2    0    0  0.96335314116E+02  0.60876653605E+02 -0.11439749744E+03  0.20425719790E+03  0.12509098998E+03 0.  0.
          5    1    3    3  502    0  0.69113910125E+02  0.91159825624E+02 -0.43635345778E+02  0.12250862085E+03  0.41800000000E+01 0.  1.
         -5    1    3    3    0  502  0.27221403990E+02 -0.30283172020E+02 -0.70762151658E+02  0.81748577052E+02  0.41800000000E+01 0.  1.
        -11    1    1    2    0    0 -0.89220208092E+02 -0.81656847087E+02 -0.15519380948E+03  0.19675671452E+03  0.00000000000E+00 0.  1.
         11    1    1    2    0    0 -0.71151060232E+01  0.20780193483E+02 -0.10249509479E+02  0.24238267666E+02  0.00000000000E+00 0. -1.
</event>
<event>
 7    1  0.2619826E-009  0.1050861E+03  0.7561462E-02  0.1269950E+00
         -3   -1    0    0    0  501 -0.00000000000E+00  0.00000000000E+00  0.24833558099E+03  0.24833558099E+03  0.00000000000E+00 0.  1.
          3   -1    0    0  501    0  0.00000000000E+00 -0.00000000000E+00 -0.68396944869E+02  0.68396944869E+02  0.00000000000E+00 0. -1.
         25    2    1    2    0    0 -0.65614881774E+02  0.27254564060E+02  0.84115421122E+02  0.16664787076E+03  0.12509190536E+03 0.  0.
          5    1    3    3  502    0 -0.43141893090E+02 -0.42366225759E+02  0.68977774961E+02  0.91823340514E+02  0.41800000000E+01 0.  1.
         -5    1    3    3    0  502 -0.22472988684E+02  0.69620789819E+02  0.15137646160E+02  0.74824530247E+02  0.41800000000E+01 0.  1.
        -11    1    1    2    0    0  0.60170634749E+02 -0.13746769078E+02  0.11226957194E+03  0.12811688308E+03  0.00000000000E+00 0.  1.
         11    1    1    2    0    0  0.54442470243E+01 -0.13507794982E+02 -0.16446356940E+02  0.21967772020E+02  0.00000000000E+00 0. -1.
</event>
<event>
 7    1  0.2619826E-009  0.1153500E+03  0.7561462E-02  0.1250971E+00
         -1   -1    0    0    0  501 -0.00000000000E+00  0.00000000000E+00  0.59195549162E+03  0.59195549162E+03  0.00000000000E+00 0.  1.
          1   -1    0    0  501    0  0.00000000000E+00 -0.00000000000E+00 -0.42612188339E+02  0.42612188339E+02  0.00000000000E+00 0. -1.
         25    2    1    2    0    0 -0.56123908215E+01 -0.69918836371E+02  0.47986790037E+03  0.50084079304E+03  0.12509258795E+03 0.  0.
          5    1    3    3  502    0  0.52742250321E+02 -0.27439755478E+02  0.12245672131E+03  0.13619033058E+03  0.41800000000E+01 0.  1.
         -5    1    3    3    0  502 -0.58354641142E+02 -0.42479080893E+02  0.35741117906E+03  0.36465046246E+03  0.41800000000E+01 0.  1.
        -11    1    1    2    0    0  0.32297380454E+02  0.10997782660E+02 -0.56602606768E+01  0.34584831337E+02  0.00000000000E+00 0.  1.
         11    1    1    2    0    0 -0.26684989633E+02  0.58921053711E+02  0.75135663589E+02  0.99142055582E+02  0.00000000000E+00 0. -1.
</event>
<event>
 7    1  0.2619826E-009  0.1680829E+03  0.7561462E-02  0.1179862E+00
         -1   -1    0    0    0  501 -0.00000000000E+00  0.00000000000E+00  0.71816081479E+03  0.71816081479E+03  0.00000000000E+00 0.  1.
          1   -1    0    0  501    0  0.00000000000E+00 -0.00000000000E+00 -0.70005672079E+02  0.70005672079E+02  0.00000000000E+00 0. -1.
         25    2    1    2    0    0  0.47641083277E+02 -0.12522645191E+03  0.85144424767E+02  0.20211110146E+03  0.12509191497E+03 0.  0.
          5    1    3    3  502    0 -0.20755983180E+02 -0.97692226129E+02  0.80091819571E+02  0.12808885137E+03  0.41800000000E+01 0. -1.
         -5    1    3    3    0  502  0.68397066457E+02 -0.27534225781E+02  0.50526051963E+01  0.74022250091E+02  0.41800000000E+01 0. -1.
        -11    1    1    2    0    0  0.26124801646E+02  0.53146467622E+02  0.22473554192E+03  0.23240722038E+03  0.00000000000E+00 0. -1.
         11    1    1    2    0    0 -0.73765884923E+02  0.72079984288E+02  0.33827517602E+03  0.35364816502E+03  0.00000000000E+00 0.  1.
</event>
<event>
 7    1  0.2619826E-009  0.1109366E+03  0.7561462E-02  0.1258845E+00
         -2   -1    0    0    0  501 -0.00000000000E+00  0.00000000000E+00  0.32103690175E+02  0.32103690175E+02  0.00000000000E+00 0.  1.
          2   -1    0    0  501    0  0.00000000000E+00 -0.00000000000E+00 -0.74654103499E+03  0.74654103499E+03  0.00000000000E+00 0. -1.
         25    2    1    2    0    0  0.36727939372E+02  0.10111732130E+03 -0.43936564849E+03  0.46932123681E+03  0.12508635435E+03 0.  0.
          5    1    3    3  502    0  0.41750502315E+02  0.91747762977E+02 -0.44520451922E+03  0.45649237977E+03  0.41800000000E+01 0.  1.
         -5    1    3    3    0  502 -0.50225629428E+01  0.93695583185E+01  0.58388707237E+01  0.12828857039E+02  0.41800000000E+01 0.  1.
        -11    1    1    2    0    0 -0.17259791169E+02 -0.21349095827E+02 -0.61335630160E+01  0.28130141825E+02  0.00000000000E+00 0.  1.
         11    1    1    2    0    0 -0.19468148204E+02 -0.79768225468E+02 -0.26893813330E+03  0.28119334653E+03  0.00000000000E+00 0. -1.
</event>
<event>
 7    1  0.2619826E-009  0.8395972E+02  0.7561462E-02  0.1318176E+00
         -4   -1    0    0    0  501 -0.00000000000E+00  0.00000000000E+00  0.13007091801E+03  0.13007091801E+03  0.00000000000E+00 0.  1.
          4   -1    0    0  501    0  0.00000000000E+00 -0.00000000000E+00 -0.17575036586E+03  0.17575036586E+03  0.00000000000E+00 0. -1.
         25    2    1    2    0    0  0.39235308287E+02  0.54177241316E+02  0.55643714839E+02  0.15237516087E+03  0.12508950298E+03 0.  0.
          5    1    3    3  502    0  0.58243476360E+02  0.53486097688E+02  0.85622284099E+02  0.11662638260E+03  0.41800000000E+01 0.  1.
         -5    1    3    3    0  502 -0.19008168073E+02  0.69114362770E+00 -0.29978569260E+02  0.35748778271E+02  0.41800000000E+01 0.  1.
        -11    1    1    2    0    0 -0.14265395119E+02 -0.34931211238E+02 -0.11353245101E+03  0.11963823991E+03  0.00000000000E+00 0. -1.
         11    1    1    2    0    0 -0.24969913168E+02 -0.19246030078E+02  0.12209288323E+02  0.33807883085E+02  0.00000000000E+00 0.  1.
</event>
<event>
 7    1  0.2619826E-009  0.1407669E+03  0.7561462E-02  0.1212301E+00
         -1   -1    0    0    0  501 -0.00000000000E+00  0.00000000000E+00  0.79752884484E+02  0.79752884484E+02  0.00000000000E+00 0.  1.
          1   -1    0    0  501    0  0.00000000000E+00 -0.00000000000E+00 -0.28432173134E+03  0.28432173134E+03  0.00000000000E+00 0. -1.
         25    2    1    2    0    0  0.81395558380E+02 -0.12061460697E+02 -0.13360951166E+03  0.20067177394E+03  0.12508774317E+03 0.  0.
          5    1    3    3  502    0 -0.28821991418E+02  0.16978197006E+02 -0.45075052115E+02  0.56286757644E+02  0.41800000000E+01 0.  1.
         -5    1    3    3    0  502  0.11021754980E+03 -0.29039657703E+02 -0.88534459542E+02  0.14438501629E+03  0.41800000000E+01 0.  1.
        -11    1    1    2    0    0 -0.82079584234E+02 -0.33171400342E+02 -0.12382004419E+02  0.89390793609E+02  0.00000000000E+00 0.  1.
         11    1    1    2    0    0  0.68402585369E+00  0.45232861040E+02 -0.58577330775E+02  0.74012048275E+02  0.00000000000E+00 0. -1.
</event>
<event>
 7    1  0.2619826E-009  0.1220912E+03  0.7561462E-02  0.1239687E+00
          1   -1    0    0  501    0  0.00000000000E+00  0.00000000000E+00  0.88797661268E+02  0.88797661268E+02  0.00000000000E+00 0.  1.
         -1   -1    0    0    0  501 -0.00000000000E+00 -0.00000000000E+00 -0.27464929149E+03  0.27464929149E+03  0.00000000000E+00 0. -1.
         25    2    1    2    0    0 -0.69334927381E+02 -0.47135055972E+02 -0.18510674145E+03  0.23862059351E+03  0.12508491619E+03 0.  0.
          5    1    3    3  502    0 -0.71584355601E+02  0.23461447222E+02 -0.12390671633E+03  0.14506931524E+03  0.41800000000E+01 0. -1.
         -5    1    3    3    0  502  0.22494282199E+01 -0.70596503194E+02 -0.61200025119E+02  0.93551278266E+02  0.41800000000E+01 0. -1.
        -11    1    1    2    0    0  0.46481071750E+02  0.99722583880E+00 -0.38999104186E+02  0.60682902185E+02  0.00000000000E+00 0. -1.
         11    1    1    2    0    0  0.22853855631E+02  0.46137830133E+02  0.38254215417E+02  0.64143457062E+02  0.00000000000E+00 0.  1.
</event>
<event>
 7    1  0.2619826E-009  0.9459238E+02  0.7561462E-02  0.1292097E+00
         -1   -1    0    0    0  501 -0.00000000000E+00  0.00000000000E+00  0.26488880358E+03  0.26488880358E+03  0.00000000000E+00 0.  1.
          1   -1    0    0  501    0  0.00000000000E+00 -0.00000000000E+00 -0.41827794141E+02  0.41827794141E+02  0.00000000000E+00 0. -1.
         25    2    1    2    0    0  0.12221718560E+02 -0.28348248548E+01  0.11077560162E+03  0.16756707501E+03  0.12510029607E+03 0.  0.
          5    1    3    3  502    0 -0.47760530168E+02  0.93596519116E+01  0.90693908528E+02  0.10301227485E+03  0.41800000000E+01 0.  1.
         -5    1    3    3    0  502  0.59982248728E+02 -0.12194476766E+02  0.20081693089E+02  0.64554800158E+02  0.41800000000E+01 0.  1.
        -11    1    1    2    0    0 -0.29387616795E+02  0.33054890104E+02  0.43261284153E+02  0.61869188512E+02  0.00000000000E+00 0. -1.
         11    1    1    2    0    0  0.17165898235E+02 -0.30220065249E+02  0.69024123674E+02  0.77280334205E+02  0.00000000000E+00 0.  1.
</event>
<event>
 7    1  0.2619826E-009  0.1470255E+03  0.7561462E-02  0.1204176E+00
          1   -1    0    0  501    0  0.00000000000E+00  0.00000000000E+00  0.86713158614E+02  0.86713158614E+02  0.00000000000E+00 0. -1.
         -1   -1    0    0    0  501 -0.00000000000E+00 -0.00000000000E+00 -0.33358855128E+03  0.33358855128E+03  0.00000000000E+00 0.  1.
         25    2    1    2    0    0  0.47466557764E+02  0.11147589966E+03 -0.78487195185E+02  0.19101907843E+03  0.12509235870E+03 0.  0.
          5    1    3    3  502    0  0.62725398987E+02  0.65053670452E+02  0.88053392459E+01  0.90892585598E+02  0.41800000000E+01 0. -1.
         -5    1    3    3    0  502 -0.15258841224E+02  0.46422229212E+02 -0.87292534431E+02  0.10012649284E+03  0.41800000000E+01 0. -1.
        -11    1    1    2    0    0  0.14466282729E+02 -0.86599785305E+02 -0.82193205812E+02  0.12026852968E+03  0.00000000000E+00 0. -1.
         11    1    1    2    0    0 -0.61932840493E+02 -0.24876114359E+02 -0.86194991670E+02  0.10901410178E+03  0.00000000000E+00 0.  1.
</event>
<event>
 7    1  0.2619826E-009  0.1096864E+03  0.7561462E-02  0.1261152E+00
          2   -1    0    0  501    0  0.00000000000E+00  0.00000000000E+00  0.79638869887E+03  0.79638869887E+03  0.00000000000E+00 0. -1.
         -2   -1    0    0    0  501 -0.00000000000E+00 -0.00000000000E+00 -0.30198019453E+02  0.30198019453E+02  0.00000000000E+00 0.  1.
         25    2    1    2    0    0 -0.30173159381E+02 -0.66577882825E+02  0.19241075114E+03  0.24085831861E+03  0.12509116060E+03 0.  0.
          5    1    3    3  502    0  0.33874358896E+01  0.14690154127E+02 -0.11062887846E+02  0.19160773410E+02  0.41800000000E+01 0.  1.
         -5    1    3    3    0  502 -0.33560595271E+02 -0.81268036951E+02  0.20347363898E+03  0.22169754520E+03  0.41800000000E+01 0.  1.
        -11    1    1    2    0    0 -0.15482881342E+02 -0.15420494792E+02  0.71849253757E+02  0.75098778550E+02  0.00000000000E+00 0.  1.
         11    1    1    2    0    0  0.45656040723E+02  0.81998377616E+02  0.50193067453E+03  0.51062962117E+03  0.00000000000E+00 0. -1.
</event>
<event>
 7    1  0.2619826E-009  0.1954827E+03  0.7561462E-02  0.1153607E+00
         -1   -1    0    0    0  501 -0.00000000000E+00  0.00000000000E+00  0.15294175817E+03  0.15294175817E+03  0.00000000000E+00 0.  1.
          1   -1    0    0  501    0  0.00000000000E+00 -0.00000000000E+00 -0.34613833206E+03  0.34613833206E+03  0.00000000000E+00 0. -1.
         25    2    1    2    0    0 -0.10198863758E+03  0.16182588606E+03 -0.17333552035E+03  0.28684965524E+03  0.12509285552E+03 0.  0.
          5    1    3    3  502    0 -0.70954359590E+02  0.62646964969E+02 -0.12853806675E+02  0.95613054081E+02  0.41800000000E+01 0. -1.
         -5    1    3    3    0  502 -0.31034277987E+02  0.99178921090E+02 -0.16048171368E+03  0.19123660116E+03  0.41800000000E+01 0. -1.
        -11    1    1    2    0    0  0.61624865956E+02 -0.80075992606E+02 -0.54374419215E+02  0.11474478708E+03  0.00000000000E+00 0. -1.
         11    1    1    2    0    0  0.40363771621E+02 -0.81749893453E+02  0.34513365683E+02  0.97485647917E+02  0.00000000000E+00 0.  1.
</event>
<event>
 7    1  0.2619826E-009  0.1067329E+03  0.7561462E-02  0.1266743E+00
          2   -1    0    0  501    0  0.00000000000E+00  0.00000000000E+00  0.41496101949E+03  0.41496101949E+03  0.00000000000E+00 0. -1.
         -2   -1    0    0    0  501 -0.00000000000E+00 -0.00000000000E+00 -0.46936979588E+02  0.46936979588E+02  0.00000000000E+00 0.  1.
         25    2    1    2    0    0  0.52006403384E+02  0.66046943139E+02  0.18292760696E+03  0.23701764336E+03  0.12509192294E+03 0.  0.
          5    1    3    3  502    0  0.33447264346E+02  0.29490369747E+02 -0.45932389885E+01  0.45021901831E+02  0.41800000000E+01 0. -1.
         -5    1    3    3    0  502  0.18559139037E+02  0.36556573392E+02  0.18752084594E+03  0.19199574152E+03  0.41800000000E+01 0. -1.
        -11    1    1    2    0    0 -0.79565069037E+02 -0.58911863062E+02  0.13777055805E+03  0.16965239310E+03  0.00000000000E+00 0. -1.
         11    1    1    2    0    0  0.27558665653E+02 -0.71350800775E+01  0.47325874895E+02  0.55227962617E+02  0.00000000000E+00 0.  1.
</event>
<event>
 7    1  0.2619826E-009  0.1202117E+03  0.7561462E-02  0.1242748E+00
          4   -1    0    0  501    0  0.00000000000E+00  0.00000000000E+00  0.11508536363E+03  0.11508536363E+03  0.00000000000E+00 0. -1.
         -4   -1    0    0    0  501 -0.00000000000E+00 -0.00000000000E+00 -0.15544902224E+03  0.15544902224E+03  0.00000000000E+00 0.  1.
         25    2    1    2    0    0 -0.28854524672E+02 -0.56348662011E+02  0.16099665458E+02  0.14112106056E+03  0.12509276239E+03 0.  0.
          5    1    3    3  502    0  0.40482730646E+02 -0.33969949612E+02 -0.23616798684E+02  0.58034770071E+02  0.41800000000E+01 0.  1.
         -5    1    3    3    0  502 -0.69337255317E+02 -0.22378712400E+02  0.39716464142E+02  0.83086290491E+02  0.41800000000E+01 0.  1.
        -11    1    1    2    0    0 -0.26207554943E+02  0.53170555395E+02 -0.41188975323E+02  0.72183624080E+02  0.00000000000E+00 0.  1.
         11    1    1    2    0    0  0.55062079614E+02  0.31781066162E+01 -0.15274348751E+02  0.57229701230E+02  0.00000000000E+00 0. -1.
</event>
<event>
 7    1  0.2619826E-009  0.9777879E+02  0.7561462E-02  0.1285037E+00
          1   -1    0    0  501    0  0.00000000000E+00  0.00000000000E+00  0.82750468623E+02  0.82750468623E+02  0.00000000000E+00 0. -1.
         -1   -1    0    0    0  501 -0.00000000000E+00 -0.00000000000E+00 -0.16961036517E+03  0.16961036517E+03  0.00000000000E+00 0.  1.
         25    2    1    2    0    0  0.33441201189E+02 -0.20710264008E+01 -0.12683129219E+02  0.13011637779E+03  0.12508719725E+03 0.  0.
          5    1    3    3  502    0  0.22335354612E+02  0.45939212703E+02 -0.47305690964E+02  0.69746542043E+02  0.41800000000E+01 0.  1.
         -5    1    3    3    0  502  0.11105846577E+02 -0.48010239103E+02  0.34622561744E+02  0.60369835752E+02  0.41800000000E+01 0.  1.
        -11    1    1    2    0    0 -0.45548655340E+02  0.36491094259E+02 -0.58165979203E+02  0.82398793075E+02  0.00000000000E+00 0.  1.
         11    1    1    2    0    0  0.12107454152E+02 -0.34420067859E+02 -0.16010788124E+02  0.39845662923E+02  0.00000000000E+00 0. -1.
</event>
<event>
 7    1  0.2619826E-009  0.8899066E+02  0.7561462E-02  0.1305315E+00
          2   -1    0    0  501    0  0.00000000000E+00  0.00000000000E+00  0.22186280414E+03  0.22186280414E+03  0.00000000000E+00 0. -1.
         -2   -1    0    0    0  501 -0.00000000000E+00 -0.00000000000E+00 -0.70070124288E+02  0.70070124288E+02  0.00000000000E+00 0.  1.
         25    2    1    2    0    0 -0.16922516770E+02  0.17153699821E+02  0.19301687465E+02  0.12885195752E+03  0.12509856445E+03 0.  0.
          5    1    3    3  502    0  0.39056677206E+02  0.10707055913E+02 -0.32578515541E+02  0.52143045131E+02  0.41800000000E+01 0.  1.
         -5    1    3    3    0  502 -0.55979193976E+02  0.64466439077E+01  0.51880203006E+02  0.76708912388E+02  0.41800000000E+01 0.  1.
        -11    1    1    2    0    0  0.85666655363E+01 -0.48024607829E+02  0.11854658874E+03  0.12819143660E+03  0.00000000000E+00 0.  1.
         11    1    1    2    0    0  0.83558512340E+01  0.30870908008E+02  0.13944403643E+02  0.34889534306E+02  0.00000000000E+00 0. -1.
</event>
<event>
 7    1  0.2619826E-009  0.1117921E+03  0.7561462E-02  0.1257287E+00
          1   -1    0    0  501    0  0.00000000000E+00  0.00000000000E+00  0.25348027608E+02  0.25348027608E+02  0.00000000000E+00 0. -1.
         -1   -1    0    0    0  501 -0.00000000000E+00 -0.00000000000E+00 -0.61704265954E+03  0.61704265954E+03  0.00000000000E+00 0.  1.
         25    2    1    2    0    0 -0.19688020156E+01 -0.24320487683E+01 -0.21460594402E+03  0.24842117427E+03  0.12509027770E+03 0.  0.
          5    1    3    3  502    0 -0.39113483591E+01 -0.56860730551E+02 -0.16506595353E+03  0.17467879877E+03  0.41800000000E+01 0. -1.
         -5    1    3    3    0  502  0.19425463435E+01  0.54428681783E+02 -0.49539990489E+02  0.73742375501E+02  0.41800000000E+01 0. -1.
        -11    1    1    2    0    0 -0.57342721032E+01  0.56705717655E+02 -0.23121085000E+03  0.23813205885E+03  0.00000000000E+00 0.  1.
         11    1    1    2    0    0  0.77030741188E+01 -0.54273668887E+02 -0.14587783791E+03  0.15583745403E+03  0.00000000000E+00 0. -1.
</event>
<event>
 7    1  0.2619826E-009  0.9893920E+02  0.7561462E-02  0.1282543E+00
         -1   -1    0    0    0  501 -0.00000000000E+00  0.00000000000E+00  0.95884209587E+01  0.95884209587E+01  0.00000000000E+00 0.  1.
          1   -1    0    0  501    0  0.00000000000E+00 -0.00000000000E+00 -0.13005337068E+04  0.13005337068E+04  0.00000000000E+00 0. -1.
         25    2    1    2    0    0  0.11617996908E+02  0.21191325913E+02 -0.79643221357E+03  0.80655741272E+03  0.12508612655E+03 0.  0.
          5    1    3    3  502    0  0.52439922184E+02  0.31365187223E+02 -0.67881674350E+03  0.68157418090E+03  0.41800000000E+01 0. -1.
         -5    1    3    3    0  502 -0.40821925277E+02 -0.10173861310E+02 -0.11761547007E+03  0.12498323182E+03  0.41800000000E+01 0. -1.
        -11    1    1    2    0    0 -0.27952911222E+02  0.29771122927E+02 -0.18439448155E+03  0.18886240979E+03  0.00000000000E+00 0.  1.
         11    1    1    2    0    0  0.16334914314E+02 -0.50962448840E+02 -0.31011859073E+03  0.31470230525E+03  0.00000000000E+00 0. -1.
</event>
<event>
 7    1  0.2619826E-009  0.8152353E+02  0.7561462E-02  0.1324783E+00
          3   -1    0    0  501    0  0.00000000000E+00  0.00000000000E+00  0.96996100278E+02  0.96996100278E+02  0.00000000000E+00 0. -1.
         -3   -1    0    0    0  501 -0.00000000000E+00 -0.00000000000E+00 -0.12833128460E+03  0.12833128460E+03  0.00000000000E+00 0.  1.
         25    2    1    2    0    0 -0.40487980079E+01  0.12035790963E+02  0.10812998761E+02  0.12619740626E+03  0.12509041280E+03 0.  0.
          5    1    3    3  502    0  0.24754952627E+02  0.30620497149E+02 -0.45389342390E+02  0.60233606300E+02  0.41800000000E+01 0. -1.
         -5    1    3    3    0  502 -0.28803750635E+02 -0.18584706186E+02  0.56202341151E+02  0.65963799963E+02  0.41800000000E+01 0. -1.
        -11    1    1    2    0    0 -0.41828343084E+02 -0.99365029946E+01 -0.27015955125E+02  0.50776039707E+02  0.00000000000E+00 0.  1.
         11    1    1    2    0    0  0.45877141092E+02 -0.20992879684E+01 -0.15132227953E+02  0.48353938905E+02  0.00000000000E+00 0. -1.
</event>
<event>
 7    1  0.2619826E-009  0.1982019E+03  0.7561462E-02  0.1151265E+00
         -1   -1    0    0    0  501 -0.00000000000E+00  0.00000000000E+00  0.28788557468E+03  0.28788557468E+03  0.00000000000E+00 0.  1.
          1   -1    0    0  501    0  0.00000000000E+00 -0.00000000000E+00 -0.15511654132E+03  0.15511654132E+03  0.00000000000E+00 0. -1.
         25    2    1    2    0    0 -0.14886507541E+03 -0.95648369098E+02  0.28171251474E+02  0.21851923561E+03  0.12509043022E+03 0.  0.
          5    1    3    3  502    0 -0.18679633686E+02  0.29263736904E+02 -0.40340479092E+01  0.35200013562E+02  0.41800000000E+01 0. -1.
         -5    1    3    3    0  502 -0.13018544172E+03 -0.12491210600E+03  0.32205299383E+02  0.18331922204E+03  0.41800000000E+01 0. -1.
        -11    1    1    2    0    0  0.11099087505E+03  0.89536089010E+02  0.11668647916E+03  0.18425911103E+03  0.00000000000E+00 0.  1.
         11    1    1    2    0    0  0.37874200357E+02  0.61122800876E+01 -0.12088697271E+02  0.40223769369E+02  0.00000000000E+00 0. -1.
</event>
<event>
 7    1  0.2619826E-009  0.1493332E+03  0.7561462E-02  0.1201295E+00
         -1   -1    0    0    0  501 -0.00000000000E+00  0.00000000000E+00  0.14604845318E+03  0.14604845318E+03  0.00000000000E+00 0.  1.
          1   -1    0    0  501    0  0.00000000000E+00 -0.00000000000E+00 -0.18834109948E+03  0.18834109948E+03  0.00000000000E+00 0. -1.
         25    2    1    2    0    0 -0.61908780448E+01 -0.12203001837E+03  0.39306063681E+01  0.17490509923E+03  0.12508673677E+03 0.  0.
          5    1    3    3  502    0  0.49548532485E+02 -0.91684773878E+02  0.26158699131E+02  0.10753094798E+03  0.41800000000E+01 0. -1.
         -5    1    3    3    0  502 -0.55739410530E+02 -0.30345244494E+02 -0.22228092763E+02  0.67374151257E+02  0.41800000000E+01 0. -1.
        -11    1    1    2    0    0 -0.18046341876E+02  0.82048802858E+02  0.11945577988E+02  0.84855013635E+02  0.00000000000E+00 0.  1.
         11    1    1    2    0    0  0.24237219921E+02  0.39981215515E+02 -0.58168830656E+02  0.74629439791E+02  0.00000000000E+00 0. -1.
</event>
<event>
 7    1  0.2619826E-009  0.9934689E+02  0.7561462E-02  0.1281675E+00
          1   -1    0    0  501    0  0.00000000000E+00  0.00000000000E+00  0.29972198979E+02  0.29972198979E+02  0.00000000000E+00 0. -1.
         -1   -1    0    0    0  501 -0.00000000000E+00 -0.00000000000E+00 -0.47672969734E+03  0.47672969734E+03  0.00000000000E+00 0.  1.
         25    2    1    2    0    0 -0.48209204260E+02  0.20934351378E+02 -0.27607985565E+03  0.30762023766E+03  0.12509096482E+03 0.  0.
          5    1    3    3  502    0  0.20889945476E+02  0.20733432997E+02 -0.20941335707E+03  0.21151286388E+03  0.41800000000E+01 0. -1.
         -5    1    3    3    0  502 -0.69099149737E+02  0.20091838126E+00 -0.66666498580E+02  0.96107373783E+02  0.41800000000E+01 0. -1.
        -11    1    1    2    0    0 -0.15800641890E+02 -0.31142514064E+02 -0.39231674014E+02  0.52522763754E+02  0.00000000000E+00 0. -1.
         11    1    1    2    0    0  0.64009846150E+02  0.10208162686E+02 -0.13144596870E+03  0.14655889491E+03  0.00000000000E+00 0.  1.
</event>
<event>
 7    1  0.2619826E-009  0.2403963E+03  0.7561462E-02  0.1119529E+00
          2   -1    0    0  501    0  0.00000000000E+00  0.00000000000E+00  0.30315665433E+03  0.30315665433E+03  0.00000000000E+00 0. -1.
         -2   -1    0    0    0  501 -0.00000000000E+00 -0.00000000000E+00 -0.21744454804E+03  0.21744454804E+03  0.00000000000E+00 0.  1.
         25    2    1    2    0    0 -0.18332936628E+03  0.12398744980E+03 -0.18837030423E+02  0.25492247927E+03  0.12509233580E+03 0.  0.
          5    1    3    3  502    0 -0.19654570204E+03  0.10515057561E+03 -0.36107190912E+02  0.22584963621E+03  0.41800000000E+01 0. -1.
         -5    1    3    3    0  502  0.13216335764E+02  0.18836874188E+02  0.17270160489E+02  0.29072843059E+02  0.41800000000E+01 0. -1.
        -11    1    1    2    0    0  0.32994359824E+02  0.85058443795E+01  0.45361576367E+02  0.56733145332E+02  0.00000000000E+00 0. -1.
         11    1    1    2    0    0  0.15033500645E+03 -0.13249329418E+03  0.59187560349E+02  0.20894557776E+03  0.00000000000E+00 0.  1.
</event>
<event>
 7    1  0.2619826E-009  0.1049419E+03  0.7561462E-02  0.1270234E+00
         -2   -1    0    0    0  501 -0.00000000000E+00  0.00000000000E+00  0.48817271259E+02  0.48817271259E+02  0.00000000000E+00 0.  1.
          2   -1    0    0  501    0  0.00000000000E+00 -0.00000000000E+00 -0.32761549707E+03  0.32761549707E+03  0.00000000000E+00 0. -1.
         25    2    1    2    0    0  0.44724917745E+02  0.47283186203E+02 -0.14495546635E+03  0.20222581754E+03  0.12508867290E+03 0.  0.
          5    1    3    3  502    0 -0.33887221609E+02  0.40064210545E+02 -0.95297994109E+02  0.10886994459E+03  0.41800000000E+01 0. -1.
         -5    1    3    3    0  502  0.78612139354E+02  0.72189756580E+01 -0.49657472244E+02  0.93355872943E+02  0.41800000000E+01 0. -1.
        -11    1    1    2    0    0  0.33337865606E+01 -0.24992496457E+02  0.49075715313E+01  0.25687025330E+02  0.00000000000E+00 0.  1.
         11    1    1    2    0    0 -0.48058704306E+02 -0.22290689745E+02 -0.13875033099E+03  0.14851992546E+03  0.00000000000E+00 0. -1.
</event>
<event>
 7    1  0.2619826E-009  0.1237091E+03  0.7561462E-02  0.1237101E+00
         -1   -1    0    0    0  501 -0.00000000000E+00  0.00000000000E+00  0.61026828223E+03  0.61026828223E+03  0.00000000000E+00 0.  1.
          1   -1    0    0  501    0  0.00000000000E+00 -0.00000000000E+00 -0.27914164812E+02  0.27914164812E+02  0.00000000000E+00 0. -1.
         25    2    1    2    0    0 -0.48847066331E+02  0.56552588879E+02  0.37791118539E+03  0.40502920444E+03  0.12509021228E+03 0.  0.
          5    1    3    3  502    0 -0.46062774361E+02  0.93174260969E+02  0.22768448159E+03  0.25032162840E+03  0.41800000000E+01 0. -1.
         -5    1    3    3    0  502 -0.27842919704E+01 -0.36621672090E+02  0.15022670380E+03  0.15470757604E+03  0.41800000000E+01 0. -1.
        -11    1    1    2    0    0  0.63622029350E+02 -0.19503104574E+02  0.89790771210E+02  0.11176097844E+03  0.00000000000E+00 0.  1.
         11    1    1    2    0    0 -0.14774963019E+02 -0.37049484305E+02  0.11465216082E+03  0.12139226417E+03  0.00000000000E+00 0. -1.
</event>
<event>
 7    1  0.2619826E-009  0.1357632E+03  0.7561462E-02  0.1219146E+00
          2   -1    0    0  501    0  0.00000000000E+00  0.00000000000E+00  0.73630046523E+03  0.73630046523E+03  0.00000000000E+00 0. -1.
         -2   -1    0    0    0  501 -0.00000000000E+00 -0.00000000000E+00 -0.40054853646E+02  0.40054853646E+02  0.00000000000E+00 0.  1.
         25    2    1    2    0    0  0.69489622829E+02 -0.94809569006E+02  0.23574579544E+03  0.29161794937E+03  0.12508911331E+03 0.  0.
          5    1    3    3  502    0  0.81851260181E+02 -0.56576151012E+02  0.71812834171E+02  0.12278047568E+03  0.41800000000E+01 0. -1.
         -5    1    3    3    0  502 -0.12361637352E+02 -0.38233417993E+02  0.16393296127E+03  0.16883747369E+03  0.41800000000E+01 0. -1.
        -11    1    1    2    0    0 -0.62298077998E+02  0.10316406921E+03  0.45778784715E+03  0.47338524343E+03  0.00000000000E+00 0. -1.
         11    1    1    2    0    0 -0.71915448304E+01 -0.83545002016E+01  0.27119689862E+01  0.11352126076E+02  0.00000000000E+00 0.  1.
</event>
<event>
 7    1  0.2619826E-009  0.1235005E+03  0.7561462E-02  0.1237432E+00
         -1   -1    0    0    0  501 -0.00000000000E+00  0.00000000000E+00  0.12876479780E+03  0.12876479780E+03  0.00000000000E+00 0.  1.
          1   -1    0    0  501    0  0.00000000000E+00 -0.00000000000E+00 -0.17090170384E+03  0.17090170384E+03  0.00000000000E+00 0. -1.
         25    2    1    2    0    0  0.92341255962E+02 -0.31681574367E+02 -0.42214436683E+02  0.16419539352E+03  0.12508972332E+03 0.  0.
          5    1    3    3  502    0  0.64490451790E+02 -0.74100729571E+02 -0.53653510116E+02  0.11200941051E+03  0.41800000000E+01 0.  1.
         -5    1    3    3    0  502  0.27850804172E+02  0.42419155204E+02  0.11439073433E+02  0.52185983006E+02  0.41800000000E+01 0.  1.
        -11    1    1    2    0    0 -0.16524412808E+02  0.36088574703E+01  0.41366558421E+02  0.44690851709E+02  0.00000000000E+00 0.  1.
         11    1    1    2    0    0 -0.75816843154E+02  0.28072716897E+02 -0.41289027773E+02  0.90780256412E+02  0.00000000000E+00 0. -1.
</event>
<event>
 7    1  0.2619826E-009  0.1346366E+03  0.7561462E-02  0.1220734E+00
          1   -1    0    0  501    0  0.00000000000E+00  0.00000000000E+00  0.15179600966E+04  0.15179600966E+04  0.00000000000E+00 0. -1.
         -1   -1    0    0    0  501 -0.00000000000E+00 -0.00000000000E+00 -0.16437867894E+02  0.16437867894E+02  0.00000000000E+00 0.  1.
         25    2    1    2    0    0 -0.58105237935E+02  0.77392694537E+02  0.10973687208E+04  0.11087077017E+04  0.12509520653E+03 0.  0.
          5    1    3    3  502    0 -0.62296175186E+02 -0.15248956065E+02  0.38730269198E+03  0.39259927625E+03  0.41800000000E+01 0. -1.
         -5    1    3    3    0  502  0.41909372514E+01  0.92641650602E+02  0.71006602882E+03  0.71610842549E+03  0.41800000000E+01 0. -1.
        -11    1    1    2    0    0  0.35007856320E+01 -0.51710200982E+02  0.30683920576E+03  0.31118563363E+03  0.00000000000E+00 0.  1.
         11    1    1    2    0    0  0.54604452303E+02 -0.25682493555E+02  0.97314302169E+02  0.11450462913E+03  0.00000000000E+00 0. -1.
</event>
<event>
 7    1  0.2619826E-009  0.1964258E+03  0.7561462E-02  0.1152790E+00
         -2   -1    0    0    0  501 -0.00000000000E+00  0.00000000000E+00  0.48507614518E+02  0.48507614518E+02  0.00000000000E+00 0.  1.
          2   -1    0    0  501    0  0.00000000000E+00 -0.00000000000E+00 -0.96638604041E+03  0.96638604041E+03  0.00000000000E+00 0. -1.
         25    2    1    2    0    0  0.14285608080E+03 -0.11231459834E+03 -0.55493694868E+03  0.59718005854E+03  0.12508627616E+03 0.  0.
          5    1    3    3  502    0  0.19961217668E+02 -0.39583717117E+02 -0.31363933834E+02  0.54465490148E+02  0.41800000000E+01 0. -1.
         -5    1    3    3    0  502  0.12289486314E+03 -0.72730881227E+02 -0.52357301485E+03  0.54271456839E+03  0.41800000000E+01 0. -1.
        -11    1    1    2    0    0 -0.11913276290E+03  0.34382234889E+02 -0.24163522749E+03  0.27159222455E+03  0.00000000000E+00 0.  1.
         11    1    1    2    0    0 -0.23723317901E+02  0.77932363455E+02 -0.12130624971E+03  0.14612137183E+03  0.00000000000E+00 0. -1.
</event>
<event>
 7    1  0.2619826E-009  0.9337288E+02  0.7561462E-02  0.1294883E+00
          3   -1    0    0  501    0  0.00000000000E+00  0.00000000000E+00  0.96741455978E+02  0.96741455978E+02  0.00000000000E+00 0.  1.
         -3   -1    0    0    0  501 -0.00000000000E+00 -0.00000000000E+00 -0.14161520925E+03  0.14161520925E+03  0.00000000000E+00 0. -1.
         25    2    1    2    0    0  0.16230349558E+02  0.28219771652E+01 -0.65013233792E+02  0.14193773874E+03  0.12509281877E+03 0.  0.
          5    1    3    3  502    0  0.33509792219E+02 -0.36999446169E+02 -0.81210427255E+02  0.95417352123E+02  0.41800000000E+01 0.  1.
         -5    1    3    3    0  502 -0.17279442660E+02  0.39821423334E+02  0.16197193462E+02  0.46520386618E+02  0.41800000000E+01 0.  1.
        -11    1    1    2    0    0 -0.44648439338E+02 -0.29943591075E+02  0.38663335697E+01  0.53898518690E+02  0.00000000000E+00 0.  1.
         11    1    1    2    0    0  0.28418089779E+02  0.27121613910E+02  0.16273146947E+02  0.42520407799E+02  0.00000000000E+00 0. -1.
</event>
<event>
 7    1  0.2619826E-009  0.7224878E+02  0.7561462E-02  0.1352609E+00
          1   -1    0    0  501    0  0.00000000000E+00  0.00000000000E+00  0.11031717325E+03  0.11031717325E+03  0.00000000000E+00 0. -1.
         -1   -1    0    0    0  501 -0.00000000000E+00 -0.00000000000E+00 -0.10183402508E+03  0.10183402508E+03  0.00000000000E+00 0.  1.
         25    2    1    2    0    0  0.14583223690E+02  0.18502419259E+02  0.34447386519E+01  0.12733582436E+03  0.12509011156E+03 0.  0.
          5    1    3    3  502    0  0.11851250483E+02  0.41837291109E+02 -0.51441081512E+02  0.67486801172E+02  0.41800000000E+01 0.  1.
         -5    1    3    3    0  502  0.27319732066E+01 -0.23334871850E+02  0.54885820164E+02  0.59849023191E+02  0.41800000000E+01 0.  1.
        -11    1    1    2    0    0  0.21814400896E+02  0.15800610547E+02 -0.15122012582E+02  0.30890170680E+02  0.00000000000E+00 0.  1.
         11    1    1    2    0    0 -0.36397624585E+02 -0.34303029806E+02  0.20160422100E+02  0.53925203278E+02  0.00000000000E+00 0. -1.
</event>
<event>
 7    1  0.2619826E-009  0.6432910E+02  0.7561462E-02  0.1380513E+00
          1   -1    0    0  501    0  0.00000000000E+00  0.00000000000E+00  0.38345572401E+02  0.38345572401E+02  0.00000000000E+00 0. -1.
         -1   -1    0    0    0  501 -0.00000000000E+00 -0.00000000000E+00 -0.35718976278E+03  0.35718976278E+03  0.00000000000E+00 0.  1.
         25    2    1    2    0    0  0.51980010234E+01 -0.74445206412E+01 -0.13985745454E+03  0.18786329601E+03  0.12510024099E+03 0.  0.
          5    1    3    3  502    0  0.15871900158E+01 -0.20641233838E+02  0.18972548125E+02  0.28390309770E+02  0.41800000000E+01 0.  1.
         -5    1    3    3    0  502  0.36108110077E+01  0.13196713197E+02 -0.15883000266E+03  0.15947298624E+03  0.41800000000E+01 0.  1.
        -11    1    1    2    0    0 -0.46588402197E+02 -0.11076322405E+02 -0.43126326284E+02  0.64444116535E+02  0.00000000000E+00 0. -1.
         11    1    1    2    0    0  0.41390401173E+02  0.18520843046E+02 -0.13586040956E+03  0.14322792263E+03  0.00000000000E+00 0.  1.
</event>
<event>
 6    1  0.2619826E-009  0.1335144E+03  0.7561462E-02  0.1222332E+00
         -1   -1    0    0    0  501 -0.00000000000E+00  0.00000000000E+00  0.34505554327E+02  0.34505554327E+02  0.00000000000E+00 0.  1.
          1   -1    0    0  501    0  0.00000000000E+00 -0.00000000000E+00 -0.63409234195E+03  0.63409234195E+03  0.00000000000E+00 0. -1.
          5    1    1    2  502    0  0.76025169724E+02 -0.62821035679E+02 -0.20925702405E+03  0.23137044640E+03  0.41800000000E+01 0.  1.
         -5    1    1    2    0  502 -0.41138320714E+02 -0.19731945506E+02 -0.21941870428E+03  0.22415117955E+03  0.41800000000E+01 0.  1.
        -11    1    1    2    0    0  0.26638010304E+02  0.38558851825E+02 -0.38785732317E+02  0.60833392790E+02  0.00000000000E+00 0.  1.
         11    1    1    2    0    0 -0.61524859314E+02  0.43994129361E+02 -0.13212532698E+03  0.15224287754E+03  0.00000000000E+00 0. -1.
</event>
<event>
 7    1  0.2619826E-009  0.1163886E+03  0.7561462E-02  0.1249176E+00
          1   -1    0    0  501    0  0.00000000000E+00  0.00000000000E+00  0.14086828126E+04  0.14086828126E+04  0.00000000000E+00 0. -1.
         -1   -1    0    0    0  501 -0.00000000000E+00 -0.00000000000E+00 -0.25628183076E+02  0.25628183076E+02  0.00000000000E+00 0.  1.
         25    2    1    2    0    0 -0.15940774301E+02  0.53949168960E+02  0.12733262894E+04  0.12806920534E+04  0.12509066894E+03 0.  0.
          5    1    3    3  502    0 -0.60657005893E+02 -0.33896920547E+01  0.44088565561E+03  0.44507122587E+03  0.41800000000E+01 0.  1.
         -5    1    3    3    0  502  0.44716231592E+02  0.57338861014E+02  0.83244063376E+03  0.83562082758E+03  0.41800000000E+01 0.  1.
        -11    1    1    2    0    0  0.20955231298E+02  0.17574280067E+02  0.61222682290E+02  0.67053664072E+02  0.00000000000E+00 0.  1.
         11    1    1    2    0    0 -0.50144569970E+01 -0.71523449026E+02  0.48505657900E+02  0.86565278189E+02  0.00000000000E+00 0. -1.
</event>
<event>
 7    1  0.2619826E-009  0.1058817E+03  0.7561462E-02  0.1268392E+00
          1   -1    0    0  501    0  0.00000000000E+00  0.00000000000E+00  0.60515912260E+02  0.60515912260E+02  0.00000000000E+00 0. -1.
         -1   -1    0    0    0  501 -0.00000000000E+00 -0.00000000000E+00 -0.27323801521E+03  0.27323801521E+03  0.00000000000E+00 0.  1.
         25    2    1    2    0    0 -0.10949645153E+02 -0.56871529311E+02 -0.16207968558E+03  0.21277178559E+03  0.12509093769E+03 0.  0.
          5    1    3    3  502    0  0.46523612342E+02 -0.17863684106E+02 -0.18689272553E+02  0.53388379108E+02  0.41800000000E+01 0. -1.
         -5    1    3    3    0  502 -0.57473257495E+02 -0.39007845204E+02 -0.14339041303E+03  0.15938340648E+03  0.41800000000E+01 0. -1.
        -11    1    1    2    0    0  0.16929355768E+02  0.73014763028E+02 -0.84668185122E+01  0.75428414556E+02  0.00000000000E+00 0. -1.
         11    1    1    2    0    0 -0.59797106151E+01 -0.16143233717E+02 -0.42175598853E+02  0.45553727318E+02  0.00000000000E+00 0.  1.
</event>
<event>
 7    1  0.2619826E-009  0.1196264E+03  0.7561462E-02  0.1243715E+00
         -2   -1    0    0    0  501 -0.00000000000E+00  0.00000000000E+00  0.24059660893E+03  0.24059660893E+03  0.00000000000E+00 0. -1.
          2   -1    0    0  501    0  0.00000000000E+00 -0.00000000000E+00 -0.91720630942E+02  0.91720630942E+02  0.00000000000E+00 0.  1.
         25    2    1    2    0    0 -0.93875055843E+02 -0.37389575255E+02  0.81915230380E+02  0.18046542336E+03  0.12508859905E+03 0.  0.
          5    1    3    3  502    0 -0.23666664976E+02 -0.22636297711E+02 -0.31869352068E+02  0.45887264097E+02  0.41800000000E+01 0. -1.
         -5    1    3    3    0  502 -0.70208390868E+02 -0.14753277544E+02  0.11378458245E+03  0.13457815926E+03  0.41800000000E+01 0. -1.
        -11    1    1    2    0    0  0.84586580198E+02 -0.10822135153E+02  0.54475745218E+02  0.10119098268E+03  0.00000000000E+00 0. -1.
         11    1    1    2    0    0  0.92884756457E+01  0.48211710408E+02  0.12485002388E+02  0.50660833835E+02  0.00000000000E+00 0.  1.
</event>
<event>
 7    1  0.2619826E-009  0.2174097E+03  0.7561462E-02  0.1135829E+00
         -2   -1    0    0    0  501 -0.00000000000E+00  0.00000000000E+00  0.32281483821E+02  0.32281483821E+02  0.00000000000E+00 0. -1.
          2   -1    0    0  501    0  0.00000000000E+00 -0.00000000000E+00 -0.17477169074E+04  0.17477169074E+04  0.00000000000E+00 0.  1.
         25    2    1    2    0    0  0.19539685606E+03  0.74384410241E+02 -0.99461709090E+03  0.10240231843E+04  0.12508937854E+03 0.  0.
          5    1    3    3  502    0  0.53430719092E+02 -0.10247271570E+02 -0.48961776232E+03  0.49264883426E+03  0.41800000000E+01 0. -1.
         -5    1    3    3    0  502  0.14196613697E+03  0.84631681812E+02 -0.50499932858E+03  0.53137435004E+03  0.41800000000E+01 0. -1.
        -11    1    1    2    0    0 -0.75276024201E+02 -0.33062711185E+01 -0.38504017338E+03  0.39234340362E+03  0.00000000000E+00 0.  1.
         11    1    1    2    0    0 -0.12012083186E+03 -0.71078139123E+02 -0.33577815925E+03  0.36363180326E+03  0.00000000000E+00 0. -1.
</event>
<event>
 7    1  0.2619826E-009  0.1087098E+03  0.7561462E-02  0.1262978E+00
         -2   -1    0    0    0  501 -0.00000000000E+00  0.00000000000E+00  0.19628603523E+02  0.19628603523E+02  0.00000000000E+00 0.  1.
          2   -1    0    0  501    0  0.00000000000E+00 -0.00000000000E+00 -0.66586118906E+03  0.66586118906E+03  0.00000000000E+00 0. -1.
         25    2    1    2    0    0  0.94223845525E+01 -0.35336572473E+02 -0.42087436437E+03  0.44059267975E+03  0.12509685917E+03 0.  0.
          5    1    3    3  502    0 -0.51905510172E+02 -0.31851138393E+02 -0.28433740667E+03  0.29081593876E+03  0.41800000000E+01 0.  1.
         -5    1    3    3    0  502  0.61327894725E+02 -0.34854340796E+01 -0.13653695770E+03  0.14977674099E+03  0.41800000000E+01 0.  1.
        -11    1    1    2    0    0  0.37528238899E+02  0.29009977491E+02 -0.94699679160E+02  0.10591495051E+03  0.00000000000E+00 0.  1.
         11    1    1    2    0    0 -0.46950623451E+02  0.63265949815E+01 -0.13065854200E+03  0.13898216233E+03  0.00000000000E+00 0. -1.
</event>
<event>
 7    1  0.2619826E-009  0.7246660E+02  0.7561462E-02  0.1351901E+00
         -1   -1    0    0    0  501 -0.00000000000E+00  0.00000000000E+00  0.24954344664E+02  0.24954344664E+02  0.00000000000E+00 0.  1.
          1   -1    0    0  501    0  0.00000000000E+00 -0.00000000000E+00 -0.50264016972E+03  0.50264016972E+03  0.00000000000E+00 0. -1.
         25    2    1    2    0    0  0.17508600730E+02 -0.10531799530E+02 -0.23813358310E+03  0.26976360703E+03  0.12508928961E+03 0.  0.
          5    1    3    3  502    0 -0.12350099841E+02  0.21251227944E+02  0.26083122631E+01  0.25068213899E+02  0.41800000000E+01 0. -1.
         -5    1    3    3    0  502  0.29858700571E+02 -0.31783027474E+02 -0.24074189536E+03  0.24469539313E+03  0.41800000000E+01 0. -1.
        -11    1    1    2    0    0 -0.60221006070E+01 -0.31782003688E+02 -0.31294781311E+02  0.45008052518E+02  0.00000000000E+00 0.  1.
         11    1    1    2    0    0 -0.11486500123E+02  0.42313803218E+02 -0.20825746064E+03  0.21282285484E+03  0.00000000000E+00 0. -1.
</event>
<event>
 7    1  0.2619826E-009  0.9613401E+02  0.7561462E-02  0.1288642E+00
          2   -1    0    0  501    0  0.00000000000E+00  0.00000000000E+00  0.49154158752E+03  0.49154158752E+03  0.00000000000E+00 0. -1.
         -2   -1    0    0    0  501 -0.00000000000E+00 -0.00000000000E+00 -0.38041303503E+02  0.38041303503E+02  0.00000000000E+00 0.  1.
         25    2    1    2    0    0 -0.43619702657E+02  0.32795632987E+02  0.36797915940E+03  0.39246921779E+03  0.12508074654E+03 0.  0.
          5    1    3    3  502    0 -0.50193385285E+02  0.75686744876E+02  0.27796303700E+03  0.29245304173E+03  0.41800000000E+01 0.  1.
         -5    1    3    3    0  502  0.65736826277E+01 -0.42891111889E+02  0.90016122393E+02  0.10001617606E+03  0.41800000000E+01 0.  1.
        -11    1    1    2    0    0  0.29423906925E+02 -0.32104933370E+02  0.10461131847E+03  0.11331381644E+03  0.00000000000E+00 0. -1.
         11    1    1    2    0    0  0.14195795732E+02 -0.69069961748E+00 -0.19090193846E+02  0.23799856796E+02  0.00000000000E+00 0.  1.
</event>
<event>
 7    1  0.2619826E-009  0.2340135E+03  0.7561462E-02  0.1123846E+00
         -1   -1    0    0    0  501 -0.00000000000E+00  0.00000000000E+00  0.28811904164E+03  0.28811904164E+03  0.00000000000E+00 0.  1.
          1   -1    0    0  501    0  0.00000000000E+00 -0.00000000000E+00 -0.22433200956E+03  0.22433200956E+03  0.00000000000E+00 0. -1.
         25    2    1    2    0    0  0.16484844331E+03 -0.15541343842E+03  0.70539381487E+02  0.26823753410E+03  0.12508886543E+03 0.  0.
          5    1    3    3  502    0  0.13150535445E+02 -0.41354484850E+02 -0.30478902047E+02  0.53193663811E+02  0.41800000000E+01 0.  1.
         -5    1    3    3    0  502  0.15169790787E+03 -0.11405895357E+03  0.10101828353E+03  0.21504387029E+03  0.41800000000E+01 0.  1.
        -11    1    1    2    0    0 -0.33877889760E+02  0.71292832886E+02 -0.34427283338E+02  0.86113978387E+02  0.00000000000E+00 0. -1.
         11    1    1    2    0    0 -0.13097055355E+03  0.84120605538E+02  0.27674933933E+02  0.15809953872E+03  0.00000000000E+00 0.  1.
</event>
<event>
 7    1  0.2619826E-009  0.1146650E+03  0.7561462E-02  0.1252167E+00
         -1   -1    0    0    0  501 -0.00000000000E+00  0.00000000000E+00  0.27163047884E+02  0.27163047884E+02  0.00000000000E+00 0.  1.
          1   -1    0    0  501    0  0.00000000000E+00 -0.00000000000E+00 -0.77050353745E+03  0.77050353745E+03  0.00000000000E+00 0. -1.
         25    2    1    2    0    0 -0.70028523956E+02  0.41154878198E+02 -0.50990744597E+03  0.53127057298E+03  0.12508037452E+03 0.  0.
          5    1    3    3  502    0  0.22138877683E+02 -0.25982515094E+01 -0.18218503380E+02  0.29090670006E+02  0.41800000000E+01 0. -1.
         -5    1    3    3    0  502 -0.92167401639E+02  0.43753129707E+02 -0.49168894259E+03  0.50217990298E+03  0.41800000000E+01 0. -1.
        -11    1    1    2    0    0 -0.30968761290E+01 -0.30482847648E+02 -0.11912699285E+02  0.32874109064E+02  0.00000000000E+00 0.  1.
         11    1    1    2    0    0  0.73125400085E+02 -0.10672030550E+02 -0.22152034431E+03  0.23352190329E+03  0.00000000000E+00 0. -1.
</event>
<event>
 7    1  0.2619826E-009  0.2321070E+03  0.7561462E-02  0.1125165E+00
          1   -1    0    0  501    0  0.00000000000E+00  0.00000000000E+00  0.73225563908E+03  0.73225563908E+03  0.00000000000E+00 0. -1.
         -1   -1    0    0    0  501 -0.00000000000E+00 -0.00000000000E+00 -0.80481798947E+02  0.80481798947E+02  0.00000000000E+00 0.  1.
         25    2    1    2    0    0 -0.19612347242E+01  0.20892063392E+03  0.24195013157E+03  0.34327578467E+03  0.12508685166E+03 0.  0.
          5    1    3    3  502    0  0.45404157782E+02  0.32424340825E+02  0.88066788708E+02  0.10433650893E+03  0.41800000000E+01 0.  1.
         -5    1    3    3    0  502 -0.47365392506E+02  0.17649629309E+03  0.15388334286E+03  0.23893927574E+03  0.41800000000E+01 0.  1.
        -11    1    1    2    0    0 -0.36143142697E+02 -0.47892114820E+02  0.75590106525E+02  0.96508267161E+02  0.00000000000E+00 0.  1.
         11    1    1    2    0    0  0.38104377421E+02 -0.16102851910E+03  0.33423360204E+03  0.37295338620E+03  0.00000000000E+00 0. -1.
</event>
<event>
 7    1  0.2619826E-009  0.2183387E+03  0.7561462E-02  0.1135128E+00
         -3   -1    0    0    0  501 -0.00000000000E+00  0.00000000000E+00  0.10337680765E+03  0.10337680765E+03  0.00000000000E+00 0.  1.
          3   -1    0    0  501    0  0.00000000000E+00 -0.00000000000E+00 -0.64650582714E+03  0.64650582714E+03  0.00000000000E+00 0. -1.
         25    2    1    2    0    0  0.44700453833E+02  0.19069195071E+03 -0.47029860846E+03  0.52458573794E+03  0.12509142533E+03 0.  0.
          5    1    3    3  502    0 -0.27691492496E+02  0.98643786209E+01 -0.12139041194E+03  0.12496891307E+03  0.41800000000E+01 0. -1.
         -5    1    3    3    0  502  0.72391946330E+02  0.18082757209E+03 -0.34890819652E+03  0.39961682487E+03  0.41800000000E+01 0. -1.
        -11    1    1    2    0    0 -0.68842511031E+02 -0.14282516699E+03 -0.44581045825E+02  0.16469908712E+03  0.00000000000E+00 0.  1.
         11    1    1    2    0    0  0.24142057197E+02 -0.47866783725E+02 -0.28249365211E+02  0.60597809735E+02  0.00000000000E+00 0. -1.
</event>
<event>
 7    1  0.2619826E-009  0.9885569E+02  0.7561462E-02  0.1282721E+00
         -2   -1    0    0    0  501 -0.00000000000E+00  0.00000000000E+00  0.30561867150E+02  0.30561867150E+02  0.00000000000E+00 0. -1.
          2   -1    0    0  501    0  0.00000000000E+00 -0.00000000000E+00 -0.42876838303E+03  0.42876838303E+03  0.00000000000E+00 0.  1.
         25    2    1    2    0    0 -0.12822010663E+01  0.13551707521E+01 -0.15531098322E+03  0.19943181794E+03  0.12509223785E+03 0.  0.
          5    1    3    3  502    0  0.35030108627E+02  0.49705329629E+02 -0.10142005435E+03  0.11832678534E+03  0.41800000000E+01 0.  1.
         -5    1    3    3    0  502 -0.36312309693E+02 -0.48350158877E+02 -0.53890928877E+02  0.81105032605E+02  0.41800000000E+01 0.  1.
        -11    1    1    2    0    0  0.37767178420E+02 -0.91025508572E+01 -0.49424611422E+02  0.62865001488E+02  0.00000000000E+00 0. -1.
         11    1    1    2    0    0 -0.36484977353E+02  0.77473801051E+01 -0.19347092124E+03  0.19703343076E+03  0.00000000000E+00 0.  1.
</event>
<event>
 7    1  0.2619826E-009  0.7054879E+02  0.7561462E-02  0.1358237E+00
          2   -1    0    0  501    0  0.00000000000E+00  0.00000000000E+00  0.78857617611E+02  0.78857617611E+02  0.00000000000E+00 0. -1.
         -2   -1    0    0    0  501 -0.00000000000E+00 -0.00000000000E+00 -0.11908151573E+03  0.11908151573E+03  0.00000000000E+00 0.  1.
         25    2    1    2    0    0 -0.26279420997E+02 -0.74472007890E+01 -0.42385607267E+02  0.13487198163E+03  0.12509133846E+03 0.  0.
          5    1    3    3  502    0  0.22124850402E+02 -0.27400654463E+02  0.29301170350E+02  0.46003650444E+02  0.41800000000E+01 0.  1.
         -5    1    3    3    0  502 -0.48404271399E+02  0.19953453674E+02 -0.71686777617E+02  0.88868331189E+02  0.41800000000E+01 0.  1.
        -11    1    1    2    0    0  0.34348970068E+02  0.18818825706E+02  0.17007686880E+02  0.42699664620E+02  0.00000000000E+00 0. -1.
         11    1    1    2    0    0 -0.80695490713E+01 -0.11371624917E+02 -0.14845977733E+02  0.20367487088E+02  0.00000000000E+00 0.  1.
</event>
<event>
 7    1  0.2619826E-009  0.9527233E+02  0.7561462E-02  0.1290564E+00
          1   -1    0    0  501    0  0.00000000000E+00  0.00000000000E+00  0.29991545639E+02  0.29991545639E+02  0.00000000000E+00 0. -1.
         -1   -1    0    0    0  501 -0.00000000000E+00 -0.00000000000E+00 -0.60052658327E+03  0.60052658327E+03  0.00000000000E+00 0.  1.
         25    2    1    2    0    0 -0.48540052844E+02  0.12577462315E+02 -0.45765303065E+03  0.47708176885E+03  0.12508552438E+03 0.  0.
          5    1    3    3  502    0 -0.69571446983E+02  0.14892024496E+01 -0.44381496114E+03  0.44925671513E+03  0.41800000000E+01 0.  1.
         -5    1    3    3    0  502  0.21031394139E+02  0.11088259865E+02 -0.13838069511E+02  0.27825053712E+02  0.41800000000E+01 0.  1.
        -11    1    1    2    0    0  0.71858760910E+02 -0.14452897745E+02 -0.56990950278E+02  0.92846842630E+02  0.00000000000E+00 0. -1.
         11    1    1    2    0    0 -0.23318708066E+02  0.18754354305E+01 -0.55891056699E+02  0.60589517434E+02  0.00000000000E+00 0.  1.
</event>
<event>
 7    1  0.2619826E-009  0.8585255E+02  0.7561462E-02  0.1313218E+00
          1   -1    0    0  501    0  0.00000000000E+00  0.00000000000E+00  0.75546734983E+03  0.75546734983E+03  0.00000000000E+00 0. -1.
         -1   -1    0    0    0  501 -0.00000000000E+00 -0.00000000000E+00 -0.21063857201E+02  0.21063857201E+02  0.00000000000E+00 0.  1.
         25    2    1    2    0    0  0.91494557035E+01  0.16725380187E+02  0.60378573905E+03  0.61690321885E+03  0.12509561089E+03 0.  0.
          5    1    3    3  502    0 -0.26163955138E+02 -0.22854870352E+02  0.49047576686E+03  0.49172232807E+03  0.41800000000E+01 0.  1.
         -5    1    3    3    0  502  0.35313410842E+02  0.39580250539E+02  0.11330997219E+03  0.12518089078E+03  0.41800000000E+01 0.  1.
        -11    1    1    2    0    0  0.18504485395E+02 -0.42091989677E+02  0.10372879886E+03  0.11346283659E+03  0.00000000000E+00 0.  1.
         11    1    1    2    0    0 -0.27653941099E+02  0.25366609490E+02  0.26888954716E+02  0.46165151587E+02  0.00000000000E+00 0. -1.
</event>
<event>
 7    1  0.2619826E-009  0.1322657E+03  0.7561462E-02  0.1224132E+00
          2   -1    0    0  501    0  0.00000000000E+00  0.00000000000E+00  0.37062404757E+03  0.37062404757E+03  0.00000000000E+00 0. -1.
         -2   -1    0    0    0  501 -0.00000000000E+00 -0.00000000000E+00 -0.78463183081E+02  0.78463183081E+02  0.00000000000E+00 0.  1.
         25    2    1    2    0    0 -0.10513644171E+03  0.59466290016E+02  0.86034011835E+02  0.19400896268E+03  0.12509082853E+03 0.  0.
          5    1    3    3  502    0 -0.54867216177E+02  0.33268595794E+02  0.11383024008E+03  0.13073640210E+03  0.41800000000E+01 0. -1.
         -5    1    3    3    0  502 -0.50269225532E+02  0.26197694222E+02 -0.27796228241E+02  0.63272560581E+02  0.41800000000E+01 0. -1.
        -11    1    1    2    0    0 -0.39206349957E+01 -0.30228401957E+02  0.80973262053E+02  0.86520499485E+02  0.00000000000E+00 0. -1.
         11    1    1    2    0    0  0.10905707670E+03 -0.29237888058E+02  0.12515359060E+03  0.16855776848E+03  0.00000000000E+00 0.  1.
</event>
<event>
 7    1  0.2619826E-009  0.9984240E+02  0.7561462E-02  0.1280628E+00
         -2   -1    0    0    0  501 -0.00000000000E+00  0.00000000000E+00  0.23562497631E+03  0.23562497631E+03  0.00000000000E+00 0.  1.
          2   -1    0    0  501    0  0.00000000000E+00 -0.00000000000E+00 -0.51673054939E+02  0.51673054939E+02  0.00000000000E+00 0. -1.
         25    2    1    2    0    0 -0.18342283306E+02  0.60735906071E+01  0.11154283738E+03  0.16870837993E+03  0.12508950807E+03 0.  0.
          5    1    3    3  502    0 -0.31855802480E+02 -0.43577394517E+02  0.10302372040E+03  0.11638359347E+03  0.41800000000E+01 0. -1.
         -5    1    3    3    0  502  0.13513519174E+02  0.49650985124E+02  0.85191169833E+01  0.52324786463E+02  0.41800000000E+01 0. -1.
        -11    1    1    2    0    0  0.55084346772E+02 -0.12830622785E+02  0.43638032086E+02  0.71436601156E+02  0.00000000000E+00 0.  1.
         11    1    1    2    0    0 -0.36742063466E+02  0.67570321784E+01  0.28771051901E+02  0.47153050157E+02  0.00000000000E+00 0. -1.
</event>
<event>
 7    1  0.2619826E-009  0.1081275E+03  0.7561462E-02  0.1264077E+00
          2   -1    0    0  501    0  0.00000000000E+00  0.00000000000E+00  0.87285078051E+02  0.87285078051E+02  0.00000000000E+00 0. -1.
         -2   -1    0    0    0  501 -0.00000000000E+00 -0.00000000000E+00 -0.16938979369E+03  0.16938979369E+03  0.00000000000E+00 0.  1.
         25    2    1    2    0    0  0.31640953304E+02  0.27494278134E+02 -0.78686201921E+02  0.15361178239E+03  0.12509187048E+03 0.  0.
          5    1    3    3  502    0  0.76498168744E+02  0.37212752013E+02 -0.43563340897E+02  0.95666064013E+02  0.41800000000E+01 0.  1.
         -5    1    3    3    0  502 -0.44857215441E+02 -0.97184738791E+01 -0.35122861024E+02  0.57945718376E+02  0.41800000000E+01 0.  1.
        -11    1    1    2    0    0 -0.15385311144E+02  0.25379685387E+02  0.26836884415E+02  0.40013180259E+02  0.00000000000E+00 0. -1.
         11    1    1    2    0    0 -0.16255642160E+02 -0.52873963521E+02 -0.30255398133E+02  0.63049909093E+02  0.00000000000E+00 0.  1.
</event>
<event>
 7    1  0.2619826E-009  0.3273464E+03  0.7561462E-02  0.1072317E+00
          1   -1    0    0  501    0  0.00000000000E+00  0.00000000000E+00  0.61590267315E+03  0.61590267315E+03  0.00000000000E+00 0. -1.
         -1   -1    0    0    0  501 -0.00000000000E+00 -0.00000000000E+00 -0.18333742982E+03  0.18333742982E+03  0.00000000000E+00 0.  1.
         25    2    1    2    0    0 -0.30786933102E+03 -0.70970980547E+02  0.25130835379E+03  0.42263882122E+03  0.12508908608E+03 0.  0.
          5    1    3    3  502    0 -0.31424171586E+03 -0.57608056115E+02  0.25246334079E+03  0.40721217437E+03  0.41800000000E+01 0.  1.
         -5    1    3    3    0  502  0.63723848390E+01 -0.13362924432E+02 -0.11549870057E+01  0.15426646846E+02  0.41800000000E+01 0.  1.
        -11    1    1    2    0    0  0.10250199922E+03 -0.51950524681E-01  0.16319443674E+02  0.10379299969E+03  0.00000000000E+00 0.  1.
         11    1    1    2    0    0  0.20536733180E+03  0.71022931072E+02  0.16493744588E+03  0.27280828206E+03  0.00000000000E+00 0. -1.
</event>
<event>
 7    1  0.2619826E-009  0.1001832E+03  0.7561462E-02  0.1279911E+00
         -1   -1    0    0    0  501 -0.00000000000E+00  0.00000000000E+00  0.92333994283E+02  0.92333994283E+02  0.00000000000E+00 0.  1.
          1   -1    0    0  501    0  0.00000000000E+00 -0.00000000000E+00 -0.19350333108E+03  0.19350333108E+03  0.00000000000E+00 0. -1.
         25    2    1    2    0    0  0.12046601805E+02 -0.55332292417E+02 -0.11276701490E+03  0.17768161889E+03  0.12509026678E+03 0.  0.
          5    1    3    3  502    0  0.25106343855E+02  0.11620616728E+02 -0.10527486237E+03  0.10892950143E+03  0.41800000000E+01 0.  1.
         -5    1    3    3    0  502 -0.13059742050E+02 -0.66952909145E+02 -0.74921525273E+01  0.68752117457E+02  0.41800000000E+01 0.  1.
        -11    1    1    2    0    0  0.17661853428E+02 -0.17819970836E+02 -0.88352600969E+01  0.26599891881E+02  0.00000000000E+00 0.  1.
         11    1    1    2    0    0 -0.29708455232E+02  0.73152263253E+02  0.20432938195E+02  0.81555814597E+02  0.00000000000E+00 0. -1.
</event>
<event>
 7    1  0.2619826E-009  0.2851629E+03  0.7561462E-02  0.1092902E+00
         -2   -1    0    0    0  501 -0.00000000000E+00  0.00000000000E+00  0.86421577410E+03  0.86421577410E+03  0.00000000000E+00 0.  1.
          2   -1    0    0  501    0  0.00000000000E+00 -0.00000000000E+00 -0.13398119663E+03  0.13398119663E+03  0.00000000000E+00 0. -1.
         25    2    1    2    0    0 -0.16061743571E+03  0.22821817887E+03  0.61392665115E+03  0.68588269078E+03  0.12509050605E+03 0.  0.
          5    1    3    3  502    0 -0.53684450455E+02  0.14394303461E+03  0.43263107870E+03  0.45911734893E+03  0.41800000000E+01 0. -1.
         -5    1    3    3    0  502 -0.10693298525E+03  0.84275144253E+02  0.18129557245E+03  0.22676534185E+03  0.41800000000E+01 0.  1.
        -11    1    1    2    0    0  0.12370155988E+03 -0.15396664902E+03  0.44118318062E+02  0.20237151706E+03  0.00000000000E+00 0. -1.
         11    1    1    2    0    0  0.36915875823E+02 -0.74251529842E+02  0.72189608252E+02  0.10994276289E+03  0.00000000000E+00 0.  1.
</event>
<event>
 7    1  0.2619826E-009  0.1019647E+03  0.7561462E-02  0.1276218E+00
          1   -1    0    0  501    0  0.00000000000E+00  0.00000000000E+00  0.10687958414E+03  0.10687958414E+03  0.00000000000E+00 0. -1.
         -1   -1    0    0    0  501 -0.00000000000E+00 -0.00000000000E+00 -0.12710906727E+03  0.12710906727E+03  0.00000000000E+00 0.  1.
         25    2    1    2    0    0  0.79925713712E+01 -0.40772859145E+02  0.65821895233E+01  0.13197242938E+03  0.12508832742E+03 0.  0.
          5    1    3    3  502    0 -0.45473525988E+02 -0.57031479528E+02  0.16901965915E+02  0.74990533234E+02  0.41800000000E+01 0.  1.
         -5    1    3    3    0  502  0.53466097359E+02  0.16258620384E+02 -0.10319776392E+02  0.56981896146E+02  0.41800000000E+01 0.  1.
        -11    1    1    2    0    0 -0.71443991601E+01  0.57569345684E+02  0.12425423852E+02  0.59326749108E+02  0.00000000000E+00 0. -1.
         11    1    1    2    0    0 -0.84817221117E+00 -0.16796486539E+02 -0.39237096508E+02  0.42689472924E+02  0.00000000000E+00 0.  1.
</event>
<event>
 7    1  0.2619826E-009  0.1167787E+03  0.7561462E-02  0.1248508E+00
         -1   -1    0    0    0  501 -0.00000000000E+00  0.00000000000E+00  0.24900928468E+03  0.24900928468E+03  0.00000000000E+00 0.  1.
          1   -1    0    0  501    0  0.00000000000E+00 -0.00000000000E+00 -0.11596843332E+03  0.11596843332E+03  0.00000000000E+00 0. -1.
         25    2    1    2    0    0  0.91164506734E+02  0.30532127363E+02 -0.24212121046E+02  0.15961605299E+03  0.12509148443E+03 0.  0.
          5    1    3    3  502    0  0.73462950535E+01 -0.91796155212E+01  0.43144357681E+02  0.44912597251E+02  0.41800000000E+01 0.  1.
         -5    1    3    3    0  502  0.83818211680E+02  0.39711742884E+02 -0.67356478727E+02  0.11470345574E+03  0.41800000000E+01 0.  1.
        -11    1    1    2    0    0  0.52526354892E+01 -0.31377792222E+02  0.62734823533E+02  0.70340700224E+02  0.00000000000E+00 0.  1.
         11    1    1    2    0    0 -0.96417142223E+02  0.84566485844E+00  0.94518148872E+02  0.13502096478E+03  0.00000000000E+00 0. -1.
</event>
<event>
 7    1  0.2619826E-009  0.1334335E+03  0.7561462E-02  0.1222448E+00
         -2   -1    0    0    0  501 -0.00000000000E+00  0.00000000000E+00  0.71671206758E+02  0.71671206758E+02  0.00000000000E+00 0.  1.
          2   -1    0    0  501    0  0.00000000000E+00 -0.00000000000E+00 -0.74762508669E+03  0.74762508669E+03  0.00000000000E+00 0. -1.
         25    2    1    2    0    0  0.78934494371E+02  0.57622739298E+02 -0.66423069162E+03  0.68292584165E+03  0.12503703059E+03 0.  0.
          5    1    3    3  502    0  0.78086030333E+02  0.48141291846E+01 -0.18679775604E+03  0.20256228187E+03  0.41800000000E+01 0. -1.
         -5    1    3    3    0  502  0.84846403773E+00  0.52808610114E+02 -0.47743293558E+03  0.48036355978E+03  0.41800000000E+01 0. -1.
        -11    1    1    2    0    0 -0.87817563646E+01 -0.64459942248E+02 -0.91755961823E+00  0.65061857606E+02  0.00000000000E+00 0.  1.
         11    1    1    2    0    0 -0.70152738006E+02  0.68372029501E+01 -0.10805628693E+02  0.71308594190E+02  0.00000000000E+00 0. -1.
</event>
<event>
 7    1  0.2619826E-009  0.2354694E+03  0.7561462E-02  0.1122848E+00
         -2   -1    0    0    0  501 -0.00000000000E+00  0.00000000000E+00  0.49983024665E+02  0.49983024665E+02  0.00000000000E+00 0.  1.
          2   -1    0    0  501    0  0.00000000000E+00 -0.00000000000E+00 -0.18918304382E+04  0.18918304382E+04  0.00000000000E+00 0. -1.
         25    2    1    2    0    0  0.21603779865E+03  0.34492564986E+02 -0.15276614648E+04  0.15483082034E+04  0.12508666710E+03 0.  0.
          5    1    3    3  502    0 -0.16045005205E+02  0.72165784283E+01 -0.94481681459E+02  0.96196578564E+02  0.41800000000E+01 0.  1.
         -5    1    3    3    0  502  0.23208280385E+03  0.27275986558E+02 -0.14331797833E+04  0.14521116248E+04  0.41800000000E+01 0.  1.
        -11    1    1    2    0    0 -0.19147596493E+03 -0.26455005234E+02 -0.20687284101E+03  0.28312415085E+03  0.00000000000E+00 0.  1.
         11    1    1    2    0    0 -0.24561833717E+02 -0.80375597524E+01 -0.10731310771E+03  0.11038110856E+03  0.00000000000E+00 0. -1.
</event>
<event>
 7    1  0.2619826E-009  0.1001141E+03  0.7561462E-02  0.1280056E+00
          2   -1    0    0  501    0  0.00000000000E+00  0.00000000000E+00  0.75355733349E+02  0.75355733349E+02  0.00000000000E+00 0.  1.
         -2   -1    0    0    0  501 -0.00000000000E+00 -0.00000000000E+00 -0.17873774454E+03  0.17873774454E+03  0.00000000000E+00 0. -1.
         25    2    1    2    0    0  0.14077527342E+02  0.18375613518E+02 -0.94967136632E+02  0.15875784585E+03  0.12509778828E+03 0.  0.
          5    1    3    3  502    0 -0.66428537358E+01  0.68822461574E+02 -0.70510971192E+02  0.98842947049E+02  0.41800000000E+01 0. -1.
         -5    1    3    3    0  502  0.20720381078E+02 -0.50446848056E+02 -0.24456165440E+02  0.59914898805E+02  0.41800000000E+01 0. -1.
        -11    1    1    2    0    0  0.29715529133E+02 -0.11830282532E+02 -0.31934699065E+02  0.45197270502E+02  0.00000000000E+00 0. -1.
         11    1    1    2    0    0 -0.43793056475E+02 -0.65453309863E+01  0.23519824502E+02  0.50138361538E+02  0.00000000000E+00 0.  1.
</event>
<event>
 7    1  0.2619826E-009  0.8465077E+02  0.7561462E-02  0.1316348E+00
          1   -1    0    0  501    0  0.00000000000E+00  0.00000000000E+00  0.32805365153E+03  0.32805365153E+03  0.00000000000E+00 0. -1.
         -1   -1    0    0    0  501 -0.00000000000E+00 -0.00000000000E+00 -0.48764401124E+02  0.48764401124E+02  0.00000000000E+00 0.  1.
         25    2    1    2    0    0  0.14940877679E+02  0.30206410481E+02  0.69834035126E+02  0.14717035126E+03  0.12508662106E+03 0.  0.
          5    1    3    3  502    0 -0.28196664298E+02 -0.13722164883E+02  0.78706465544E+02  0.84826468776E+02  0.41800000000E+01 0.  1.
         -5    1    3    3    0  502  0.43137541976E+02  0.43928575364E+02 -0.88724304187E+01  0.62343882481E+02  0.41800000000E+01 0.  1.
        -11    1    1    2    0    0  0.27299734716E+02 -0.94276933288E+01  0.21820514757E+02  0.36197952723E+02  0.00000000000E+00 0.  1.
         11    1    1    2    0    0 -0.42240612394E+02 -0.20778717152E+02  0.18763470052E+03  0.19344974867E+03  0.00000000000E+00 0. -1.
</event>
<event>
 7    1  0.2619826E-009  0.1449224E+03  0.7561462E-02  0.1206855E+00
         -3   -1    0    0    0  501 -0.00000000000E+00  0.00000000000E+00  0.88370548947E+02  0.88370548947E+02  0.00000000000E+00 0.  1.
          3   -1    0    0  501    0  0.00000000000E+00 -0.00000000000E+00 -0.25979753622E+03  0.25979753622E+03  0.00000000000E+00 0. -1.
         25    2    1    2    0    0  0.30458867565E+02 -0.93378733328E+02 -0.13719752019E+03  0.21004125251E+03  0.12508732053E+03 0.  0.
          5    1    3    3  502    0  0.77589971588E+02 -0.55271067660E+02 -0.10284248941E+03  0.14024672773E+03  0.41800000000E+01 0.  1.
         -5    1    3    3    0  502 -0.47131104023E+02 -0.38107665668E+02 -0.34355030784E+02  0.69794524780E+02  0.41800000000E+01 0.  1.
        -11    1    1    2    0    0  0.32488169313E+02  0.26844328807E+02 -0.85443337326E+01  0.43001218278E+02  0.00000000000E+00 0.  1.
         11    1    1    2    0    0 -0.62947036878E+02  0.66534404520E+02 -0.25685133355E+02  0.95125614385E+02  0.00000000000E+00 0. -1.
</event>
<event>
 7    1  0.2619826E-009  0.7719210E+02  0.7561462E-02  0.1337214E+00
          2   -1    0    0  501    0  0.00000000000E+00  0.00000000000E+00  0.25891498315E+03  0.25891498315E+03  0.00000000000E+00 0. -1.
         -2   -1    0    0    0  501 -0.00000000000E+00 -0.00000000000E+00 -0.51269161122E+02  0.51269161122E+02  0.00000000000E+00 0.  1.
         25    2    1    2    0    0  0.23695896498E+02 -0.15953044400E+02  0.14772214629E+03  0.19566428546E+03  0.12508670978E+03 0.  0.
          5    1    3    3  502    0  0.39143414944E+02 -0.16122944006E+02  0.16600353545E+03  0.17136744860E+03  0.41800000000E+01 0. -1.
         -5    1    3    3    0  502 -0.15447518446E+02  0.16989960638E+00 -0.18281389158E+02  0.24296836863E+02  0.41800000000E+01 0. -1.
        -11    1    1    2    0    0 -0.13903751729E+02 -0.38281936659E+02  0.14947303795E+02  0.43384823121E+02  0.00000000000E+00 0.  1.
         11    1    1    2    0    0 -0.97921447688E+01  0.54234981059E+02  0.44976371946E+02  0.71135035694E+02  0.00000000000E+00 0. -1.
</event>
<event>
 7    1  0.2619826E-009  0.2617946E+03  0.7561462E-02  0.1106070E+00
          2   -1    0    0  501    0  0.00000000000E+00  0.00000000000E+00  0.90524458316E+03  0.90524458316E+03  0.00000000000E+00 0. -1.
         -2   -1    0    0    0  501 -0.00000000000E+00 -0.00000000000E+00 -0.11261078641E+03  0.11261078641E+03  0.00000000000E+00 0.  1.
         25    2    1    2    0    0  0.22065875981E+03  0.10847154139E+03  0.67691512881E+03  0.73097113664E+03  0.12509335482E+03 0.  0.
          5    1    3    3  502    0  0.20099955472E+03  0.13519124762E+03  0.60278568796E+03  0.64965033090E+03  0.41800000000E+01 0.  1.
         -5    1    3    3    0  502  0.19659205087E+02 -0.26719706228E+02  0.74129440854E+02  0.81320805744E+02  0.41800000000E+01 0.  1.
        -11    1    1    2    0    0 -0.80267017694E+02 -0.22904884476E+02 -0.38989838431E+01  0.83562132197E+02  0.00000000000E+00 0.  1.
         11    1    1    2    0    0 -0.14039174211E+03 -0.85566656913E+02  0.11961765178E+03  0.20332210073E+03  0.00000000000E+00 0. -1.
</event>
<event>
 7    1  0.2619826E-009  0.9885359E+02  0.7561462E-02  0.1282725E+00
         -2   -1    0    0    0  501 -0.00000000000E+00  0.00000000000E+00  0.17994578881E+03  0.17994578881E+03  0.00000000000E+00 0.  1.
          2   -1    0    0  501    0  0.00000000000E+00 -0.00000000000E+00 -0.66394593261E+02  0.66394593261E+02  0.00000000000E+00 0. -1.
         25    2    1    2    0    0  0.20760102369E+00  0.11853346899E+02  0.55827823835E+02  0.13749391167E+03  0.12508910784E+03 0.  0.
          5    1    3    3  502    0  0.57964861233E+01 -0.56493856359E+02  0.25770831352E+02  0.62504105516E+02  0.41800000000E+01 0.  1.
         -5    1    3    3    0  502 -0.55888850996E+01  0.68347203259E+02  0.30056992483E+02  0.74989806154E+02  0.41800000000E+01 0.  1.
        -11    1    1    2    0    0  0.26133621443E+02 -0.30216707800E+02  0.64649940230E+02  0.75997568196E+02  0.00000000000E+00 0.  1.
         11    1    1    2    0    0 -0.26341222466E+02  0.18363360901E+02 -0.69265685168E+01  0.32848902204E+02  0.00000000000E+00 0. -1.
</event>
<event>
 7    1  0.2619826E-009  0.1270113E+03  0.7561462E-02  0.1231959E+00
          2   -1    0    0  501    0  0.00000000000E+00  0.00000000000E+00  0.25251119602E+03  0.25251119602E+03  0.00000000000E+00 0. -1.
         -2   -1    0    0    0  501 -0.00000000000E+00 -0.00000000000E+00 -0.70738048758E+02  0.70738048758E+02  0.00000000000E+00 0.  1.
         25    2    1    2    0    0 -0.75546422053E+02  0.10922976599E+02  0.12346022366E+03  0.19159219679E+03  0.12505426719E+03 0.  0.
          5    1    3    3  502    0 -0.18282339110E+02  0.62480531814E+02  0.34392648587E+02  0.73745423288E+02  0.41800000000E+01 0.  1.
         -5    1    3    3    0  502 -0.57264082943E+02 -0.51557555216E+02  0.89067575073E+02  0.11784677350E+03  0.41800000000E+01 0.  1.
        -11    1    1    2    0    0 -0.31719079408E-01  0.27042605324E+02  0.34412974771E+02  0.43767069143E+02  0.00000000000E+00 0. -1.
         11    1    1    2    0    0  0.75578141132E+02 -0.37965581923E+02  0.23899948833E+02  0.87889978848E+02  0.00000000000E+00 0.  1.
</event>
<event>
 7    1  0.2619826E-009  0.1018568E+03  0.7561462E-02  0.1276439E+00
         -1   -1    0    0    0  501 -0.00000000000E+00  0.00000000000E+00  0.15091518645E+02  0.15091518645E+02  0.00000000000E+00 0.  1.
          1   -1    0    0  501    0  0.00000000000E+00 -0.00000000000E+00 -0.10755642834E+04  0.10755642834E+04  0.00000000000E+00 0. -1.
         25    2    1    2    0    0  0.57574950293E+02  0.14603637879E+02 -0.69715966557E+03  0.71077897263E+03  0.12508799899E+03 0.  0.
          5    1    3    3  502    0  0.74272574943E+02  0.14005372194E+02 -0.20850020261E+03  0.22181607861E+03  0.41800000000E+01 0. -1.
         -5    1    3    3    0  502 -0.16697624650E+02  0.59826568502E+00 -0.48865946296E+03  0.48896289402E+03  0.41800000000E+01 0. -1.
        -11    1    1    2    0    0 -0.13337952004E+02  0.39043939249E+02 -0.12565681873E+03  0.13225719734E+03  0.00000000000E+00 0.  1.
         11    1    1    2    0    0 -0.44236998289E+02 -0.53647577128E+02 -0.23765628046E+03  0.24761963208E+03  0.00000000000E+00 0. -1.
</event>
<event>
 7    1  0.2619826E-009  0.8896034E+02  0.7561462E-02  0.1305389E+00
          2   -1    0    0  501    0  0.00000000000E+00  0.00000000000E+00  0.77821245256E+03  0.77821245256E+03  0.00000000000E+00 0. -1.
         -2   -1    0    0    0  501 -0.00000000000E+00 -0.00000000000E+00 -0.16090446626E+02  0.16090446626E+02  0.00000000000E+00 0.  1.
         25    2    1    2    0    0  0.14503048105E+02  0.12154088284E+02  0.52697772426E+03  0.54195137115E+03  0.12509079325E+03 0.  0.
          5    1    3    3  502    0 -0.31847185900E+02 -0.21803428889E+02  0.60200517064E+02  0.71632446670E+02  0.41800000000E+01 0. -1.
         -5    1    3    3    0  502  0.46350234005E+02  0.33957517173E+02  0.46677720719E+03  0.47031892448E+03  0.41800000000E+01 0. -1.
        -11    1    1    2    0    0  0.18127938570E+02 -0.36515274590E+02  0.17522212765E+03  0.17990214410E+03  0.00000000000E+00 0. -1.
         11    1    1    2    0    0 -0.32630986675E+02  0.24361186306E+02  0.59922154030E+02  0.72449383939E+02  0.00000000000E+00 0.  1.
</event>
<event>
 6    1  0.2619826E-009  0.2618715E+03  0.7561462E-02  0.1106024E+00
          2   -1    0    0  501    0  0.00000000000E+00  0.00000000000E+00  0.42231868460E+03  0.42231868460E+03  0.00000000000E+00 0. -1.
         -2   -1    0    0    0  501 -0.00000000000E+00 -0.00000000000E+00 -0.17335571151E+03  0.17335571151E+03  0.00000000000E+00 0.  1.
          5    1    1    2  502    0  0.65405363100E+02 -0.11488728865E+03  0.66964138379E+02  0.14825187636E+03  0.41800000000E+01 0.  1.
         -5    1    1    2    0  502  0.14115552162E+03 -0.17685009985E+02  0.96798245434E+02  0.17211918424E+03  0.41800000000E+01 0.  1.
        -11    1    1    2    0    0 -0.17543646841E+03  0.12914208228E+03  0.41850170982E+02  0.22182666358E+03  0.00000000000E+00 0.  1.
         11    1    1    2    0    0 -0.31124416314E+02  0.34302163534E+01  0.43350418296E+02  0.53476671938E+02  0.00000000000E+00 0. -1.
</event>
<event>
 7    1  0.2619826E-009  0.9759505E+02  0.7561462E-02  0.1285436E+00
         -1   -1    0    0    0  501 -0.00000000000E+00  0.00000000000E+00  0.69205772663E+03  0.69205772663E+03  0.00000000000E+00 0.  1.
          1   -1    0    0  501    0  0.00000000000E+00 -0.00000000000E+00 -0.21350202972E+02  0.21350202972E+02  0.00000000000E+00 0. -1.
         25    2    1    2    0    0  0.41324302696E+02 -0.37204742922E+02  0.37160371344E+03  0.39602022321E+03  0.12510318326E+03 0.  0.
          5    1    3    3  502    0  0.18130434243E+02 -0.55948271332E+02  0.35826777622E+03  0.36308703308E+03  0.41800000000E+01 0. -1.
         -5    1    3    3    0  502  0.23193868452E+02  0.18743528410E+02  0.13335937219E+02  0.32933190136E+02  0.41800000000E+01 0. -1.
        -11    1    1    2    0    0  0.10603148140E+02 -0.23769643146E+02  0.77716647816E+02  0.81959136364E+02  0.00000000000E+00 0.  1.
         11    1    1    2    0    0 -0.51927450836E+02  0.60974386068E+02  0.22138716240E+03  0.23542857002E+03  0.00000000000E+00 0. -1.
</event>
<event>
 7    1  0.2619826E-009  0.1092395E+03  0.7561462E-02  0.1261985E+00
          3   -1    0    0  501    0  0.00000000000E+00  0.00000000000E+00  0.94364080596E+03  0.94364080596E+03  0.00000000000E+00 0. -1.
         -3   -1    0    0    0  501 -0.00000000000E+00 -0.00000000000E+00 -0.23349792253E+02  0.23349792253E+02  0.00000000000E+00 0.  1.
         25    2    1    2    0    0 -0.42371435598E+02  0.82782846990E+02  0.63011039827E+03  0.64910305972E+03  0.12508928738E+03 0.  0.
          5    1    3    3  502    0 -0.37644483477E+02  0.53230426560E+02  0.60839169491E+03  0.61188929741E+03  0.41800000000E+01 0. -1.
         -5    1    3    3    0  502 -0.47269521202E+01  0.29552420430E+02  0.21718703363E+02  0.37213762312E+02  0.41800000000E+01 0. -1.
        -11    1    1    2    0    0  0.45924953294E+02 -0.62887714682E+01  0.16271133215E+03  0.16918518727E+03  0.00000000000E+00 0. -1.
         11    1    1    2    0    0 -0.35535176962E+01 -0.76494075522E+02  0.12746928328E+03  0.14870235122E+03  0.00000000000E+00 0.  1.
</event>
<event>
 7    1  0.2652274E-009  0.1202217E+03  0.7561462E-02  0.1242732E+00
          1   -1    0    0  501    0  0.00000000000E+00  0.00000000000E+00  0.23436487753E+03  0.23436487753E+03  0.00000000000E+00 0. -1.
         -1   -1    0    0    0  501 -0.00000000000E+00 -0.00000000000E+00 -0.94106814237E+02  0.94106814237E+02  0.00000000000E+00 0.  1.
         25    2    1    2    0    0 -0.43179770836E+01 -0.95647187913E+02  0.11264407431E+03  0.19365792221E+03  0.12509066262E+03 0.  0.
          5    1    3    3  502    0  0.26307518790E+02 -0.91624995006E-01 -0.15522186133E+02  0.30830254659E+02  0.41800000000E+01 0. -1.
         -5    1    3    3    0  502 -0.30625495873E+02 -0.95555562918E+02  0.12816626045E+03  0.16282766755E+03  0.41800000000E+01 0. -1.
        -11    1    1    2    0    0 -0.23427284212E+02  0.14347204377E+02 -0.22369003264E+02  0.35426716275E+02  0.00000000000E+00 0.  1.
         11    1    1    2    0    0  0.27745261296E+02  0.81299983536E+02  0.49982992243E+02  0.99387053286E+02  0.00000000000E+00 0. -1.
</event>
<event>
 7    1  0.2619826E-009  0.8463007E+02  0.7561462E-02  0.1316403E+00
          4   -1    0    0  501    0  0.00000000000E+00  0.00000000000E+00  0.10758169966E+03  0.10758169966E+03  0.00000000000E+00 0. -1.
         -4   -1    0    0    0  501 -0.00000000000E+00 -0.00000000000E+00 -0.13844876976E+03  0.13844876976E+03  0.00000000000E+00 0.  1.
         25    2    1    2    0    0  0.18628874787E+02 -0.15477085976E+02 -0.71470579675E+02  0.14608980455E+03  0.12509041557E+03 0.  0.
          5    1    3    3  502    0 -0.26629112104E+02 -0.18269481979E+02  0.23908821680E+02  0.40397867981E+02  0.41800000000E+01 0.  1.
         -5    1    3    3    0  502  0.45257986891E+02  0.27923960031E+01 -0.95379401356E+02  0.10569193657E+03  0.41800000000E+01 0.  1.
        -11    1    1    2    0    0 -0.61571123813E+00 -0.36317755879E+02  0.19088985438E+02  0.41033496774E+02  0.00000000000E+00 0.  1.
         11    1    1    2    0    0 -0.18013163549E+02  0.51794841855E+02  0.21514524140E+02  0.58907168094E+02  0.00000000000E+00 0. -1.
</event>
<event>
 7    1  0.2619826E-009  0.6574775E+02  0.7561462E-02  0.1375181E+00
         -2   -1    0    0    0  501 -0.00000000000E+00  0.00000000000E+00  0.52056558643E+02  0.52056558643E+02  0.00000000000E+00 0.  1.
          2   -1    0    0  501    0  0.00000000000E+00 -0.00000000000E+00 -0.25506639292E+03  0.25506639292E+03  0.00000000000E+00 0. -1.
         25    2    1    2    0    0 -0.27589308528E+02 -0.24343080162E+02 -0.97639430963E+02  0.16289690895E+03  0.12509272149E+03 0.  0.
          5    1    3    3  502    0 -0.96080781043E+01 -0.54044822505E+01 -0.12458447839E+03  0.12514107339E+03  0.41800000000E+01 0.  1.
         -5    1    3    3    0  502 -0.17981230424E+02 -0.18938597911E+02  0.26945047424E+02  0.37755835563E+02  0.41800000000E+01 0.  1.
        -11    1    1    2    0    0 -0.49313630326E+01 -0.29742544271E+02 -0.57818969074E+02  0.65207135084E+02  0.00000000000E+00 0.  1.
         11    1    1    2    0    0  0.32520671560E+02  0.54085624433E+02 -0.47551434241E+02  0.79018907532E+02  0.00000000000E+00 0. -1.
</event>
<event>
 7    1  0.2619826E-009  0.1628455E+03  0.7561462E-02  0.1185521E+00
          1   -1    0    0  501    0  0.00000000000E+00  0.00000000000E+00  0.17978837414E+04  0.17978837414E+04  0.00000000000E+00 0. -1.
         -1   -1    0    0    0  501 -0.00000000000E+00 -0.00000000000E+00 -0.16898384717E+02  0.16898384717E+02  0.00000000000E+00 0.  1.
         25    2    1    2    0    0  0.27710249861E+02  0.13068085555E+03  0.11833350652E+04  0.11974034704E+04  0.12509136893E+03 0.  0.
          5    1    3    3  502    0  0.69733817363E+02  0.34697858871E+02  0.48113664778E+03  0.48741839618E+03  0.41800000000E+01 0.  1.
         -5    1    3    3    0  502 -0.42023567503E+02  0.95982996677E+02  0.70219841740E+03  0.70998507426E+03  0.41800000000E+01 0.  1.
        -11    1    1    2    0    0 -0.19706914237E+02 -0.10405077184E+02  0.31798911950E+02  0.38830386312E+02  0.00000000000E+00 0.  1.
         11    1    1    2    0    0 -0.80033356235E+01 -0.12027577836E+03  0.56585137953E+03  0.57854826934E+03  0.00000000000E+00 0. -1.
</event>
<event>
 7    1  0.2619826E-009  0.1702239E+03  0.7561462E-02  0.1177615E+00
          2   -1    0    0  501    0  0.00000000000E+00  0.00000000000E+00  0.80976159981E+03  0.80976159981E+03  0.00000000000E+00 0. -1.
         -2   -1    0    0    0  501 -0.00000000000E+00 -0.00000000000E+00 -0.88607118277E+02  0.88607118277E+02  0.00000000000E+00 0.  1.
         25    2    1    2    0    0  0.26002650197E+02 -0.13299598137E+03  0.28388104171E+02  0.18659507336E+03  0.12509103911E+03 0.  0.
          5    1    3    3  502    0  0.75921614693E+02 -0.66354299589E+02  0.11986522375E+02  0.10162742627E+03  0.41800000000E+01 0.  1.
         -5    1    3    3    0  502 -0.49918964496E+02 -0.66641681782E+02  0.16401581796E+02  0.84967647093E+02  0.41800000000E+01 0.  1.
        -11    1    1    2    0    0 -0.14340851068E+02 -0.68051256641E+01  0.26435063745E+02  0.30834758632E+02  0.00000000000E+00 0.  1.
         11    1    1    2    0    0 -0.11661799130E+02  0.13980110703E+03  0.66633131362E+03  0.68093888610E+03  0.00000000000E+00 0. -1.
</event>
<event>
 7    1  0.3612549E-009  0.1741991E+03  0.7561462E-02  0.1173538E+00
         -2   -1    0    0    0  501 -0.00000000000E+00  0.00000000000E+00  0.50635083132E+02  0.50635083132E+02  0.00000000000E+00 0.  1.
          2   -1    0    0  501    0  0.00000000000E+00 -0.00000000000E+00 -0.88486380294E+03  0.88486380294E+03  0.00000000000E+00 0. -1.
         25    2    1    2    0    0  0.12564111242E+03  0.57699016902E+02 -0.69286239098E+03  0.71750975940E+03  0.12508835405E+03 0.  0.
          5    1    3    3  502    0 -0.32997512118E+01  0.56448058993E+02 -0.18331280957E+03  0.19188103156E+03  0.41800000000E+01 0. -1.
         -5    1    3    3    0  502  0.12894086363E+03  0.12509579096E+01 -0.50954958141E+03  0.52562872783E+03  0.41800000000E+01 0. -1.
        -11    1    1    2    0    0 -0.48221795050E+02 -0.69273930977E+02 -0.94696926922E+02  0.12685317103E+03  0.00000000000E+00 0. -1.
         11    1    1    2    0    0 -0.77419317371E+02  0.11574914075E+02 -0.46669401916E+02  0.91135955655E+02  0.00000000000E+00 0.  1.
</event>
<event>
 7    1  0.2619826E-009  0.1518536E+03  0.7561462E-02  0.1198214E+00
         -1   -1    0    0    0  501 -0.00000000000E+00  0.00000000000E+00  0.36598440283E+02  0.36598440283E+02  0.00000000000E+00 0. -1.
          1   -1    0    0  501    0  0.00000000000E+00 -0.00000000000E+00 -0.78761183344E+03  0.78761183344E+03  0.00000000000E+00 0.  1.
         25    2    1    2    0    0 -0.11677447444E+03  0.41132412989E+02 -0.32020174956E+03  0.36538825195E+03  0.12510499975E+03 0.  0.
          5    1    3    3  502    0 -0.14307461843E+03  0.41698920834E+02 -0.27879856729E+03  0.31615701789E+03  0.41800000000E+01 0. -1.
         -5    1    3    3    0  502  0.26300143992E+02 -0.56650784473E+00 -0.41403182264E+02  0.49231234056E+02  0.41800000000E+01 0. -1.
        -11    1    1    2    0    0  0.16389578586E+02  0.55131229425E+01 -0.38109815148E+01  0.17706958827E+02  0.00000000000E+00 0. -1.
         11    1    1    2    0    0  0.10038489585E+03 -0.46645535932E+02 -0.42700066208E+03  0.44111506294E+03  0.00000000000E+00 0.  1.
</event>
<event>
 7    1  0.2619826E-009  0.1884575E+03  0.7561462E-02  0.1159860E+00
          2   -1    0    0  501    0  0.00000000000E+00  0.00000000000E+00  0.34974981732E+03  0.34974981732E+03  0.00000000000E+00 0.  1.
         -2   -1    0    0    0  501 -0.00000000000E+00 -0.00000000000E+00 -0.17755452004E+03  0.17755452004E+03  0.00000000000E+00 0. -1.
         25    2    1    2    0    0  0.14172355543E+03 -0.90071048517E+02  0.24504297648E+03  0.32232268997E+03  0.12508995245E+03 0.  0.
          5    1    3    3  502    0 -0.16427378015E+02 -0.39107332636E+02  0.59898368511E+02  0.73515502886E+02  0.41800000000E+01 0. -1.
         -5    1    3    3    0  502  0.15815093344E+03 -0.50963715881E+02  0.18514460797E+03  0.24880718708E+03  0.41800000000E+01 0. -1.
        -11    1    1    2    0    0 -0.40526598955E+02  0.21928106677E+02  0.21410520372E+02  0.50810013461E+02  0.00000000000E+00 0.  1.
         11    1    1    2    0    0 -0.10119695647E+03  0.68142941841E+02 -0.94258199570E+02  0.15417163393E+03  0.00000000000E+00 0. -1.
</event>
<event>
 7    1  0.2619826E-009  0.1197131E+03  0.7561462E-02  0.1243571E+00
         -1   -1    0    0    0  501 -0.00000000000E+00  0.00000000000E+00  0.45190805443E+03  0.45190805443E+03  0.00000000000E+00 0.  1.
          1   -1    0    0  501    0  0.00000000000E+00 -0.00000000000E+00 -0.77295338905E+02  0.77295338905E+02  0.00000000000E+00 0. -1.
         25    2    1    2    0    0 -0.46759580133E+02 -0.26773225703E+02  0.40014546979E+03  0.42269031463E+03  0.12508973236E+03 0.  0.
          5    1    3    3  502    0 -0.11148681929E+01 -0.71785217045E+02  0.20598737313E+03  0.21818027089E+03  0.41800000000E+01 0.  1.
         -5    1    3    3    0  502 -0.45644711940E+02  0.45011991342E+02  0.19415809666E+03  0.20451004374E+03  0.41800000000E+01 0.  1.
        -11    1    1    2    0    0  0.41376871999E+02 -0.26883306615E+02 -0.94495934708E+01  0.50239949519E+02  0.00000000000E+00 0. -1.
         11    1    1    2    0    0  0.53827081338E+01  0.53656532317E+02 -0.16083160792E+02  0.56273129185E+02  0.00000000000E+00 0.  1.
</event>
<event>
 7    1  0.2619826E-009  0.1048291E+03  0.7561462E-02  0.1270457E+00
          1   -1    0    0  501    0  0.00000000000E+00  0.00000000000E+00  0.63939118637E+02  0.63939118637E+02  0.00000000000E+00 0. -1.
         -1   -1    0    0    0  501 -0.00000000000E+00 -0.00000000000E+00 -0.24062316326E+03  0.24062316326E+03  0.00000000000E+00 0.  1.
         25    2    1    2    0    0  0.47237134910E+02 -0.25850818482E+02 -0.13948347517E+03  0.19494383730E+03  0.12509135911E+03 0.  0.
          5    1    3    3  502    0  0.81593120134E+02  0.63433142546E+01 -0.56811893252E+02  0.99713281482E+02  0.41800000000E+01 0. -1.
         -5    1    3    3    0  502 -0.34355985224E+02 -0.32194132737E+02 -0.82671581920E+02  0.95230555814E+02  0.41800000000E+01 0. -1.
        -11    1    1    2    0    0 -0.26205614561E+01 -0.17820211613E+02 -0.43292143378E+02  0.46889625319E+02  0.00000000000E+00 0.  1.
         11    1    1    2    0    0 -0.44616573454E+02  0.43671030096E+02  0.60915739218E+01  0.62728819288E+02  0.00000000000E+00 0. -1.
</event>
<event>
 7    1  0.2619826E-009  0.9784115E+02  0.7561462E-02  0.1284902E+00
         -2   -1    0    0    0  501 -0.00000000000E+00  0.00000000000E+00  0.17132541967E+02  0.17132541967E+02  0.00000000000E+00 0.  1.
          2   -1    0    0  501    0  0.00000000000E+00 -0.00000000000E+00 -0.91912507351E+03  0.91912507351E+03  0.00000000000E+00 0. -1.
         25    2    1    2    0    0  0.35387783362E+02 -0.28720085099E+01 -0.71445061876E+03  0.72618726761E+03  0.12509083636E+03 0.  0.
          5    1    3    3  502    0  0.65864288318E+02 -0.41443708421E+02 -0.50676617093E+03  0.51272322928E+03  0.41800000000E+01 0.  1.
         -5    1    3    3    0  502 -0.30476504955E+02  0.38571699911E+02 -0.20768444784E+03  0.21346403833E+03  0.41800000000E+01 0.  1.
        -11    1    1    2    0    0 -0.37919453744E+02 -0.21716072866E+02 -0.17846741836E+03  0.18373919617E+03  0.00000000000E+00 0. -1.
         11    1    1    2    0    0  0.25316703817E+01  0.24588081376E+02 -0.90744944152E+01  0.26331151694E+02  0.00000000000E+00 0.  1.
</event>
<event>
 7    1  0.2619826E-009  0.1543381E+03  0.7561462E-02  0.1195241E+00
         -2   -1    0    0    0  501 -0.00000000000E+00  0.00000000000E+00  0.15182000927E+02  0.15182000927E+02  0.00000000000E+00 0. -1.
          2   -1    0    0  501    0  0.00000000000E+00 -0.00000000000E+00 -0.23085824070E+04  0.23085824070E+04  0.00000000000E+00 0.  1.
         25    2    1    2    0    0  0.11025594535E+03  0.61390873835E+02 -0.17155917405E+04  0.17247690510E+04  0.12509215059E+03 0.  0.
          5    1    3    3  502    0  0.66528276255E+02  0.83220561813E+02 -0.14946128855E+04  0.14984114332E+04  0.41800000000E+01 0. -1.
         -5    1    3    3    0  502  0.43727669094E+02 -0.21829687979E+02 -0.22097885507E+03  0.22635761775E+03  0.41800000000E+01 0. -1.
        -11    1    1    2    0    0 -0.11289421421E+03 -0.77331537226E+02 -0.55061053399E+03  0.56735987732E+03  0.00000000000E+00 0.  1.
         11    1    1    2    0    0  0.26382688616E+01  0.15940663391E+02 -0.27198131569E+02  0.31635479652E+02  0.00000000000E+00 0. -1.
</event>
<event>
 7    1  0.2619826E-009  0.8934134E+02  0.7561462E-02  0.1304455E+00
         -1   -1    0    0    0  501 -0.00000000000E+00  0.00000000000E+00  0.15763710973E+03  0.15763710973E+03  0.00000000000E+00 0.  1.
          1   -1    0    0  501    0  0.00000000000E+00 -0.00000000000E+00 -0.87466305009E+02  0.87466305009E+02  0.00000000000E+00 0. -1.
         25    2    1    2    0    0  0.45375195905E+02  0.57558874209E+01  0.50733360354E+02  0.14252161066E+03  0.12508595848E+03 0.  0.
          5    1    3    3  502    0  0.68166698936E-02 -0.45433834798E+02  0.57790783658E+02  0.73630703289E+02  0.41800000000E+01 0. -1.
         -5    1    3    3    0  502  0.45368379235E+02  0.51189722219E+02 -0.70574233042E+01  0.68890907375E+02  0.41800000000E+01 0. -1.
        -11    1    1    2    0    0 -0.48643236599E+02  0.89535622809E+01  0.48860596515E+02  0.69524733988E+02  0.00000000000E+00 0.  1.
         11    1    1    2    0    0  0.32680406935E+01 -0.14709449702E+02 -0.29423152147E+02  0.33057070088E+02  0.00000000000E+00 0. -1.
</event>
<event>
 7    1  0.2619826E-009  0.7572958E+02  0.7561462E-02  0.1341627E+00
          2   -1    0    0  501    0  0.00000000000E+00  0.00000000000E+00  0.10487975754E+03  0.10487975754E+03  0.00000000000E+00 0. -1.
         -2   -1    0    0    0  501 -0.00000000000E+00 -0.00000000000E+00 -0.14150481070E+03  0.14150481070E+03  0.00000000000E+00 0.  1.
         25    2    1    2    0    0  0.37249630773E+02 -0.31254169849E+02 -0.48853075463E+02  0.14282329989E+03  0.12509002312E+03 0.  0.
          5    1    3    3  502    0  0.32423517181E+02 -0.39254591136E+01 -0.88398364343E+02  0.94331526618E+02  0.41800000000E+01 0. -1.
         -5    1    3    3    0  502  0.48261135920E+01 -0.27328710735E+02  0.39545288880E+02  0.48491773276E+02  0.41800000000E+01 0. -1.
        -11    1    1    2    0    0  0.23344488017E+02  0.14940448335E+02 -0.18866530440E+02  0.33528019447E+02  0.00000000000E+00 0.  1.
         11    1    1    2    0    0 -0.60594118790E+02  0.16313721514E+02  0.31094552736E+02  0.70033248900E+02  0.00000000000E+00 0. -1.
</event>
<event>
 7    1  0.2619826E-009  0.1066451E+03  0.7561462E-02  0.1266912E+00
         -2   -1    0    0    0  501 -0.00000000000E+00  0.00000000000E+00  0.71621253239E+03  0.71621253239E+03  0.00000000000E+00 0.  1.
          2   -1    0    0  501    0  0.00000000000E+00 -0.00000000000E+00 -0.26023865289E+02  0.26023865289E+02  0.00000000000E+00 0. -1.
         25    2    1    2    0    0  0.37922049836E+02 -0.70296005196E+02  0.44075141245E+03  0.46506836891E+03  0.12508864849E+03 0.  0.
          5    1    3    3  502    0 -0.96431088931E+00  0.20350782345E+02  0.24451306961E+03  0.24539600210E+03  0.41800000000E+01 0.  1.
         -5    1    3    3    0  502  0.38886360726E+02 -0.90646787540E+02  0.19623834284E+03  0.21967236681E+03  0.41800000000E+01 0.  1.
        -11    1    1    2    0    0 -0.44967662607E+02  0.32910031923E+02  0.22535529677E+03  0.23214256539E+03  0.00000000000E+00 0.  1.
         11    1    1    2    0    0  0.70456127708E+01  0.37385973273E+02  0.24081957884E+02  0.45025463378E+02  0.00000000000E+00 0. -1.
</event>
<event>
 7    1  0.2619826E-009  0.2212085E+03  0.7561462E-02  0.1132985E+00
          1   -1    0    0  501    0  0.00000000000E+00  0.00000000000E+00  0.55054472508E+03  0.55054472508E+03  0.00000000000E+00 0. -1.
         -1   -1    0    0    0  501 -0.00000000000E+00 -0.00000000000E+00 -0.12698918536E+03  0.12698918536E+03  0.00000000000E+00 0.  1.
         25    2    1    2    0    0 -0.20130352290E+03 -0.12349774824E+02  0.38330281781E+03  0.45082554808E+03  0.12508796658E+03 0.  0.
          5    1    3    3  502    0 -0.10709663104E+03 -0.68852246251E+02  0.20444278403E+03  0.24088305158E+03  0.41800000000E+01 0.  1.
         -5    1    3    3    0  502 -0.94206891858E+02  0.56502471427E+02  0.17886003378E+03  0.20994249650E+03  0.41800000000E+01 0.  1.
        -11    1    1    2    0    0  0.32300385254E+02  0.16018372410E+02 -0.26726043963E+02  0.44879667648E+02  0.00000000000E+00 0.  1.
         11    1    1    2    0    0  0.16900313765E+03 -0.36685975862E+01  0.66978765872E+02  0.18182869471E+03  0.00000000000E+00 0. -1.
</event>
<event>
 7    1  0.2619826E-009  0.9997937E+02  0.7561462E-02  0.1280339E+00
         -1   -1    0    0    0  501 -0.00000000000E+00  0.00000000000E+00  0.67183959793E+02  0.67183959793E+02  0.00000000000E+00 0.  1.
          1   -1    0    0  501    0  0.00000000000E+00 -0.00000000000E+00 -0.21363258849E+03  0.21363258849E+03  0.00000000000E+00 0. -1.
         25    2    1    2    0    0 -0.41393173021E+02 -0.13903630678E+02 -0.52668693646E+02  0.14258013493E+03  0.12509355646E+03 0.  0.
          5    1    3    3  502    0 -0.86233951619E+02 -0.69554374552E+01 -0.39127740836E+02  0.95042753669E+02  0.41800000000E+01 0. -1.
         -5    1    3    3    0  502  0.44840778599E+02 -0.69481932231E+01 -0.13540952810E+02  0.47537381264E+02  0.41800000000E+01 0. -1.
        -11    1    1    2    0    0  0.42827725483E+02 -0.98770220494E+01 -0.10354643092E+03  0.11248836825E+03  0.00000000000E+00 0. -1.
         11    1    1    2    0    0 -0.14345524623E+01  0.23780652728E+02  0.97664958709E+01  0.25748045101E+02  0.00000000000E+00 0.  1.
</event>
<event>
 7    1  0.2619826E-009  0.1129279E+03  0.7561462E-02  0.1255242E+00
         -1   -1    0    0    0  501 -0.00000000000E+00  0.00000000000E+00  0.76269330808E+03  0.76269330808E+03  0.00000000000E+00 0.  1.
          1   -1    0    0  501    0  0.00000000000E+00 -0.00000000000E+00 -0.22602138422E+02  0.22602138422E+02  0.00000000000E+00 0. -1.
         25    2    1    2    0    0  0.55291195068E+02 -0.29008234158E+02  0.35656441581E+03  0.38299496726E+03  0.12509343876E+03 0.  0.
          5    1    3    3  502    0  0.76457551056E+02 -0.32863242892E+02  0.12397632052E+03  0.14937653864E+03  0.41800000000E+01 0.  1.
         -5    1    3    3    0  502 -0.21166355988E+02  0.38550087340E+01  0.23258809529E+03  0.23361842861E+03  0.41800000000E+01 0.  1.
        -11    1    1    2    0    0  0.29489945503E+00 -0.35476253742E+02  0.92250553666E+02  0.98837321883E+02  0.00000000000E+00 0. -1.
         11    1    1    2    0    0 -0.55586094523E+02  0.64484487899E+02  0.29127620018E+03  0.30346315736E+03  0.00000000000E+00 0.  1.
</event>
<event>
 7    1  0.2619826E-009  0.1314633E+03  0.7561462E-02  0.1225300E+00
         -1   -1    0    0    0  501 -0.00000000000E+00  0.00000000000E+00  0.33999277967E+02  0.33999277967E+02  0.00000000000E+00 0.  1.
          1   -1    0    0  501    0  0.00000000000E+00 -0.00000000000E+00 -0.97103313071E+03  0.97103313071E+03  0.00000000000E+00 0. -1.
         25    2    1    2    0    0 -0.12443880346E+02  0.11608988688E+03 -0.73656072834E+03  0.75617505350E+03  0.12508914030E+03 0.  0.
          5    1    3    3  502    0 -0.13802035399E+02  0.11388135106E+03 -0.32661438257E+03  0.34619919931E+03  0.41800000000E+01 0.  1.
         -5    1    3    3    0  502  0.13581550529E+01  0.22085358169E+01 -0.40994634576E+03  0.40997585419E+03  0.41800000000E+01 0.  1.
        -11    1    1    2    0    0 -0.17448301624E+02  0.52725349161E+01 -0.93317881566E+01  0.20477429629E+02  0.00000000000E+00 0. -1.
         11    1    1    2    0    0  0.29892181970E+02 -0.12136242180E+03 -0.19114133625E+03  0.22837992554E+03  0.00000000000E+00 0.  1.
</event>
<event>
 7    1  0.2619826E-009  0.1101282E+03  0.7561462E-02  0.1260333E+00
          1   -1    0    0  501    0  0.00000000000E+00  0.00000000000E+00  0.24074104985E+03  0.24074104985E+03  0.00000000000E+00 0. -1.
         -1   -1    0    0    0  501 -0.00000000000E+00 -0.00000000000E+00 -0.98274788664E+02  0.98274788664E+02  0.00000000000E+00 0.  1.
         25    2    1    2    0    0 -0.21380786842E+02  0.63889618934E+02  0.16879560371E+03  0.22063433241E+03  0.12509409000E+03 0.  0.
          5    1    3    3  502    0 -0.26691181532E+02  0.93841292434E+02  0.78599927997E+02  0.12535560785E+03  0.41800000000E+01 0.  1.
         -5    1    3    3    0  502  0.53103946904E+01 -0.29951673500E+02  0.90195675718E+02  0.95278724569E+02  0.41800000000E+01 0.  1.
        -11    1    1    2    0    0 -0.17812345672E+02 -0.44988272154E+02 -0.49384732886E+02  0.69138094651E+02  0.00000000000E+00 0.  1.
         11    1    1    2    0    0  0.39193132514E+02 -0.18901346780E+02  0.23055390354E+02  0.49243411445E+02  0.00000000000E+00 0. -1.
</event>
<event>
 7    1  0.2619826E-009  0.1333257E+03  0.7561462E-02  0.1222603E+00
         -1   -1    0    0    0  501 -0.00000000000E+00  0.00000000000E+00  0.61855750744E+02  0.61855750744E+02  0.00000000000E+00 0.  1.
          1   -1    0    0  501    0  0.00000000000E+00 -0.00000000000E+00 -0.40168532444E+03  0.40168532444E+03  0.00000000000E+00 0. -1.
         25    2    1    2    0    0  0.11194970475E+03  0.14706147837E+02 -0.20525849473E+03  0.26556975729E+03  0.12508892497E+03 0.  0.
          5    1    3    3  502    0  0.10383682770E+03 -0.14880972329E+01 -0.61811329348E+02  0.12092317419E+03  0.41800000000E+01 0.  1.
         -5    1    3    3    0  502  0.81128770524E+01  0.16194245070E+02 -0.14344716538E+03  0.14464658310E+03  0.41800000000E+01 0.  1.
        -11    1    1    2    0    0 -0.28777267144E+02 -0.46834249271E+02 -0.39900575246E+02  0.67923736013E+02  0.00000000000E+00 0. -1.
         11    1    1    2    0    0 -0.83172437605E+02  0.32128101434E+02 -0.94670503726E+02  0.13004758189E+03  0.00000000000E+00 0.  1.
</event>
<event>
 7    1  0.2619826E-009  0.1601206E+03  0.7561462E-02  0.1188561E+00
         -1   -1    0    0    0  501 -0.00000000000E+00  0.00000000000E+00  0.60174331600E+02  0.60174331600E+02  0.00000000000E+00 0.  1.
          1   -1    0    0  501    0  0.00000000000E+00 -0.00000000000E+00 -0.61182349436E+03  0.61182349436E+03  0.00000000000E+00 0. -1.
         25    2    1    2    0    0  0.14792785135E+03  0.35806013344E+02 -0.33279665758E+03  0.38673866348E+03  0.12509379975E+03 0.  0.
          5    1    3    3  502    0  0.12416505452E+03  0.52997235853E+02 -0.15120554745E+03  0.20274678235E+03  0.41800000000E+01 0.  1.
         -5    1    3    3    0  502  0.23762796829E+02 -0.17191222509E+02 -0.18159111013E+03  0.18399188113E+03  0.41800000000E+01 0.  1.
        -11    1    1    2    0    0 -0.46831279883E+02  0.37670524120E+01 -0.14883226277E+03  0.15607178445E+03  0.00000000000E+00 0. -1.
         11    1    1    2    0    0 -0.10109657147E+03 -0.39573065756E+02 -0.70020242403E+02  0.12918737803E+03  0.00000000000E+00 0.  1.
</event>
<event>
 7    1  0.2619826E-009  0.9378549E+02  0.7561462E-02  0.1293935E+00
          2   -1    0    0  501    0  0.00000000000E+00  0.00000000000E+00  0.68677603387E+02  0.68677603387E+02  0.00000000000E+00 0. -1.
         -2   -1    0    0    0  501 -0.00000000000E+00 -0.00000000000E+00 -0.37079528126E+03  0.37079528126E+03  0.00000000000E+00 0.  1.
         25    2    1    2    0    0 -0.47737921298E+02 -0.69145570290E+02 -0.27952143602E+03  0.31755311815E+03  0.12509088948E+03 0.  0.
          5    1    3    3  502    0  0.27696191691E+01 -0.43238802010E+02 -0.24937339566E+03  0.25314388726E+03  0.41800000000E+01 0. -1.
         -5    1    3    3    0  502 -0.50507540467E+02 -0.25906768280E+02 -0.30148040353E+02  0.64409230890E+02  0.41800000000E+01 0. -1.
        -11    1    1    2    0    0  0.36702430127E+02  0.66214854208E+02  0.19602850179E+02  0.78203241814E+02  0.00000000000E+00 0. -1.
         11    1    1    2    0    0  0.11035491171E+02  0.29307160818E+01 -0.42199092034E+02  0.43716524686E+02  0.00000000000E+00 0.  1.
</event>
<event>
 7    1  0.2619826E-009  0.1072161E+03  0.7561462E-02  0.1265814E+00
          2   -1    0    0  501    0  0.00000000000E+00  0.00000000000E+00  0.17365240373E+04  0.17365240373E+04  0.00000000000E+00 0. -1.
         -2   -1    0    0    0  501 -0.00000000000E+00 -0.00000000000E+00 -0.12956828254E+02  0.12956828254E+02  0.00000000000E+00 0.  1.
         25    2    1    2    0    0 -0.35144590380E+02  0.20903557024E+02  0.14467861817E+04  0.14527593807E+04  0.12508981418E+03 0.  0.
          5    1    3    3  502    0 -0.20185206129E+01 -0.41372560771E+02  0.95668512632E+03  0.95759055265E+03  0.41800000000E+01 0.  1.
         -5    1    3    3    0  502 -0.33126069767E+02  0.62276117795E+02  0.49010105543E+03  0.49516882806E+03  0.41800000000E+01 0.  1.
        -11    1    1    2    0    0 -0.31431862388E+02 -0.16288653314E+02  0.14168520013E+03  0.14604101525E+03  0.00000000000E+00 0. -1.
         11    1    1    2    0    0  0.66576452767E+02 -0.46149037096E+01  0.13509582718E+03  0.15068046961E+03  0.00000000000E+00 0.  1.
</event>
<event>
 7    1  0.2619826E-009  0.1055403E+03  0.7561462E-02  0.1269059E+00
          1   -1    0    0  501    0  0.00000000000E+00  0.00000000000E+00  0.20913680404E+03  0.20913680404E+03  0.00000000000E+00 0. -1.
         -1   -1    0    0    0  501 -0.00000000000E+00 -0.00000000000E+00 -0.10404681881E+03  0.10404681881E+03  0.00000000000E+00 0.  1.
         25    2    1    2    0    0 -0.71939767830E+02  0.44648236690E+02  0.28555504604E+01  0.15108060314E+03  0.12509356195E+03 0.  0.
          5    1    3    3  502    0 -0.40709502789E+02  0.18807403492E+02 -0.60699497496E+02  0.75583618858E+02  0.41800000000E+01 0. -1.
         -5    1    3    3    0  502 -0.31230265041E+02  0.25840833198E+02  0.63555047956E+02  0.75496984282E+02  0.41800000000E+01 0. -1.
        -11    1    1    2    0    0  0.13560307345E+02 -0.62728303211E+02  0.59624910835E+02  0.87600524834E+02  0.00000000000E+00 0.  1.
         11    1    1    2    0    0  0.58379460485E+02  0.18080066521E+02  0.42609523935E+02  0.74502494871E+02  0.00000000000E+00 0. -1.
</event>
<event>
 7    1  0.2619826E-009  0.1516591E+03  0.7561462E-02  0.1198449E+00
         -2   -1    0    0    0  501 -0.00000000000E+00  0.00000000000E+00  0.27598591279E+02  0.27598591279E+02  0.00000000000E+00 0. -1.
          2   -1    0    0  501    0  0.00000000000E+00 -0.00000000000E+00 -0.87499832003E+03  0.87499832003E+03  0.00000000000E+00 0.  1.
         25    2    1    2    0    0 -0.90332112440E+02  0.64719193419E+02 -0.47870916842E+03  0.50710801107E+03  0.12509037705E+03 0.  0.
          5    1    3    3  502    0 -0.77278824630E+02  0.10019826622E+03 -0.32568695635E+03  0.34942978583E+03  0.41800000000E+01 0. -1.
         -5    1    3    3    0  502 -0.13053287810E+02 -0.35479072796E+02 -0.15302221207E+03  0.15767822524E+03  0.41800000000E+01 0. -1.
        -11    1    1    2    0    0  0.83166205103E+02 -0.83940550866E+02 -0.27057044915E+03  0.29524735681E+03  0.00000000000E+00 0. -1.
         11    1    1    2    0    0  0.71659073368E+01  0.19221357447E+02 -0.98120111181E+02  0.10024154343E+03  0.00000000000E+00 0.  1.
</event>
<event>
 7    1  0.2619826E-009  0.1399739E+03  0.7561462E-02  0.1213364E+00
          2   -1    0    0  501    0  0.00000000000E+00  0.00000000000E+00  0.13054843912E+04  0.13054843912E+04  0.00000000000E+00 0. -1.
         -2   -1    0    0    0  501 -0.00000000000E+00 -0.00000000000E+00 -0.28483307711E+02  0.28483307711E+02  0.00000000000E+00 0.  1.
         25    2    1    2    0    0 -0.36724648645E+02 -0.10509938105E+03  0.10567151392E+04  0.10699027653E+04  0.12510180725E+03 0.  0.
          5    1    3    3  502    0  0.19628479334E+02 -0.82365771630E+02  0.33273317676E+03  0.34336312681E+03  0.41800000000E+01 0. -1.
         -5    1    3    3    0  502 -0.56353127979E+02 -0.22733609417E+02  0.72398196243E+03  0.72653963853E+03  0.41800000000E+01 0. -1.
        -11    1    1    2    0    0  0.58854618289E+02  0.89767150198E+02  0.12361549605E+03  0.16371560162E+03  0.00000000000E+00 0.  1.
         11    1    1    2    0    0 -0.22129969644E+02  0.15332230848E+02  0.96670448241E+02  0.10034933195E+03  0.00000000000E+00 0. -1.
</event>
<event>
 7    1  0.2619826E-009  0.7124311E+02  0.7561462E-02  0.1355916E+00
         -2   -1    0    0    0  501 -0.00000000000E+00  0.00000000000E+00  0.73716669785E+02  0.73716669785E+02  0.00000000000E+00 0.  1.
          2   -1    0    0  501    0  0.00000000000E+00 -0.00000000000E+00 -0.16623504321E+03  0.16623504321E+03  0.00000000000E+00 0. -1.
         25    2    1    2    0    0  0.16205007480E+01  0.17727282751E+02 -0.64477431003E+02  0.14185737804E+03  0.12509713834E+03 0.  0.
          5    1    3    3  502    0 -0.32413420285E+02  0.39423271542E+02  0.14365760416E+02  0.53185257600E+02  0.41800000000E+01 0.  1.
         -5    1    3    3    0  502  0.34033921033E+02 -0.21695988791E+02 -0.78843191419E+02  0.88672120442E+02  0.41800000000E+01 0.  1.
        -11    1    1    2    0    0  0.14602944489E+02  0.10608377204E+02  0.27954152516E+02  0.33274889895E+02  0.00000000000E+00 0.  1.
         11    1    1    2    0    0 -0.16223445237E+02 -0.28335659955E+02 -0.55995094935E+02  0.64819445055E+02  0.00000000000E+00 0. -1.
</event>
<event>
 7    1  0.2619826E-009  0.9670036E+02  0.7561462E-02  0.1287392E+00
         -1   -1    0    0    0  501 -0.00000000000E+00  0.00000000000E+00  0.36965813828E+02  0.36965813828E+02  0.00000000000E+00 0.  1.
          1   -1    0    0  501    0  0.00000000000E+00 -0.00000000000E+00 -0.31623034649E+03  0.31623034649E+03  0.00000000000E+00 0. -1.
         25    2    1    2    0    0 -0.30670299987E+01 -0.99920240591E+01 -0.20496771580E+03  0.24035663690E+03  0.12510116372E+03 0.  0.
          5    1    3    3  502    0  0.30631243883E+02 -0.49836292671E+02 -0.16309842837E+03  0.17332195160E+03  0.41800000000E+01 0.  1.
         -5    1    3    3    0  502 -0.33698273881E+02  0.39844268612E+02 -0.41869287430E+02  0.67034685303E+02  0.41800000000E+01 0.  1.
        -11    1    1    2    0    0 -0.18960350519E+02  0.40532589162E+02 -0.26552616818E+02  0.52032942794E+02  0.00000000000E+00 0. -1.
         11    1    1    2    0    0  0.22027380517E+02 -0.30540565103E+02 -0.47744200050E+02  0.60806580628E+02  0.00000000000E+00 0.  1.
</event>
<event>
 7    1  0.2619826E-009  0.7829217E+02  0.7561462E-02  0.1333969E+00
         -2   -1    0    0    0  501 -0.00000000000E+00  0.00000000000E+00  0.87310700411E+02  0.87310700411E+02  0.00000000000E+00 0.  1.
          2   -1    0    0  501    0  0.00000000000E+00 -0.00000000000E+00 -0.16785736817E+03  0.16785736817E+03  0.00000000000E+00 0. -1.
         25    2    1    2    0    0 -0.36703719654E+02 -0.22581894248E+02 -0.73654754412E+02  0.15142689953E+03  0.12509187852E+03 0.  0.
          5    1    3    3  502    0  0.92706515050E+01  0.21775201348E+02 -0.83287399287E+02  0.86685452373E+02  0.41800000000E+01 0. -1.
         -5    1    3    3    0  502 -0.45974371159E+02 -0.44357095597E+02  0.96326448748E+01  0.64741447161E+02  0.41800000000E+01 0. -1.
        -11    1    1    2    0    0 -0.74476958450E+01  0.23209126073E+02  0.35148244750E+02  0.42773015038E+02  0.00000000000E+00 0.  1.
         11    1    1    2    0    0  0.44151415499E+02 -0.62723182402E+00 -0.42040158093E+02  0.60968154005E+02  0.00000000000E+00 0. -1.
</event>
<event>
 7    1  0.2619826E-009  0.9440213E+02  0.7561462E-02  0.1292528E+00
          1   -1    0    0  501    0  0.00000000000E+00  0.00000000000E+00  0.26262242266E+03  0.26262242266E+03  0.00000000000E+00 0. -1.
         -1   -1    0    0    0  501 -0.00000000000E+00 -0.00000000000E+00 -0.51014822185E+02  0.51014822185E+02  0.00000000000E+00 0.  1.
         25    2    1    2    0    0  0.75699471324E+01 -0.35728098718E+02  0.13859250757E+03  0.19021936663E+03  0.12506687470E+03 0.  0.
          5    1    3    3  502    0 -0.74947555356E+01  0.26514788340E+02  0.12030155115E+03  0.12348741219E+03  0.41800000000E+01 0.  1.
         -5    1    3    3    0  502  0.15064702668E+02 -0.62242887058E+02  0.18290956419E+02  0.66731954433E+02  0.41800000000E+01 0.  1.
        -11    1    1    2    0    0  0.23575257962E+02  0.55202947806E+02  0.30827281552E+02  0.67479474823E+02  0.00000000000E+00 0.  1.
         11    1    1    2    0    0 -0.31145205094E+02 -0.19474849089E+02  0.42187811353E+02  0.55938403393E+02  0.00000000000E+00 0. -1.
</event>
<event>
 7    1  0.2619826E-009  0.2183813E+03  0.7561462E-02  0.1135096E+00
          1   -1    0    0  501    0  0.00000000000E+00  0.00000000000E+00  0.18116039372E+03  0.18116039372E+03  0.00000000000E+00 0. -1.
         -1   -1    0    0    0  501 -0.00000000000E+00 -0.00000000000E+00 -0.30078469087E+03  0.30078469087E+03  0.00000000000E+00 0.  1.
         25    2    1    2    0    0 -0.81065092144E+02  0.19010375089E+03 -0.64155434679E+02  0.24994339527E+03  0.12507915804E+03 0.  0.
          5    1    3    3  502    0 -0.17072294960E+02 -0.89090932203E+01  0.16634552805E+02  0.25787903060E+02  0.41800000000E+01 0. -1.
         -5    1    3    3    0  502 -0.63992797184E+02  0.19901284411E+03 -0.80789987484E+02  0.22415549221E+03  0.41800000000E+01 0. -1.
        -11    1    1    2    0    0  0.11249140354E+02 -0.52191445035E+02 -0.56070490962E+02  0.77423446386E+02  0.00000000000E+00 0.  1.
         11    1    1    2    0    0  0.69815951789E+02 -0.13791230585E+03  0.60162849389E+00  0.15457824293E+03  0.00000000000E+00 0. -1.
</event>
<event>
 7    1  0.2619826E-009  0.1659478E+03  0.7561462E-02  0.1182141E+00
          2   -1    0    0  501    0  0.00000000000E+00  0.00000000000E+00  0.11308617544E+03  0.11308617544E+03  0.00000000000E+00 0. -1.
         -2   -1    0    0    0  501 -0.00000000000E+00 -0.00000000000E+00 -0.25654364002E+03  0.25654364002E+03  0.00000000000E+00 0.  1.
         25    2    1    2    0    0  0.11774681278E+03  0.50261466961E+02 -0.45552063034E+02  0.18469577489E+03  0.12508801636E+03 0.  0.
          5    1    3    3  502    0 -0.24236476645E+02  0.23536017267E+02 -0.13672973256E+02  0.36684785765E+02  0.41800000000E+01 0. -1.
         -5    1    3    3    0  502  0.14198328943E+03  0.26725449694E+02 -0.31879089778E+02  0.14801098913E+03  0.41800000000E+01 0. -1.
        -11    1    1    2    0    0 -0.40186189286E+02  0.23272899520E+02 -0.48636818972E+02  0.67246545050E+02  0.00000000000E+00 0.  1.
         11    1    1    2    0    0 -0.77560623494E+02 -0.73534366481E+02 -0.49268582579E+02  0.11768749551E+03  0.00000000000E+00 0. -1.
</event>
<event>
 7    1  0.2619826E-009  0.1366532E+03  0.7561462E-02  0.1217905E+00
          1   -1    0    0  501    0  0.00000000000E+00  0.00000000000E+00  0.14285994502E+03  0.14285994502E+03  0.00000000000E+00 0.  1.
         -1   -1    0    0    0  501 -0.00000000000E+00 -0.00000000000E+00 -0.25284376363E+03  0.25284376363E+03  0.00000000000E+00 0. -1.
         25    2    1    2    0    0  0.11386851465E+03 -0.23038938591E+02  0.50506521477E+02  0.17803194691E+03  0.12509050359E+03 0.  0.
          5    1    3    3  502    0  0.10526915925E+03 -0.56041353718E+02  0.29563969491E+01  0.11936683752E+03  0.41800000000E+01 0.  1.
         -5    1    3    3    0  502  0.85993554029E+01  0.33002415127E+02  0.47550124528E+02  0.58665109394E+02  0.41800000000E+01 0.  1.
        -11    1    1    2    0    0 -0.69744100570E+02 -0.20473627012E+00 -0.26342551426E+02  0.74553413717E+02  0.00000000000E+00 0.  1.
         11    1    1    2    0    0 -0.44124414083E+02  0.23243674861E+02 -0.13414778866E+03  0.14311834802E+03  0.00000000000E+00 0. -1.
</event>
<event>
 7    1  0.2619826E-009  0.8129274E+02  0.7561462E-02  0.1325422E+00
          1   -1    0    0  501    0  0.00000000000E+00  0.00000000000E+00  0.20241371703E+03  0.20241371703E+03  0.00000000000E+00 0. -1.
         -1   -1    0    0    0  501 -0.00000000000E+00 -0.00000000000E+00 -0.77948734695E+02  0.77948734695E+02  0.00000000000E+00 0.  1.
         25    2    1    2    0    0  0.14300110941E+02 -0.12813504393E+02  0.12997225797E+03  0.18140433741E+03  0.12508423850E+03 0.  0.
          5    1    3    3  502    0 -0.42681165990E+02 -0.31498474913E+02  0.21500201171E+02  0.57389606224E+02  0.41800000000E+01 0.  1.
         -5    1    3    3    0  502  0.56981276932E+02  0.18684970520E+02  0.10847205680E+03  0.12401473119E+03  0.41800000000E+01 0.  1.
        -11    1    1    2    0    0 -0.86763614620E+01 -0.16913477525E+02 -0.45208937066E+02  0.49042766652E+02  0.00000000000E+00 0.  1.
         11    1    1    2    0    0 -0.56237494794E+01  0.29726981918E+02  0.39701661425E+02  0.49915347660E+02  0.00000000000E+00 0. -1.
</event>
<event>
 7    1  0.2619826E-009  0.8896979E+02  0.7561462E-02  0.1305366E+00
         -4   -1    0    0    0  501 -0.00000000000E+00  0.00000000000E+00  0.29766602959E+02  0.29766602959E+02  0.00000000000E+00 0.  1.
          4   -1    0    0  501    0  0.00000000000E+00 -0.00000000000E+00 -0.40736803149E+03  0.40736803149E+03  0.00000000000E+00 0. -1.
         25    2    1    2    0    0  0.82882547701E+01  0.19502255326E+02 -0.24209864976E+03  0.27332845751E+03  0.12509059253E+03 0.  0.
          5    1    3    3  502    0 -0.16032514353E+02  0.50891086276E+02 -0.38695889603E+02  0.66043837343E+02  0.41800000000E+01 0.  1.
         -5    1    3    3    0  502  0.24320769123E+02 -0.31388830950E+02 -0.20340276016E+03  0.20728462017E+03  0.41800000000E+01 0.  1.
        -11    1    1    2    0    0  0.18438353477E+02  0.25908356852E+02 -0.21997139661E+02  0.38666393509E+02  0.00000000000E+00 0.  1.
         11    1    1    2    0    0 -0.26726608247E+02 -0.45410612178E+02 -0.11350563911E+03  0.12513978343E+03  0.00000000000E+00 0. -1.
</event>
<event>
 7    1  0.2619826E-009  0.1222273E+03  0.7561462E-02  0.1239467E+00
          1   -1    0    0  501    0  0.00000000000E+00  0.00000000000E+00  0.35146790116E+03  0.35146790116E+03  0.00000000000E+00 0. -1.
         -1   -1    0    0    0  501 -0.00000000000E+00 -0.00000000000E+00 -0.51441754306E+02  0.51441754306E+02  0.00000000000E+00 0.  1.
         25    2    1    2    0    0  0.35620518187E+02  0.56856025975E+02  0.22819177379E+03  0.26873156640E+03  0.12507493814E+03 0.  0.
          5    1    3    3  502    0  0.77969099623E+01 -0.37156635055E+02  0.10170922427E+03  0.10864458586E+03  0.41800000000E+01 0. -1.
         -5    1    3    3    0  502  0.27823608225E+02  0.94012661030E+02  0.12648254951E+03  0.16008698055E+03  0.41800000000E+01 0. -1.
        -11    1    1    2    0    0  0.23414443919E+02  0.35286791250E+01  0.34503232108E+02  0.41846873076E+02  0.00000000000E+00 0. -1.
         11    1    1    2    0    0 -0.59034962106E+02 -0.60384705100E+02  0.37331140965E+02  0.92331215993E+02  0.00000000000E+00 0.  1.
</event>
<event>
 7    1  0.2619826E-009  0.1023529E+03  0.7561462E-02  0.1275425E+00
         -2   -1    0    0    0  501 -0.00000000000E+00  0.00000000000E+00  0.17047491097E+03  0.17047491097E+03  0.00000000000E+00 0.  1.
          2   -1    0    0  501    0  0.00000000000E+00 -0.00000000000E+00 -0.12563338181E+03  0.12563338181E+03  0.00000000000E+00 0. -1.
         25    2    1    2    0    0  0.69819982259E+02 -0.43229436185E+02 -0.31250396446E+02  0.15286563151E+03  0.12509076682E+03 0.  0.
          5    1    3    3  502    0  0.48740959313E+02 -0.21940594484E+02  0.45531777509E+02  0.70339789339E+02  0.41800000000E+01 0. -1.
         -5    1    3    3    0  502  0.21079022946E+02 -0.21288841701E+02 -0.76782173955E+02  0.82525842174E+02  0.41800000000E+01 0. -1.
        -11    1    1    2    0    0 -0.53639074834E+01  0.55050114329E+02  0.41449521900E+02  0.69118372788E+02  0.00000000000E+00 0. -1.
         11    1    1    2    0    0 -0.64456074776E+02 -0.11820678144E+02  0.34642403703E+02  0.74124288473E+02  0.00000000000E+00 0.  1.
</event>
<event>
 7    1  0.2619826E-009  0.2025182E+03  0.7561462E-02  0.1147632E+00
         -1   -1    0    0    0  501 -0.00000000000E+00  0.00000000000E+00  0.18404572097E+03  0.18404572097E+03  0.00000000000E+00 0.  1.
          1   -1    0    0  501    0  0.00000000000E+00 -0.00000000000E+00 -0.24923718044E+03  0.24923718044E+03  0.00000000000E+00 0. -1.
         25    2    1    2    0    0  0.11876387592E+03  0.13832539870E+03 -0.41093325948E+02  0.22488978204E+03  0.12509188015E+03 0.  0.
          5    1    3    3  502    0  0.52802388716E+02  0.13815149217E+03 -0.54081642125E+02  0.15753165859E+03  0.41800000000E+01 0.  1.
         -5    1    3    3    0  502  0.65961487203E+02  0.17390652990E+00  0.12988316177E+02  0.67358123449E+02  0.41800000000E+01 0.  1.
        -11    1    1    2    0    0 -0.11612494915E+03 -0.10199054652E+03 -0.51389279027E+02  0.16287398010E+03  0.00000000000E+00 0. -1.
         11    1    1    2    0    0 -0.26389267732E+01 -0.36334852175E+02  0.27291145509E+02  0.45519139275E+02  0.00000000000E+00 0.  1.
</event>
<event>
 7    1  0.3078473E-009  0.1295507E+03  0.7561462E-02  0.1228124E+00
          1   -1    0    0  501    0  0.00000000000E+00  0.00000000000E+00  0.40672040889E+03  0.40672040889E+03  0.00000000000E+00 0. -1.
         -1   -1    0    0    0  501 -0.00000000000E+00 -0.00000000000E+00 -0.48669381777E+02  0.48669381777E+02  0.00000000000E+00 0.  1.
         25    2    1    2    0    0  0.85443564566E+02  0.13637480342E+02  0.23228337221E+03  0.27765008687E+03  0.12508965640E+03 0.  0.
          5    1    3    3  502    0  0.11212079349E+03  0.27399220967E+02  0.14575265923E+03  0.18596531858E+03  0.41800000000E+01 0.  1.
         -5    1    3    3    0  502 -0.26677228919E+02 -0.13761740626E+02  0.86530712983E+02  0.91684768294E+02  0.41800000000E+01 0.  1.
        -11    1    1    2    0    0 -0.61164654150E+02 -0.43319626638E+02  0.42731968837E+02  0.86277031300E+02  0.00000000000E+00 0.  1.
         11    1    1    2    0    0 -0.24278910416E+02  0.29682146296E+02  0.83035686065E+02  0.91462672496E+02  0.00000000000E+00 0. -1.
</event>
<event>
 7    1  0.2619826E-009  0.1643966E+03  0.7561462E-02  0.1183821E+00
          2   -1    0    0  501    0  0.00000000000E+00  0.00000000000E+00  0.37072709878E+03  0.37072709878E+03  0.00000000000E+00 0. -1.
         -2   -1    0    0    0  501 -0.00000000000E+00 -0.00000000000E+00 -0.79166949374E+02  0.79166949374E+02  0.00000000000E+00 0.  1.
         25    2    1    2    0    0 -0.90407596254E+02  0.94355326435E+02  0.18281290055E+03  0.25718385027E+03  0.12508603097E+03 0.  0.
          5    1    3    3  502    0 -0.79042435213E+02  0.47222554772E+01  0.41746625615E+02  0.89611714700E+02  0.41800000000E+01 0.  1.
         -5    1    3    3    0  502 -0.11365161040E+02  0.89633070957E+02  0.14106627494E+03  0.16757213557E+03  0.41800000000E+01 0.  1.
        -11    1    1    2    0    0  0.10911537060E+03 -0.83721624012E+02  0.92483249898E+02  0.16573661617E+03  0.00000000000E+00 0.  1.
         11    1    1    2    0    0 -0.18707774349E+02 -0.10633702423E+02  0.16263998955E+02  0.26973581711E+02  0.00000000000E+00 0. -1.
</event>
<event>
 7    1  0.2619826E-009  0.7987279E+02  0.7561462E-02  0.1329413E+00
         -2   -1    0    0    0  501 -0.00000000000E+00  0.00000000000E+00  0.97444309810E+02  0.97444309810E+02  0.00000000000E+00 0.  1.
          2   -1    0    0  501    0  0.00000000000E+00 -0.00000000000E+00 -0.42617514153E+03  0.42617514153E+03  0.00000000000E+00 0. -1.
         25    2    1    2    0    0 -0.13359339440E+02  0.26234645528E+02 -0.38857266121E+03  0.40927525564E+03  0.12510313050E+03 0.  0.
          5    1    3    3  502    0 -0.26665480566E+02  0.55580859467E+02 -0.91363151891E+02  0.11029495780E+03  0.41800000000E+01 0.  1.
         -5    1    3    3    0  502  0.13306141126E+02 -0.29346213939E+02 -0.29720950932E+03  0.29898029783E+03  0.41800000000E+01 0.  1.
        -11    1    1    2    0    0  0.17386550279E+02  0.15647151053E+02  0.67624436682E+02  0.71555502257E+02  0.00000000000E+00 0.  1.
         11    1    1    2    0    0 -0.40272108390E+01 -0.41881796581E+02 -0.77826071895E+01  0.42788693444E+02  0.00000000000E+00 0. -1.
</event>
<event>
 7    1  0.2619826E-009  0.9452040E+02  0.7561462E-02  0.1292260E+00
          1   -1    0    0  501    0  0.00000000000E+00  0.00000000000E+00  0.90325606519E+03  0.90325606519E+03  0.00000000000E+00 0. -1.
         -1   -1    0    0    0  501 -0.00000000000E+00 -0.00000000000E+00 -0.25783628442E+02  0.25783628442E+02  0.00000000000E+00 0.  1.
         25    2    1    2    0    0 -0.13890921951E+02 -0.64477341916E+02  0.69028090849E+03  0.70461660394E+03  0.12508613266E+03 0.  0.
          5    1    3    3  502    0 -0.40693021334E+02 -0.60389757039E+02  0.18901404369E+03  0.20259966893E+03  0.41800000000E+01 0. -1.
         -5    1    3    3    0  502  0.26802099383E+02 -0.40875848765E+01  0.50126686481E+03  0.50201693501E+03  0.41800000000E+01 0. -1.
        -11    1    1    2    0    0  0.37342806503E+02  0.41677338667E+02  0.29274731167E+02  0.63154537769E+02  0.00000000000E+00 0.  1.
         11    1    1    2    0    0 -0.23451884552E+02  0.22800003249E+02  0.15791679709E+03  0.16126855193E+03  0.00000000000E+00 0. -1.
</event>
<event>
 7    1  0.2619826E-009  0.1799751E+03  0.7561462E-02  0.1167827E+00
          1   -1    0    0  501    0  0.00000000000E+00  0.00000000000E+00  0.38159582238E+03  0.38159582238E+03  0.00000000000E+00 0. -1.
         -1   -1    0    0    0  501 -0.00000000000E+00 -0.00000000000E+00 -0.10883541013E+03  0.10883541013E+03  0.00000000000E+00 0.  1.
         25    2    1    2    0    0  0.93275007057E+02 -0.14048781983E+03  0.18375715858E+03  0.27902048383E+03  0.12509469456E+03 0.  0.
          5    1    3    3  502    0  0.89135763888E+02 -0.13129726433E+03  0.85791378294E+02  0.18044885429E+03  0.41800000000E+01 0. -1.
         -5    1    3    3    0  502  0.41392431693E+01 -0.91905555013E+01  0.97965780284E+02  0.98571629545E+02  0.41800000000E+01 0. -1.
        -11    1    1    2    0    0 -0.13387549139E+02  0.99691686792E+02  0.60071632076E+02  0.11715912200E+03  0.00000000000E+00 0. -1.
         11    1    1    2    0    0 -0.79887457918E+02  0.40796133038E+02  0.28931621602E+02  0.94251626681E+02  0.00000000000E+00 0.  1.
</event>
<event>
 7    1  0.2619826E-009  0.9440926E+02  0.7561462E-02  0.1292512E+00
         -2   -1    0    0    0  501 -0.00000000000E+00  0.00000000000E+00  0.67708011278E+02  0.67708011278E+02  0.00000000000E+00 0.  1.
          2   -1    0    0  501    0  0.00000000000E+00 -0.00000000000E+00 -0.26561060302E+03  0.26561060302E+03  0.00000000000E+00 0. -1.
         25    2    1    2    0    0  0.17209812936E+02  0.50479674133E+02 -0.17870463256E+03  0.22455914211E+03  0.12508831859E+03 0.  0.
          5    1    3    3  502    0  0.46417472371E+02 -0.18230226345E+02 -0.11824173351E+03  0.12839588325E+03  0.41800000000E+01 0.  1.
         -5    1    3    3    0  502 -0.29207659435E+02  0.68709900478E+02 -0.60462899050E+02  0.96163258862E+02  0.41800000000E+01 0.  1.
        -11    1    1    2    0    0 -0.15799594002E+02 -0.24988698643E+01 -0.49481984164E+02  0.52003252572E+02  0.00000000000E+00 0. -1.
         11    1    1    2    0    0 -0.14102189341E+01 -0.47980804269E+02  0.30284024977E+02  0.56756219611E+02  0.00000000000E+00 0.  1.
</event>
<event>
 7    1  0.2619826E-009  0.2847161E+03  0.7561462E-02  0.1093141E+00
          2   -1    0    0  501    0  0.00000000000E+00  0.00000000000E+00  0.92455399120E+03  0.92455399120E+03  0.00000000000E+00 0. -1.
         -2   -1    0    0    0  501 -0.00000000000E+00 -0.00000000000E+00 -0.10678012252E+03  0.10678012252E+03  0.00000000000E+00 0.  1.
         25    2    1    2    0    0  0.11241797554E+03 -0.24894021857E+03  0.59564933200E+03  0.66712409010E+03  0.12508953288E+03 0.  0.
          5    1    3    3  502    0  0.17384174811E+02 -0.17270591727E+03  0.28919827152E+03  0.33731684815E+03  0.41800000000E+01 0.  1.
         -5    1    3    3    0  502  0.95033800729E+02 -0.76234301298E+02  0.30645106048E+03  0.32980724195E+03  0.41800000000E+01 0.  1.
        -11    1    1    2    0    0 -0.38261512212E+02  0.10907603436E+03  0.38656820946E+02  0.12188467661E+03  0.00000000000E+00 0.  1.
         11    1    1    2    0    0 -0.74156463329E+02  0.13986418422E+03  0.18346771574E+03  0.24232534700E+03  0.00000000000E+00 0. -1.
</event>
<event>
 7    1  0.2619826E-009  0.3325328E+03  0.7561462E-02  0.1070022E+00
         -1   -1    0    0    0  501 -0.00000000000E+00  0.00000000000E+00  0.67848415479E+02  0.67848415479E+02  0.00000000000E+00 0.  1.
          1   -1    0    0  501    0  0.00000000000E+00 -0.00000000000E+00 -0.17975970308E+04  0.17975970308E+04  0.00000000000E+00 0. -1.
         25    2    1    2    0    0  0.39909423043E+02  0.32354950544E+03 -0.10411172462E+04  0.10981119300E+04  0.12509055144E+03 0.  0.
          5    1    3    3  502    0  0.30363492472E+02  0.17265557685E+03 -0.74789553604E+03  0.76817777573E+03  0.41800000000E+01 0.  1.
         -5    1    3    3    0  502  0.95459305709E+01  0.15089392859E+03 -0.29322171012E+03  0.32993415428E+03  0.41800000000E+01 0.  1.
        -11    1    1    2    0    0  0.29655931678E+02 -0.10453938734E+03 -0.22731763465E+03  0.25195488646E+03  0.00000000000E+00 0.  1.
         11    1    1    2    0    0 -0.69565354720E+02 -0.21901011810E+03 -0.46131373448E+03  0.51537862977E+03  0.00000000000E+00 0. -1.
</event>
<event>
 7    1  0.2619826E-009  0.3030417E+03  0.7561462E-02  0.1083730E+00
          2   -1    0    0  501    0  0.00000000000E+00  0.00000000000E+00  0.58922980724E+03  0.58922980724E+03  0.00000000000E+00 0. -1.
         -2   -1    0    0    0  501 -0.00000000000E+00 -0.00000000000E+00 -0.17100569625E+03  0.17100569625E+03  0.00000000000E+00 0.  1.
         25    2    1    2    0    0  0.45162711102E+02  0.29355912486E+03  0.18744230014E+03  0.37282447619E+03  0.12508734509E+03 0.  0.
          5    1    3    3  502    0  0.60590876385E+01  0.25037075784E+03  0.10455752366E+03  0.27142582243E+03  0.41800000000E+01 0. -1.
         -5    1    3    3    0  502  0.39103623463E+02  0.43188367019E+02  0.82884776473E+02  0.10139865376E+03  0.41800000000E+01 0. -1.
        -11    1    1    2    0    0 -0.27251947553E+02 -0.20819431074E+03  0.21161157053E+03  0.29810568001E+03  0.00000000000E+00 0. -1.
         11    1    1    2    0    0 -0.17910763549E+02 -0.85364814120E+02  0.19170240323E+02  0.89305347290E+02  0.00000000000E+00 0.  1.
</event>
<event>
 7    1  0.2619826E-009  0.1364477E+03  0.7561462E-02  0.1218190E+00
          2   -1    0    0  501    0  0.00000000000E+00  0.00000000000E+00  0.84027390035E+03  0.84027390035E+03  0.00000000000E+00 0. -1.
         -2   -1    0    0    0  501 -0.00000000000E+00 -0.00000000000E+00 -0.28981394716E+02  0.28981394716E+02  0.00000000000E+00 0.  1.
         25    2    1    2    0    0  0.82289828338E+02 -0.71414500838E+02  0.50986087147E+03  0.53616734429E+03  0.12508263688E+03 0.  0.
          5    1    3    3  502    0  0.18098358261E+02 -0.89496062829E+02  0.21133149949E+03  0.23025110403E+03  0.41800000000E+01 0.  1.
         -5    1    3    3    0  502  0.64191470077E+02  0.18081561991E+02  0.29852937198E+03  0.30591624026E+03  0.41800000000E+01 0.  1.
        -11    1    1    2    0    0 -0.34882942978E+02  0.85139048057E+01  0.20549843103E+02  0.41371516016E+02  0.00000000000E+00 0.  1.
         11    1    1    2    0    0 -0.47406885359E+02  0.62900596032E+02  0.28088179106E+03  0.29171643476E+03  0.00000000000E+00 0. -1.
</event>
<event>
 7    1  0.2619826E-009  0.1528165E+03  0.7561462E-02  0.1197054E+00
         -2   -1    0    0    0  501 -0.00000000000E+00  0.00000000000E+00  0.47621613167E+03  0.47621613167E+03  0.00000000000E+00 0.  1.
          2   -1    0    0  501    0  0.00000000000E+00 -0.00000000000E+00 -0.62142855218E+02  0.62142855218E+02  0.00000000000E+00 0. -1.
         25    2    1    2    0    0  0.42158439197E+01 -0.13286448954E+03  0.20772666992E+03  0.27653039966E+03  0.12509175280E+03 0.  0.
          5    1    3    3  502    0  0.54314022410E+02 -0.59911818194E+02  0.48704843830E+02  0.94493773351E+02  0.41800000000E+01 0. -1.
         -5    1    3    3    0  502 -0.50098178490E+02 -0.72952671346E+02  0.15902182609E+03  0.18203662631E+03  0.41800000000E+01 0. -1.
        -11    1    1    2    0    0  0.10926193855E+02  0.88759590800E+02  0.58651811653E+02  0.10694709758E+03  0.00000000000E+00 0. -1.
         11    1    1    2    0    0 -0.15142037775E+02  0.44104898740E+02  0.14769479487E+03  0.15488148964E+03  0.00000000000E+00 0.  1.
</event>
<event>
 7    1  0.2619826E-009  0.1342935E+03  0.7561462E-02  0.1221221E+00
          4   -1    0    0  501    0  0.00000000000E+00  0.00000000000E+00  0.96773054961E+02  0.96773054961E+02  0.00000000000E+00 0. -1.
         -4   -1    0    0    0  501 -0.00000000000E+00 -0.00000000000E+00 -0.19476631868E+03  0.19476631868E+03  0.00000000000E+00 0.  1.
         25    2    1    2    0    0  0.29597726846E+02 -0.79378404904E+02 -0.41943968989E+02  0.15679330114E+03  0.12509151109E+03 0.  0.
          5    1    3    3  502    0  0.14547024498E+02  0.31340120562E+02 -0.26865088985E+02  0.43966174324E+02  0.41800000000E+01 0. -1.
         -5    1    3    3    0  502  0.15050702347E+02 -0.11071852547E+03 -0.15078880005E+02  0.11282712681E+03  0.41800000000E+01 0. -1.
        -11    1    1    2    0    0 -0.58767528268E+02  0.33624458510E+02 -0.37521876974E+02  0.77408771083E+02  0.00000000000E+00 0.  1.
         11    1    1    2    0    0  0.29169801423E+02  0.45753946394E+02 -0.18527417757E+02  0.57337301423E+02  0.00000000000E+00 0. -1.
</event>
<event>
 7    1  0.2911025E-009  0.8641557E+02  0.7561462E-02  0.1311772E+00
         -2   -1    0    0    0  501 -0.00000000000E+00  0.00000000000E+00  0.20244081057E+02  0.20244081057E+02  0.00000000000E+00 0.  1.
          2   -1    0    0  501    0  0.00000000000E+00 -0.00000000000E+00 -0.62292360632E+03  0.62292360632E+03  0.00000000000E+00 0. -1.
         25    2    1    2    0    0 -0.12055165216E+02  0.12277433376E+02 -0.41793876771E+03  0.43659569315E+03  0.12508766264E+03 0.  0.
          5    1    3    3  502    0  0.12199968653E+02 -0.44289306455E+02 -0.29972345483E+03  0.30325237621E+03  0.41800000000E+01 0.  1.
         -5    1    3    3    0  502 -0.24255133869E+02  0.56566739831E+02 -0.11821531288E+03  0.13334331694E+03  0.41800000000E+01 0.  1.
        -11    1    1    2    0    0  0.16526379698E+02  0.23625935016E+02 -0.16038794501E+03  0.16295888725E+03  0.00000000000E+00 0. -1.
         11    1    1    2    0    0 -0.44712144824E+01 -0.35903368391E+02 -0.24352812546E+02  0.43613106972E+02  0.00000000000E+00 0.  1.
</event>
<event>
 7    1  0.2619826E-009  0.9764054E+02  0.7561462E-02  0.1285337E+00
         -1   -1    0    0    0  501 -0.00000000000E+00  0.00000000000E+00  0.27587835082E+02  0.27587835082E+02  0.00000000000E+00 0.  1.
          1   -1    0    0  501    0  0.00000000000E+00 -0.00000000000E+00 -0.46637294596E+03  0.46637294596E+03  0.00000000000E+00 0. -1.
         25    2    1    2    0    0 -0.31757529833E+02 -0.14033501065E+02 -0.25012616231E+03  0.28180843571E+03  0.12508963790E+03 0.  0.
          5    1    3    3  502    0 -0.39048133386E+02  0.32492257397E+02 -0.21981619809E+03  0.22564825915E+03  0.41800000000E+01 0.  1.
         -5    1    3    3    0  502  0.72906035534E+01 -0.46525758462E+02 -0.30309964221E+02  0.56160176565E+02  0.41800000000E+01 0.  1.
        -11    1    1    2    0    0 -0.31669154255E+02 -0.15915936906E+01 -0.62777226825E+02  0.70330993947E+02  0.00000000000E+00 0.  1.
         11    1    1    2    0    0  0.63426684088E+02  0.15625094756E+02 -0.12588172174E+03  0.14182135138E+03  0.00000000000E+00 0. -1.
</event>
<event>
 7    1  0.2619826E-009  0.1054484E+03  0.7561462E-02  0.1269239E+00
         -1   -1    0    0    0  501 -0.00000000000E+00  0.00000000000E+00  0.51913803140E+02  0.51913803140E+02  0.00000000000E+00 0.  1.
          1   -1    0    0  501    0  0.00000000000E+00 -0.00000000000E+00 -0.23155101234E+03  0.23155101234E+03  0.00000000000E+00 0. -1.
         25    2    1    2    0    0 -0.14763296635E+02  0.58885618347E+01 -0.10582363929E+03  0.16461677731E+03  0.12508961049E+03 0.  0.
          5    1    3    3  502    0 -0.66572988873E+02 -0.14919097624E+02 -0.44408889655E+02  0.81511742723E+02  0.41800000000E+01 0. -1.
         -5    1    3    3    0  502  0.51809692238E+02  0.20807659459E+02 -0.61414749633E+02  0.83105034591E+02  0.41800000000E+01 0. -1.
        -11    1    1    2    0    0  0.34284147146E+02  0.30094841972E+02 -0.16702984645E+02  0.48580777628E+02  0.00000000000E+00 0.  1.
         11    1    1    2    0    0 -0.19520850511E+02 -0.35983403807E+02 -0.57110585271E+02  0.70267260542E+02  0.00000000000E+00 0. -1.
</event>
<event>
 7    1  0.2619826E-009  0.1147889E+03  0.7561462E-02  0.1251950E+00
          1   -1    0    0  501    0  0.00000000000E+00  0.00000000000E+00  0.23566585436E+02  0.23566585436E+02  0.00000000000E+00 0. -1.
         -1   -1    0    0    0  501 -0.00000000000E+00 -0.00000000000E+00 -0.82892143397E+03  0.82892143397E+03  0.00000000000E+00 0.  1.
         25    2    1    2    0    0 -0.20310474824E+02 -0.89093803580E+02 -0.44821487961E+03  0.47423059696E+03  0.12509140485E+03 0.  0.
          5    1    3    3  502    0 -0.41025260733E+02 -0.47165992988E+02 -0.40688203424E+03  0.41167725842E+03  0.41800000000E+01 0. -1.
         -5    1    3    3    0  502  0.20714785910E+02 -0.41927810592E+02 -0.41332845370E+02  0.62553338542E+02  0.41800000000E+01 0. -1.
        -11    1    1    2    0    0  0.20116059455E+02  0.10356564764E+03 -0.33907962519E+03  0.35511335012E+03  0.00000000000E+00 0.  1.
         11    1    1    2    0    0  0.19441536883E+00 -0.14471844057E+02 -0.18060343738E+02  0.23144072323E+02  0.00000000000E+00 0. -1.
</event>
<event>
 7    1  0.2619826E-009  0.9595309E+02  0.7561462E-02  0.1289044E+00
          2   -1    0    0  501    0  0.00000000000E+00  0.00000000000E+00  0.14932556808E+03  0.14932556808E+03  0.00000000000E+00 0. -1.
         -2   -1    0    0    0  501 -0.00000000000E+00 -0.00000000000E+00 -0.92312038343E+02  0.92312038343E+02  0.00000000000E+00 0.  1.
         25    2    1    2    0    0  0.38124301492E+02 -0.15518570516E+01  0.94486140053E+01  0.13112264533E+03  0.12509197091E+03 0.  0.
          5    1    3    3  502    0  0.56844475747E+02 -0.28402992635E+02  0.48461892160E+02  0.80025319776E+02  0.41800000000E+01 0. -1.
         -5    1    3    3    0  502 -0.18720174255E+02  0.26851135584E+02 -0.39013278155E+02  0.51097325553E+02  0.41800000000E+01 0. -1.
        -11    1    1    2    0    0 -0.10925557422E+01 -0.39742797216E+02  0.39492728761E+01  0.39953477506E+02  0.00000000000E+00 0.  1.
         11    1    1    2    0    0 -0.37031745750E+02  0.41294654267E+02  0.43615642855E+02  0.70561483587E+02  0.00000000000E+00 0. -1.
</event>
<event>
 7    1  0.2803909E-009  0.1509979E+03  0.7561462E-02  0.1199252E+00
          1   -1    0    0  501    0  0.00000000000E+00  0.00000000000E+00  0.16058232372E+03  0.16058232372E+03  0.00000000000E+00 0. -1.
         -1   -1    0    0    0  501 -0.00000000000E+00 -0.00000000000E+00 -0.16433104550E+03  0.16433104550E+03  0.00000000000E+00 0.  1.
         25    2    1    2    0    0 -0.10496167764E+03 -0.59198112642E+02  0.41449826091E+01  0.17374134859E+03  0.12508998767E+03 0.  0.
          5    1    3    3  502    0 -0.58128041297E+02  0.34316537392E+02 -0.90840919428E+01  0.68238457266E+02  0.41800000000E+01 0.  1.
         -5    1    3    3    0  502 -0.46833636341E+02 -0.93514650034E+02  0.13229074552E+02  0.10550289132E+03  0.41800000000E+01 0.  1.
        -11    1    1    2    0    0  0.75846256358E+02  0.15863685869E+02 -0.42654002278E+02  0.88451540649E+02  0.00000000000E+00 0.  1.
         11    1    1    2    0    0  0.29115421280E+02  0.43334426773E+02  0.34760297889E+02  0.62720479984E+02  0.00000000000E+00 0. -1.
</event>
<event>
 7    1  0.2619826E-009  0.8529202E+02  0.7561462E-02  0.1314671E+00
          4   -1    0    0  501    0  0.00000000000E+00  0.00000000000E+00  0.27204099948E+03  0.27204099948E+03  0.00000000000E+00 0. -1.
         -4   -1    0    0    0  501 -0.00000000000E+00 -0.00000000000E+00 -0.16125609868E+03  0.16125609868E+03  0.00000000000E+00 0.  1.
         25    2    1    2    0    0 -0.34425373796E+02 -0.65944001177E+02 -0.11022857343E+03  0.18256852759E+03  0.12508881331E+03 0.  0.
          5    1    3    3  502    0 -0.37528356601E+01  0.81298963748E+01  0.24117037798E+02  0.26063056281E+02  0.41800000000E+01 0.  1.
         -5    1    3    3    0  502 -0.30672538136E+02 -0.74073897552E+02 -0.13434561122E+03  0.15650547131E+03  0.41800000000E+01 0.  1.
        -11    1    1    2    0    0  0.10989256016E+01  0.34765541282E+02  0.12006044716E+02  0.36796679305E+02  0.00000000000E+00 0.  1.
         11    1    1    2    0    0  0.33326448194E+02  0.31178459895E+02  0.20900742951E+03  0.21393189127E+03  0.00000000000E+00 0. -1.
</event>
<event>
 7    1  0.4912503E-009  0.1362340E+03  0.7561462E-02  0.1218488E+00
         -2   -1    0    0    0  501 -0.00000000000E+00  0.00000000000E+00  0.15493062696E+02  0.15493062696E+02  0.00000000000E+00 0.  1.
          2   -1    0    0  501    0  0.00000000000E+00 -0.00000000000E+00 -0.12473951766E+04  0.12473951766E+04  0.00000000000E+00 0. -1.
         25    2    1    2    0    0  0.66133331328E+02 -0.54977045922E+02 -0.63555386279E+03  0.65343086027E+03  0.12508830303E+03 0.  0.
          5    1    3    3  502    0 -0.12148585525E+02  0.31890779525E+02 -0.12519731331E+03  0.12983239044E+03  0.41800000000E+01 0.  1.
         -5    1    3    3    0  502  0.78281916853E+02 -0.86867825448E+02 -0.51035654949E+03  0.52359846983E+03  0.41800000000E+01 0.  1.
        -11    1    1    2    0    0 -0.23522456689E+02  0.71578901240E+02 -0.44561170234E+03  0.45193653795E+03  0.00000000000E+00 0. -1.
         11    1    1    2    0    0 -0.42610874640E+02 -0.16601855318E+02 -0.15073654878E+03  0.15752084109E+03  0.00000000000E+00 0.  1.
</event>
<event>
 7    1  0.2619826E-009  0.1119400E+03  0.7561462E-02  0.1257019E+00
          1   -1    0    0  501    0  0.00000000000E+00  0.00000000000E+00  0.40429823017E+03  0.40429823017E+03  0.00000000000E+00 0. -1.
         -1   -1    0    0    0  501 -0.00000000000E+00 -0.00000000000E+00 -0.36835320568E+02  0.36835320568E+02  0.00000000000E+00 0.  1.
         25    2    1    2    0    0 -0.30929277049E+02  0.35365183574E+02  0.15144238826E+03  0.20196184929E+03  0.12508587138E+03 0.  0.
          5    1    3    3  502    0 -0.71990214503E+02  0.34596320064E+02  0.13621914001E+03  0.15796399226E+03  0.41800000000E+01 0. -1.
         -5    1    3    3    0  502  0.41060937454E+02  0.76886351025E+00  0.15223248253E+02  0.43997857028E+02  0.41800000000E+01 0. -1.
        -11    1    1    2    0    0  0.53361565075E+02  0.78425110403E+01  0.11031281645E+03  0.12279201554E+03  0.00000000000E+00 0.  1.
         11    1    1    2    0    0 -0.22432288025E+02 -0.43207694614E+02  0.10570770488E+03  0.11637968590E+03  0.00000000000E+00 0. -1.
</event>
<event>
 7    1  0.2619826E-009  0.1002384E+03  0.7561462E-02  0.1279795E+00
         -1   -1    0    0    0  501 -0.00000000000E+00  0.00000000000E+00  0.61353447564E+02  0.61353447564E+02  0.00000000000E+00 0.  1.
          1   -1    0    0  501    0  0.00000000000E+00 -0.00000000000E+00 -0.26507593141E+03  0.26507593141E+03  0.00000000000E+00 0. -1.
         25    2    1    2    0    0 -0.68121119449E+01  0.64128534787E+02 -0.11028035230E+03  0.17879759282E+03  0.12509176332E+03 0.  0.
          5    1    3    3  502    0 -0.18357071829E+02  0.97738592703E+02 -0.57253749921E+02  0.11482716956E+03  0.41800000000E+01 0.  1.
         -5    1    3    3    0  502  0.11544959884E+02 -0.33610057916E+02 -0.53026602380E+02  0.63970423258E+02  0.41800000000E+01 0.  1.
        -11    1    1    2    0    0 -0.17056687164E+01 -0.27504413047E+02 -0.10479182057E+03  0.10835463858E+03  0.00000000000E+00 0. -1.
         11    1    1    2    0    0  0.85177806613E+01 -0.36624121740E+02  0.11349689027E+02  0.39277147575E+02  0.00000000000E+00 0.  1.
</event>
<event>
 7    1  0.2619826E-009  0.8925759E+02  0.7561462E-02  0.1304660E+00
          1   -1    0    0  501    0  0.00000000000E+00  0.00000000000E+00  0.21346735892E+03  0.21346735892E+03  0.00000000000E+00 0. -1.
         -1   -1    0    0    0  501 -0.00000000000E+00 -0.00000000000E+00 -0.65364370701E+02  0.65364370701E+02  0.00000000000E+00 0.  1.
         25    2    1    2    0    0  0.41708772719E+02  0.19053642192E+02  0.90167482432E+02  0.16087303505E+03  0.12508915027E+03 0.  0.
          5    1    3    3  502    0 -0.11566927906E+01  0.35645338674E+02 -0.20230894401E+02  0.41215162205E+02  0.41800000000E+01 0. -1.
         -5    1    3    3    0  502  0.42865465510E+02 -0.16591696482E+02  0.11039837683E+03  0.11965787284E+03  0.41800000000E+01 0. -1.
        -11    1    1    2    0    0 -0.37245733571E+02  0.29612145959E+02  0.82974247068E+01  0.48300839685E+02  0.00000000000E+00 0.  1.
         11    1    1    2    0    0 -0.44630391481E+01 -0.48665788150E+02  0.49638081084E+02  0.69657854894E+02  0.00000000000E+00 0. -1.
</event>
<event>
 7    1  0.2619826E-009  0.1135106E+03  0.7561462E-02  0.1254204E+00
         -1   -1    0    0    0  501 -0.00000000000E+00  0.00000000000E+00  0.97256673835E+02  0.97256673835E+02  0.00000000000E+00 0.  1.
          1   -1    0    0  501    0  0.00000000000E+00 -0.00000000000E+00 -0.27497543702E+03  0.27497543702E+03  0.00000000000E+00 0. -1.
         25    2    1    2    0    0 -0.55051151390E+01  0.46319160792E+02  0.34521555727E+02  0.13789823371E+03  0.12509362135E+03 0.  0.
          5    1    3    3  502    0  0.48647489273E+01 -0.42980494150E+02  0.13083293190E+02  0.45383186536E+02  0.41800000000E+01 0.  1.
         -5    1    3    3    0  502 -0.10369864066E+02  0.89299654942E+02  0.21438262536E+02  0.92515047176E+02  0.41800000000E+01 0.  1.
        -11    1    1    2    0    0 -0.28766696790E+01 -0.69169222150E+02 -0.11621666430E+03  0.13527368400E+03  0.00000000000E+00 0.  1.
         11    1    1    2    0    0  0.83817848180E+01  0.22850061359E+02 -0.96023654604E+02  0.99060193137E+02  0.00000000000E+00 0. -1.
</event>
<event>
 7    1  0.2619826E-009  0.1004206E+03  0.7561462E-02  0.1279414E+00
         -3   -1    0    0    0  501 -0.00000000000E+00  0.00000000000E+00  0.16875761247E+02  0.16875761247E+02  0.00000000000E+00 0. -1.
          3   -1    0    0  501    0  0.00000000000E+00 -0.00000000000E+00 -0.83972784682E+03  0.83972784682E+03  0.00000000000E+00 0.  1.
         25    2    1    2    0    0  0.71828507789E+01 -0.10643787701E+02 -0.63312401489E+03  0.64549068436E+03  0.12508925533E+03 0.  0.
          5    1    3    3  502    0 -0.52065604956E+02 -0.34047809183E+01 -0.44530402938E+03  0.44836990391E+03  0.41800000000E+01 0. -1.
         -5    1    3    3    0  502  0.59248455735E+02 -0.72390067823E+01 -0.18781998551E+03  0.19712078045E+03  0.41800000000E+01 0. -1.
        -11    1    1    2    0    0  0.39451323432E+02 -0.43168196475E+01 -0.55503474500E+02  0.68232525484E+02  0.00000000000E+00 0. -1.
         11    1    1    2    0    0 -0.46634174211E+02  0.14960607348E+02 -0.13422459618E+03  0.14288039822E+03  0.00000000000E+00 0.  1.
</event>
<event>
 7    1  0.2619826E-009  0.1151660E+03  0.7561462E-02  0.1251292E+00
         -2   -1    0    0    0  501 -0.00000000000E+00  0.00000000000E+00  0.32516330016E+03  0.32516330016E+03  0.00000000000E+00 0.  1.
          2   -1    0    0  501    0  0.00000000000E+00 -0.00000000000E+00 -0.66897053323E+02  0.66897053323E+02  0.00000000000E+00 0. -1.
         25    2    1    2    0    0 -0.76782492219E+02  0.26332849272E+02  0.65243652502E+02  0.16276364532E+03  0.12508517092E+03 0.  0.
          5    1    3    3  502    0 -0.76905212453E+02 -0.37097777471E+02  0.39680098192E+02  0.94247755349E+02  0.41800000000E+01 0.  1.
         -5    1    3    3    0  502  0.12272023384E+00  0.63430626742E+02  0.25563554310E+02  0.68515889969E+02  0.41800000000E+01 0.  1.
        -11    1    1    2    0    0  0.47415935598E+02 -0.14145018768E+02  0.19988493264E+02  0.53365647823E+02  0.00000000000E+00 0. -1.
         11    1    1    2    0    0  0.29366556621E+02 -0.12187830503E+02  0.17303410107E+03  0.17593106035E+03  0.00000000000E+00 0.  1.
</event>
<event>
 7    1  0.2619826E-009  0.1635511E+03  0.7561462E-02  0.1184745E+00
          3   -1    0    0  501    0  0.00000000000E+00  0.00000000000E+00  0.12576305957E+03  0.12576305957E+03  0.00000000000E+00 0. -1.
         -3   -1    0    0    0  501 -0.00000000000E+00 -0.00000000000E+00 -0.28802146009E+03  0.28802146009E+03  0.00000000000E+00 0.  1.
         25    2    1    2    0    0  0.14114383620E+03 -0.38385721789E+02 -0.14338152900E+03  0.23999209961E+03  0.12507157505E+03 0.  0.
          5    1    3    3  502    0  0.13644574246E+03 -0.68103887600E-01 -0.14746252342E+03  0.20094803679E+03  0.41800000000E+01 0.  1.
         -5    1    3    3    0  502  0.46980937366E+01 -0.38317617901E+02  0.40809944269E+01  0.39044062825E+02  0.41800000000E+01 0.  1.
        -11    1    1    2    0    0 -0.10829058785E+03  0.10734477582E+02 -0.50986665546E+02  0.12017370964E+03  0.00000000000E+00 0.  1.
         11    1    1    2    0    0 -0.32853248350E+02  0.27651244207E+02  0.32109794017E+02  0.53618710402E+02  0.00000000000E+00 0. -1.
</event>
<event>
 7    1  0.2619826E-009  0.8096899E+02  0.7561462E-02  0.1326324E+00
          2   -1    0    0  501    0  0.00000000000E+00  0.00000000000E+00  0.11020876746E+03  0.11020876746E+03  0.00000000000E+00 0. -1.
         -2   -1    0    0    0  501 -0.00000000000E+00 -0.00000000000E+00 -0.11019184696E+03  0.11019184696E+03  0.00000000000E+00 0.  1.
         25    2    1    2    0    0 -0.13254539553E+02 -0.11983008865E+02 -0.26685224687E+02  0.12914625499E+03  0.12508948254E+03 0.  0.
          5    1    3    3  502    0  0.49065587743E+02 -0.22715397692E+02 -0.35997780346E+02  0.65090197286E+02  0.41800000000E+01 0. -1.
         -5    1    3    3    0  502 -0.62320127297E+02  0.10732388828E+02  0.93125556596E+01  0.64056057708E+02  0.41800000000E+01 0. -1.
        -11    1    1    2    0    0  0.13466766982E+02  0.26546757894E+02  0.53231766675E+02  0.60989385560E+02  0.00000000000E+00 0. -1.
         11    1    1    2    0    0 -0.21222742844E+00 -0.14563749029E+02 -0.26529621497E+02  0.30264973865E+02  0.00000000000E+00 0.  1.
</event>
<event>
 7    1  0.2619826E-009  0.1056359E+03  0.7561462E-02  0.1268872E+00
         -2   -1    0    0    0  501 -0.00000000000E+00  0.00000000000E+00  0.11482319699E+03  0.11482319699E+03  0.00000000000E+00 0.  1.
          2   -1    0    0  501    0  0.00000000000E+00 -0.00000000000E+00 -0.14477823578E+03  0.14477823578E+03  0.00000000000E+00 0. -1.
         25    2    1    2    0    0  0.29134834166E+01  0.44989983102E+02 -0.66519569161E+02  0.14867659364E+03  0.12508912602E+03 0.  0.
          5    1    3    3  502    0  0.23082887598E+02 -0.33555430503E+02  0.39881352071E+01  0.41135923941E+02  0.41800000000E+01 0. -1.
         -5    1    3    3    0  502 -0.20169404181E+02  0.78545413605E+02 -0.70507704369E+02  0.10754066970E+03  0.41800000000E+01 0. -1.
        -11    1    1    2    0    0 -0.28828296888E+02  0.81909492008E+01 -0.14021247251E+02  0.33087123247E+02  0.00000000000E+00 0. -1.
         11    1    1    2    0    0  0.25914813472E+02 -0.53180932303E+02  0.50585777620E+02  0.77837715892E+02  0.00000000000E+00 0.  1.
</event>
<event>
 7    1  0.2619826E-009  0.1637152E+03  0.7561462E-02  0.1184565E+00
         -1   -1    0    0    0  501 -0.00000000000E+00  0.00000000000E+00  0.98782701044E+03  0.98782701044E+03  0.00000000000E+00 0.  1.
          1   -1    0    0  501    0  0.00000000000E+00 -0.00000000000E+00 -0.29449981332E+02  0.29449981332E+02  0.00000000000E+00 0. -1.
         25    2    1    2    0    0 -0.11698084128E+03  0.38777275142E+02  0.38869755357E+03  0.42652154679E+03  0.12508655975E+03 0.  0.
          5    1    3    3  502    0 -0.39583761547E+02  0.77973292194E+02  0.17025378281E+03  0.19144328516E+03  0.41800000000E+01 0. -1.
         -5    1    3    3    0  502 -0.77397079730E+02 -0.39196017053E+02  0.21844377076E+03  0.23507826163E+03  0.41800000000E+01 0. -1.
        -11    1    1    2    0    0  0.69070701176E+02  0.24828206553E+02  0.21287903282E+03  0.22517700641E+03  0.00000000000E+00 0.  1.
         11    1    1    2    0    0  0.47910140101E+02 -0.63605481695E+02  0.35680044272E+03  0.36557843858E+03  0.00000000000E+00 0. -1.
</event>
<event>
 7    1  0.2619826E-009  0.1090792E+03  0.7561462E-02  0.1262285E+00
         -3   -1    0    0    0  501 -0.00000000000E+00  0.00000000000E+00  0.49548206009E+02  0.49548206009E+02  0.00000000000E+00 0.  1.
          3   -1    0    0  501    0  0.00000000000E+00 -0.00000000000E+00 -0.44542654621E+03  0.44542654621E+03  0.00000000000E+00 0. -1.
         25    2    1    2    0    0  0.73069116554E+02  0.59522338670E+02 -0.27390614365E+03  0.31551823791E+03  0.12508068728E+03 0.  0.
          5    1    3    3  502    0  0.63064557364E+02  0.64922937050E+02 -0.28502232082E+03  0.29907745136E+03  0.41800000000E+01 0.  1.
         -5    1    3    3    0  502  0.10004559190E+02 -0.54005983802E+01  0.11116177167E+02  0.16440786546E+02  0.41800000000E+01 0.  1.
        -11    1    1    2    0    0  0.10263683676E+02  0.36221266539E+01 -0.53222918196E+02  0.54324414635E+02  0.00000000000E+00 0. -1.
         11    1    1    2    0    0 -0.83332800230E+02 -0.63144465324E+02 -0.68749278358E+02  0.12513209968E+03  0.00000000000E+00 0.  1.
</event>
<event>
 7    1  0.2619826E-009  0.1237701E+03  0.7561462E-02  0.1237004E+00
          1   -1    0    0  501    0  0.00000000000E+00  0.00000000000E+00  0.73771128910E+02  0.73771128910E+02  0.00000000000E+00 0. -1.
         -1   -1    0    0    0  501 -0.00000000000E+00 -0.00000000000E+00 -0.24228580712E+03  0.24228580712E+03  0.00000000000E+00 0.  1.
         25    2    1    2    0    0 -0.55606597742E+02  0.41124793100E+02 -0.48227112708E+02  0.15084825326E+03  0.12508396696E+03 0.  0.
          5    1    3    3  502    0 -0.66652694150E+02 -0.22321070739E+02 -0.49878966662E+02  0.86291341116E+02  0.41800000000E+01 0. -1.
         -5    1    3    3    0  502  0.11046096407E+02  0.63445863839E+02  0.16518539541E+01  0.64556912144E+02  0.41800000000E+01 0. -1.
        -11    1    1    2    0    0  0.26520687036E+02 -0.67999617469E+02 -0.86264194267E+02  0.11299914172E+03  0.00000000000E+00 0.  1.
         11    1    1    2    0    0  0.29085910707E+02  0.26874824369E+02 -0.34023371234E+02  0.52209541049E+02  0.00000000000E+00 0. -1.
</event>
<event>
 7    1  0.2619826E-009  0.7718391E+02  0.7561462E-02  0.1337239E+00
         -1   -1    0    0    0  501 -0.00000000000E+00  0.00000000000E+00  0.10053943338E+03  0.10053943338E+03  0.00000000000E+00 0.  1.
          1   -1    0    0  501    0  0.00000000000E+00 -0.00000000000E+00 -0.14092386326E+03  0.14092386326E+03  0.00000000000E+00 0. -1.
         25    2    1    2    0    0  0.31975500130E+02 -0.30341666698E+02 -0.60398009547E+01  0.13277124286E+03  0.12509466171E+03 0.  0.
          5    1    3    3  502    0  0.29822124693E+02  0.28378287636E+02  0.40346232159E+02  0.57792535675E+02  0.41800000000E+01 0. -1.
         -5    1    3    3    0  502  0.21533754373E+01 -0.58719954333E+02 -0.46386033113E+02  0.74978707182E+02  0.41800000000E+01 0. -1.
        -11    1    1    2    0    0 -0.30811499069E+02  0.81657027693E+01 -0.64085731078E+02  0.71575191962E+02  0.00000000000E+00 0. -1.
         11    1    1    2    0    0 -0.11640010609E+01  0.22175963928E+02  0.29741102149E+02  0.37116861824E+02  0.00000000000E+00 0.  1.
</event>
<event>
 7    1  0.2619826E-009  0.8977076E+02  0.7561462E-02  0.1303408E+00
         -1   -1    0    0    0  501 -0.00000000000E+00  0.00000000000E+00  0.33113832136E+03  0.33113832136E+03  0.00000000000E+00 0.  1.
          1   -1    0    0  501    0  0.00000000000E+00 -0.00000000000E+00 -0.57020876870E+02  0.57020876870E+02  0.00000000000E+00 0. -1.
         25    2    1    2    0    0 -0.67377986138E+02  0.35808358652E+02  0.23188068235E+03  0.27429704432E+03  0.12509271007E+03 0.  0.
          5    1    3    3  502    0 -0.58044110758E+02  0.32727717135E+02  0.31836553646E+02  0.73967971519E+02  0.41800000000E+01 0. -1.
         -5    1    3    3    0  502 -0.93338753797E+01  0.30806415166E+01  0.20004412870E+03  0.20032907280E+03  0.41800000000E+01 0. -1.
        -11    1    1    2    0    0  0.79200526315E+02 -0.18834569607E+02  0.20698224139E+02  0.83999290850E+02  0.00000000000E+00 0. -1.
         11    1    1    2    0    0 -0.11822540177E+02 -0.16973789045E+02  0.21538538006E+02  0.29862863061E+02  0.00000000000E+00 0.  1.
</event>
<event>
 7    1  0.2619826E-009  0.1161664E+03  0.7561462E-02  0.1249559E+00
         -1   -1    0    0    0  501 -0.00000000000E+00  0.00000000000E+00  0.47979306976E+02  0.47979306976E+02  0.00000000000E+00 0.  1.
          1   -1    0    0  501    0  0.00000000000E+00 -0.00000000000E+00 -0.53489905508E+03  0.53489905508E+03  0.00000000000E+00 0. -1.
         25    2    1    2    0    0  0.89614841246E+01  0.10557488429E+03 -0.35452697249E+03  0.39059312442E+03  0.12508896926E+03 0.  0.
          5    1    3    3  502    0  0.12149547244E+01  0.11362376737E+03 -0.35995569335E+03  0.37748829147E+03  0.41800000000E+01 0.  1.
         -5    1    3    3    0  502  0.77465294002E+01 -0.80488830788E+01  0.54287208528E+01  0.13104832951E+02  0.41800000000E+01 0.  1.
        -11    1    1    2    0    0  0.30859909797E+01 -0.31391877437E+02 -0.10915279633E+03  0.11361912804E+03  0.00000000000E+00 0. -1.
         11    1    1    2    0    0 -0.12047475104E+02 -0.74183006851E+02 -0.23239979278E+02  0.78666109594E+02  0.00000000000E+00 0.  1.
</event>
<event>
 7    1  0.3123454E-009  0.1394880E+03  0.7561462E-02  0.1214020E+00
         -2   -1    0    0    0  501 -0.00000000000E+00  0.00000000000E+00  0.32842477911E+03  0.32842477911E+03  0.00000000000E+00 0.  1.
          2   -1    0    0  501    0  0.00000000000E+00 -0.00000000000E+00 -0.95744515409E+02  0.95744515409E+02  0.00000000000E+00 0. -1.
         25    2    1    2    0    0 -0.10346821940E+03 -0.12854930371E+02  0.11719444059E+02  0.16326368224E+03  0.12508702135E+03 0.  0.
          5    1    3    3  502    0 -0.91714343010E+02  0.37198311112E+02  0.37093480358E+02  0.10577633832E+03  0.41800000000E+01 0. -1.
         -5    1    3    3    0  502 -0.11753876391E+02 -0.50053241483E+02 -0.25374036299E+02  0.57487343922E+02  0.41800000000E+01 0. -1.
        -11    1    1    2    0    0  0.42370331273E+02  0.42856895625E+02  0.15422280446E+03  0.16557968441E+03  0.00000000000E+00 0. -1.
         11    1    1    2    0    0  0.61097888128E+02 -0.30001965254E+02  0.66738015184E+02  0.95325927865E+02  0.00000000000E+00 0.  1.
</event>
<event>
 7    1  0.2619826E-009  0.1123416E+03  0.7561462E-02  0.1256294E+00
         -2   -1    0    0    0  501 -0.00000000000E+00  0.00000000000E+00  0.50161134746E+02  0.50161134746E+02  0.00000000000E+00 0.  1.
          2   -1    0    0  501    0  0.00000000000E+00 -0.00000000000E+00 -0.54919847181E+03  0.54919847181E+03  0.00000000000E+00 0. -1.
         25    2    1    2    0    0 -0.54887998765E+01 -0.92732044644E+02 -0.11203173211E+03  0.19190678819E+03  0.12509095621E+03 0.  0.
          5    1    3    3  502    0  0.25691426971E+02 -0.49645986131E+02 -0.12500947407E+03  0.13700224219E+03  0.41800000000E+01 0.  1.
         -5    1    3    3    0  502 -0.31180226848E+02 -0.43086058513E+02  0.12977741959E+02  0.54904545994E+02  0.41800000000E+01 0.  1.
        -11    1    1    2    0    0 -0.30634436460E+02  0.55558973883E+02 -0.12291367841E+03  0.13832223472E+03  0.00000000000E+00 0.  1.
         11    1    1    2    0    0  0.36123236337E+02  0.37173070762E+02 -0.26409192654E+03  0.26913058365E+03  0.00000000000E+00 0. -1.
</event>
<event>
 7    1  0.2619826E-009  0.1474090E+03  0.7561462E-02  0.1203693E+00
         -2   -1    0    0    0  501 -0.00000000000E+00  0.00000000000E+00  0.80431928879E+02  0.80431928879E+02  0.00000000000E+00 0.  1.
          2   -1    0    0  501    0  0.00000000000E+00 -0.00000000000E+00 -0.28484356452E+03  0.28484356452E+03  0.00000000000E+00 0. -1.
         25    2    1    2    0    0 -0.93959643161E+02 -0.42906475380E+02 -0.13548283182E+03  0.21135642504E+03  0.12508621234E+03 0.  0.
          5    1    3    3  502    0 -0.94027734087E+02  0.22391209473E+02 -0.83206310148E+02  0.12760620474E+03  0.41800000000E+01 0. -1.
         -5    1    3    3    0  502  0.68090926003E-01 -0.65297684853E+02 -0.52276521671E+02  0.83750220307E+02  0.41800000000E+01 0. -1.
        -11    1    1    2    0    0  0.15815045174E+02 -0.24686251235E+02  0.69929320071E+00  0.29326023679E+02  0.00000000000E+00 0.  1.
         11    1    1    2    0    0  0.78144597987E+02  0.67592726614E+02 -0.69628097020E+02  0.12459304467E+03  0.00000000000E+00 0. -1.
</event>
<event>
 7    1  0.2619826E-009  0.1927062E+03  0.7561462E-02  0.1156043E+00
         -1   -1    0    0    0  501 -0.00000000000E+00  0.00000000000E+00  0.93661169895E+03  0.93661169895E+03  0.00000000000E+00 0.  1.
          1   -1    0    0  501    0  0.00000000000E+00 -0.00000000000E+00 -0.74690492983E+02  0.74690492983E+02  0.00000000000E+00 0. -1.
         25    2    1    2    0    0 -0.14948888436E+03  0.82948259674E+02  0.11832843143E+03  0.24264581684E+03  0.12509210372E+03 0.  0.
          5    1    3    3  502    0 -0.15656629797E+03  0.52580431096E+02  0.12880186676E+03  0.20948771008E+03  0.41800000000E+01 0. -1.
         -5    1    3    3    0  502  0.70774136092E+01  0.30367828577E+02 -0.10473435333E+02  0.33158106755E+02  0.41800000000E+01 0. -1.
        -11    1    1    2    0    0  0.82229120655E+02 -0.89043623695E+02  0.56176546231E+03  0.57469194343E+03  0.00000000000E+00 0.  1.
         11    1    1    2    0    0  0.67259763708E+02  0.60953640208E+01  0.18182731223E+03  0.19396443166E+03  0.00000000000E+00 0. -1.
</event>
<event>
 7    1  0.2619826E-009  0.1166219E+03  0.7561462E-02  0.1248776E+00
          1   -1    0    0  501    0  0.00000000000E+00  0.00000000000E+00  0.11164026612E+04  0.11164026612E+04  0.00000000000E+00 0. -1.
         -1   -1    0    0    0  501 -0.00000000000E+00 -0.00000000000E+00 -0.14853815550E+02  0.14853815550E+02  0.00000000000E+00 0.  1.
         25    2    1    2    0    0 -0.62468260812E+02 -0.10954920523E+02  0.73969006862E+03  0.75287134531E+03  0.12510623915E+03 0.  0.
          5    1    3    3  502    0 -0.41749976997E+02 -0.58945390173E+02  0.58668418863E+03  0.59112894464E+03  0.41800000000E+01 0.  1.
         -5    1    3    3    0  502 -0.20718283815E+02  0.47990469650E+02  0.15300587999E+03  0.16174240066E+03  0.41800000000E+01 0.  1.
        -11    1    1    2    0    0 -0.14077846115E+02  0.26809165713E+02  0.13760781482E+03  0.14090006322E+03  0.00000000000E+00 0.  1.
         11    1    1    2    0    0  0.76546106927E+02 -0.15854245190E+02  0.22425096225E+03  0.23748506826E+03  0.00000000000E+00 0. -1.
</event>
<event>
 7    1  0.2619826E-009  0.8276818E+02  0.7561462E-02  0.1321374E+00
         -3   -1    0    0    0  501 -0.00000000000E+00  0.00000000000E+00  0.24976948920E+03  0.24976948920E+03  0.00000000000E+00 0.  1.
          3   -1    0    0  501    0  0.00000000000E+00 -0.00000000000E+00 -0.63404336792E+02  0.63404336792E+02  0.00000000000E+00 0. -1.
         25    2    1    2    0    0 -0.41294671822E+02 -0.76510724032E+01  0.14947759638E+03  0.19938249637E+03  0.12508412853E+03 0.  0.
          5    1    3    3  502    0  0.10611823050E+01  0.48700566129E+02  0.21917110521E+02  0.53578945331E+02  0.41800000000E+01 0. -1.
         -5    1    3    3    0  502 -0.42355854127E+02 -0.56351638532E+02  0.12756048586E+03  0.14580355104E+03  0.41800000000E+01 0. -1.
        -11    1    1    2    0    0  0.20109313903E+02 -0.58032945095E+01  0.69532631899E+02  0.72614389976E+02  0.00000000000E+00 0.  1.
         11    1    1    2    0    0  0.21185357920E+02  0.13454366913E+02 -0.32645075874E+02  0.41176939639E+02  0.00000000000E+00 0. -1.
</event>
<event>
 7    1  0.2619826E-009  0.7881068E+02  0.7561462E-02  0.1332461E+00
          1   -1    0    0  501    0  0.00000000000E+00  0.00000000000E+00  0.40438165032E+02  0.40438165032E+02  0.00000000000E+00 0. -1.
         -1   -1    0    0    0  501 -0.00000000000E+00 -0.00000000000E+00 -0.31780638923E+03  0.31780638923E+03  0.00000000000E+00 0.  1.
         25    2    1    2    0    0  0.65634386880E+01  0.42801192588E+01 -0.20941816888E+03  0.24405896823E+03  0.12508961734E+03 0.  0.
          5    1    3    3  502    0  0.33617232739E+02  0.34967874923E+02 -0.24272458039E+02  0.54401242935E+02  0.41800000000E+01 0. -1.
         -5    1    3    3    0  502 -0.27053794051E+02 -0.30687755664E+02 -0.18514571084E+03  0.18965772530E+03  0.41800000000E+01 0. -1.
        -11    1    1    2    0    0  0.19132990748E+02  0.23278228175E+02 -0.70245972505E+02  0.76435880940E+02  0.00000000000E+00 0.  1.
         11    1    1    2    0    0 -0.25696429436E+02 -0.27558347433E+02  0.22959171862E+01  0.37749705095E+02  0.00000000000E+00 0. -1.
</event>
<event>
 7    1  0.2619826E-009  0.3847676E+03  0.7561462E-02  0.1049186E+00
         -2   -1    0    0    0  501 -0.00000000000E+00  0.00000000000E+00  0.74399187689E+02  0.74399187689E+02  0.00000000000E+00 0. -1.
          2   -1    0    0  501    0  0.00000000000E+00 -0.00000000000E+00 -0.20355045970E+04  0.20355045970E+04  0.00000000000E+00 0.  1.
         25    2    1    2    0    0 -0.12260606493E+03  0.35171219860E+03 -0.10592628445E+04  0.11297875026E+04  0.12509320286E+03 0.  0.
          5    1    3    3  502    0  0.80478623967E+01  0.12089152035E+03 -0.43325143668E+03  0.44989310682E+03  0.41800000000E+01 0. -1.
         -5    1    3    3    0  502 -0.13065392732E+03  0.23082067825E+03 -0.62601140782E+03  0.67989439573E+03  0.41800000000E+01 0. -1.
        -11    1    1    2    0    0 -0.14549477896E+02 -0.34855919356E+02 -0.71821686668E+02  0.81147871796E+02  0.00000000000E+00 0. -1.
         11    1    1    2    0    0  0.13715554282E+03 -0.31685627925E+03 -0.83002087817E+03  0.89896841036E+03  0.00000000000E+00 0.  1.
</event>
<event>
 7    1  0.2619826E-009  0.8257638E+02  0.7561462E-02  0.1321895E+00
          2   -1    0    0  501    0  0.00000000000E+00  0.00000000000E+00  0.14465894957E+04  0.14465894957E+04  0.00000000000E+00 0. -1.
         -2   -1    0    0    0  501 -0.00000000000E+00 -0.00000000000E+00 -0.20391181325E+02  0.20391181325E+02  0.00000000000E+00 0.  1.
         25    2    1    2    0    0  0.27955654565E+02 -0.29978962387E+02  0.12981160204E+04  0.13047733784E+04  0.12509240520E+03 0.  0.
          5    1    3    3  502    0  0.55495632733E+02 -0.53511107421E+02  0.11353820443E+04  0.11380039819E+04  0.41800000000E+01 0. -1.
         -5    1    3    3    0  502 -0.27539978167E+02  0.23532145034E+02  0.16273397614E+03  0.16676939659E+03  0.41800000000E+01 0. -1.
        -11    1    1    2    0    0  0.42706714104E+01  0.15635528584E+02 -0.10429898117E+02  0.19274106027E+02  0.00000000000E+00 0.  1.
         11    1    1    2    0    0 -0.32226325976E+02  0.14343433803E+02  0.13851219211E+03  0.14293319258E+03  0.00000000000E+00 0. -1.
</event>
<event>
 7    1  0.2619826E-009  0.1111618E+03  0.7561462E-02  0.1258433E+00
          1   -1    0    0  501    0  0.00000000000E+00  0.00000000000E+00  0.66168089673E+03  0.66168089673E+03  0.00000000000E+00 0. -1.
         -1   -1    0    0    0  501 -0.00000000000E+00 -0.00000000000E+00 -0.53504919243E+02  0.53504919243E+02  0.00000000000E+00 0.  1.
         25    2    1    2    0    0  0.36194970614E+02 -0.14916364346E+02  0.60047341089E+03  0.61461208165E+03  0.12508844831E+03 0.  0.
          5    1    3    3  502    0  0.44698614844E+02  0.46834751634E+02  0.23289018754E+03  0.24175767202E+03  0.41800000000E+01 0.  1.
         -5    1    3    3    0  502 -0.85036442302E+01 -0.61751115979E+02  0.36758322335E+03  0.37285440963E+03  0.41800000000E+01 0.  1.
        -11    1    1    2    0    0 -0.11967732839E+02 -0.36350740261E+02 -0.12683333302E+02  0.40317116594E+02  0.00000000000E+00 0.  1.
         11    1    1    2    0    0 -0.24227237774E+02  0.51267104606E+02  0.20385899893E+02  0.60256617722E+02  0.00000000000E+00 0. -1.
</event>
<event>
 7    1  0.2619826E-009  0.1157069E+03  0.7561462E-02  0.1250352E+00
          1   -1    0    0  501    0  0.00000000000E+00  0.00000000000E+00  0.96504418129E+03  0.96504418129E+03  0.00000000000E+00 0. -1.
         -1   -1    0    0    0  501 -0.00000000000E+00 -0.00000000000E+00 -0.16519156811E+02  0.16519156811E+02  0.00000000000E+00 0.  1.
         25    2    1    2    0    0  0.63828188481E+02  0.78792667823E+01  0.54766220328E+03  0.56543528783E+03  0.12508819022E+03 0.  0.
          5    1    3    3  502    0  0.91400286904E+02 -0.74101347728E+01  0.49851123583E+03  0.50689234280E+03  0.41800000000E+01 0.  1.
         -5    1    3    3    0  502 -0.27572098422E+02  0.15289401555E+02  0.49150967449E+02  0.58542945027E+02  0.41800000000E+01 0.  1.
        -11    1    1    2    0    0 -0.16814347298E+02 -0.44919190466E+02  0.12590221939E+03  0.13472870813E+03  0.00000000000E+00 0.  1.
         11    1    1    2    0    0 -0.47013841183E+02  0.37039923684E+02  0.27496060180E+03  0.28139934213E+03  0.00000000000E+00 0. -1.
</event>
<event>
 7    1  0.2718677E-009  0.1696269E+03  0.7561462E-02  0.1178238E+00
         -1   -1    0    0    0  501 -0.00000000000E+00  0.00000000000E+00  0.63799988546E+03  0.63799988546E+03  0.00000000000E+00 0.  1.
          1   -1    0    0  501    0  0.00000000000E+00 -0.00000000000E+00 -0.65006645573E+02  0.65006645573E+02  0.00000000000E+00 0. -1.
         25    2    1    2    0    0  0.15548530391E+03 -0.41653857925E+02  0.19432808257E+03  0.28164073506E+03  0.12508947343E+03 0.  0.
          5    1    3    3  502    0  0.87067995481E+02 -0.60990753896E+02  0.17985609151E+03  0.20896505438E+03  0.41800000000E+01 0.  1.
         -5    1    3    3    0  502  0.68417308426E+02  0.19336895970E+02  0.14471991057E+02  0.72675680686E+02  0.41800000000E+01 0.  1.
        -11    1    1    2    0    0 -0.10285235736E+03  0.34743167700E+02  0.33648201022E+03  0.35356164712E+03  0.00000000000E+00 0.  1.
         11    1    1    2    0    0 -0.52632946544E+02  0.69106902248E+01  0.42183147105E+02  0.67804148847E+02  0.00000000000E+00 0. -1.
</event>
<event>
 7    1  0.2619826E-009  0.1013728E+03  0.7561462E-02  0.1277435E+00
          2   -1    0    0  501    0  0.00000000000E+00  0.00000000000E+00  0.31855769496E+03  0.31855769496E+03  0.00000000000E+00 0. -1.
         -2   -1    0    0    0  501 -0.00000000000E+00 -0.00000000000E+00 -0.51367831303E+02  0.51367831303E+02  0.00000000000E+00 0.  1.
         25    2    1    2    0    0  0.13433148534E+02  0.47587114930E+02  0.21921831737E+03  0.25719561238E+03  0.12509168386E+03 0.  0.
          5    1    3    3  502    0  0.41303783494E+02  0.78143573705E+02  0.17733539372E+03  0.19818611180E+03  0.41800000000E+01 0. -1.
         -5    1    3    3    0  502 -0.27870634961E+02 -0.30556458775E+02  0.41882923651E+02  0.59009500587E+02  0.41800000000E+01 0. -1.
        -11    1    1    2    0    0  0.23974451011E+01  0.11382806360E+02 -0.18889868982E+02  0.22184300165E+02  0.00000000000E+00 0.  1.
         11    1    1    2    0    0 -0.15830593635E+02 -0.58969921289E+02  0.66861415268E+02  0.90545613717E+02  0.00000000000E+00 0. -1.
</event>
<event>
 7    1  0.2619826E-009  0.1442703E+03  0.7561462E-02  0.1207696E+00
          1   -1    0    0  501    0  0.00000000000E+00  0.00000000000E+00  0.17929212713E+04  0.17929212713E+04  0.00000000000E+00 0. -1.
         -1   -1    0    0    0  501 -0.00000000000E+00 -0.00000000000E+00 -0.12654083868E+02  0.12654083868E+02  0.00000000000E+00 0.  1.
         25    2    1    2    0    0 -0.69649176461E+02  0.75237535773E+02  0.10637817118E+04  0.10760068461E+04  0.12508999888E+03 0.  0.
          5    1    3    3  502    0 -0.25107988524E+02 -0.28657743749E+02  0.46903229270E+03  0.47059583653E+03  0.41800000000E+01 0. -1.
         -5    1    3    3    0  502 -0.44541187936E+02  0.10389527952E+03  0.59474941915E+03  0.60541100957E+03  0.41800000000E+01 0. -1.
        -11    1    1    2    0    0  0.24997743596E+02 -0.87326822810E+02  0.50191946596E+03  0.51007255511E+03  0.00000000000E+00 0. -1.
         11    1    1    2    0    0  0.44651432865E+02  0.12089287037E+02  0.21456600962E+03  0.21949595396E+03  0.00000000000E+00 0.  1.
</event>
<event>
 7    1  0.2619826E-009  0.1702568E+03  0.7561462E-02  0.1177580E+00
         -2   -1    0    0    0  501 -0.00000000000E+00  0.00000000000E+00  0.30100226400E+02  0.30100226400E+02  0.00000000000E+00 0.  1.
          2   -1    0    0  501    0  0.00000000000E+00 -0.00000000000E+00 -0.13954105456E+04  0.13954105456E+04  0.00000000000E+00 0. -1.
         25    2    1    2    0    0  0.10189361023E+03 -0.13094720365E+03 -0.91139758701E+03  0.93478394530E+03  0.12508391116E+03 0.  0.
          5    1    3    3  502    0  0.29471389291E+02 -0.80697444887E+02 -0.19702360374E+03  0.21498002984E+03  0.41800000000E+01 0.  1.
         -5    1    3    3    0  502  0.72422220943E+02 -0.50249758767E+02 -0.71437398327E+03  0.71980391546E+03  0.41800000000E+01 0.  1.
        -11    1    1    2    0    0 -0.72809794406E+02  0.85539063842E+02 -0.39587977824E+03  0.41150819727E+03  0.00000000000E+00 0. -1.
         11    1    1    2    0    0 -0.29083815827E+02  0.45408139812E+02 -0.58032953954E+02  0.79218629431E+02  0.00000000000E+00 0.  1.
</event>
<event>
 7    1  0.2619826E-009  0.8939720E+02  0.7561462E-02  0.1304318E+00
          1   -1    0    0  501    0  0.00000000000E+00  0.00000000000E+00  0.18841110094E+03  0.18841110094E+03  0.00000000000E+00 0. -1.
         -1   -1    0    0    0  501 -0.00000000000E+00 -0.00000000000E+00 -0.67548846689E+02  0.67548846689E+02  0.00000000000E+00 0.  1.
         25    2    1    2    0    0 -0.32643282611E+01 -0.28134420694E+02  0.41382899719E+02  0.13476731456E+03  0.12508990054E+03 0.  0.
          5    1    3    3  502    0 -0.33434142492E+02 -0.68737172552E+02  0.32832424772E+02  0.83295145663E+02  0.41800000000E+01 0.  1.
         -5    1    3    3    0  502  0.30169814231E+02  0.40602751858E+02  0.85504749470E+01  0.51472168897E+02  0.41800000000E+01 0.  1.
        -11    1    1    2    0    0 -0.19655378252E+02  0.89507124977E+01  0.87597892328E+02  0.90221061226E+02  0.00000000000E+00 0. -1.
         11    1    1    2    0    0  0.22919706513E+02  0.19183708197E+02 -0.81185377911E+01  0.30971571847E+02  0.00000000000E+00 0.  1.
</event>
<event>
 7    1  0.2619826E-009  0.2132812E+03  0.7561462E-02  0.1138994E+00
          2   -1    0    0  501    0  0.00000000000E+00  0.00000000000E+00  0.24173170306E+04  0.24173170306E+04  0.00000000000E+00 0. -1.
         -2   -1    0    0    0  501 -0.00000000000E+00 -0.00000000000E+00 -0.33044342909E+02  0.33044342909E+02  0.00000000000E+00 0.  1.
         25    2    1    2    0    0 -0.17977296487E+03  0.85815311697E+02  0.19454639309E+04  0.19596325739E+04  0.12508929511E+03 0.  0.
          5    1    3    3  502    0 -0.93464557583E+02  0.43108094610E+01  0.12971472382E+04  0.13005239854E+04  0.41800000000E+01 0.  1.
         -5    1    3    3    0  502 -0.86308407288E+02  0.81504502236E+02  0.64831669266E+03  0.65910858850E+03  0.41800000000E+01 0.  1.
        -11    1    1    2    0    0  0.82113110544E+02 -0.82508563700E+02  0.18292391771E+03  0.21682109140E+03  0.00000000000E+00 0.  1.
         11    1    1    2    0    0  0.97659854328E+02 -0.33067479969E+01  0.25588483916E+03  0.27390770826E+03  0.00000000000E+00 0. -1.
</event>
<event>
 7    1  0.2619826E-009  0.5958198E+02  0.7561462E-02  0.1399594E+00
         -1   -1    0    0    0  501 -0.00000000000E+00  0.00000000000E+00  0.93724930046E+02  0.93724930046E+02  0.00000000000E+00 0.  1.
          1   -1    0    0  501    0  0.00000000000E+00 -0.00000000000E+00 -0.13086166869E+03  0.13086166869E+03  0.00000000000E+00 0. -1.
         25    2    1    2    0    0  0.21807110910E+02  0.85115441722E+01 -0.31136064387E+02  0.13101368277E+03  0.12508850505E+03 0.  0.
          5    1    3    3  502    0  0.16316073424E+02  0.27099961743E+02  0.43410356267E+02  0.53875352525E+02  0.41800000000E+01 0. -1.
         -5    1    3    3    0  502  0.54910374862E+01 -0.18588417571E+02 -0.74546420654E+02  0.77138330243E+02  0.41800000000E+01 0. -1.
        -11    1    1    2    0    0  0.85725768105E+01 -0.29358001845E+02 -0.35149480767E+02  0.46592567473E+02  0.00000000000E+00 0. -1.
         11    1    1    2    0    0 -0.30379687721E+02  0.20846457673E+02  0.29148806512E+02  0.46980348494E+02  0.00000000000E+00 0.  1.
</event>
<event>
 7    1  0.2619826E-009  0.1362751E+03  0.7561462E-02  0.1218431E+00
         -4   -1    0    0    0  501 -0.00000000000E+00  0.00000000000E+00  0.82898799506E+03  0.82898799506E+03  0.00000000000E+00 0.  1.
          4   -1    0    0  501    0  0.00000000000E+00 -0.00000000000E+00 -0.31556594756E+02  0.31556594756E+02  0.00000000000E+00 0. -1.
         25    2    1    2    0    0  0.95450558470E+02 -0.69445891046E+02  0.42588408061E+03  0.45930186537E+03  0.12508961798E+03 0.  0.
          5    1    3    3  502    0  0.89350340472E+02 -0.45668599027E+02  0.13979623205E+03  0.17213240013E+03  0.41800000000E+01 0.  1.
         -5    1    3    3    0  502  0.61002179975E+01 -0.23777292019E+02  0.28608784856E+03  0.28716946525E+03  0.41800000000E+01 0.  1.
        -11    1    1    2    0    0 -0.90271494949E+01 -0.20549673519E+02  0.28949331894E+02  0.36631166059E+02  0.00000000000E+00 0. -1.
         11    1    1    2    0    0 -0.86423408975E+02  0.89995564565E+02  0.34259798780E+03  0.36461155838E+03  0.00000000000E+00 0.  1.
</event>
<event>
 7    1  0.2619826E-009  0.1430115E+03  0.7561462E-02  0.1209333E+00
         -3   -1    0    0    0  501 -0.00000000000E+00  0.00000000000E+00  0.19587707104E+02  0.19587707104E+02  0.00000000000E+00 0. -1.
          3   -1    0    0  501    0  0.00000000000E+00 -0.00000000000E+00 -0.14664329320E+04  0.14664329320E+04  0.00000000000E+00 0.  1.
         25    2    1    2    0    0  0.11022064937E+03 -0.68472655656E+02 -0.85318983166E+03  0.87201895700E+03  0.12508827442E+03 0.  0.
          5    1    3    3  502    0  0.83376020439E+02 -0.36284533509E+02 -0.79494576442E+03  0.80014021829E+03  0.41800000000E+01 0.  1.
         -5    1    3    3    0  502  0.26844628929E+02 -0.32188122146E+02 -0.58244067241E+02  0.71878738709E+02  0.41800000000E+01 0.  1.
        -11    1    1    2    0    0 -0.53002192040E+02 -0.11798811158E+02 -0.14997355356E+03  0.15950081841E+03  0.00000000000E+00 0. -1.
         11    1    1    2    0    0 -0.57218457328E+02  0.80271466814E+02 -0.44368183972E+03  0.45450086374E+03  0.00000000000E+00 0.  1.
</event>
<event>
 7    1  0.2619826E-009  0.1127118E+03  0.7561462E-02  0.1255629E+00
          1   -1    0    0  501    0  0.00000000000E+00  0.00000000000E+00  0.87948133194E+03  0.87948133194E+03  0.00000000000E+00 0. -1.
         -1   -1    0    0    0  501 -0.00000000000E+00 -0.00000000000E+00 -0.16818920738E+02  0.16818920738E+02  0.00000000000E+00 0.  1.
         25    2    1    2    0    0  0.29020907990E+02  0.30428898938E+02  0.61442287928E+03  0.62843339693E+03  0.12507968979E+03 0.  0.
          5    1    3    3  502    0  0.34073487374E+02  0.73648594591E+02  0.29325813974E+03  0.30430729033E+03  0.41800000000E+01 0. -1.
         -5    1    3    3    0  502 -0.50525793840E+01 -0.43219695653E+02  0.32116473955E+03  0.32412610660E+03  0.41800000000E+01 0. -1.
        -11    1    1    2    0    0 -0.39115652667E+02 -0.58640678560E+02  0.16639398399E+03  0.18070894104E+03  0.00000000000E+00 0.  1.
         11    1    1    2    0    0  0.10094744677E+02  0.28211779622E+02  0.81845547930E+02  0.87157914704E+02  0.00000000000E+00 0. -1.
</event>
<event>
 7    1  0.2619826E-009  0.8736918E+02  0.7561462E-02  0.1309351E+00
          1   -1    0    0  501    0  0.00000000000E+00  0.00000000000E+00  0.29018351341E+02  0.29018351341E+02  0.00000000000E+00 0. -1.
         -1   -1    0    0    0  501 -0.00000000000E+00 -0.00000000000E+00 -0.48546641829E+03  0.48546641829E+03  0.00000000000E+00 0.  1.
         25    2    1    2    0    0 -0.42345007187E+02 -0.15660786351E+02 -0.24227329753E+03  0.27638154552E+03  0.12510814579E+03 0.  0.
          5    1    3    3  502    0 -0.23807186499E+02  0.32175174575E+02 -0.14360085267E+02  0.42728309548E+02  0.41800000000E+01 0.  1.
         -5    1    3    3    0  502 -0.18537820688E+02 -0.47835960926E+02 -0.22791321227E+03  0.23365323597E+03  0.41800000000E+01 0.  1.
        -11    1    1    2    0    0 -0.15692344311E+02  0.19296689149E+02 -0.14771525944E+03  0.14979455849E+03  0.00000000000E+00 0.  1.
         11    1    1    2    0    0  0.58037351497E+02 -0.36359027981E+01 -0.66459509976E+02  0.88308665623E+02  0.00000000000E+00 0. -1.
</event>
<event>
 7    1  0.2619826E-009  0.9079981E+02  0.7561462E-02  0.1300926E+00
          1   -1    0    0  501    0  0.00000000000E+00  0.00000000000E+00  0.15959431166E+03  0.15959431166E+03  0.00000000000E+00 0. -1.
         -1   -1    0    0    0  501 -0.00000000000E+00 -0.00000000000E+00 -0.11304160054E+03  0.11304160054E+03  0.00000000000E+00 0.  1.
         25    2    1    2    0    0  0.68342712563E+02 -0.31529454290E+02  0.55984089789E+02  0.15635451047E+03  0.12509069424E+03 0.  0.
          5    1    3    3  502    0 -0.26757586327E+01 -0.33941935999E+02 -0.29409094709E+02  0.45183868308E+02  0.41800000000E+01 0. -1.
         -5    1    3    3    0  502  0.71018471195E+02  0.24124817092E+01  0.85393184498E+02  0.11117064216E+03  0.41800000000E+01 0. -1.
        -11    1    1    2    0    0 -0.57243345399E+02  0.30769958349E+02 -0.44977308980E+02  0.79035114047E+02  0.00000000000E+00 0.  1.
         11    1    1    2    0    0 -0.11099367163E+02  0.75949594153E+00  0.35545930304E+02  0.37246287690E+02  0.00000000000E+00 0. -1.
</event>
<event>
 7    1  0.2619826E-009  0.1201038E+03  0.7561462E-02  0.1242926E+00
         -4   -1    0    0    0  501 -0.00000000000E+00  0.00000000000E+00  0.93545848387E+03  0.93545848387E+03  0.00000000000E+00 0.  1.
          4   -1    0    0  501    0  0.00000000000E+00 -0.00000000000E+00 -0.33631287828E+02  0.33631287828E+02  0.00000000000E+00 0. -1.
         25    2    1    2    0    0  0.56411128729E+02  0.87976243413E+02  0.72268513679E+03  0.74083912217E+03  0.12508702229E+03 0.  0.
          5    1    3    3  502    0  0.48123820961E+02  0.86702171019E+02  0.72452494280E+03  0.73129134669E+03  0.41800000000E+01 0.  1.
         -5    1    3    3    0  502  0.82873077681E+01  0.12740723935E+01 -0.18398060052E+01  0.95477754814E+01  0.41800000000E+01 0.  1.
        -11    1    1    2    0    0  0.96762736670E+00  0.14291194626E+02  0.57630090176E+02  0.59383514887E+02  0.00000000000E+00 0.  1.
         11    1    1    2    0    0 -0.57378756096E+02 -0.10226743804E+03  0.12151196907E+03  0.16886713464E+03  0.00000000000E+00 0. -1.
</event>
<event>
 7    1  0.2619826E-009  0.1062891E+03  0.7561462E-02  0.1267600E+00
          3   -1    0    0  501    0  0.00000000000E+00  0.00000000000E+00  0.17608434702E+03  0.17608434702E+03  0.00000000000E+00 0. -1.
         -3   -1    0    0    0  501 -0.00000000000E+00 -0.00000000000E+00 -0.85710635013E+02  0.85710635013E+02  0.00000000000E+00 0.  1.
         25    2    1    2    0    0  0.99689595352E+01  0.43356411505E+02  0.95640202357E+02  0.16362425208E+03  0.12508672588E+03 0.  0.
          5    1    3    3  502    0  0.50690165951E+02  0.58729151629E+02  0.90997253756E+02  0.11965190666E+03  0.41800000000E+01 0.  1.
         -5    1    3    3    0  502 -0.40721206415E+02 -0.15372740124E+02  0.46429486009E+01  0.43972345429E+02  0.41800000000E+01 0.  1.
        -11    1    1    2    0    0  0.25926116322E+02 -0.48405135534E+02 -0.20821059155E+02  0.58725949613E+02  0.00000000000E+00 0. -1.
         11    1    1    2    0    0 -0.35895075857E+02  0.50487240288E+01  0.15554568807E+02  0.39444780338E+02  0.00000000000E+00 0.  1.
</event>
<event>
 7    1  0.2619826E-009  0.1281015E+03  0.7561462E-02  0.1230300E+00
         -4   -1    0    0    0  501 -0.00000000000E+00  0.00000000000E+00  0.22616139060E+02  0.22616139060E+02  0.00000000000E+00 0.  1.
          4   -1    0    0  501    0  0.00000000000E+00 -0.00000000000E+00 -0.87028616915E+03  0.87028616915E+03  0.00000000000E+00 0. -1.
         25    2    1    2    0    0 -0.46692430904E+02  0.48586879375E+02 -0.28219020675E+03  0.31594145893E+03  0.12508726846E+03 0.  0.
          5    1    3    3  502    0  0.24655929271E+02 -0.27777405023E+02 -0.79997436769E+02  0.88298139095E+02  0.41800000000E+01 0.  1.
         -5    1    3    3    0  502 -0.71348360175E+02  0.76364284398E+02 -0.20219276998E+03  0.22764331983E+03  0.41800000000E+01 0.  1.
        -11    1    1    2    0    0  0.61313321098E+02 -0.66935679225E+02 -0.46515661311E+03  0.47393077893E+03  0.00000000000E+00 0.  1.
         11    1    1    2    0    0 -0.14620890194E+02  0.18348799849E+02 -0.10032321023E+03  0.10303007035E+03  0.00000000000E+00 0. -1.
</event>
<event>
 7    1  0.2619826E-009  0.1086765E+03  0.7561462E-02  0.1263041E+00
         -2   -1    0    0    0  501 -0.00000000000E+00  0.00000000000E+00  0.18716739529E+02  0.18716739529E+02  0.00000000000E+00 0.  1.
          2   -1    0    0  501    0  0.00000000000E+00 -0.00000000000E+00 -0.12697338003E+04  0.12697338003E+04  0.00000000000E+00 0. -1.
         25    2    1    2    0    0  0.10009521413E+03  0.19771355419E+02 -0.83806280220E+03  0.85346694877E+03  0.12508642538E+03 0.  0.
          5    1    3    3  502    0  0.98916929819E+02  0.87233279756E+01 -0.31583025086E+03  0.33109949444E+03  0.41800000000E+01 0. -1.
         -5    1    3    3    0  502  0.11782843120E+01  0.11048027444E+02 -0.52223255134E+03  0.52236745433E+03  0.41800000000E+01 0. -1.
        -11    1    1    2    0    0 -0.90455897103E+02 -0.78984068098E+01 -0.40931226401E+03  0.41926266662E+03  0.00000000000E+00 0. -1.
         11    1    1    2    0    0 -0.96393170277E+01 -0.11872948610E+02 -0.36419945746E+01  0.15720924462E+02  0.00000000000E+00 0.  1.
</event>
<event>
 7    1  0.2619826E-009  0.1138263E+03  0.7561462E-02  0.1253644E+00
          1   -1    0    0  501    0  0.00000000000E+00  0.00000000000E+00  0.38261432718E+03  0.38261432718E+03  0.00000000000E+00 0. -1.
         -1   -1    0    0    0  501 -0.00000000000E+00 -0.00000000000E+00 -0.42898927042E+02  0.42898927042E+02  0.00000000000E+00 0.  1.
         25    2    1    2    0    0  0.11637005482E+02 -0.51017729377E+02  0.25854237473E+03  0.29194318396E+03  0.12509370296E+03 0.  0.
          5    1    3    3  502    0 -0.18581567687E+02 -0.79012169199E+02  0.10422915969E+03  0.13217181117E+03  0.41800000000E+01 0. -1.
         -5    1    3    3    0  502  0.30218573169E+02  0.27994439822E+02  0.15431321504E+03  0.15977137279E+03  0.41800000000E+01 0. -1.
        -11    1    1    2    0    0 -0.22829076532E+02 -0.21641597688E+02  0.33475524827E+02  0.45936219351E+02  0.00000000000E+00 0. -1.
         11    1    1    2    0    0  0.11192071050E+02  0.72659327066E+02  0.47697500580E+02  0.87633850912E+02  0.00000000000E+00 0.  1.
</event>
<event>
 7    1  0.2619826E-009  0.1076462E+03  0.7561462E-02  0.1264992E+00
         -1   -1    0    0    0  501 -0.00000000000E+00  0.00000000000E+00  0.60127184889E+02  0.60127184889E+02  0.00000000000E+00 0.  1.
          1   -1    0    0  501    0  0.00000000000E+00 -0.00000000000E+00 -0.27170647482E+03  0.27170647482E+03  0.00000000000E+00 0. -1.
         25    2    1    2    0    0 -0.22357163100E+02  0.61042294051E+02 -0.14232507971E+03  0.20032466870E+03  0.12509012819E+03 0.  0.
          5    1    3    3  502    0 -0.63869859394E+02  0.47176698331E+02 -0.40116029673E+02  0.89060474068E+02  0.41800000000E+01 0. -1.
         -5    1    3    3    0  502  0.41512696294E+02  0.13865595720E+02 -0.10220905004E+03  0.11126419464E+03  0.41800000000E+01 0. -1.
        -11    1    1    2    0    0 -0.51544795141E+01 -0.63940824139E+02 -0.84435002179E+01  0.64701548255E+02  0.00000000000E+00 0.  1.
         11    1    1    2    0    0  0.27511642614E+02  0.28985300877E+01 -0.60810710004E+02  0.66807442752E+02  0.00000000000E+00 0. -1.
</event>
<event>
 7    1  0.2619826E-009  0.8885185E+02  0.7561462E-02  0.1305656E+00
         -2   -1    0    0    0  501 -0.00000000000E+00  0.00000000000E+00  0.85487442878E+02  0.85487442878E+02  0.00000000000E+00 0.  1.
          2   -1    0    0  501    0  0.00000000000E+00 -0.00000000000E+00 -0.14481401784E+03  0.14481401784E+03  0.00000000000E+00 0. -1.
         25    2    1    2    0    0  0.51077352580E+01 -0.19024236303E+01 -0.50982459792E+02  0.13518955402E+03  0.12508915274E+03 0.  0.
          5    1    3    3  502    0  0.22236875102E+02 -0.44577427223E+02  0.17179412427E+02  0.52860479032E+02  0.41800000000E+01 0.  1.
         -5    1    3    3    0  502 -0.17129139844E+02  0.42675003593E+02 -0.68161872220E+02  0.82329074985E+02  0.41800000000E+01 0.  1.
        -11    1    1    2    0    0  0.18064676694E+02 -0.34177802618E+02 -0.28206464895E+02  0.47854565067E+02  0.00000000000E+00 0. -1.
         11    1    1    2    0    0 -0.23172411952E+02  0.36080226249E+02  0.19862349725E+02  0.47257341635E+02  0.00000000000E+00 0.  1.
</event>
<event>
 7    1  0.2619826E-009  0.1391346E+03  0.7561462E-02  0.1214498E+00
         -2   -1    0    0    0  501 -0.00000000000E+00  0.00000000000E+00  0.72612319000E+02  0.72612319000E+02  0.00000000000E+00 0. -1.
          2   -1    0    0  501    0  0.00000000000E+00 -0.00000000000E+00 -0.40365664170E+03  0.40365664170E+03  0.00000000000E+00 0.  1.
         25    2    1    2    0    0 -0.11927638631E+03 -0.27776388959E+01 -0.25498271293E+03  0.30805551023E+03  0.12508973532E+03 0.  0.
          5    1    3    3  502    0 -0.85314689284E+02  0.34510473432E+02 -0.23711875326E+03  0.25438621137E+03  0.41800000000E+01 0. -1.
         -5    1    3    3    0  502 -0.33961697025E+02 -0.37288112328E+02 -0.17863959669E+02  0.53669298867E+02  0.41800000000E+01 0. -1.
        -11    1    1    2    0    0  0.53460925552E+02  0.33302924548E+02 -0.71839512230E+02  0.95540938146E+02  0.00000000000E+00 0.  1.
         11    1    1    2    0    0  0.65815460757E+02 -0.30525285653E+02 -0.42220975327E+01  0.72672512316E+02  0.00000000000E+00 0. -1.
</event>
<event>
 7    1  0.2619826E-009  0.1157694E+03  0.7561462E-02  0.1250244E+00
         -1   -1    0    0    0  501 -0.00000000000E+00  0.00000000000E+00  0.13711056906E+03  0.13711056906E+03  0.00000000000E+00 0.  1.
          1   -1    0    0  501    0  0.00000000000E+00 -0.00000000000E+00 -0.19417740199E+03  0.19417740199E+03  0.00000000000E+00 0. -1.
         25    2    1    2    0    0  0.98677204249E+02  0.16987086236E+02 -0.10340549144E+03  0.19070193848E+03  0.12509509161E+03 0.  0.
          5    1    3    3  502    0  0.80192854135E+02 -0.95694060943E+01  0.14554193629E+01  0.80882989762E+02  0.41800000000E+01 0.  1.
         -5    1    3    3    0  502  0.18484350114E+02  0.26556492330E+02 -0.10486091080E+03  0.10981894872E+03  0.41800000000E+01 0.  1.
        -11    1    1    2    0    0 -0.50597593967E+02  0.22932609708E+02  0.54187129287E+02  0.77603260780E+02  0.00000000000E+00 0. -1.
         11    1    1    2    0    0 -0.48079610282E+02 -0.39919695944E+02 -0.78484707774E+01  0.62982771792E+02  0.00000000000E+00 0.  1.
</event>
<event>
 6    1  0.2619826E-009  0.1528484E+03  0.7561462E-02  0.1197016E+00
          2   -1    0    0  501    0  0.00000000000E+00  0.00000000000E+00  0.79727712859E+03  0.79727712859E+03  0.00000000000E+00 0. -1.
         -2   -1    0    0    0  501 -0.00000000000E+00 -0.00000000000E+00 -0.41874500679E+02  0.41874500679E+02  0.00000000000E+00 0.  1.
          5    1    1    2  502    0  0.27211406856E+02 -0.60672345620E+02  0.11690702196E+03  0.13455972046E+03  0.41800000000E+01 0. -1.
         -5    1    1    2    0  502  0.84676083833E+02  0.40321680509E+02  0.68038606913E+02  0.11594223356E+03  0.41800000000E+01 0. -1.
        -11    1    1    2    0    0 -0.11021513883E+03 -0.13732086081E+02  0.44082048231E+03  0.45459723343E+03  0.00000000000E+00 0. -1.
         11    1    1    2    0    0 -0.16723518601E+01  0.34082751192E+02  0.12963651673E+03  0.13405244182E+03  0.00000000000E+00 0.  1.
</event>
<event>
 7    1  0.2619826E-009  0.8869665E+02  0.7561462E-02  0.1306039E+00
          3   -1    0    0  501    0  0.00000000000E+00  0.00000000000E+00  0.11251775037E+03  0.11251775037E+03  0.00000000000E+00 0. -1.
         -3   -1    0    0    0  501 -0.00000000000E+00 -0.00000000000E+00 -0.11320506538E+03  0.11320506538E+03  0.00000000000E+00 0.  1.
         25    2    1    2    0    0  0.22316855669E+02  0.22782572683E+02 -0.26171976150E+00  0.12909104347E+03  0.12508933344E+03 0.  0.
          5    1    3    3  502    0  0.72841720223E+02 -0.46075525814E+00 -0.48960344652E+01  0.73127095210E+02  0.41800000000E+01 0. -1.
         -5    1    3    3    0  502 -0.50524864553E+02  0.23243327941E+02  0.46343147037E+01  0.55963948258E+02  0.41800000000E+01 0. -1.
        -11    1    1    2    0    0  0.42157096490E+01 -0.21698103188E+02 -0.41906814040E+02  0.47378908311E+02  0.00000000000E+00 0.  1.
         11    1    1    2    0    0 -0.26532565318E+02 -0.10844694951E+01  0.41481218794E+02  0.49252863968E+02  0.00000000000E+00 0. -1.
</event>
<event>
 7    1  0.2619826E-009  0.1766903E+03  0.7561462E-02  0.1171045E+00
         -2   -1    0    0    0  501 -0.00000000000E+00  0.00000000000E+00  0.34962939753E+02  0.34962939753E+02  0.00000000000E+00 0. -1.
          2   -1    0    0  501    0  0.00000000000E+00 -0.00000000000E+00 -0.11649600994E+04  0.11649600994E+04  0.00000000000E+00 0.  1.
         25    2    1    2    0    0  0.70796428636E+02  0.15415844640E+03 -0.59608081872E+03  0.63224702746E+03  0.12508797060E+03 0.  0.
          5    1    3    3  502    0  0.53296690257E+02  0.12759296156E+03 -0.25889437578E+03  0.29353751250E+03  0.41800000000E+01 0.  1.
         -5    1    3    3    0  502  0.17499738379E+02  0.26565484840E+02 -0.33718644294E+03  0.33870951496E+03  0.41800000000E+01 0.  1.
        -11    1    1    2    0    0 -0.79165150693E+02 -0.97076732704E+02 -0.27166081117E+03  0.29914981104E+03  0.00000000000E+00 0. -1.
         11    1    1    2    0    0  0.83687220570E+01 -0.57081713701E+02 -0.26225552974E+03  0.26852620064E+03  0.00000000000E+00 0.  1.
</event>
<event>
 7    1  0.2619826E-009  0.1336779E+03  0.7561462E-02  0.1222098E+00
          1   -1    0    0  501    0  0.00000000000E+00  0.00000000000E+00  0.25864311802E+03  0.25864311802E+03  0.00000000000E+00 0. -1.
         -1   -1    0    0    0  501 -0.00000000000E+00 -0.00000000000E+00 -0.81378080164E+02  0.81378080164E+02  0.00000000000E+00 0.  1.
         25    2    1    2    0    0  0.76049772885E+02  0.40053030066E+02  0.46916300929E+02  0.15885901064E+03  0.12508889957E+03 0.  0.
          5    1    3    3  502    0  0.68079856526E+02 -0.27807702702E+02 -0.36561575456E+01  0.73749407334E+02  0.41800000000E+01 0. -1.
         -5    1    3    3    0  502  0.79699163591E+01  0.67860732768E+02  0.50572458474E+02  0.85109603305E+02  0.41800000000E+01 0. -1.
        -11    1    1    2    0    0 -0.43206037057E+02  0.26739737843E+02  0.44528143301E+02  0.67561311147E+02  0.00000000000E+00 0. -1.
         11    1    1    2    0    0 -0.32843735827E+02 -0.66792767909E+02  0.85820593625E+02  0.11360087640E+03  0.00000000000E+00 0.  1.
</event>
<event>
 7    1  0.2619826E-009  0.1308355E+03  0.7561462E-02  0.1226221E+00
         -2   -1    0    0    0  501 -0.00000000000E+00  0.00000000000E+00  0.65781771864E+02  0.65781771864E+02  0.00000000000E+00 0.  1.
          2   -1    0    0  501    0  0.00000000000E+00 -0.00000000000E+00 -0.36101098655E+03  0.36101098655E+03  0.00000000000E+00 0. -1.
         25    2    1    2    0    0 -0.53895469524E+02 -0.89553732949E+02 -0.20149307467E+03  0.25917377565E+03  0.12508794556E+03 0.  0.
          5    1    3    3  502    0 -0.76241530352E+02 -0.75436788345E+02 -0.77664590204E+02  0.13248675767E+03  0.41800000000E+01 0.  1.
         -5    1    3    3    0  502  0.22346060828E+02 -0.14116944604E+02 -0.12382848446E+03  0.12668701798E+03  0.41800000000E+01 0.  1.
        -11    1    1    2    0    0  0.55327315162E+02  0.10146970809E+03 -0.10108778636E+03  0.15354463200E+03  0.00000000000E+00 0. -1.
         11    1    1    2    0    0 -0.14318456379E+01 -0.11915975143E+02  0.73516463459E+01  0.14074350768E+02  0.00000000000E+00 0.  1.
</event>
<event>
 6    1  0.2619826E-009  0.1350305E+03  0.7561462E-02  0.1220177E+00
         -1   -1    0    0    0  501 -0.00000000000E+00  0.00000000000E+00  0.30143810716E+02  0.30143810716E+02  0.00000000000E+00 0.  1.
          1   -1    0    0  501    0  0.00000000000E+00 -0.00000000000E+00 -0.82249556820E+03  0.82249556820E+03  0.00000000000E+00 0. -1.
          5    1    1    2  502    0 -0.17678134051E+02  0.18771467962E+02 -0.13689418772E+03  0.13936418286E+03  0.41800000000E+01 0. -1.
         -5    1    1    2    0  502  0.47740043811E+02 -0.12465494838E+03 -0.30889675201E+03  0.33653030137E+03  0.41800000000E+01 0. -1.
        -11    1    1    2    0    0 -0.52343297018E+01  0.32528163568E+02 -0.14894020250E+02  0.36156762463E+02  0.00000000000E+00 0.  1.
         11    1    1    2    0    0 -0.24827580058E+02  0.73355316853E+02 -0.33166679750E+03  0.34058813222E+03  0.00000000000E+00 0. -1.
</event>
<event>
 7    1  0.2619826E-009  0.2332937E+03  0.7561462E-02  0.1124343E+00
          2   -1    0    0  501    0  0.00000000000E+00  0.00000000000E+00  0.46602021407E+03  0.46602021407E+03  0.00000000000E+00 0. -1.
         -2   -1    0    0    0  501 -0.00000000000E+00 -0.00000000000E+00 -0.12054413242E+03  0.12054413242E+03  0.00000000000E+00 0.  1.
         25    2    1    2    0    0  0.21010775268E+03  0.12569409230E+02  0.18448021303E+03  0.30656686683E+03  0.12508811717E+03 0.  0.
          5    1    3    3  502    0  0.77843608377E+02 -0.52664406333E+02  0.96599741924E+02  0.13484120142E+03  0.41800000000E+01 0. -1.
         -5    1    3    3    0  502  0.13226414430E+03  0.65233815563E+02  0.87880471104E+02  0.17172566542E+03  0.41800000000E+01 0. -1.
        -11    1    1    2    0    0 -0.72846409155E+02  0.33510453463E+02  0.83527968829E+02  0.11578631782E+03  0.00000000000E+00 0.  1.
         11    1    1    2    0    0 -0.13726134353E+03 -0.46079862693E+02  0.77467899793E+02  0.16421116183E+03  0.00000000000E+00 0. -1.
</event>
<event>
 7    1  0.2619826E-009  0.1081599E+03  0.7561462E-02  0.1264016E+00
          2   -1    0    0  501    0  0.00000000000E+00  0.00000000000E+00  0.93764136239E+02  0.93764136239E+02  0.00000000000E+00 0. -1.
         -2   -1    0    0    0  501 -0.00000000000E+00 -0.00000000000E+00 -0.16593694773E+03  0.16593694773E+03  0.00000000000E+00 0.  1.
         25    2    1    2    0    0 -0.29474892554E+02 -0.42333518626E+02 -0.79237343852E+01  0.13553965217E+03  0.12508923076E+03 0.  0.
          5    1    3    3  502    0  0.30962919223E+02 -0.44314995410E+02 -0.39604289749E+02  0.67145315187E+02  0.41800000000E+01 0.  1.
         -5    1    3    3    0  502 -0.60437811777E+02  0.19814767838E+01  0.31680555364E+02  0.68394336979E+02  0.41800000000E+01 0.  1.
        -11    1    1    2    0    0 -0.22192274504E+02  0.44547225216E+02 -0.13188109303E+02  0.51486683220E+02  0.00000000000E+00 0.  1.
         11    1    1    2    0    0  0.51667167058E+02 -0.22137065894E+01 -0.51060967802E+02  0.72674748583E+02  0.00000000000E+00 0. -1.
</event>
<event>
 7    1  0.2619826E-009  0.1065846E+03  0.7561462E-02  0.1267029E+00
          1   -1    0    0  501    0  0.00000000000E+00  0.00000000000E+00  0.28582500075E+02  0.28582500075E+02  0.00000000000E+00 0. -1.
         -1   -1    0    0    0  501 -0.00000000000E+00 -0.00000000000E+00 -0.56547563455E+03  0.56547563455E+03  0.00000000000E+00 0.  1.
         25    2    1    2    0    0  0.36977727755E+00  0.64863383773E+02 -0.23303114636E+03  0.27232066594E+03  0.12509050578E+03 0.  0.
          5    1    3    3  502    0 -0.39641529336E+02  0.12904070679E+02 -0.14839200022E+02  0.44448173703E+02  0.41800000000E+01 0. -1.
         -5    1    3    3    0  502  0.40011306614E+02  0.51959313094E+02 -0.21819194634E+03  0.22787249224E+03  0.41800000000E+01 0. -1.
        -11    1    1    2    0    0  0.21427178884E+02 -0.77470024340E+02 -0.22286045940E+03  0.23691245858E+03  0.00000000000E+00 0.  1.
         11    1    1    2    0    0 -0.21796956162E+02  0.12606640566E+02 -0.81001528719E+02  0.84825010103E+02  0.00000000000E+00 0. -1.
</event>
<event>
 7    1  0.2619826E-009  0.1061439E+03  0.7561462E-02  0.1267882E+00
         -2   -1    0    0    0  501 -0.00000000000E+00  0.00000000000E+00  0.66492503666E+02  0.66492503666E+02  0.00000000000E+00 0.  1.
          2   -1    0    0  501    0  0.00000000000E+00 -0.00000000000E+00 -0.24832083541E+03  0.24832083541E+03  0.00000000000E+00 0. -1.
         25    2    1    2    0    0 -0.23409140888E+02  0.15961502164E+02 -0.17852769205E+03  0.21982460222E+03  0.12509181221E+03 0.  0.
          5    1    3    3  502    0  0.19611754666E+02  0.59649834239E+02 -0.63452244665E+02  0.89366567568E+02  0.41800000000E+01 0. -1.
         -5    1    3    3    0  502 -0.43020895554E+02 -0.43688332075E+02 -0.11507544739E+03  0.13045803465E+03  0.41800000000E+01 0. -1.
        -11    1    1    2    0    0 -0.31391471095E+02 -0.26269735853E+01  0.16059687849E+02  0.35358719173E+02  0.00000000000E+00 0.  1.
         11    1    1    2    0    0  0.54800611983E+02 -0.13334528579E+02 -0.19360327538E+02  0.59630017680E+02  0.00000000000E+00 0. -1.
</event>
<event>
 7    1  0.2619826E-009  0.1152227E+03  0.7561462E-02  0.1251193E+00
          2   -1    0    0  501    0  0.00000000000E+00  0.00000000000E+00  0.12645297878E+04  0.12645297878E+04  0.00000000000E+00 0. -1.
         -2   -1    0    0    0  501 -0.00000000000E+00 -0.00000000000E+00 -0.19164597880E+02  0.19164597880E+02  0.00000000000E+00 0.  1.
         25    2    1    2    0    0 -0.89644620027E+02 -0.16314751656E+02  0.90719555866E+03  0.92030052220E+03  0.12508773121E+03 0.  0.
          5    1    3    3  502    0 -0.93769219587E+02 -0.26295382705E+02  0.35944498228E+03  0.37242755185E+03  0.41800000000E+01 0.  1.
         -5    1    3    3    0  502  0.41245995595E+01  0.99806310483E+01  0.54775057638E+03  0.54787297035E+03  0.41800000000E+01 0.  1.
        -11    1    1    2    0    0  0.83659925289E+02  0.42984272464E+02  0.18217569076E+03  0.20502344520E+03  0.00000000000E+00 0. -1.
         11    1    1    2    0    0  0.59846947384E+01 -0.26669520807E+02  0.15599394051E+03  0.15837041829E+03  0.00000000000E+00 0.  1.
</event>
<event>
 7    1  0.2619826E-009  0.1123359E+03  0.7561462E-02  0.1256304E+00
          1   -1    0    0  501    0  0.00000000000E+00  0.00000000000E+00  0.55866074452E+02  0.55866074452E+02  0.00000000000E+00 0. -1.
         -1   -1    0    0    0  501 -0.00000000000E+00 -0.00000000000E+00 -0.34676530590E+03  0.34676530590E+03  0.00000000000E+00 0.  1.
         25    2    1    2    0    0 -0.51978455728E+01 -0.84948928685E+02 -0.18806441486E+03  0.24136711558E+03  0.12508605943E+03 0.  0.
          5    1    3    3  502    0  0.26761762409E+02 -0.21269188568E+02  0.56712621529E+01  0.34902806820E+02  0.41800000000E+01 0.  1.
         -5    1    3    3    0  502 -0.31959607982E+02 -0.63679740117E+02 -0.19373567702E+03  0.20646430876E+03  0.41800000000E+01 0.  1.
        -11    1    1    2    0    0  0.44000755835E+02  0.50413095259E+02 -0.34082818124E+02  0.75094508314E+02  0.00000000000E+00 0.  1.
         11    1    1    2    0    0 -0.38802910262E+02  0.34535833426E+02 -0.68751998460E+02  0.86169756455E+02  0.00000000000E+00 0. -1.
</event>
<event>
 7    1  0.2619826E-009  0.1124807E+03  0.7561462E-02  0.1256044E+00
         -1   -1    0    0    0  501 -0.00000000000E+00  0.00000000000E+00  0.24818547499E+03  0.24818547499E+03  0.00000000000E+00 0.  1.
          1   -1    0    0  501    0  0.00000000000E+00 -0.00000000000E+00 -0.10290810248E+03  0.10290810248E+03  0.00000000000E+00 0. -1.
         25    2    1    2    0    0 -0.85013241639E+02 -0.55559271392E+02  0.15364531416E+02  0.16184058866E+03  0.12506887471E+03 0.  0.
          5    1    3    3  502    0 -0.51949782875E+02 -0.36767554113E+02 -0.53376611255E+02  0.83169513677E+02  0.41800000000E+01 0.  1.
         -5    1    3    3    0  502 -0.33063458764E+02 -0.18791717279E+02  0.68741142671E+02  0.78671074986E+02  0.41800000000E+01 0.  1.
        -11    1    1    2    0    0  0.51698677816E+01  0.41533772488E+02  0.89214559329E+02  0.98544504597E+02  0.00000000000E+00 0.  1.
         11    1    1    2    0    0  0.79843373857E+02  0.14025498904E+02  0.40698281770E+02  0.90708484209E+02  0.00000000000E+00 0. -1.
</event>
<event>
 7    1  0.2619826E-009  0.1243509E+03  0.7561462E-02  0.1236087E+00
          2   -1    0    0  501    0  0.00000000000E+00  0.00000000000E+00  0.12791378290E+03  0.12791378290E+03  0.00000000000E+00 0. -1.
         -2   -1    0    0    0  501 -0.00000000000E+00 -0.00000000000E+00 -0.19411777081E+03  0.19411777081E+03  0.00000000000E+00 0.  1.
         25    2    1    2    0    0  0.60604684425E+02 -0.18552836053E+02 -0.13159722574E+03  0.19230949464E+03  0.12509187185E+03 0.  0.
          5    1    3    3  502    0  0.57586616359E+02  0.44878204916E+02 -0.91331307910E+02  0.11700064899E+03  0.41800000000E+01 0.  1.
         -5    1    3    3    0  502  0.30180680657E+01 -0.63431040969E+02 -0.40265917834E+02  0.75308845644E+02  0.41800000000E+01 0.  1.
        -11    1    1    2    0    0  0.24039473468E+02 -0.39192469828E+01  0.11996642083E+02  0.27150988984E+02  0.00000000000E+00 0.  1.
         11    1    1    2    0    0 -0.84644157893E+02  0.22472083036E+02  0.53396595753E+02  0.10257107009E+03  0.00000000000E+00 0. -1.
</event>
<event>
 7    1  0.2619826E-009  0.9653637E+02  0.7561462E-02  0.1287753E+00
          2   -1    0    0  501    0  0.00000000000E+00  0.00000000000E+00  0.17705514022E+04  0.17705514022E+04  0.00000000000E+00 0. -1.
         -2   -1    0    0    0  501 -0.00000000000E+00 -0.00000000000E+00 -0.25900085606E+02  0.25900085606E+02  0.00000000000E+00 0.  1.
         25    2    1    2    0    0  0.23239878964E+02 -0.19297873836E+02  0.16706665342E+04  0.16756158767E+04  0.12509755408E+03 0.  0.
          5    1    3    3  502    0  0.44871531447E+02 -0.45680856514E+02  0.45920238259E+03  0.46366420561E+03  0.41800000000E+01 0. -1.
         -5    1    3    3    0  502 -0.21631652483E+02  0.26382982678E+02  0.12114641516E+04  0.12119516711E+04  0.41800000000E+01 0. -1.
        -11    1    1    2    0    0  0.68414508111E+01 -0.33269413629E+02  0.18399669842E+02  0.38629097617E+02  0.00000000000E+00 0.  1.
         11    1    1    2    0    0 -0.30081329775E+02  0.52567287465E+02  0.55585112540E+02  0.82206513419E+02  0.00000000000E+00 0. -1.
</event>
<event>
 7    1  0.2619826E-009  0.9563492E+02  0.7561462E-02  0.1289752E+00
          2   -1    0    0  501    0  0.00000000000E+00  0.00000000000E+00  0.22225449958E+03  0.22225449958E+03  0.00000000000E+00 0.  1.
         -2   -1    0    0    0  501 -0.00000000000E+00 -0.00000000000E+00 -0.65305965854E+02  0.65305965854E+02  0.00000000000E+00 0. -1.
         25    2    1    2    0    0 -0.17805062995E+02  0.37624215385E+02  0.77984824118E+02  0.15316624885E+03  0.12508263326E+03 0.  0.
          5    1    3    3  502    0 -0.55488612503E+02  0.32315513906E+02  0.92108317972E+02  0.11235966000E+03  0.41800000000E+01 0.  1.
         -5    1    3    3    0  502  0.37683549508E+02  0.53087014791E+01 -0.14123493854E+02  0.40806588850E+02  0.41800000000E+01 0.  1.
        -11    1    1    2    0    0  0.12157826622E+02  0.23920777681E+02 -0.77315323239E+01  0.27924772964E+02  0.00000000000E+00 0. -1.
         11    1    1    2    0    0  0.56472363728E+01 -0.61544993066E+02  0.86695241934E+02  0.10646944362E+03  0.00000000000E+00 0.  1.
</event>
<event>
 7    1  0.2619826E-009  0.1487002E+03  0.7561462E-02  0.1202079E+00
         -4   -1    0    0    0  501 -0.00000000000E+00  0.00000000000E+00  0.12313339407E+03  0.12313339407E+03  0.00000000000E+00 0. -1.
          4   -1    0    0  501    0  0.00000000000E+00 -0.00000000000E+00 -0.25452710725E+03  0.25452710725E+03  0.00000000000E+00 0.  1.
         25    2    1    2    0    0  0.81263902550E+02  0.99128152234E+02 -0.10187640885E+02  0.17939162988E+03  0.12508939372E+03 0.  0.
          5    1    3    3  502    0 -0.10494602955E+02 -0.17192881020E+02  0.19372433183E+02  0.28257661198E+02  0.41800000000E+01 0. -1.
         -5    1    3    3    0  502  0.91758505505E+02  0.11632103325E+03 -0.29560074068E+02  0.15113396868E+03  0.41800000000E+01 0. -1.
        -11    1    1    2    0    0 -0.66314933721E+02 -0.73926005681E+02 -0.31947145627E+02  0.10432327096E+03  0.00000000000E+00 0. -1.
         11    1    1    2    0    0 -0.14948968829E+02 -0.25202146552E+02 -0.89258926664E+02  0.93945600477E+02  0.00000000000E+00 0.  1.
</event>
<event>
 7    1  0.2619826E-009  0.1636198E+03  0.7561462E-02  0.1184670E+00
          2   -1    0    0  501    0  0.00000000000E+00  0.00000000000E+00  0.18496146646E+04  0.18496146646E+04  0.00000000000E+00 0. -1.
         -2   -1    0    0    0  501 -0.00000000000E+00 -0.00000000000E+00 -0.34747599932E+02  0.34747599932E+02  0.00000000000E+00 0.  1.
         25    2    1    2    0    0  0.11599986291E+03 -0.54413322575E+02  0.16377372790E+04  0.16474978182E+04  0.12509551610E+03 0.  0.
          5    1    3    3  502    0  0.95148415931E+01  0.34537132954E+02  0.50511379979E+03  0.50639981132E+03  0.41800000000E+01 0. -1.
         -5    1    3    3    0  502  0.10648502131E+03 -0.88950455529E+02  0.11326234792E+04  0.11410980069E+04  0.41800000000E+01 0. -1.
        -11    1    1    2    0    0 -0.10291806085E+02  0.45081905885E+02  0.83006754663E+02  0.95018002665E+02  0.00000000000E+00 0.  1.
         11    1    1    2    0    0 -0.10570805682E+03  0.93314166897E+01  0.94123031058E+02  0.14184644370E+03  0.00000000000E+00 0. -1.
</event>
<event>
 7    1  0.2619826E-009  0.2721094E+03  0.7561462E-02  0.1100078E+00
         -2   -1    0    0    0  501 -0.00000000000E+00  0.00000000000E+00  0.95258544926E+03  0.95258544926E+03  0.00000000000E+00 0.  1.
          2   -1    0    0  501    0  0.00000000000E+00 -0.00000000000E+00 -0.10179835621E+03  0.10179835621E+03  0.00000000000E+00 0. -1.
         25    2    1    2    0    0 -0.14665912887E+03 -0.21122954656E+03  0.66536766178E+03  0.72421596735E+03  0.12509124913E+03 0.  0.
          5    1    3    3  502    0  0.10529497914E+02  0.91666173720E+01  0.46182474660E+02  0.48427167644E+02  0.41800000000E+01 0.  1.
         -5    1    3    3    0  502 -0.15718862678E+03 -0.22039616393E+03  0.61918518712E+03  0.67578879971E+03  0.41800000000E+01 0.  1.
        -11    1    1    2    0    0  0.24956929280E+02  0.58615462831E+02  0.42471712036E+01  0.63848721720E+02  0.00000000000E+00 0. -1.
         11    1    1    2    0    0  0.12170219959E+03  0.15261408373E+03  0.18117226007E+03  0.26631911639E+03  0.00000000000E+00 0.  1.
</event>
<event>
 7    1  0.2619826E-009  0.9663074E+02  0.7561462E-02  0.1287545E+00
          1   -1    0    0  501    0  0.00000000000E+00  0.00000000000E+00  0.82449633291E+02  0.82449633291E+02  0.00000000000E+00 0. -1.
         -1   -1    0    0    0  501 -0.00000000000E+00 -0.00000000000E+00 -0.27196120862E+03  0.27196120862E+03  0.00000000000E+00 0.  1.
         25    2    1    2    0    0  0.21450241387E+02  0.64811365720E+02 -0.19212574905E+03  0.23922171207E+03  0.12511633825E+03 0.  0.
          5    1    3    3  502    0  0.26809692269E+02  0.22475066883E+02  0.66661721370E+01  0.35858032321E+02  0.41800000000E+01 0.  1.
         -5    1    3    3    0  502 -0.53594508827E+01  0.42336298837E+02 -0.19879192118E+03  0.20336367975E+03  0.41800000000E+01 0.  1.
        -11    1    1    2    0    0  0.10145110450E+02  0.21209134744E+02 -0.57530874890E-01  0.23510720373E+02  0.00000000000E+00 0.  1.
         11    1    1    2    0    0 -0.31595351836E+02 -0.86020500464E+02  0.26717045895E+01  0.91678409471E+02  0.00000000000E+00 0. -1.
</event>
<event>
 7    1  0.2619826E-009  0.1133883E+03  0.7561462E-02  0.1254421E+00
          1   -1    0    0  501    0  0.00000000000E+00  0.00000000000E+00  0.21699002659E+03  0.21699002659E+03  0.00000000000E+00 0. -1.
         -1   -1    0    0    0  501 -0.00000000000E+00 -0.00000000000E+00 -0.65252081074E+02  0.65252081074E+02  0.00000000000E+00 0.  1.
         25    2    1    2    0    0 -0.27157979207E+02 -0.31689716969E+02  0.11553112099E+03  0.17529907177E+03  0.12506210716E+03 0.  0.
          5    1    3    3  502    0  0.45558704596E+02  0.52557031677E+01  0.21714531373E+02  0.50913762903E+02  0.41800000000E+01 0.  1.
         -5    1    3    3    0  502 -0.72716683803E+02 -0.36945420137E+02  0.93816589622E+02  0.12438530886E+03  0.41800000000E+01 0.  1.
        -11    1    1    2    0    0  0.58626783319E+02  0.69738436953E+01  0.30719932003E+02  0.66554101605E+02  0.00000000000E+00 0. -1.
         11    1    1    2    0    0 -0.31468804111E+02  0.24715873274E+02  0.54868925181E+01  0.40388934294E+02  0.00000000000E+00 0.  1.
</event>
<event>
 7    1  0.2619826E-009  0.9591576E+02  0.7561462E-02  0.1289127E+00
         -2   -1    0    0    0  501 -0.00000000000E+00  0.00000000000E+00  0.38006341871E+03  0.38006341871E+03  0.00000000000E+00 0.  1.
          2   -1    0    0  501    0  0.00000000000E+00 -0.00000000000E+00 -0.38595307071E+02  0.38595307071E+02  0.00000000000E+00 0. -1.
         25    2    1    2    0    0  0.25281002560E+02 -0.29645038810E+02  0.12263934588E+03  0.17946138688E+03  0.12509205733E+03 0.  0.
          5    1    3    3  502    0  0.15981508401E+02  0.43786149230E+02  0.83272659920E+02  0.95521954363E+02  0.41800000000E+01 0. -1.
         -5    1    3    3    0  502  0.92994941593E+01 -0.73431188040E+02  0.39366685960E+02  0.83939432521E+02  0.41800000000E+01 0. -1.
        -11    1    1    2    0    0 -0.35440143245E+02 -0.40810368943E+01  0.19101240568E+03  0.19431520203E+03  0.00000000000E+00 0.  1.
         11    1    1    2    0    0  0.10159140685E+02  0.33726075704E+02  0.27816360079E+02  0.44882136869E+02  0.00000000000E+00 0. -1.
</event>
<event>
 7    1  0.2619826E-009  0.1098830E+03  0.7561462E-02  0.1260787E+00
          1   -1    0    0  501    0  0.00000000000E+00  0.00000000000E+00  0.33363173147E+03  0.33363173147E+03  0.00000000000E+00 0. -1.
         -1   -1    0    0    0  501 -0.00000000000E+00 -0.00000000000E+00 -0.39290484189E+02  0.39290484189E+02  0.00000000000E+00 0.  1.
         25    2    1    2    0    0 -0.39848759855E+02 -0.34288688914E+01  0.18963525220E+03  0.23066998111E+03  0.12508968984E+03 0.  0.
          5    1    3    3  502    0 -0.14954951909E+02  0.58855655846E+02  0.64873372629E+02  0.88958786457E+02  0.41800000000E+01 0. -1.
         -5    1    3    3    0  502 -0.24893807946E+02 -0.62284524737E+02  0.12476187957E+03  0.14171119466E+03  0.41800000000E+01 0. -1.
        -11    1    1    2    0    0  0.56933139174E+02 -0.22017089931E+02  0.47473024756E+02  0.77329313102E+02  0.00000000000E+00 0.  1.
         11    1    1    2    0    0 -0.17084379319E+02  0.25445958823E+02  0.57232970316E+02  0.64922921440E+02  0.00000000000E+00 0. -1.
</event>
<event>
 7    1  0.2619826E-009  0.1079400E+03  0.7561462E-02  0.1264433E+00
         -2   -1    0    0    0  501 -0.00000000000E+00  0.00000000000E+00  0.39583096715E+03  0.39583096715E+03  0.00000000000E+00 0.  1.
          2   -1    0    0  501    0  0.00000000000E+00 -0.00000000000E+00 -0.39229422848E+02  0.39229422848E+02  0.00000000000E+00 0. -1.
         25    2    1    2    0    0 -0.30190332390E+02 -0.24645947848E+02  0.11451230901E+03  0.17400777766E+03  0.12508700514E+03 0.  0.
          5    1    3    3  502    0 -0.66729827448E+02  0.23108792791E+02  0.62137026019E+02  0.94156086250E+02  0.41800000000E+01 0. -1.
         -5    1    3    3    0  502  0.36539495057E+02 -0.47754740639E+02  0.52375282991E+02  0.79851691409E+02  0.41800000000E+01 0. -1.
        -11    1    1    2    0    0  0.39614816640E+02  0.46486196058E+02  0.22092921702E+03  0.22921609685E+03  0.00000000000E+00 0.  1.
         11    1    1    2    0    0 -0.94244842500E+01 -0.21840248210E+02  0.21160018269E+02  0.31836515488E+02  0.00000000000E+00 0. -1.
</event>
<event>
 7    1  0.2619826E-009  0.1977057E+03  0.7561462E-02  0.1151689E+00
          1   -1    0    0  501    0  0.00000000000E+00  0.00000000000E+00  0.24036378833E+03  0.24036378833E+03  0.00000000000E+00 0. -1.
         -1   -1    0    0    0  501 -0.00000000000E+00 -0.00000000000E+00 -0.29654726865E+03  0.29654726865E+03  0.00000000000E+00 0.  1.
         25    2    1    2    0    0 -0.24947762099E+02  0.16942747196E+03  0.14553230393E+03  0.25720821362E+03  0.12509338343E+03 0.  0.
          5    1    3    3  502    0 -0.39094101687E+02  0.18227405684E+03  0.14721511489E+03  0.23757513135E+03  0.41800000000E+01 0.  1.
         -5    1    3    3    0  502  0.14146339587E+02 -0.12846584882E+02 -0.16828109557E+01  0.19633082274E+02  0.41800000000E+01 0.  1.
        -11    1    1    2    0    0 -0.29629496084E+02 -0.50918030936E+02 -0.36974877749E+02  0.69553536913E+02  0.00000000000E+00 0.  1.
         11    1    1    2    0    0  0.54577258183E+02 -0.11850944103E+03 -0.16474090651E+03  0.21014930645E+03  0.00000000000E+00 0. -1.
</event>
<event>
 7    1  0.2619826E-009  0.1142836E+03  0.7561462E-02  0.1252837E+00
          1   -1    0    0  501    0  0.00000000000E+00  0.00000000000E+00  0.82068900288E+03  0.82068900288E+03  0.00000000000E+00 0. -1.
         -1   -1    0    0    0  501 -0.00000000000E+00 -0.00000000000E+00 -0.19991130885E+02  0.19991130885E+02  0.00000000000E+00 0.  1.
         25    2    1    2    0    0 -0.38685581636E+02 -0.53904434619E+02  0.47315904759E+03  0.49388715973E+03  0.12507109951E+03 0.  0.
          5    1    3    3  502    0 -0.15400171450E+02 -0.92095711227E+02  0.36481493858E+03  0.37659819054E+03  0.41800000000E+01 0.  1.
         -5    1    3    3    0  502 -0.23285410185E+02  0.38191276608E+02  0.10834410900E+03  0.11728896918E+03  0.41800000000E+01 0.  1.
        -11    1    1    2    0    0 -0.16715148473E+02  0.15197129491E+02  0.15205816112E+02  0.27231705361E+02  0.00000000000E+00 0.  1.
         11    1    1    2    0    0  0.55400730109E+02  0.38707305128E+02  0.31233300830E+03  0.31956126868E+03  0.00000000000E+00 0. -1.
</event>
<event>
 7    1  0.2619826E-009  0.8681265E+02  0.7561462E-02  0.1310759E+00
         -3   -1    0    0    0  501 -0.00000000000E+00  0.00000000000E+00  0.59072140894E+02  0.59072140894E+02  0.00000000000E+00 0.  1.
          3   -1    0    0  501    0  0.00000000000E+00 -0.00000000000E+00 -0.22914269560E+03  0.22914269560E+03  0.00000000000E+00 0. -1.
         25    2    1    2    0    0  0.52722037976E+01 -0.38696360872E+02 -0.11139524974E+03  0.17199319478E+03  0.12509017911E+03 0.  0.
          5    1    3    3  502    0  0.25435802648E+02 -0.55733701509E+02 -0.12698447689E+03  0.14105231409E+03  0.41800000000E+01 0. -1.
         -5    1    3    3    0  502 -0.20163598851E+02  0.17037340637E+02  0.15589227151E+02  0.30940880688E+02  0.41800000000E+01 0. -1.
        -11    1    1    2    0    0 -0.30605339180E+02  0.49301997820E+02 -0.79934151097E+01  0.58577030144E+02  0.00000000000E+00 0.  1.
         11    1    1    2    0    0  0.25333135383E+02 -0.10605636948E+02 -0.50681889860E+02  0.57644611571E+02  0.00000000000E+00 0. -1.
</event>
<event>
 7    1  0.2619826E-009  0.1785437E+03  0.7561462E-02  0.1169220E+00
          1   -1    0    0  501    0  0.00000000000E+00  0.00000000000E+00  0.59159334998E+03  0.59159334998E+03  0.00000000000E+00 0. -1.
         -1   -1    0    0    0  501 -0.00000000000E+00 -0.00000000000E+00 -0.62707489543E+02  0.62707489543E+02  0.00000000000E+00 0.  1.
         25    2    1    2    0    0  0.15452730338E+03 -0.25624253021E+02  0.31106370923E+03  0.37005890221E+03  0.12509064742E+03 0.  0.
          5    1    3    3  502    0  0.12850477377E+03  0.35107614160E+02  0.19016463111E+03  0.23221989746E+03  0.41800000000E+01 0. -1.
         -5    1    3    3    0  502  0.26022529608E+02 -0.60731867181E+02  0.12089907813E+03  0.13783900475E+03  0.41800000000E+01 0. -1.
        -11    1    1    2    0    0 -0.54658973365E+02  0.17558445183E+02  0.17099817671E+02  0.59902471827E+02  0.00000000000E+00 0.  1.
         11    1    1    2    0    0 -0.99868330011E+02  0.80658078372E+01  0.20072233353E+03  0.22433946548E+03  0.00000000000E+00 0. -1.
</event>
<event>
 7    1  0.2619826E-009  0.1327532E+03  0.7561462E-02  0.1223427E+00
          1   -1    0    0  501    0  0.00000000000E+00  0.00000000000E+00  0.16947459617E+03  0.16947459617E+03  0.00000000000E+00 0. -1.
         -1   -1    0    0    0  501 -0.00000000000E+00 -0.00000000000E+00 -0.11887574595E+03  0.11887574595E+03  0.00000000000E+00 0.  1.
         25    2    1    2    0    0  0.68486683178E+02 -0.12061786208E+02 -0.23299532734E+02  0.14500536216E+03  0.12509106431E+03 0.  0.
          5    1    3    3  502    0  0.42700353520E+02 -0.68557135146E+02 -0.13635140487E+02  0.82017013029E+02  0.41800000000E+01 0.  1.
         -5    1    3    3    0  502  0.25786329658E+02  0.56495348938E+02 -0.96643922473E+01  0.62988349132E+02  0.41800000000E+01 0.  1.
        -11    1    1    2    0    0 -0.61055520068E+02  0.52957663889E+02  0.42971300686E+02  0.91535913051E+02  0.00000000000E+00 0.  1.
         11    1    1    2    0    0 -0.74311631096E+01 -0.40895877681E+02  0.30927082261E+02  0.51809066906E+02  0.00000000000E+00 0. -1.
</event>
<event>
 7    1  0.2619826E-009  0.1221442E+03  0.7561462E-02  0.1239601E+00
          1   -1    0    0  501    0  0.00000000000E+00  0.00000000000E+00  0.11474032514E+03  0.11474032514E+03  0.00000000000E+00 0. -1.
         -1   -1    0    0    0  501 -0.00000000000E+00 -0.00000000000E+00 -0.15961927218E+03  0.15961927218E+03  0.00000000000E+00 0.  1.
         25    2    1    2    0    0 -0.59355299245E+02 -0.35163600601E+02 -0.62343165053E+02  0.15586462609E+03  0.12509029171E+03 0.  0.
          5    1    3    3  502    0 -0.67712372783E+01 -0.74479840469E+02 -0.46602901834E+02  0.88217907196E+02  0.41800000000E+01 0.  1.
         -5    1    3    3    0  502 -0.52584061967E+02  0.39316239868E+02 -0.15740263219E+02  0.67646718890E+02  0.41800000000E+01 0.  1.
        -11    1    1    2    0    0 -0.18444829354E+02  0.13429058668E+02  0.28996989515E+02  0.36896839263E+02  0.00000000000E+00 0. -1.
         11    1    1    2    0    0  0.77800128599E+02  0.21734541933E+02 -0.11532771495E+02  0.81598131973E+02  0.00000000000E+00 0.  1.
</event>
<event>
 7    1  0.2619826E-009  0.1563428E+03  0.7561462E-02  0.1192889E+00
         -2   -1    0    0    0  501 -0.00000000000E+00  0.00000000000E+00  0.26085134381E+03  0.26085134381E+03  0.00000000000E+00 0.  1.
          2   -1    0    0  501    0  0.00000000000E+00 -0.00000000000E+00 -0.10094001510E+03  0.10094001510E+03  0.00000000000E+00 0. -1.
         25    2    1    2    0    0 -0.11572585204E+03 -0.65231176272E+01  0.12150926337E+03  0.20939583054E+03  0.12508832427E+03 0.  0.
          5    1    3    3  502    0  0.65638483754E+01  0.38426000680E+02  0.37905017961E+02  0.54533516486E+02  0.41800000000E+01 0.  1.
         -5    1    3    3    0  502 -0.12228970041E+03 -0.44949118307E+02  0.83604245409E+02  0.15486231405E+03  0.41800000000E+01 0.  1.
        -11    1    1    2    0    0  0.32003249803E+02 -0.36871412855E+02 -0.40281518714E+01  0.48989132380E+02  0.00000000000E+00 0. -1.
         11    1    1    2    0    0  0.83722602235E+02  0.43394530482E+02  0.42430217210E+02  0.10340639600E+03  0.00000000000E+00 0.  1.
</event>
<event>
 7    1  0.2619826E-009  0.2961805E+03  0.7561462E-02  0.1087166E+00
         -1   -1    0    0    0  501 -0.00000000000E+00  0.00000000000E+00  0.12479736262E+03  0.12479736262E+03  0.00000000000E+00 0.  1.
          1   -1    0    0  501    0  0.00000000000E+00 -0.00000000000E+00 -0.90117977720E+03  0.90117977720E+03  0.00000000000E+00 0. -1.
         25    2    1    2    0    0  0.10883399629E+03  0.26312901017E+03 -0.60784421448E+03  0.68279146911E+03  0.12509151238E+03 0.  0.
          5    1    3    3  502    0  0.12591107898E+03  0.17193844932E+03 -0.36339634614E+03  0.42129657838E+03  0.41800000000E+01 0.  1.
         -5    1    3    3    0  502 -0.17077082697E+02  0.91190560844E+02 -0.24444786835E+03  0.26149489073E+03  0.41800000000E+01 0.  1.
        -11    1    1    2    0    0 -0.59980115869E+02 -0.18207756885E+03 -0.15711808932E+03  0.24786276318E+03  0.00000000000E+00 0.  1.
         11    1    1    2    0    0 -0.48853880416E+02 -0.81051441317E+02 -0.11420110783E+02  0.95322907538E+02  0.00000000000E+00 0. -1.
</event>
<event>
 7    1  0.2619826E-009  0.1265170E+03  0.7561462E-02  0.1232717E+00
         -1   -1    0    0    0  501 -0.00000000000E+00  0.00000000000E+00  0.89566765560E+02  0.89566765560E+02  0.00000000000E+00 0.  1.
          1   -1    0    0  501    0  0.00000000000E+00 -0.00000000000E+00 -0.21847133300E+03  0.21847133300E+03  0.00000000000E+00 0. -1.
         25    2    1    2    0    0 -0.79105515799E+02 -0.22210953125E+02 -0.33181344532E+02  0.15329452059E+03  0.12508876588E+03 0.  0.
          5    1    3    3  502    0 -0.85264915869E+02 -0.64303009538E+02 -0.22112557708E+02  0.10913945447E+03  0.41800000000E+01 0. -1.
         -5    1    3    3    0  502  0.61594000699E+01  0.42092056413E+02 -0.11068786823E+02  0.44155066120E+02  0.41800000000E+01 0. -1.
        -11    1    1    2    0    0  0.12806292477E+02  0.33767218007E+02  0.19081077593E+01  0.36164444060E+02  0.00000000000E+00 0.  1.
         11    1    1    2    0    0  0.66299223322E+02 -0.11556264881E+02 -0.97631330671E+02  0.11857913391E+03  0.00000000000E+00 0. -1.
</event>
<event>
 7    1  0.2619826E-009  0.2079371E+03  0.7561462E-02  0.1143210E+00
          1   -1    0    0  501    0  0.00000000000E+00  0.00000000000E+00  0.76528085244E+02  0.76528085244E+02  0.00000000000E+00 0. -1.
         -1   -1    0    0    0  501 -0.00000000000E+00 -0.00000000000E+00 -0.77852777141E+03  0.77852777141E+03  0.00000000000E+00 0.  1.
         25    2    1    2    0    0  0.17992957477E+03 -0.77203794155E+02 -0.52210542629E+03  0.57146714288E+03  0.12508213910E+03 0.  0.
          5    1    3    3  502    0  0.55545817427E+02 -0.31988365650E+02 -0.34168786852E+03  0.34767321620E+03  0.41800000000E+01 0.  1.
         -5    1    3    3    0  502  0.12438375735E+03 -0.45215428505E+02 -0.18041755777E+03  0.22379392668E+03  0.41800000000E+01 0.  1.
        -11    1    1    2    0    0 -0.70159777272E+02  0.83759398470E+02 -0.89316965101E+02  0.14112246963E+03  0.00000000000E+00 0. -1.
         11    1    1    2    0    0 -0.10976979750E+03 -0.65556043149E+01 -0.90577294772E+02  0.14246624414E+03  0.00000000000E+00 0.  1.
</event>
<event>
 7    1  0.2619826E-009  0.1539809E+03  0.7561462E-02  0.1195665E+00
          2   -1    0    0  501    0  0.00000000000E+00  0.00000000000E+00  0.28592749427E+02  0.28592749427E+02  0.00000000000E+00 0.  1.
         -2   -1    0    0    0  501 -0.00000000000E+00 -0.00000000000E+00 -0.11762954694E+04  0.11762954694E+04  0.00000000000E+00 0. -1.
         25    2    1    2    0    0 -0.11289259859E+03  0.53864563233E+02 -0.86091654923E+03  0.87890278461E+03  0.12508665027E+03 0.  0.
          5    1    3    3  502    0 -0.10018263300E+03  0.84047975916E+02 -0.78893952787E+03  0.79971474492E+03  0.41800000000E+01 0.  1.
         -5    1    3    3    0  502 -0.12709965582E+02 -0.30183412683E+02 -0.71977021360E+02  0.79188039691E+02  0.41800000000E+01 0.  1.
        -11    1    1    2    0    0  0.28008783926E+02 -0.52165216679E+02 -0.18043890856E+03  0.18990498027E+03  0.00000000000E+00 0. -1.
         11    1    1    2    0    0  0.84883814661E+02 -0.16993465537E+01 -0.10634726215E+03  0.13608045391E+03  0.00000000000E+00 0.  1.
</event>
<event>
 7    1  0.2619826E-009  0.1196596E+03  0.7561462E-02  0.1243660E+00
          1   -1    0    0  501    0  0.00000000000E+00  0.00000000000E+00  0.23831463298E+03  0.23831463298E+03  0.00000000000E+00 0. -1.
         -1   -1    0    0    0  501 -0.00000000000E+00 -0.00000000000E+00 -0.81345652253E+02  0.81345652253E+02  0.00000000000E+00 0.  1.
         25    2    1    2    0    0  0.48824565572E+02 -0.25193464063E+02  0.95080416237E+01  0.13695289232E+03  0.12508854073E+03 0.  0.
          5    1    3    3  502    0  0.23119220853E+02 -0.73281742055E+02 -0.12572613250E+02  0.77975990506E+02  0.41800000000E+01 0.  1.
         -5    1    3    3    0  502  0.25705344719E+02  0.48088277992E+02  0.22080654874E+02  0.58976901809E+02  0.41800000000E+01 0.  1.
        -11    1    1    2    0    0  0.14212819625E+02  0.40402717004E+02  0.64156748588E+02  0.77139303681E+02  0.00000000000E+00 0.  1.
         11    1    1    2    0    0 -0.63037385197E+02 -0.15209252941E+02  0.83304190511E+02  0.10556808923E+03  0.00000000000E+00 0. -1.
</event>
<event>
 7    1  0.2619826E-009  0.1030317E+03  0.7561462E-02  0.1274047E+00
          1   -1    0    0  501    0  0.00000000000E+00  0.00000000000E+00  0.38002388271E+03  0.38002388271E+03  0.00000000000E+00 0. -1.
         -1   -1    0    0    0  501 -0.00000000000E+00 -0.00000000000E+00 -0.51883087134E+02  0.51883087134E+02  0.00000000000E+00 0.  1.
         25    2    1    2    0    0  0.18355791287E+02 -0.33536341466E+01  0.47517329019E+02  0.13511601822E+03  0.12510099874E+03 0.  0.
          5    1    3    3  502    0 -0.40809602583E+02 -0.38675042340E+02  0.30134637701E+02  0.63927704107E+02  0.41800000000E+01 0. -1.
         -5    1    3    3    0  502  0.59165393870E+02  0.35321408193E+02  0.17382691318E+02  0.71188314111E+02  0.41800000000E+01 0. -1.
        -11    1    1    2    0    0 -0.42499504948E+02  0.24065420709E+02  0.24139300859E+03  0.24628426054E+03  0.00000000000E+00 0. -1.
         11    1    1    2    0    0  0.24143713661E+02 -0.20711786563E+02  0.39230457973E+02  0.50506691089E+02  0.00000000000E+00 0.  1.
</event>
<event>
 7    1  0.2619826E-009  0.1356647E+03  0.7561462E-02  0.1219284E+00
         -1   -1    0    0    0  501 -0.00000000000E+00  0.00000000000E+00  0.17028798945E+02  0.17028798945E+02  0.00000000000E+00 0.  1.
          1   -1    0    0  501    0  0.00000000000E+00 -0.00000000000E+00 -0.12370898220E+04  0.12370898220E+04  0.00000000000E+00 0. -1.
         25    2    1    2    0    0  0.68292817338E+02  0.58670603900E+02 -0.53828120878E+03  0.55991138403E+03  0.12509176464E+03 0.  0.
          5    1    3    3  502    0  0.39767125387E+02 -0.28441914267E+02 -0.31031857702E+03  0.31417424846E+03  0.41800000000E+01 0.  1.
         -5    1    3    3    0  502  0.28525691950E+02  0.87112518167E+02 -0.22796263175E+03  0.24573713557E+03  0.41800000000E+01 0.  1.
        -11    1    1    2    0    0 -0.75214260687E+02 -0.39226394130E+01 -0.37137551662E+03  0.37893580783E+03  0.00000000000E+00 0.  1.
         11    1    1    2    0    0  0.69214433495E+01 -0.54747964487E+02 -0.31040429765E+03  0.31527142907E+03  0.00000000000E+00 0. -1.
</event>
<event>
 7    1  0.2619826E-009  0.1651577E+03  0.7561462E-02  0.1182994E+00
          1   -1    0    0  501    0  0.00000000000E+00  0.00000000000E+00  0.70942620254E+03  0.70942620254E+03  0.00000000000E+00 0. -1.
         -1   -1    0    0    0  501 -0.00000000000E+00 -0.00000000000E+00 -0.42321460288E+02  0.42321460288E+02  0.00000000000E+00 0.  1.
         25    2    1    2    0    0  0.51889122687E+02  0.12462890972E+03  0.35849752116E+03  0.40298090984E+03  0.12509314461E+03 0.  0.
          5    1    3    3  502    0 -0.38728898503E+02  0.54077931080E+02  0.10105710273E+03  0.12105519659E+03  0.41800000000E+01 0.  1.
         -5    1    3    3    0  502  0.90618021190E+02  0.70550978643E+02  0.25744041842E+03  0.28192571325E+03  0.41800000000E+01 0.  1.
        -11    1    1    2    0    0 -0.65124211707E+02 -0.85735265195E+02  0.14818885801E+03  0.18317105745E+03  0.00000000000E+00 0.  1.
         11    1    1    2    0    0  0.13235089020E+02 -0.38893644528E+02  0.16041836309E+03  0.16559569554E+03  0.00000000000E+00 0. -1.
</event>
<event>
 7    1  0.2619826E-009  0.1261623E+03  0.7561462E-02  0.1233264E+00
         -1   -1    0    0    0  501 -0.00000000000E+00  0.00000000000E+00  0.46500460267E+02  0.46500460267E+02  0.00000000000E+00 0.  1.
          1   -1    0    0  501    0  0.00000000000E+00 -0.00000000000E+00 -0.34403166834E+03  0.34403166834E+03  0.00000000000E+00 0. -1.
         25    2    1    2    0    0 -0.13061944202E+02 -0.63867090614E+02 -0.17474120890E+03  0.22456755798E+03  0.12508588393E+03 0.  0.
          5    1    3    3  502    0 -0.39626372864E+02 -0.93113370553E+02 -0.12300589238E+03  0.15933697362E+03  0.41800000000E+01 0. -1.
         -5    1    3    3    0  502  0.26564428662E+02  0.29246279938E+02 -0.51735316525E+02  0.65230584363E+02  0.41800000000E+01 0. -1.
        -11    1    1    2    0    0 -0.59836819877E+00 -0.23186758205E+02 -0.31080569881E+02  0.38781253522E+02  0.00000000000E+00 0. -1.
         11    1    1    2    0    0  0.13660312401E+02  0.87053848819E+02 -0.91709429287E+02  0.12718331710E+03  0.00000000000E+00 0.  1.
</event>
<event>
 7    1  0.2619826E-009  0.9993463E+02  0.7561462E-02  0.1280433E+00
          3   -1    0    0  501    0  0.00000000000E+00  0.00000000000E+00  0.35286662839E+02  0.35286662839E+02  0.00000000000E+00 0. -1.
         -3   -1    0    0    0  501 -0.00000000000E+00 -0.00000000000E+00 -0.36207521668E+03  0.36207521668E+03  0.00000000000E+00 0.  1.
         25    2    1    2    0    0  0.88488343639E+01 -0.30475273862E+02 -0.19446545834E+03  0.23338994044E+03  0.12508799153E+03 0.  0.
          5    1    3    3  502    0 -0.44897143916E+01 -0.66901944124E+02 -0.17939814995E+03  0.19156512279E+03  0.41800000000E+01 0. -1.
         -5    1    3    3    0  502  0.13338548755E+02  0.36426670263E+02 -0.15067308384E+02  0.41824817648E+02  0.41800000000E+01 0. -1.
        -11    1    1    2    0    0 -0.41912763687E+02 -0.82844512185E+01 -0.81447551465E+02  0.91972906508E+02  0.00000000000E+00 0.  1.
         11    1    1    2    0    0  0.33063929323E+02  0.38759725080E+02 -0.50875544044E+02  0.71999032579E+02  0.00000000000E+00 0. -1.
</event>
<event>
 7    1  0.2619826E-009  0.1239019E+03  0.7561462E-02  0.1236795E+00
          1   -1    0    0  501    0  0.00000000000E+00  0.00000000000E+00  0.13754013350E+03  0.13754013350E+03  0.00000000000E+00 0. -1.
         -1   -1    0    0    0  501 -0.00000000000E+00 -0.00000000000E+00 -0.13713128079E+03  0.13713128079E+03  0.00000000000E+00 0.  1.
         25    2    1    2    0    0 -0.59792161878E+02  0.17005276692E+02  0.57778713231E+02  0.15116216183E+03  0.12508931772E+03 0.  0.
          5    1    3    3  502    0 -0.96426377240E+02  0.29058134822E+02  0.44212508872E+02  0.11006652428E+03  0.41800000000E+01 0.  1.
         -5    1    3    3    0  502  0.36634215362E+02 -0.12052858130E+02  0.13566204360E+02  0.41095637543E+02  0.41800000000E+01 0.  1.
        -11    1    1    2    0    0  0.82464655516E+02 -0.21228563902E+02 -0.52183294986E+02  0.99870754530E+02  0.00000000000E+00 0.  1.
         11    1    1    2    0    0 -0.22672493638E+02  0.42232872100E+01 -0.51865655350E+01  0.23638497936E+02  0.00000000000E+00 0. -1.
</event>
<event>
 7    1  0.2619826E-009  0.7307433E+02  0.7561462E-02  0.1349940E+00
          1   -1    0    0  501    0  0.00000000000E+00  0.00000000000E+00  0.97093153859E+03  0.97093153859E+03  0.00000000000E+00 0. -1.
         -1   -1    0    0    0  501 -0.00000000000E+00 -0.00000000000E+00 -0.97942665792E+01  0.97942665792E+01  0.00000000000E+00 0.  1.
         25    2    1    2    0    0  0.12082183569E+02 -0.34513577253E+01  0.89431668655E+03  0.90311017041E+03  0.12509097896E+03 0.  0.
          5    1    3    3  502    0 -0.30542807659E+02 -0.42338887892E+02  0.64706510075E+03  0.64918114693E+03  0.41800000000E+01 0. -1.
         -5    1    3    3    0  502  0.42624991228E+02  0.38887530167E+02  0.24725158580E+03  0.25392902347E+03  0.41800000000E+01 0. -1.
        -11    1    1    2    0    0 -0.15478253100E+02 -0.12326449826E+02  0.20182277895E+02  0.28263793542E+02  0.00000000000E+00 0.  1.
         11    1    1    2    0    0  0.33960695313E+01  0.15777807552E+02  0.46638307561E+02  0.49351841217E+02  0.00000000000E+00 0. -1.
</event>
<event>
 7    1  0.2619826E-009  0.1305794E+03  0.7561462E-02  0.1226598E+00
          1   -1    0    0  501    0  0.00000000000E+00  0.00000000000E+00  0.12110981354E+03  0.12110981354E+03  0.00000000000E+00 0. -1.
         -1   -1    0    0    0  501 -0.00000000000E+00 -0.00000000000E+00 -0.20582896433E+03  0.20582896433E+03  0.00000000000E+00 0.  1.
         25    2    1    2    0    0 -0.11115525468E+03  0.46154178355E+01 -0.74595268178E+02  0.18327274729E+03  0.12509057974E+03 0.  0.
          5    1    3    3  502    0 -0.10042596266E+03 -0.35146330568E+02 -0.89680154489E+02  0.13921437080E+03  0.41800000000E+01 0.  1.
         -5    1    3    3    0  502 -0.10729292019E+02  0.39761748404E+02  0.15084886311E+02  0.44058376483E+02  0.41800000000E+01 0.  1.
        -11    1    1    2    0    0  0.86279331300E+02  0.54418055209E+01  0.33282279113E+02  0.92636096419E+02  0.00000000000E+00 0. -1.
         11    1    1    2    0    0  0.24875923379E+02 -0.10057223356E+02 -0.43406161727E+02  0.51029934171E+02  0.00000000000E+00 0.  1.
</event>
<event>
 7    1  0.2619826E-009  0.2567691E+03  0.7561462E-02  0.1109100E+00
          1   -1    0    0  501    0  0.00000000000E+00  0.00000000000E+00  0.20141474978E+03  0.20141474978E+03  0.00000000000E+00 0. -1.
         -1   -1    0    0    0  501 -0.00000000000E+00 -0.00000000000E+00 -0.36947677274E+03  0.36947677274E+03  0.00000000000E+00 0.  1.
         25    2    1    2    0    0  0.19539562802E+03 -0.15532866378E+03 -0.69557101230E+02  0.28773561475E+03  0.12508856230E+03 0.  0.
          5    1    3    3  502    0  0.18513584504E+03 -0.16578679929E+03 -0.88129847493E+02  0.26371364462E+03  0.41800000000E+01 0.  1.
         -5    1    3    3    0  502  0.10259782982E+02  0.10458135508E+02  0.18572746263E+02  0.24021970129E+02  0.41800000000E+01 0.  1.
        -11    1    1    2    0    0 -0.12120226807E+03  0.91157107810E+02 -0.10560742051E+03  0.18480404583E+03  0.00000000000E+00 0.  1.
         11    1    1    2    0    0 -0.74193359958E+02  0.64171555972E+02  0.71024987823E+01  0.98351861938E+02  0.00000000000E+00 0. -1.
</event>
<event>
 7    1  0.2619826E-009  0.8335578E+02  0.7561462E-02  0.1319789E+00
         -1   -1    0    0    0  501 -0.00000000000E+00  0.00000000000E+00  0.90995593570E+03  0.90995593570E+03  0.00000000000E+00 0.  1.
          1   -1    0    0  501    0  0.00000000000E+00 -0.00000000000E+00 -0.15769383030E+02  0.15769383030E+02  0.00000000000E+00 0. -1.
         25    2    1    2    0    0  0.25836748178E+01  0.84955951479E+00  0.70687739656E+03  0.71786511454E+03  0.12508905542E+03 0.  0.
          5    1    3    3  502    0  0.36098366601E+02  0.16233034957E+02  0.75065417945E+02  0.84964068090E+02  0.41800000000E+01 0.  1.
         -5    1    3    3    0  502 -0.33514691783E+02 -0.15383475442E+02  0.63181197861E+03  0.63290104645E+03  0.41800000000E+01 0.  1.
        -11    1    1    2    0    0 -0.21547973476E+02 -0.40483478565E+02  0.86910595842E+02  0.98268402181E+02  0.00000000000E+00 0. -1.
         11    1    1    2    0    0  0.18964298658E+02  0.39633919050E+02  0.10039856027E+03  0.10959180201E+03  0.00000000000E+00 0.  1.
</event>
<event>
 7    1  0.2619826E-009  0.7421733E+02  0.7561462E-02  0.1346312E+00
         -1   -1    0    0    0  501 -0.00000000000E+00  0.00000000000E+00  0.32012908919E+02  0.32012908919E+02  0.00000000000E+00 0.  1.
          1   -1    0    0  501    0  0.00000000000E+00 -0.00000000000E+00 -0.69680772562E+03  0.69680772562E+03  0.00000000000E+00 0. -1.
         25    2    1    2    0    0 -0.18407972980E+02 -0.69797011509E+02 -0.53184258961E+03  0.55110270002E+03  0.12508864681E+03 0.  0.
          5    1    3    3  502    0 -0.65305733215E+01 -0.43083131966E+02 -0.51548926868E+03  0.51734462709E+03  0.41800000000E+01 0.  1.
         -5    1    3    3    0  502 -0.11877399659E+02 -0.26713879544E+02 -0.16353320929E+02  0.33758072936E+02  0.41800000000E+01 0.  1.
        -11    1    1    2    0    0  0.79149993012E+00  0.43304522858E+02 -0.13877300209E+03  0.14537487500E+03  0.00000000000E+00 0. -1.
         11    1    1    2    0    0  0.17616473050E+02  0.26492488651E+02  0.58207749970E+01  0.32343059522E+02  0.00000000000E+00 0.  1.
</event>
<event>
 7    1  0.2619826E-009  0.1082487E+03  0.7561462E-02  0.1263848E+00
          2   -1    0    0  501    0  0.00000000000E+00  0.00000000000E+00  0.69242106042E+03  0.69242106042E+03  0.00000000000E+00 0.  1.
         -2   -1    0    0    0  501 -0.00000000000E+00 -0.00000000000E+00 -0.20420460361E+02  0.20420460361E+02  0.00000000000E+00 0. -1.
         25    2    1    2    0    0  0.20514996040E+02 -0.40034117615E+01  0.50987564424E+03  0.52541190446E+03  0.12509038486E+03 0.  0.
          5    1    3    3  502    0  0.14152239059E+02 -0.63736844802E+02  0.22950347512E+03  0.23864615804E+03  0.41800000000E+01 0. -1.
         -5    1    3    3    0  502  0.63627569812E+01  0.59733433040E+02  0.28037216912E+03  0.28676574641E+03  0.41800000000E+01 0. -1.
        -11    1    1    2    0    0 -0.95762429550E+01 -0.42253549008E+02  0.10174232911E+03  0.11058285747E+03  0.00000000000E+00 0.  1.
         11    1    1    2    0    0 -0.10938753085E+02  0.46256960770E+02  0.60382626702E+02  0.76846758852E+02  0.00000000000E+00 0. -1.
</event>
<event>
 7    1  0.2619826E-009  0.9864107E+02  0.7561462E-02  0.1283180E+00
         -2   -1    0    0    0  501 -0.00000000000E+00  0.00000000000E+00  0.24852519394E+02  0.24852519394E+02  0.00000000000E+00 0.  1.
          2   -1    0    0  501    0  0.00000000000E+00 -0.00000000000E+00 -0.54186436472E+03  0.54186436472E+03  0.00000000000E+00 0. -1.
         25    2    1    2    0    0  0.33565783019E+02  0.10870713948E+02 -0.36847169649E+03  0.39072137091E+03  0.12508782659E+03 0.  0.
          5    1    3    3  502    0  0.56835628805E+01  0.62951304919E+02 -0.12479758838E+03  0.13995385004E+03  0.41800000000E+01 0. -1.
         -5    1    3    3    0  502  0.27882220139E+02 -0.52080590971E+02 -0.24367410812E+03  0.25076752087E+03  0.41800000000E+01 0. -1.
        -11    1    1    2    0    0 -0.21777398925E+01  0.26114718564E+02 -0.11263681205E+03  0.11564502802E+03  0.00000000000E+00 0. -1.
         11    1    1    2    0    0 -0.31388043127E+02 -0.36985432512E+02 -0.35903336781E+02  0.60350485180E+02  0.00000000000E+00 0.  1.
</event>
<event>
 7    1  0.2619826E-009  0.9965704E+02  0.7561462E-02  0.1281019E+00
          1   -1    0    0  501    0  0.00000000000E+00  0.00000000000E+00  0.85243640628E+02  0.85243640628E+02  0.00000000000E+00 0. -1.
         -1   -1    0    0    0  501 -0.00000000000E+00 -0.00000000000E+00 -0.15692874495E+03  0.15692874495E+03  0.00000000000E+00 0.  1.
         25    2    1    2    0    0  0.15670691616E+02  0.11091883503E+02 -0.76117419912E+02  0.14766829012E+03  0.12507382555E+03 0.  0.
          5    1    3    3  502    0  0.35697666917E+02  0.61799253451E+02 -0.48684597960E+02  0.86493546747E+02  0.41800000000E+01 0.  1.
         -5    1    3    3    0  502 -0.20026975300E+02 -0.50707369948E+02 -0.27432821952E+02  0.61174743375E+02  0.41800000000E+01 0.  1.
        -11    1    1    2    0    0  0.83998961532E+00 -0.39916783064E+02 -0.27457526606E+02  0.48455865693E+02  0.00000000000E+00 0.  1.
         11    1    1    2    0    0 -0.16510681232E+02  0.28824899561E+02  0.31889842193E+02  0.46048229765E+02  0.00000000000E+00 0. -1.
</event>
<event>
 7    1  0.2619826E-009  0.1287340E+03  0.7561462E-02  0.1229346E+00
          1   -1    0    0  501    0  0.00000000000E+00  0.00000000000E+00  0.48719732734E+03  0.48719732734E+03  0.00000000000E+00 0. -1.
         -1   -1    0    0    0  501 -0.00000000000E+00 -0.00000000000E+00 -0.54675390156E+02  0.54675390156E+02  0.00000000000E+00 0.  1.
         25    2    1    2    0    0  0.79058367704E+02 -0.79773728251E+02  0.15127722994E+03  0.22615402909E+03  0.12508705511E+03 0.  0.
          5    1    3    3  502    0  0.63056941121E+02 -0.42511313909E+02  0.16613654923E+03  0.18276272876E+03  0.41800000000E+01 0. -1.
         -5    1    3    3    0  502  0.16001426583E+02 -0.37262414342E+02 -0.14859319291E+02  0.43391300338E+02  0.41800000000E+01 0. -1.
        -11    1    1    2    0    0 -0.28116039101E+02 -0.15787517978E+02  0.40728609507E+02  0.51947829705E+02  0.00000000000E+00 0.  1.
         11    1    1    2    0    0 -0.50942328603E+02  0.95561246228E+02  0.24051609774E+03  0.26377085869E+03  0.00000000000E+00 0. -1.
</event>
<event>
 7    1  0.2619826E-009  0.2470636E+03  0.7561462E-02  0.1115175E+00
          2   -1    0    0  501    0  0.00000000000E+00  0.00000000000E+00  0.99356164327E+03  0.99356164327E+03  0.00000000000E+00 0. -1.
         -2   -1    0    0    0  501 -0.00000000000E+00 -0.00000000000E+00 -0.74591509055E+02  0.74591509055E+02  0.00000000000E+00 0.  1.
         25    2    1    2    0    0  0.23581462449E+03  0.46439766903E+01  0.62510801102E+03  0.67973343885E+03  0.12508964308E+03 0.  0.
          5    1    3    3  502    0  0.13962528482E+03  0.25810835738E+02  0.50367881014E+03  0.52332708280E+03  0.41800000000E+01 0.  1.
         -5    1    3    3    0  502  0.96189339664E+02 -0.21166859047E+02  0.12142920088E+03  0.15640635605E+03  0.41800000000E+01 0.  1.
        -11    1    1    2    0    0 -0.61384096011E+02 -0.42937476455E+02  0.75929287277E+02  0.10666250885E+03  0.00000000000E+00 0. -1.
         11    1    1    2    0    0 -0.17443052848E+03  0.38293499765E+02  0.21793283591E+03  0.28175720462E+03  0.00000000000E+00 0.  1.
</event>
<event>
 7    1  0.2619826E-009  0.7873384E+02  0.7561462E-02  0.1332683E+00
         -2   -1    0    0    0  501 -0.00000000000E+00  0.00000000000E+00  0.10463337391E+03  0.10463337391E+03  0.00000000000E+00 0.  1.
          2   -1    0    0  501    0  0.00000000000E+00 -0.00000000000E+00 -0.40932299581E+03  0.40932299581E+03  0.00000000000E+00 0. -1.
         25    2    1    2    0    0 -0.63850924643E+01  0.97822350190E+01 -0.37671184388E+03  0.39711051829E+03  0.12509392026E+03 0.  0.
          5    1    3    3  502    0  0.41176680619E+02 -0.28893864267E+01 -0.31659423793E+03  0.31930119240E+03  0.41800000000E+01 0.  1.
         -5    1    3    3    0  502 -0.47561773084E+02  0.12671621446E+02 -0.60117605957E+02  0.77809325887E+02  0.41800000000E+01 0.  1.
        -11    1    1    2    0    0  0.22757680007E+02 -0.31823674440E+02  0.79312790466E+02  0.88437418470E+02  0.00000000000E+00 0.  1.
         11    1    1    2    0    0 -0.16372587543E+02  0.22041439421E+02 -0.72905684871E+01  0.28408432964E+02  0.00000000000E+00 0. -1.
</event>
<event>
 7    1  0.2619826E-009  0.1330838E+03  0.7561462E-02  0.1222950E+00
          2   -1    0    0  501    0  0.00000000000E+00  0.00000000000E+00  0.45794217293E+03  0.45794217293E+03  0.00000000000E+00 0.  1.
         -2   -1    0    0    0  501 -0.00000000000E+00 -0.00000000000E+00 -0.46643429480E+02  0.46643429480E+02  0.00000000000E+00 0. -1.
         25    2    1    2    0    0 -0.80958132337E+02 -0.32962212897E+02  0.14634285445E+03  0.21143320532E+03  0.12508813929E+03 0.  0.
          5    1    3    3  502    0  0.54055224596E+01 -0.58391198904E+02  0.35902686278E+02  0.68885608544E+02  0.41800000000E+01 0. -1.
         -5    1    3    3    0  502 -0.86363654797E+02  0.25428986006E+02  0.11044016817E+03  0.14254759677E+03  0.41800000000E+01 0. -1.
        -11    1    1    2    0    0  0.93982028835E+02  0.40350251780E+02  0.18123526157E+03  0.20810330271E+03  0.00000000000E+00 0. -1.
         11    1    1    2    0    0 -0.13023896497E+02 -0.73880388828E+01  0.83720627429E+02  0.85049094385E+02  0.00000000000E+00 0.  1.
</event>
<event>
 7    1  0.2619826E-009  0.1599959E+03  0.7561462E-02  0.1188701E+00
          1   -1    0    0  501    0  0.00000000000E+00  0.00000000000E+00  0.27899970881E+03  0.27899970881E+03  0.00000000000E+00 0. -1.
         -1   -1    0    0    0  501 -0.00000000000E+00 -0.00000000000E+00 -0.10334742225E+03  0.10334742225E+03  0.00000000000E+00 0.  1.
         25    2    1    2    0    0 -0.12345109972E+03 -0.10931605605E+02  0.47830420770E+02  0.18246855174E+03  0.12508936486E+03 0.  0.
          5    1    3    3  502    0 -0.49379953996E+01  0.38675225188E+02 -0.11540498672E+02  0.40875571574E+02  0.41800000000E+01 0. -1.
         -5    1    3    3    0  502 -0.11851310432E+03 -0.49606830793E+02  0.59370919442E+02  0.14159298017E+03  0.41800000000E+01 0. -1.
        -11    1    1    2    0    0  0.21881072649E+02  0.40857672373E+02  0.51920397627E+02  0.69597833456E+02  0.00000000000E+00 0.  1.
         11    1    1    2    0    0  0.10157002707E+03 -0.29926066768E+02  0.75901468163E+02  0.13028074586E+03  0.00000000000E+00 0. -1.
</event>
<event>
 7    1  0.2619826E-009  0.3457355E+03  0.7561462E-02  0.1064379E+00
          1   -1    0    0  501    0  0.00000000000E+00  0.00000000000E+00  0.33555372680E+03  0.33555372680E+03  0.00000000000E+00 0. -1.
         -1   -1    0    0    0  501 -0.00000000000E+00 -0.00000000000E+00 -0.37758221688E+03  0.37758221688E+03  0.00000000000E+00 0.  1.
         25    2    1    2    0    0 -0.29346958134E+03 -0.16909199326E+03 -0.18124273657E+02  0.36151573637E+03  0.12509452821E+03 0.  0.
          5    1    3    3  502    0 -0.24904148161E+03 -0.17921682516E+03  0.11393081324E+02  0.30706286764E+03  0.41800000000E+01 0.  1.
         -5    1    3    3    0  502 -0.44428099732E+02  0.10124831908E+02 -0.29517354980E+02  0.54452868722E+02  0.41800000000E+01 0.  1.
        -11    1    1    2    0    0  0.11732594473E+03  0.73559222507E+02  0.34859863168E+02  0.14279897262E+03  0.00000000000E+00 0. -1.
         11    1    1    2    0    0  0.17614363661E+03  0.95532770748E+02 -0.58764079595E+02  0.20882123469E+03  0.00000000000E+00 0.  1.
</event>
<event>
 7    1  0.2619826E-009  0.1488415E+03  0.7561462E-02  0.1201904E+00
          2   -1    0    0  501    0  0.00000000000E+00  0.00000000000E+00  0.24585562478E+03  0.24585562478E+03  0.00000000000E+00 0. -1.
         -2   -1    0    0    0  501 -0.00000000000E+00 -0.00000000000E+00 -0.96242341321E+02  0.96242341321E+02  0.00000000000E+00 0.  1.
         25    2    1    2    0    0 -0.10095574732E+03  0.95373072828E+01  0.12291675449E+03  0.20258072916E+03  0.12508956850E+03 0.  0.
          5    1    3    3  502    0 -0.91566328558E+02  0.59969272532E+02  0.85263876241E+02  0.13880960761E+03  0.41800000000E+01 0. -1.
         -5    1    3    3    0  502 -0.93894187583E+01 -0.50431965249E+02  0.37652878247E+02  0.63771121550E+02  0.41800000000E+01 0. -1.
        -11    1    1    2    0    0  0.85533415737E+02 -0.45978372566E+02  0.15039757558E+02  0.98265814294E+02  0.00000000000E+00 0. -1.
         11    1    1    2    0    0  0.15422331579E+02  0.36441065283E+02  0.11656771409E+02  0.41251422642E+02  0.00000000000E+00 0.  1.
</event>
<event>
 7    1  0.2619826E-009  0.2150556E+03  0.7561462E-02  0.1137624E+00
         -2   -1    0    0    0  501 -0.00000000000E+00  0.00000000000E+00  0.21830823974E+03  0.21830823974E+03  0.00000000000E+00 0.  1.
          2   -1    0    0  501    0  0.00000000000E+00 -0.00000000000E+00 -0.38802625887E+03  0.38802625887E+03  0.00000000000E+00 0. -1.
         25    2    1    2    0    0  0.14497982769E+03  0.13012995259E+03 -0.28114615322E+03  0.36420304259E+03  0.12509093396E+03 0.  0.
          5    1    3    3  502    0  0.12708485262E+03  0.50933388517E+02 -0.23136652340E+03  0.26887303766E+03  0.41800000000E+01 0.  1.
         -5    1    3    3    0  502  0.17894975067E+02  0.79196564073E+02 -0.49779629827E+02  0.95330004927E+02  0.41800000000E+01 0.  1.
        -11    1    1    2    0    0 -0.83317419587E+02 -0.12464790524E+03  0.59406203026E+02  0.16126992790E+03  0.00000000000E+00 0. -1.
         11    1    1    2    0    0 -0.61662408104E+02 -0.54820473458E+01  0.52021931073E+02  0.80861528113E+02  0.00000000000E+00 0.  1.
</event>
<event>
 7    1  0.2619826E-009  0.1180928E+03  0.7561462E-02  0.1246277E+00
          2   -1    0    0  501    0  0.00000000000E+00  0.00000000000E+00  0.17965449871E+03  0.17965449871E+03  0.00000000000E+00 0.  1.
         -2   -1    0    0    0  501 -0.00000000000E+00 -0.00000000000E+00 -0.97206373893E+02  0.97206373893E+02  0.00000000000E+00 0. -1.
         25    2    1    2    0    0 -0.32389883361E+02 -0.50204469812E+02 -0.45259238523E+01  0.13870948716E+03  0.12510093728E+03 0.  0.
          5    1    3    3  502    0 -0.74245298561E+02 -0.20203769388E+01  0.19912900105E+01  0.74416959877E+02  0.41800000000E+01 0. -1.
         -5    1    3    3    0  502  0.41855415200E+02 -0.48184092873E+02 -0.65172138629E+01  0.64292527280E+02  0.41800000000E+01 0. -1.
        -11    1    1    2    0    0 -0.22910349235E+02  0.32510220470E+02  0.87317656758E+01  0.40719065177E+02  0.00000000000E+00 0. -1.
         11    1    1    2    0    0  0.55300232596E+02  0.17694249342E+02  0.78242282993E+02  0.97432320268E+02  0.00000000000E+00 0.  1.
</event>
<event>
 7    1  0.2619826E-009  0.9595850E+02  0.7561462E-02  0.1289032E+00
         -2   -1    0    0    0  501 -0.00000000000E+00  0.00000000000E+00  0.71783471150E+02  0.71783471150E+02  0.00000000000E+00 0.  1.
          2   -1    0    0  501    0  0.00000000000E+00 -0.00000000000E+00 -0.24969053704E+03  0.24969053704E+03  0.00000000000E+00 0. -1.
         25    2    1    2    0    0  0.33549509864E+01 -0.37214133894E+02 -0.16105466373E+02  0.13154261887E+03  0.12509167468E+03 0.  0.
          5    1    3    3  502    0  0.40020716467E+02 -0.61764051421E+02 -0.37070119345E+02  0.82511344327E+02  0.41800000000E+01 0.  1.
         -5    1    3    3    0  502 -0.36665765480E+02  0.24549917527E+02  0.20964652972E+02  0.49031274540E+02  0.41800000000E+01 0.  1.
        -11    1    1    2    0    0 -0.27825068064E+02  0.40553647727E+02 -0.34059386735E+02  0.59823695819E+02  0.00000000000E+00 0.  1.
         11    1    1    2    0    0  0.24470117077E+02 -0.33395138327E+01 -0.12774221278E+03  0.13010769350E+03  0.00000000000E+00 0. -1.
</event>
<event>
 7    1  0.2619826E-009  0.1134137E+03  0.7561462E-02  0.1254376E+00
          1   -1    0    0  501    0  0.00000000000E+00  0.00000000000E+00  0.21571309654E+02  0.21571309654E+02  0.00000000000E+00 0. -1.
         -1   -1    0    0    0  501 -0.00000000000E+00 -0.00000000000E+00 -0.12312056253E+04  0.12312056253E+04  0.00000000000E+00 0.  1.
         25    2    1    2    0    0  0.73085179247E+02  0.14910259390E+02 -0.10151015416E+04  0.10254962901E+04  0.12509093479E+03 0.  0.
          5    1    3    3  502    0  0.56171962600E+02  0.61249076129E+02 -0.82002270801E+03  0.82423385805E+03  0.41800000000E+01 0.  1.
         -5    1    3    3    0  502  0.16913216647E+02 -0.46338816738E+02 -0.19507883356E+03  0.20126243200E+03  0.41800000000E+01 0.  1.
        -11    1    1    2    0    0 -0.35803897447E+02  0.21693410606E+02 -0.15819349238E+03  0.16363894453E+03  0.00000000000E+00 0.  1.
         11    1    1    2    0    0 -0.37281281800E+02 -0.36603669996E+02 -0.36339281678E+02  0.63641700344E+02  0.00000000000E+00 0. -1.
</event>
<event>
 7    1  0.2619826E-009  0.9801426E+02  0.7561462E-02  0.1284528E+00
         -1   -1    0    0    0  501 -0.00000000000E+00  0.00000000000E+00  0.95038529560E+03  0.95038529560E+03  0.00000000000E+00 0.  1.
          1   -1    0    0  501    0  0.00000000000E+00 -0.00000000000E+00 -0.15160084359E+02  0.15160084359E+02  0.00000000000E+00 0. -1.
         25    2    1    2    0    0  0.35547040437E+02  0.26220357100E+02  0.62219974206E+03  0.63618469834E+03  0.12508937673E+03 0.  0.
          5    1    3    3  502    0  0.62595752691E+02 -0.15989259077E+01  0.15307434470E+03  0.16543884738E+03  0.41800000000E+01 0.  1.
         -5    1    3    3    0  502 -0.27048712254E+02  0.27819283007E+02  0.46912539736E+03  0.47074585096E+03  0.41800000000E+01 0.  1.
        -11    1    1    2    0    0 -0.34834079698E+02  0.25091616255E+02  0.20903179845E+03  0.21339469318E+03  0.00000000000E+00 0.  1.
         11    1    1    2    0    0 -0.71296073950E+00 -0.51311973355E+02  0.10399367074E+03  0.11596598845E+03  0.00000000000E+00 0. -1.
</event>
<event>
 7    1  0.2619826E-009  0.1082215E+03  0.7561462E-02  0.1263899E+00
          3   -1    0    0  501    0  0.00000000000E+00  0.00000000000E+00  0.78470552305E+02  0.78470552305E+02  0.00000000000E+00 0. -1.
         -3   -1    0    0    0  501 -0.00000000000E+00 -0.00000000000E+00 -0.18282339851E+03  0.18282339851E+03  0.00000000000E+00 0.  1.
         25    2    1    2    0    0 -0.20757868366E+02 -0.32578817286E+02 -0.10496936682E+03  0.16780588066E+03  0.12509187495E+03 0.  0.
          5    1    3    3  502    0 -0.69589094030E+02 -0.36760192878E+02 -0.81261385601E+02  0.11320264563E+03  0.41800000000E+01 0. -1.
         -5    1    3    3    0  502  0.48831225665E+02  0.41813755918E+01 -0.23707981221E+02  0.54603235026E+02  0.41800000000E+01 0. -1.
        -11    1    1    2    0    0  0.13695111930E+02 -0.26028274570E+02 -0.14149846353E+02  0.32638096141E+02  0.00000000000E+00 0.  1.
         11    1    1    2    0    0  0.70627564360E+01  0.58607091857E+02  0.14766366968E+02  0.60849974016E+02  0.00000000000E+00 0. -1.
</event>
<event>
 6    1  0.2619826E-009  0.1053120E+03  0.7561462E-02  0.1269506E+00
         -1   -1    0    0    0  501 -0.00000000000E+00  0.00000000000E+00  0.38699110061E+03  0.38699110061E+03  0.00000000000E+00 0.  1.
          1   -1    0    0  501    0  0.00000000000E+00 -0.00000000000E+00 -0.36017612138E+02  0.36017612138E+02  0.00000000000E+00 0. -1.
          5    1    1    2  502    0  0.78003894743E+02  0.18117414190E+02  0.15134244099E+03  0.17127421036E+03  0.41800000000E+01 0.  1.
         -5    1    1    2    0  502 -0.49154237606E+02 -0.11254620447E+01  0.10176341142E+03  0.11309584450E+03  0.41800000000E+01 0.  1.
        -11    1    1    2    0    0 -0.40526392391E+02  0.17894623161E+02  0.91005007285E+02  0.10121520325E+03  0.00000000000E+00 0.  1.
         11    1    1    2    0    0  0.11676735254E+02 -0.34886575307E+02  0.68626287808E+01  0.37423454632E+02  0.00000000000E+00 0. -1.
</event>
<event>
 7    1  0.2619826E-009  0.1846725E+03  0.7561462E-02  0.1163356E+00
          2   -1    0    0  501    0  0.00000000000E+00  0.00000000000E+00  0.63636005441E+02  0.63636005441E+02  0.00000000000E+00 0. -1.
         -2   -1    0    0    0  501 -0.00000000000E+00 -0.00000000000E+00 -0.66001805061E+03  0.66001805061E+03  0.00000000000E+00 0.  1.
         25    2    1    2    0    0  0.10316357204E+03 -0.11617999862E+03 -0.45150003333E+03  0.49359470969E+03  0.12507175006E+03 0.  0.
          5    1    3    3  502    0 -0.13209158098E+02 -0.67749778371E+02 -0.11441245715E+03  0.13368693682E+03  0.41800000000E+01 0.  1.
         -5    1    3    3    0  502  0.11637273013E+03 -0.48430220247E+02 -0.33708757618E+03  0.35990777286E+03  0.41800000000E+01 0.  1.
        -11    1    1    2    0    0 -0.10282192087E+03  0.62359435124E+02 -0.12282761304E+03  0.17189435443E+03  0.00000000000E+00 0.  1.
         11    1    1    2    0    0 -0.34165116795E+00  0.53820563493E+02 -0.22054398803E+02  0.58164991935E+02  0.00000000000E+00 0. -1.
</event>
<event>
 7    1  0.2619826E-009  0.1390452E+03  0.7561462E-02  0.1214620E+00
          2   -1    0    0  501    0  0.00000000000E+00  0.00000000000E+00  0.88757798178E+02  0.88757798178E+02  0.00000000000E+00 0. -1.
         -2   -1    0    0    0  501 -0.00000000000E+00 -0.00000000000E+00 -0.24446611575E+03  0.24446611575E+03  0.00000000000E+00 0.  1.
         25    2    1    2    0    0  0.69176452165E+02 -0.70699438647E+02 -0.10023522729E+03  0.18835720267E+03  0.12509013889E+03 0.  0.
          5    1    3    3  502    0  0.94533599268E+02 -0.75176901582E+02 -0.48127111476E+02  0.13008404660E+03  0.41800000000E+01 0.  1.
         -5    1    3    3    0  502 -0.25357147103E+02  0.44774629351E+01 -0.52108115818E+02  0.58273156064E+02  0.41800000000E+01 0.  1.
        -11    1    1    2    0    0  0.16016447313E+02 -0.54160054390E+01  0.19230123010E+01  0.17016394323E+02  0.00000000000E+00 0. -1.
         11    1    1    2    0    0 -0.85192899478E+02  0.76115444086E+02 -0.57396102580E+02  0.12785031694E+03  0.00000000000E+00 0.  1.
</event>
<event>
 7    1  0.2619826E-009  0.1136227E+03  0.7561462E-02  0.1254005E+00
          1   -1    0    0  501    0  0.00000000000E+00  0.00000000000E+00  0.26912708950E+03  0.26912708950E+03  0.00000000000E+00 0. -1.
         -1   -1    0    0    0  501 -0.00000000000E+00 -0.00000000000E+00 -0.57319551896E+02  0.57319551896E+02  0.00000000000E+00 0.  1.
         25    2    1    2    0    0 -0.54843252649E+02  0.24051606004E+02  0.12290777059E+03  0.18530981791E+03  0.12508855435E+03 0.  0.
          5    1    3    3  502    0 -0.84567891771E+02  0.44098203921E+01  0.37566192845E+02  0.92735462900E+02  0.41800000000E+01 0.  1.
         -5    1    3    3    0  502  0.29724639122E+02  0.19641785612E+02  0.85341577744E+02  0.92574355005E+02  0.41800000000E+01 0.  1.
        -11    1    1    2    0    0 -0.19471732310E+02  0.13134650584E+02  0.71133226170E+01  0.24541123930E+02  0.00000000000E+00 0.  1.
         11    1    1    2    0    0  0.74314984959E+02 -0.37186256588E+02  0.81786444398E+02  0.11659569956E+03  0.00000000000E+00 0. -1.
</event>
<event>
 7    1  0.2619826E-009  0.1609401E+03  0.7561462E-02  0.1187639E+00
         -1   -1    0    0    0  501 -0.00000000000E+00  0.00000000000E+00  0.34418297068E+02  0.34418297068E+02  0.00000000000E+00 0.  1.
          1   -1    0    0  501    0  0.00000000000E+00 -0.00000000000E+00 -0.12898092377E+04  0.12898092377E+04  0.00000000000E+00 0. -1.
         25    2    1    2    0    0  0.11756920026E+03  0.64130948512E+02 -0.10342592182E+04  0.10503688890E+04  0.12508947666E+03 0.  0.
          5    1    3    3  502    0  0.56216402337E+02  0.97632837700E+02 -0.60005409108E+03  0.61055289657E+03  0.41800000000E+01 0. -1.
         -5    1    3    3    0  502  0.61352797926E+02 -0.33501889187E+02 -0.43420512712E+03  0.43981599244E+03  0.41800000000E+01 0. -1.
        -11    1    1    2    0    0 -0.11469636638E+03 -0.50741514146E+02 -0.22669593583E+03  0.25907721830E+03  0.00000000000E+00 0. -1.
         11    1    1    2    0    0 -0.28728338808E+01 -0.13389434366E+02  0.55642133903E+01  0.14781427462E+02  0.00000000000E+00 0.  1.
</event>
<event>
 7    1  0.2619826E-009  0.1811441E+03  0.7561462E-02  0.1166700E+00
          1   -1    0    0  501    0  0.00000000000E+00  0.00000000000E+00  0.35349301778E+03  0.35349301778E+03  0.00000000000E+00 0. -1.
         -1   -1    0    0    0  501 -0.00000000000E+00 -0.00000000000E+00 -0.11206233606E+03  0.11206233606E+03  0.00000000000E+00 0.  1.
         25    2    1    2    0    0 -0.14421006419E+03  0.78002239716E+02  0.93904085418E+02  0.22659850825E+03  0.12509202479E+03 0.  0.
          5    1    3    3  502    0 -0.66646186534E+02 -0.13264785025E+02 -0.89496016376E+01  0.68667579474E+02  0.41800000000E+01 0. -1.
         -5    1    3    3    0  502 -0.77563877659E+02  0.91267024741E+02  0.10285368706E+03  0.15793092877E+03  0.41800000000E+01 0. -1.
        -11    1    1    2    0    0  0.94864479926E+02 -0.81255083658E+02  0.60330419790E+02  0.13871343743E+03  0.00000000000E+00 0.  1.
         11    1    1    2    0    0  0.49345584267E+02  0.32528439414E+01  0.87196176517E+02  0.10024340816E+03  0.00000000000E+00 0. -1.
</event>
<event>
 7    1  0.2619826E-009  0.7785498E+02  0.7561462E-02  0.1335251E+00
         -3   -1    0    0    0  501 -0.00000000000E+00  0.00000000000E+00  0.11088049993E+03  0.11088049993E+03  0.00000000000E+00 0.  1.
          3   -1    0    0  501    0  0.00000000000E+00 -0.00000000000E+00 -0.10955744803E+03  0.10955744803E+03  0.00000000000E+00 0. -1.
         25    2    1    2    0    0  0.82083003142E+01  0.37176627111E+01 -0.21737480418E+02  0.12727843942E+03  0.12508431507E+03 0.  0.
          5    1    3    3  502    0 -0.20587422039E+02  0.22891681774E+02 -0.64811339281E+02  0.71873869661E+02  0.41800000000E+01 0. -1.
         -5    1    3    3    0  502  0.28795722353E+02 -0.19174019063E+02  0.43073858863E+02  0.55404569760E+02  0.41800000000E+01 0. -1.
        -11    1    1    2    0    0 -0.36488565893E+02  0.28954900444E+02  0.72287397055E+01  0.47138693007E+02  0.00000000000E+00 0.  1.
         11    1    1    2    0    0  0.28280265579E+02 -0.32672563156E+02  0.15831792615E+02  0.46020815527E+02  0.00000000000E+00 0. -1.
</event>
<event>
 7    1  0.2619826E-009  0.1459177E+03  0.7561462E-02  0.1205581E+00
         -1   -1    0    0    0  501 -0.00000000000E+00  0.00000000000E+00  0.14809436080E+03  0.14809436080E+03  0.00000000000E+00 0.  1.
          1   -1    0    0  501    0  0.00000000000E+00 -0.00000000000E+00 -0.20982059492E+03  0.20982059492E+03  0.00000000000E+00 0. -1.
         25    2    1    2    0    0 -0.13101107898E+03 -0.29616964947E+02 -0.65584915198E+02  0.19491091188E+03  0.12509122687E+03 0.  0.
          5    1    3    3  502    0 -0.90373683527E+02 -0.34473103186E+02  0.20984357637E+02  0.99063682462E+02  0.41800000000E+01 0. -1.
         -5    1    3    3    0  502 -0.40637395458E+02  0.48561382382E+01 -0.86569272836E+02  0.95847229420E+02  0.41800000000E+01 0. -1.
        -11    1    1    2    0    0  0.38699172052E+01  0.26416953571E+02 -0.20310825315E+02  0.33546405473E+02  0.00000000000E+00 0. -1.
         11    1    1    2    0    0  0.12714116178E+03  0.32000113762E+01  0.24169506388E+02  0.12945763836E+03  0.00000000000E+00 0.  1.
</event>
<event>
 7    1  0.2619826E-009  0.1661817E+03  0.7561462E-02  0.1181889E+00
          1   -1    0    0  501    0  0.00000000000E+00  0.00000000000E+00  0.37145079758E+02  0.37145079758E+02  0.00000000000E+00 0. -1.
         -1   -1    0    0    0  501 -0.00000000000E+00 -0.00000000000E+00 -0.80472384204E+03  0.80472384204E+03  0.00000000000E+00 0.  1.
         25    2    1    2    0    0  0.12600416846E+03 -0.31520883122E+02 -0.32359935991E+03  0.37045474105E+03  0.12509817302E+03 0.  0.
          5    1    3    3  502    0 -0.14865278114E+02 -0.30153851541E+02 -0.10527017420E+03  0.11058712959E+03  0.41800000000E+01 0. -1.
         -5    1    3    3    0  502  0.14086944657E+03 -0.13670315808E+01 -0.21832918571E+03  0.25986761146E+03  0.41800000000E+01 0. -1.
        -11    1    1    2    0    0 -0.31312435047E+02 -0.31012468786E+02 -0.14819808989E+03  0.15461214589E+03  0.00000000000E+00 0.  1.
         11    1    1    2    0    0 -0.94691733408E+02  0.62533351908E+02 -0.29578131248E+03  0.31680203486E+03  0.00000000000E+00 0. -1.
</event>
<event>
 7    1  0.2619826E-009  0.1055066E+03  0.7561462E-02  0.1269125E+00
          2   -1    0    0  501    0  0.00000000000E+00  0.00000000000E+00  0.17048306328E+03  0.17048306328E+03  0.00000000000E+00 0. -1.
         -2   -1    0    0    0  501 -0.00000000000E+00 -0.00000000000E+00 -0.71270800540E+02  0.71270800540E+02  0.00000000000E+00 0.  1.
         25    2    1    2    0    0  0.18980707019E+02 -0.36232500995E+01  0.70025588854E+02  0.14465361408E+03  0.12509072624E+03 0.  0.
          5    1    3    3  502    0  0.66202821731E+02  0.14940558479E+02  0.14890574229E+02  0.69607725819E+02  0.41800000000E+01 0.  1.
         -5    1    3    3    0  502 -0.47222114712E+02 -0.18563808578E+02  0.55135014625E+02  0.75045888259E+02  0.41800000000E+01 0.  1.
        -11    1    1    2    0    0 -0.35466445532E+02 -0.35173794285E+02  0.20860105595E+02  0.54131400947E+02  0.00000000000E+00 0. -1.
         11    1    1    2    0    0  0.16485738513E+02  0.38797044385E+02  0.83265682924E+01  0.42968848796E+02  0.00000000000E+00 0.  1.
</event>
<event>
 7    1  0.2619826E-009  0.1866077E+03  0.7561462E-02  0.1161557E+00
          1   -1    0    0  501    0  0.00000000000E+00  0.00000000000E+00  0.65906816046E+03  0.65906816046E+03  0.00000000000E+00 0. -1.
         -1   -1    0    0    0  501 -0.00000000000E+00 -0.00000000000E+00 -0.64734679376E+02  0.64734679376E+02  0.00000000000E+00 0.  1.
         25    2    1    2    0    0 -0.35944463013E+02  0.17082734934E+03  0.28899807989E+03  0.36005691988E+03  0.12508839941E+03 0.  0.
          5    1    3    3  502    0 -0.43055211066E+02  0.14493601687E+03  0.29563837008E+03  0.33208390273E+03  0.41800000000E+01 0.  1.
         -5    1    3    3    0  502  0.71107480521E+01  0.25891332469E+02 -0.66402901861E+01  0.27973017153E+02  0.41800000000E+01 0.  1.
        -11    1    1    2    0    0 -0.19392255050E+00 -0.15555524231E+03  0.26628407638E+03  0.30839046735E+03  0.00000000000E+00 0. -1.
         11    1    1    2    0    0  0.36138385564E+02 -0.15272107028E+02  0.39051324813E+02  0.55355452612E+02  0.00000000000E+00 0.  1.
</event>
<event>
 7    1  0.2619826E-009  0.1513715E+03  0.7561462E-02  0.1198798E+00
          1   -1    0    0  501    0  0.00000000000E+00  0.00000000000E+00  0.11147623163E+04  0.11147623163E+04  0.00000000000E+00 0. -1.
         -1   -1    0    0    0  501 -0.00000000000E+00 -0.00000000000E+00 -0.22784430221E+02  0.22784430221E+02  0.00000000000E+00 0.  1.
         25    2    1    2    0    0  0.10298759011E+03 -0.57609083293E+02  0.56976733197E+03  0.59515248181E+03  0.12508562599E+03 0.  0.
          5    1    3    3  502    0  0.61880362741E+02  0.27671617502E+02  0.33808985550E+03  0.34484361745E+03  0.41800000000E+01 0. -1.
         -5    1    3    3    0  502  0.41107227369E+02 -0.85280700795E+02  0.23167747647E+03  0.25030886435E+03  0.41800000000E+01 0. -1.
        -11    1    1    2    0    0 -0.79250358756E+02  0.16363348655E+01  0.21318638231E+03  0.22744610473E+03  0.00000000000E+00 0.  1.
         11    1    1    2    0    0 -0.23737231354E+02  0.55972748428E+02  0.30902417176E+03  0.31494815994E+03  0.00000000000E+00 0. -1.
</event>
<event>
 7    1  0.2619826E-009  0.3009367E+03  0.7561462E-02  0.1084773E+00
         -3   -1    0    0    0  501 -0.00000000000E+00  0.00000000000E+00  0.31601212518E+03  0.31601212518E+03  0.00000000000E+00 0.  1.
          3   -1    0    0  501    0  0.00000000000E+00 -0.00000000000E+00 -0.31753630345E+03  0.31753630345E+03  0.00000000000E+00 0. -1.
         25    2    1    2    0    0  0.97370531877E+02  0.27454240844E+03 -0.78325872204E+02  0.32655369057E+03  0.12509123093E+03 0.  0.
          5    1    3    3  502    0 -0.22844691703E+02  0.40208771246E+02  0.12232087569E+02  0.48017929885E+02  0.41800000000E+01 0. -1.
         -5    1    3    3    0  502  0.12021522358E+03  0.23433363719E+03 -0.90557959773E+02  0.27853576068E+03  0.41800000000E+01 0. -1.
        -11    1    1    2    0    0 -0.75621057961E+02 -0.18432990638E+03  0.25229769004E+02  0.20082977876E+03  0.00000000000E+00 0. -1.
         11    1    1    2    0    0 -0.21749473916E+02 -0.90212502058E+02  0.51571924931E+02  0.10616495931E+03  0.00000000000E+00 0.  1.
</event>
<event>
 7    1  0.2619826E-009  0.8050788E+02  0.7561462E-02  0.1327616E+00
         -4   -1    0    0    0  501 -0.00000000000E+00  0.00000000000E+00  0.76178033957E+02  0.76178033957E+02  0.00000000000E+00 0.  1.
          4   -1    0    0  501    0  0.00000000000E+00 -0.00000000000E+00 -0.26670515286E+03  0.26670515286E+03  0.00000000000E+00 0. -1.
         25    2    1    2    0    0 -0.36049613409E+02  0.46699732545E+01 -0.15446526923E+01  0.13027292672E+03  0.12508903312E+03 0.  0.
          5    1    3    3  502    0 -0.35982698608E+02  0.36456338360E+02 -0.50305731100E+02  0.71916327682E+02  0.41800000000E+01 0.  1.
         -5    1    3    3    0  502 -0.66914800966E-01 -0.31786365106E+02  0.48761078408E+02  0.58356599041E+02  0.41800000000E+01 0.  1.
        -11    1    1    2    0    0 -0.19813711935E+02 -0.85166368160E+01 -0.77376130890E+01  0.22912593472E+02  0.00000000000E+00 0.  1.
         11    1    1    2    0    0  0.55863325344E+02  0.38466635616E+01 -0.18124485312E+03  0.18969766662E+03  0.00000000000E+00 0. -1.
</event>
<event>
 7    1  0.2619826E-009  0.1000714E+03  0.7561462E-02  0.1280146E+00
          2   -1    0    0  501    0  0.00000000000E+00  0.00000000000E+00  0.28191724429E+03  0.28191724429E+03  0.00000000000E+00 0.  1.
         -2   -1    0    0    0  501 -0.00000000000E+00 -0.00000000000E+00 -0.53508061571E+02  0.53508061571E+02  0.00000000000E+00 0. -1.
         25    2    1    2    0    0  0.51758434675E+02  0.11439961795E+02  0.11917234474E+03  0.18072179853E+03  0.12509401435E+03 0.  0.
          5    1    3    3  502    0 -0.17864374705E+02  0.42761283806E+02  0.10255611550E+02  0.47647804195E+02  0.41800000000E+01 0. -1.
         -5    1    3    3    0  502  0.69622809380E+02 -0.31321322011E+02  0.10891673319E+03  0.13307399433E+03  0.41800000000E+01 0. -1.
        -11    1    1    2    0    0 -0.54746794825E+02 -0.27186944142E+02  0.20411317866E+02  0.64443489760E+02  0.00000000000E+00 0. -1.
         11    1    1    2    0    0  0.29883601506E+01  0.15746982347E+02  0.88825520111E+02  0.90260017573E+02  0.00000000000E+00 0.  1.
</event>
<event>
 7    1  0.2619826E-009  0.7255541E+02  0.7561462E-02  0.1351613E+00
         -2   -1    0    0    0  501 -0.00000000000E+00  0.00000000000E+00  0.68559984016E+02  0.68559984016E+02  0.00000000000E+00 0.  1.
          2   -1    0    0  501    0  0.00000000000E+00 -0.00000000000E+00 -0.19121267946E+03  0.19121267946E+03  0.00000000000E+00 0. -1.
         25    2    1    2    0    0 -0.16146125489E+02  0.11206257755E+02 -0.31760732003E+02  0.13054616501E+03  0.12508908633E+03 0.  0.
          5    1    3    3  502    0 -0.32968436836E+02 -0.17179193852E+00  0.42211072961E+02  0.53723313565E+02  0.41800000000E+01 0.  1.
         -5    1    3    3    0  502  0.16822311347E+02  0.11378049694E+02 -0.73971804964E+02  0.76822851441E+02  0.41800000000E+01 0.  1.
        -11    1    1    2    0    0 -0.37145704717E+02 -0.38041858850E+01 -0.29443664018E+02  0.47552124663E+02  0.00000000000E+00 0. -1.
         11    1    1    2    0    0  0.53291830207E+02 -0.74020718704E+01 -0.61448299422E+02  0.81674373806E+02  0.00000000000E+00 0.  1.
</event>
<event>
 6    1  0.2619826E-009  0.1372333E+03  0.7561462E-02  0.1217101E+00
          1   -1    0    0  501    0  0.00000000000E+00  0.00000000000E+00  0.15294342590E+03  0.15294342590E+03  0.00000000000E+00 0. -1.
         -1   -1    0    0    0  501 -0.00000000000E+00 -0.00000000000E+00 -0.20360302082E+03  0.20360302082E+03  0.00000000000E+00 0.  1.
          5    1    1    2  502    0  0.26309735418E+02 -0.70710802077E+02  0.13537686397E+02  0.76765624215E+02  0.41800000000E+01 0. -1.
         -5    1    1    2    0  502 -0.29017870986E+02 -0.52238792510E+02 -0.10554484895E+03  0.12135944882E+03  0.41800000000E+01 0. -1.
        -11    1    1    2    0    0 -0.26972387512E+02  0.93012634355E+02 -0.34518170111E+01  0.96906010538E+02  0.00000000000E+00 0.  1.
         11    1    1    2    0    0  0.29680523079E+02  0.29936960231E+02  0.44799384645E+02  0.61515363144E+02  0.00000000000E+00 0. -1.
</event>
<event>
 7    1  0.2619826E-009  0.1582808E+03  0.7561462E-02  0.1190651E+00
         -2   -1    0    0    0  501 -0.00000000000E+00  0.00000000000E+00  0.24458846566E+03  0.24458846566E+03  0.00000000000E+00 0. -1.
          2   -1    0    0  501    0  0.00000000000E+00 -0.00000000000E+00 -0.13747552751E+03  0.13747552751E+03  0.00000000000E+00 0.  1.
         25    2    1    2    0    0 -0.12365061111E+03  0.76464707292E+02  0.40360050238E+02  0.19599091603E+03  0.12508869023E+03 0.  0.
          5    1    3    3  502    0 -0.74293155462E+02  0.53132236361E+02  0.85384565986E+02  0.12510197440E+03  0.41800000000E+01 0. -1.
         -5    1    3    3    0  502 -0.49357455648E+02  0.23332470932E+02 -0.45024515748E+02  0.70888941635E+02  0.41800000000E+01 0. -1.
        -11    1    1    2    0    0  0.68542976377E+02 -0.90481258486E+02  0.61150331960E+02  0.12893549103E+03  0.00000000000E+00 0. -1.
         11    1    1    2    0    0  0.55107634733E+02  0.14016551194E+02  0.56025559483E+01  0.57137586109E+02  0.00000000000E+00 0.  1.
</event>
<event>
 7    1  0.2619826E-009  0.7939013E+02  0.7561462E-02  0.1330791E+00
         -2   -1    0    0    0  501 -0.00000000000E+00  0.00000000000E+00  0.34281442554E+03  0.34281442554E+03  0.00000000000E+00 0.  1.
          2   -1    0    0  501    0  0.00000000000E+00 -0.00000000000E+00 -0.51003672666E+02  0.51003672666E+02  0.00000000000E+00 0. -1.
         25    2    1    2    0    0  0.45668601956E+02  0.53141349297E+02  0.17598842933E+03  0.22700292822E+03  0.12509507565E+03 0.  0.
          5    1    3    3  502    0  0.29091885562E+02  0.19486551060E+02 -0.10451506073E+02  0.36780019806E+02  0.41800000000E+01 0. -1.
         -5    1    3    3    0  502  0.16576716394E+02  0.33654798237E+02  0.18643993540E+03  0.19022290841E+03  0.41800000000E+01 0. -1.
        -11    1    1    2    0    0 -0.48762375122E+02 -0.20361110434E+02  0.12232732071E+03  0.13325283276E+03  0.00000000000E+00 0.  1.
         11    1    1    2    0    0  0.30937731662E+01 -0.32780238863E+02 -0.65049971676E+01  0.33562337232E+02  0.00000000000E+00 0. -1.
</event>
<event>
 7    1  0.2619826E-009  0.1000605E+03  0.7561462E-02  0.1280169E+00
          2   -1    0    0  501    0  0.00000000000E+00  0.00000000000E+00  0.66159267469E+03  0.66159267469E+03  0.00000000000E+00 0. -1.
         -2   -1    0    0    0  501 -0.00000000000E+00 -0.00000000000E+00 -0.20709160081E+02  0.20709160081E+02  0.00000000000E+00 0.  1.
         25    2    1    2    0    0 -0.44190956202E+02 -0.38019454438E+01  0.36234067073E+03  0.38588273657E+03  0.12508968509E+03 0.  0.
          5    1    3    3  502    0  0.19925700757E+02 -0.39749746199E+02  0.60535597204E+02  0.75227035050E+02  0.41800000000E+01 0. -1.
         -5    1    3    3    0  502 -0.64116656958E+02  0.35947800756E+02  0.30180507353E+03  0.31065570152E+03  0.41800000000E+01 0. -1.
        -11    1    1    2    0    0  0.59672255453E+02 -0.10698581969E+02  0.26357768245E+03  0.27045966873E+03  0.00000000000E+00 0.  1.
         11    1    1    2    0    0 -0.15481299252E+02  0.14500527413E+02  0.14965161431E+02  0.25959429470E+02  0.00000000000E+00 0. -1.
</event>
<event>
 7    1  0.2619826E-009  0.1252962E+03  0.7561462E-02  0.1234607E+00
         -1   -1    0    0    0  501 -0.00000000000E+00  0.00000000000E+00  0.31243722529E+03  0.31243722529E+03  0.00000000000E+00 0.  1.
          1   -1    0    0  501    0  0.00000000000E+00 -0.00000000000E+00 -0.55653109540E+02  0.55653109540E+02  0.00000000000E+00 0. -1.
         25    2    1    2    0    0 -0.35740011190E+02  0.57675852575E+02  0.18771025490E+03  0.23555590743E+03  0.12509034080E+03 0.  0.
          5    1    3    3  502    0  0.45623452979E+02  0.13329086359E+02  0.46646611391E+02  0.66727376385E+02  0.41800000000E+01 0.  1.
         -5    1    3    3    0  502 -0.81363464169E+02  0.44346766216E+02  0.14106364351E+03  0.16882853105E+03  0.41800000000E+01 0.  1.
        -11    1    1    2    0    0  0.57376341584E+02 -0.10651339469E+02  0.51610622729E+02  0.77904762271E+02  0.00000000000E+00 0. -1.
         11    1    1    2    0    0 -0.21636330394E+02 -0.47024513106E+02  0.17463238115E+02  0.54629665121E+02  0.00000000000E+00 0.  1.
</event>
<event>
 7    1  0.2619826E-009  0.2604445E+03  0.7561462E-02  0.1106876E+00
         -1   -1    0    0    0  501 -0.00000000000E+00  0.00000000000E+00  0.20257379663E+03  0.20257379663E+03  0.00000000000E+00 0.  1.
          1   -1    0    0  501    0  0.00000000000E+00 -0.00000000000E+00 -0.42339396875E+03  0.42339396875E+03  0.00000000000E+00 0. -1.
         25    2    1    2    0    0 -0.25802422614E+03 -0.13466573149E+02 -0.33525945166E+02  0.28901411302E+03  0.12508924277E+03 0.  0.
          5    1    3    3  502    0 -0.22620079264E+02  0.68017778410E+01  0.35484407252E+02  0.42831620629E+02  0.41800000000E+01 0. -1.
         -5    1    3    3    0  502 -0.23540414688E+03 -0.20268350990E+02 -0.69010352418E+02  0.24618249239E+03  0.41800000000E+01 0. -1.
        -11    1    1    2    0    0  0.89802896819E+02 -0.11460618667E+02 -0.12815382776E+03  0.15690541618E+03  0.00000000000E+00 0. -1.
         11    1    1    2    0    0  0.16822132932E+03  0.24927191816E+02 -0.59140399187E+02  0.18004823617E+03  0.00000000000E+00 0.  1.
</event>
<event>
 7    1  0.2619826E-009  0.7120230E+02  0.7561462E-02  0.1356052E+00
         -2   -1    0    0    0  501 -0.00000000000E+00  0.00000000000E+00  0.52365136446E+03  0.52365136446E+03  0.00000000000E+00 0.  1.
          2   -1    0    0  501    0  0.00000000000E+00 -0.00000000000E+00 -0.25237665220E+02  0.25237665220E+02  0.00000000000E+00 0. -1.
         25    2    1    2    0    0 -0.22688791347E+02 -0.23160440086E+02  0.23049718874E+03  0.26424899184E+03  0.12508952167E+03 0.  0.
          5    1    3    3  502    0 -0.40596459412E+02 -0.21374809066E+02  0.23936312856E+03  0.24375630186E+03  0.41800000000E+01 0.  1.
         -5    1    3    3    0  502  0.17907668065E+02 -0.17856310196E+01 -0.88659398218E+01  0.20492689979E+02  0.41800000000E+01 0.  1.
        -11    1    1    2    0    0  0.48116238250E+02  0.96830739936E+01  0.23846127095E+03  0.24345987770E+03  0.00000000000E+00 0.  1.
         11    1    1    2    0    0 -0.25427446903E+02  0.13477366092E+02  0.29455239546E+02  0.41180160144E+02  0.00000000000E+00 0. -1.
</event>
<event>
 7    1  0.2619826E-009  0.9529006E+02  0.7561462E-02  0.1290524E+00
         -1   -1    0    0    0  501 -0.00000000000E+00  0.00000000000E+00  0.18220619010E+03  0.18220619010E+03  0.00000000000E+00 0.  1.
          1   -1    0    0  501    0  0.00000000000E+00 -0.00000000000E+00 -0.94023156884E+02  0.94023156884E+02  0.00000000000E+00 0. -1.
         25    2    1    2    0    0 -0.55558808003E+02 -0.26470830888E+02  0.91030789583E+01  0.13970642861E+03  0.12509010398E+03 0.  0.
          5    1    3    3  502    0 -0.58558613346E+02 -0.35945911773E+02  0.57765403236E+02  0.89863974880E+02  0.41800000000E+01 0.  1.
         -5    1    3    3    0  502  0.29998053430E+01  0.94750808859E+01 -0.48662324278E+02  0.49842453732E+02  0.41800000000E+01 0.  1.
        -11    1    1    2    0    0 -0.16373404831E+01  0.49335811481E+02  0.40405069811E+02  0.63790852360E+02  0.00000000000E+00 0.  1.
         11    1    1    2    0    0  0.57196148486E+02 -0.22864980593E+02  0.38674884441E+02  0.72732066008E+02  0.00000000000E+00 0. -1.
</event>
<event>
 7    1  0.2619826E-009  0.1218911E+03  0.7561462E-02  0.1240009E+00
          1   -1    0    0  501    0  0.00000000000E+00  0.00000000000E+00  0.15879413498E+02  0.15879413498E+02  0.00000000000E+00 0. -1.
         -1   -1    0    0    0  501 -0.00000000000E+00 -0.00000000000E+00 -0.11629915159E+04  0.11629915159E+04  0.00000000000E+00 0.  1.
         25    2    1    2    0    0  0.45671515561E+02 -0.52824111868E+02 -0.80286907803E+03  0.81555019784E+03  0.12508834725E+03 0.  0.
          5    1    3    3  502    0  0.68645124850E+02 -0.81069881872E+02 -0.61931716166E+03  0.62837544353E+03  0.41800000000E+01 0.  1.
         -5    1    3    3    0  502 -0.22973609289E+02  0.28245770004E+02 -0.18355191637E+03  0.18717475431E+03  0.41800000000E+01 0.  1.
        -11    1    1    2    0    0 -0.49167744454E+02  0.68747778590E+02 -0.33289486968E+03  0.34345701101E+03  0.00000000000E+00 0.  1.
         11    1    1    2    0    0  0.34962288932E+01 -0.15923666723E+02 -0.11348154666E+02  0.19863720515E+02  0.00000000000E+00 0. -1.
</event>
<event>
 7    1  0.2619826E-009  0.1932588E+03  0.7561462E-02  0.1155555E+00
          2   -1    0    0  501    0  0.00000000000E+00  0.00000000000E+00  0.68189769578E+03  0.68189769578E+03  0.00000000000E+00 0. -1.
         -2   -1    0    0    0  501 -0.00000000000E+00 -0.00000000000E+00 -0.69398475340E+02  0.69398475340E+02  0.00000000000E+00 0.  1.
         25    2    1    2    0    0  0.12963146177E+03  0.12548392118E+03  0.40915598414E+03  0.46433609033E+03  0.12509538387E+03 0.  0.
          5    1    3    3  502    0  0.83374836727E+02  0.36013712107E+02  0.30953013805E+03  0.32260615249E+03  0.41800000000E+01 0.  1.
         -5    1    3    3    0  502  0.46256625043E+02  0.89470209069E+02  0.99625846089E+02  0.14172993784E+03  0.41800000000E+01 0.  1.
        -11    1    1    2    0    0 -0.12218433113E+03 -0.74152742379E+02  0.11068793350E+03  0.18077460717E+03  0.00000000000E+00 0.  1.
         11    1    1    2    0    0 -0.74471306398E+01 -0.51331178796E+02  0.92655302803E+02  0.10618547362E+03  0.00000000000E+00 0. -1.
</event>
<event>
 7    1  0.2619826E-009  0.7561581E+02  0.7561462E-02  0.1341975E+00
          1   -1    0    0  501    0  0.00000000000E+00  0.00000000000E+00  0.37542948455E+03  0.37542948455E+03  0.00000000000E+00 0. -1.
         -1   -1    0    0    0  501 -0.00000000000E+00 -0.00000000000E+00 -0.37718544161E+02  0.37718544161E+02  0.00000000000E+00 0.  1.
         25    2    1    2    0    0  0.31836703168E+02  0.15090590194E+02  0.23585536633E+03  0.26928958127E+03  0.12509125938E+03 0.  0.
          5    1    3    3  502    0  0.22334154473E+02 -0.25793362791E+02  0.22236106696E+03  0.22500228559E+03  0.41800000000E+01 0.  1.
         -5    1    3    3    0  502  0.95025486945E+01  0.40883952985E+02  0.13494299367E+02  0.44287295682E+02  0.41800000000E+01 0.  1.
        -11    1    1    2    0    0 -0.99967960314E+01 -0.40184425103E+02  0.53174601836E+01  0.41749243520E+02  0.00000000000E+00 0.  1.
         11    1    1    2    0    0 -0.21839907136E+02  0.25093834908E+02  0.96538113876E+02  0.10210920392E+03  0.00000000000E+00 0. -1.
</event>
<event>
 7    1  0.2619826E-009  0.1043835E+03  0.7561462E-02  0.1271339E+00
         -2   -1    0    0    0  501 -0.00000000000E+00  0.00000000000E+00  0.36200176934E+03  0.36200176934E+03  0.00000000000E+00 0.  1.
          2   -1    0    0  501    0  0.00000000000E+00 -0.00000000000E+00 -0.42023685632E+02  0.42023685632E+02  0.00000000000E+00 0. -1.
         25    2    1    2    0    0 -0.19625707209E+02 -0.35357418145E+02  0.10448943291E+03  0.16793148189E+03  0.12509046973E+03 0.  0.
          5    1    3    3  502    0  0.42399526184E+02 -0.92167425715E+00  0.83638798733E+02  0.93869539030E+02  0.41800000000E+01 0. -1.
         -5    1    3    3    0  502 -0.62025233393E+02 -0.34435743887E+02  0.20850634177E+02  0.74061942860E+02  0.41800000000E+01 0. -1.
        -11    1    1    2    0    0  0.24539406366E+02 -0.24705712493E+02  0.98902755924E+02  0.10485375446E+03  0.00000000000E+00 0.  1.
         11    1    1    2    0    0 -0.49136991568E+01  0.60063130637E+02  0.11658589487E+03  0.13124021862E+03  0.00000000000E+00 0. -1.
</event>
<event>
 7    1  0.2619826E-009  0.1311289E+03  0.7561462E-02  0.1225790E+00
         -1   -1    0    0    0  501 -0.00000000000E+00  0.00000000000E+00  0.17328619266E+02  0.17328619266E+02  0.00000000000E+00 0.  1.
          1   -1    0    0  501    0  0.00000000000E+00 -0.00000000000E+00 -0.10227676114E+04  0.10227676114E+04  0.00000000000E+00 0. -1.
         25    2    1    2    0    0  0.41942716997E+02  0.58354254890E+02 -0.50638285736E+03  0.52653103768E+03  0.12508766863E+03 0.  0.
          5    1    3    3  502    0  0.20854800677E+02  0.96693321154E+02 -0.38154686233E+03  0.39418270082E+03  0.41800000000E+01 0. -1.
         -5    1    3    3    0  502  0.21087916321E+02 -0.38339066264E+02 -0.12483599502E+03  0.13234833686E+03  0.41800000000E+01 0. -1.
        -11    1    1    2    0    0 -0.72565374139E+02 -0.47858180557E+02 -0.31947599723E+03  0.33109070022E+03  0.00000000000E+00 0.  1.
         11    1    1    2    0    0  0.30622657141E+02 -0.10496074332E+02 -0.17958013760E+03  0.18247449281E+03  0.00000000000E+00 0. -1.
</event>
<event>
 7    1  0.2619826E-009  0.9422208E+02  0.7561462E-02  0.1292938E+00
         -1   -1    0    0    0  501 -0.00000000000E+00  0.00000000000E+00  0.55113713441E+02  0.55113713441E+02  0.00000000000E+00 0.  1.
          1   -1    0    0  501    0  0.00000000000E+00 -0.00000000000E+00 -0.29779805069E+03  0.29779805069E+03  0.00000000000E+00 0. -1.
         25    2    1    2    0    0  0.23608450780E+02 -0.26823847879E+02 -0.56183553907E+02  0.14171054035E+03  0.12509359597E+03 0.  0.
          5    1    3    3  502    0 -0.51026286095E+02 -0.14180327528E+02 -0.32528762707E+02  0.62292506489E+02  0.41800000000E+01 0.  1.
         -5    1    3    3    0  502  0.74634736875E+02 -0.12643520351E+02 -0.23654791200E+02  0.79418033859E+02  0.41800000000E+01 0.  1.
        -11    1    1    2    0    0 -0.56988702411E+01 -0.13897338878E+02  0.40254504368E+01  0.15550479129E+02  0.00000000000E+00 0.  1.
         11    1    1    2    0    0 -0.17909580538E+02  0.40721186757E+02 -0.19052623377E+03  0.19565074465E+03  0.00000000000E+00 0. -1.
</event>
<event>
 7    1  0.2619826E-009  0.9618533E+02  0.7561462E-02  0.1288529E+00
          3   -1    0    0  501    0  0.00000000000E+00  0.00000000000E+00  0.99080775123E+02  0.99080775123E+02  0.00000000000E+00 0.  1.
         -3   -1    0    0    0  501 -0.00000000000E+00 -0.00000000000E+00 -0.13476465161E+03  0.13476465161E+03  0.00000000000E+00 0. -1.
         25    2    1    2    0    0  0.12744429552E+02 -0.15592310815E+02  0.13966795951E+02  0.12746496263E+03  0.12508678855E+03 0.  0.
          5    1    3    3  502    0  0.60631310558E+02  0.14714597471E+02  0.28636623881E+02  0.68776477273E+02  0.41800000000E+01 0.  1.
         -5    1    3    3    0  502 -0.47886881006E+02 -0.30306908286E+02 -0.14669827930E+02  0.58688485360E+02  0.41800000000E+01 0.  1.
        -11    1    1    2    0    0  0.28680518864E+02  0.13053451425E+02  0.10575890068E+02  0.33238745571E+02  0.00000000000E+00 0.  1.
         11    1    1    2    0    0 -0.41424948416E+02  0.25388593905E+01 -0.60226562507E+02  0.73141718531E+02  0.00000000000E+00 0. -1.
</event>
<event>
 7    1  0.2619826E-009  0.7689523E+02  0.7561462E-02  0.1338101E+00
          1   -1    0    0  501    0  0.00000000000E+00  0.00000000000E+00  0.89379537859E+02  0.89379537859E+02  0.00000000000E+00 0. -1.
         -1   -1    0    0    0  501 -0.00000000000E+00 -0.00000000000E+00 -0.14624948397E+03  0.14624948397E+03  0.00000000000E+00 0.  1.
         25    2    1    2    0    0 -0.95759225091E+01 -0.12491559596E+02  0.28162926304E+01  0.12610977806E+03  0.12509199520E+03 0.  0.
          5    1    3    3  502    0 -0.43712975077E+02 -0.23904508877E+02 -0.44211248351E+02  0.66740966546E+02  0.41800000000E+01 0.  1.
         -5    1    3    3    0  502  0.34137052568E+02  0.11412949282E+02  0.47027540981E+02  0.59368811510E+02  0.41800000000E+01 0.  1.
        -11    1    1    2    0    0 -0.23761400678E+02  0.22526451928E+02 -0.66426789517E+02  0.74057839316E+02  0.00000000000E+00 0.  1.
         11    1    1    2    0    0  0.33337323187E+02 -0.10034892332E+02  0.67405507747E+01  0.35461404458E+02  0.00000000000E+00 0. -1.
</event>
<event>
 7    1  0.2619826E-009  0.6555465E+02  0.7561462E-02  0.1375897E+00
          2   -1    0    0  501    0  0.00000000000E+00  0.00000000000E+00  0.24262568274E+03  0.24262568274E+03  0.00000000000E+00 0. -1.
         -2   -1    0    0    0  501 -0.00000000000E+00 -0.00000000000E+00 -0.66550982317E+02  0.66550982317E+02  0.00000000000E+00 0.  1.
         25    2    1    2    0    0 -0.15096781517E+02  0.16467504794E+02  0.17491455659E+03  0.21619982030E+03  0.12509264034E+03 0.  0.
          5    1    3    3  502    0 -0.16642796543E+02  0.47061293456E+02  0.17820226617E+03  0.18510880067E+03  0.41800000000E+01 0.  1.
         -5    1    3    3    0  502  0.15460150252E+01 -0.30593788662E+02 -0.32877095842E+01  0.31091019628E+02  0.41800000000E+01 0.  1.
        -11    1    1    2    0    0  0.99739197584E+01  0.15112810900E+02 -0.38188068169E+02  0.42263514752E+02  0.00000000000E+00 0.  1.
         11    1    1    2    0    0  0.51228617591E+01 -0.31580315694E+02  0.39348212003E+02  0.50713330001E+02  0.00000000000E+00 0. -1.
</event>
<event>
 7    1  0.2619826E-009  0.7803544E+02  0.7561462E-02  0.1334721E+00
          1   -1    0    0  501    0  0.00000000000E+00  0.00000000000E+00  0.91130570233E+02  0.91130570233E+02  0.00000000000E+00 0. -1.
         -1   -1    0    0    0  501 -0.00000000000E+00 -0.00000000000E+00 -0.12718368226E+03  0.12718368226E+03  0.00000000000E+00 0.  1.
         25    2    1    2    0    0 -0.46731659067E+01  0.20331504242E+02 -0.39531941361E+02  0.13283418037E+03  0.12508771540E+03 0.  0.
          5    1    3    3  502    0 -0.36951307359E+02 -0.21070353173E+02 -0.62224169021E+02  0.75489592056E+02  0.41800000000E+01 0. -1.
         -5    1    3    3    0  502  0.32278141453E+02  0.41401857415E+02  0.22692227660E+02  0.57344588317E+02  0.41800000000E+01 0. -1.
        -11    1    1    2    0    0 -0.17679463507E+02  0.11994464537E+02  0.30893888718E+02  0.37561455903E+02  0.00000000000E+00 0. -1.
         11    1    1    2    0    0  0.22352629413E+02 -0.32325968780E+02 -0.27415059387E+02  0.47918616220E+02  0.00000000000E+00 0.  1.
</event>
<event>
 7    1  0.2619826E-009  0.1466859E+03  0.7561462E-02  0.1204605E+00
          1   -1    0    0  501    0  0.00000000000E+00  0.00000000000E+00  0.35466891152E+03  0.35466891152E+03  0.00000000000E+00 0. -1.
         -1   -1    0    0    0  501 -0.00000000000E+00 -0.00000000000E+00 -0.85498728102E+02  0.85498728102E+02  0.00000000000E+00 0.  1.
         25    2    1    2    0    0  0.56259800075E+02 -0.12350049176E+03  0.13633449118E+03  0.22946424350E+03  0.12509679849E+03 0.  0.
          5    1    3    3  502    0  0.75440441551E+02 -0.95561374984E+02  0.14951611884E+03  0.19286207196E+03  0.41800000000E+01 0.  1.
         -5    1    3    3    0  502 -0.19180641476E+02 -0.27939116774E+02 -0.13181627659E+02  0.36602171538E+02  0.41800000000E+01 0.  1.
        -11    1    1    2    0    0 -0.35748664258E+02  0.10006790322E+03  0.41283038919E+02  0.11399930506E+03  0.00000000000E+00 0. -1.
         11    1    1    2    0    0 -0.20511135817E+02  0.23432588536E+02  0.91552653317E+02  0.96704091058E+02  0.00000000000E+00 0.  1.
</event>
<event>
 7    1  0.2619826E-009  0.7755521E+02  0.7561462E-02  0.1336136E+00
         -1   -1    0    0    0  501 -0.00000000000E+00  0.00000000000E+00  0.15265546788E+02  0.15265546788E+02  0.00000000000E+00 0.  1.
          1   -1    0    0  501    0  0.00000000000E+00 -0.00000000000E+00 -0.81727686998E+03  0.81727686998E+03  0.00000000000E+00 0. -1.
         25    2    1    2    0    0 -0.23557689534E+02 -0.15129074424E+02 -0.47566180615E+03  0.49263119380E+03  0.12508991026E+03 0.  0.
          5    1    3    3  502    0 -0.30010402791E+02 -0.30703692866E+02 -0.47311392285E+03  0.47507641219E+03  0.41800000000E+01 0.  1.
         -5    1    3    3    0  502  0.64527132568E+01  0.15574618441E+02 -0.25478832996E+01  0.17554781607E+02  0.41800000000E+01 0.  1.
        -11    1    1    2    0    0  0.58380730413E+02  0.66045614712E+01 -0.18624259568E+03  0.19529012869E+03  0.00000000000E+00 0. -1.
         11    1    1    2    0    0 -0.34823040879E+02  0.85245129531E+01 -0.14010692136E+03  0.14462109428E+03  0.00000000000E+00 0.  1.
</event>
<event>
 7    1  0.2619826E-009  0.7723713E+02  0.7561462E-02  0.1337080E+00
          1   -1    0    0  501    0  0.00000000000E+00  0.00000000000E+00  0.12619233063E+03  0.12619233063E+03  0.00000000000E+00 0. -1.
         -1   -1    0    0    0  501 -0.00000000000E+00 -0.00000000000E+00 -0.11373446712E+03  0.11373446712E+03  0.00000000000E+00 0.  1.
         25    2    1    2    0    0  0.53451217365E+01  0.46224215042E+01 -0.40178227882E+02  0.13159745583E+03  0.12511460058E+03 0.  0.
          5    1    3    3  502    0 -0.29261129883E+02  0.34172596545E+02 -0.65332445976E+02  0.79434129780E+02  0.41800000000E+01 0.  1.
         -5    1    3    3    0  502  0.34606251620E+02 -0.29550175041E+02  0.25154218095E+02  0.52163326045E+02  0.41800000000E+01 0.  1.
        -11    1    1    2    0    0 -0.21827498698E+02 -0.27680239350E+02 -0.12413736434E+02  0.37372934085E+02  0.00000000000E+00 0.  1.
         11    1    1    2    0    0  0.16482376961E+02  0.23057817846E+02  0.65049827824E+02  0.70956407843E+02  0.00000000000E+00 0. -1.
</event>
<event>
 7    1  0.3852471E-009  0.1833790E+03  0.7561462E-02  0.1164572E+00
          1   -1    0    0  501    0  0.00000000000E+00  0.00000000000E+00  0.57461628805E+03  0.57461628805E+03  0.00000000000E+00 0. -1.
         -1   -1    0    0    0  501 -0.00000000000E+00 -0.00000000000E+00 -0.70029512323E+02  0.70029512323E+02  0.00000000000E+00 0.  1.
         25    2    1    2    0    0  0.15669110033E+03 -0.58896344973E+02  0.29389941261E+03  0.36061747526E+03  0.12508884185E+03 0.  0.
          5    1    3    3  502    0  0.17279257218E+03 -0.52890600660E+02  0.22050459948E+03  0.28512179754E+03  0.41800000000E+01 0.  1.
         -5    1    3    3    0  502 -0.16101471849E+02 -0.60057443131E+01  0.73394813132E+02  0.75495677725E+02  0.41800000000E+01 0.  1.
        -11    1    1    2    0    0 -0.76095568591E+02  0.38004719378E+02  0.39740818226E+02  0.93884114138E+02  0.00000000000E+00 0.  1.
         11    1    1    2    0    0 -0.80595531743E+02  0.20891625594E+02  0.17094654489E+03  0.19014421097E+03  0.00000000000E+00 0. -1.
</event>
<event>
 7    1  0.2619826E-009  0.3716205E+03  0.7561462E-02  0.1054075E+00
         -1   -1    0    0    0  501 -0.00000000000E+00  0.00000000000E+00  0.10810154313E+03  0.10810154313E+03  0.00000000000E+00 0.  1.
          1   -1    0    0  501    0  0.00000000000E+00 -0.00000000000E+00 -0.15529606916E+04  0.15529606916E+04  0.00000000000E+00 0. -1.
         25    2    1    2    0    0  0.32485210265E+03 -0.14859036143E+03 -0.10707772174E+04  0.11357022553E+04  0.12509108419E+03 0.  0.
          5    1    3    3  502    0  0.24120039721E+03 -0.48546307914E+02 -0.64334732311E+03  0.68880158695E+03  0.41800000000E+01 0. -1.
         -5    1    3    3    0  502  0.83651705443E+02 -0.10004405351E+03 -0.42742989426E+03  0.44690066836E+03  0.41800000000E+01 0. -1.
        -11    1    1    2    0    0 -0.19003369940E+03  0.41488304209E+02 -0.22674967487E+03  0.29874655035E+03  0.00000000000E+00 0.  1.
         11    1    1    2    0    0 -0.13481840325E+03  0.10710205722E+03 -0.14733225627E+03  0.22661342911E+03  0.00000000000E+00 0. -1.
</event>
<event>
 7    1  0.2619826E-009  0.1306807E+03  0.7561462E-02  0.1226449E+00
          1   -1    0    0  501    0  0.00000000000E+00  0.00000000000E+00  0.80130879739E+03  0.80130879739E+03  0.00000000000E+00 0. -1.
         -1   -1    0    0    0  501 -0.00000000000E+00 -0.00000000000E+00 -0.23085688194E+02  0.23085688194E+02  0.00000000000E+00 0.  1.
         25    2    1    2    0    0  0.13645700637E+02 -0.76187441491E+02  0.50963333326E+03  0.53043814642E+03  0.12509101252E+03 0.  0.
          5    1    3    3  502    0  0.96799705278E+01 -0.10884030638E+03  0.43893080956E+03  0.45234681618E+03  0.41800000000E+01 0.  1.
         -5    1    3    3    0  502  0.39657301094E+01  0.32652864889E+02  0.70702523700E+02  0.78091330238E+02  0.41800000000E+01 0.  1.
        -11    1    1    2    0    0  0.32738217926E+02  0.39062256590E+01  0.88323404578E+02  0.94276578789E+02  0.00000000000E+00 0. -1.
         11    1    1    2    0    0 -0.46383918563E+02  0.72281215832E+02  0.18026637135E+03  0.19967976038E+03  0.00000000000E+00 0.  1.
</event>
<event>
 7    1  0.2619826E-009  0.1694296E+03  0.7561462E-02  0.1178444E+00
         -2   -1    0    0    0  501 -0.00000000000E+00  0.00000000000E+00  0.54240387220E+02  0.54240387220E+02  0.00000000000E+00 0.  1.
          2   -1    0    0  501    0  0.00000000000E+00 -0.00000000000E+00 -0.61664988397E+03  0.61664988397E+03  0.00000000000E+00 0. -1.
         25    2    1    2    0    0  0.12902480829E+02  0.14644400395E+03 -0.29676655609E+03  0.35400285654E+03  0.12504124645E+03 0.  0.
          5    1    3    3  502    0  0.35936363482E+02  0.21038874789E+02 -0.16647882554E+03  0.17165875517E+03  0.41800000000E+01 0. -1.
         -5    1    3    3    0  502 -0.23033882653E+02  0.12540512917E+03 -0.13028773056E+03  0.18234410137E+03  0.41800000000E+01 0. -1.
        -11    1    1    2    0    0  0.32273442711E+02 -0.98088476531E+02 -0.13050246657E+03  0.16641459706E+03  0.00000000000E+00 0.  1.
         11    1    1    2    0    0 -0.45175923540E+02 -0.48355527422E+02 -0.13514047409E+03  0.15047281760E+03  0.00000000000E+00 0. -1.
</event>
<event>
 7    1  0.2619826E-009  0.1067585E+03  0.7561462E-02  0.1266693E+00
          1   -1    0    0  501    0  0.00000000000E+00  0.00000000000E+00  0.41517168614E+03  0.41517168614E+03  0.00000000000E+00 0. -1.
         -1   -1    0    0    0  501 -0.00000000000E+00 -0.00000000000E+00 -0.43268353344E+02  0.43268353344E+02  0.00000000000E+00 0.  1.
         25    2    1    2    0    0  0.39080178977E+02  0.65015223298E+02  0.16865839872E+03  0.22326499500E+03  0.12508941954E+03 0.  0.
          5    1    3    3  502    0  0.40650916262E+02  0.77532744136E+02  0.18349205114E+03  0.20334853980E+03  0.41800000000E+01 0. -1.
         -5    1    3    3    0  502 -0.15707372853E+01 -0.12517520838E+02 -0.14833652418E+02  0.19916455197E+02  0.41800000000E+01 0. -1.
        -11    1    1    2    0    0 -0.63545302173E+02 -0.31051997016E+02  0.90151536354E+02  0.11458416755E+03  0.00000000000E+00 0.  1.
         11    1    1    2    0    0  0.24465123196E+02 -0.33963226283E+02  0.11309339772E+03  0.12059087694E+03  0.00000000000E+00 0. -1.
</event>
<event>
 7    1  0.2619826E-009  0.7756263E+02  0.7561462E-02  0.1336114E+00
         -1   -1    0    0    0  501 -0.00000000000E+00  0.00000000000E+00  0.28335541509E+03  0.28335541509E+03  0.00000000000E+00 0.  1.
          1   -1    0    0  501    0  0.00000000000E+00 -0.00000000000E+00 -0.61804647344E+02  0.61804647344E+02  0.00000000000E+00 0. -1.
         25    2    1    2    0    0 -0.41555542263E+02 -0.48053544419E+02  0.18008246500E+03  0.22828317722E+03  0.12509000190E+03 0.  0.
          5    1    3    3  502    0  0.83907256293E+01 -0.12048241493E+02  0.16373053198E+03  0.16444063945E+03  0.41800000000E+01 0.  1.
         -5    1    3    3    0  502 -0.49946267893E+02 -0.36005302925E+02  0.16351933022E+02  0.63842537768E+02  0.41800000000E+01 0.  1.
        -11    1    1    2    0    0  0.10569829226E+02  0.45883485533E+02  0.63313621939E+02  0.78902663184E+02  0.00000000000E+00 0.  1.
         11    1    1    2    0    0  0.30985713037E+02  0.21700588857E+01 -0.21845319198E+02  0.37974222031E+02  0.00000000000E+00 0. -1.
</event>
<event>
 7    1  0.2619826E-009  0.1819626E+03  0.7561462E-02  0.1165917E+00
         -4   -1    0    0    0  501 -0.00000000000E+00  0.00000000000E+00  0.11957328147E+03  0.11957328147E+03  0.00000000000E+00 0.  1.
          4   -1    0    0  501    0  0.00000000000E+00 -0.00000000000E+00 -0.29297270294E+03  0.29297270294E+03  0.00000000000E+00 0. -1.
         25    2    1    2    0    0 -0.16594833950E+02  0.14822576059E+03 -0.11977468035E+03  0.22855835446E+03  0.12508670083E+03 0.  0.
          5    1    3    3  502    0 -0.18735004843E+01 -0.22509472917E+02 -0.18177079934E+02  0.29292746713E+02  0.41800000000E+01 0.  1.
         -5    1    3    3    0  502 -0.14721333465E+02  0.17073523351E+03 -0.10159760042E+03  0.19926560775E+03  0.41800000000E+01 0.  1.
        -11    1    1    2    0    0  0.35349354394E+02 -0.21384259688E+02 -0.35541438593E+02  0.54498231859E+02  0.00000000000E+00 0. -1.
         11    1    1    2    0    0 -0.18754520444E+02 -0.12684150090E+03 -0.18083302529E+02  0.12948939809E+03  0.00000000000E+00 0.  1.
</event>
<event>
 7    1  0.2619826E-009  0.1162853E+03  0.7561462E-02  0.1249354E+00
         -2   -1    0    0    0  501 -0.00000000000E+00  0.00000000000E+00  0.32362949748E+03  0.32362949748E+03  0.00000000000E+00 0.  1.
          2   -1    0    0  501    0  0.00000000000E+00 -0.00000000000E+00 -0.64604772569E+02  0.64604772569E+02  0.00000000000E+00 0. -1.
         25    2    1    2    0    0 -0.89082352145E+02 -0.25563531265E+02  0.17738712797E+03  0.23601266313E+03  0.12508646767E+03 0.  0.
          5    1    3    3  502    0 -0.11283568886E+03 -0.20531251752E+02  0.91839068676E+02  0.14698745496E+03  0.41800000000E+01 0.  1.
         -5    1    3    3    0  502  0.23753336714E+02 -0.50322795131E+01  0.85548059289E+02  0.89025208173E+02  0.41800000000E+01 0.  1.
        -11    1    1    2    0    0  0.12863234877E+02  0.73052208410E+01  0.71709951210E+02  0.73219848167E+02  0.00000000000E+00 0.  1.
         11    1    1    2    0    0  0.76219117268E+02  0.18258310424E+02  0.99276457384E+01  0.79001758756E+02  0.00000000000E+00 0. -1.
</event>
<event>
 7    1  0.2619826E-009  0.1033805E+03  0.7561462E-02  0.1273344E+00
          2   -1    0    0  501    0  0.00000000000E+00  0.00000000000E+00  0.31854185917E+03  0.31854185917E+03  0.00000000000E+00 0. -1.
         -2   -1    0    0    0  501 -0.00000000000E+00 -0.00000000000E+00 -0.56190331141E+02  0.56190331141E+02  0.00000000000E+00 0.  1.
         25    2    1    2    0    0  0.32502692043E+02 -0.16483695737E+02  0.47306623093E+02  0.13862303493E+03  0.12510112713E+03 0.  0.
          5    1    3    3  502    0  0.54950376350E+02  0.37306633485E+02  0.44623828085E+02  0.80125446619E+02  0.41800000000E+01 0.  1.
         -5    1    3    3    0  502 -0.22447684306E+02 -0.53790329223E+02  0.26827950087E+01  0.58497588306E+02  0.41800000000E+01 0.  1.
        -11    1    1    2    0    0 -0.45776446597E+02  0.35956271358E+02  0.79507443301E+02  0.98538165465E+02  0.00000000000E+00 0.  1.
         11    1    1    2    0    0  0.13273754553E+02 -0.19472575621E+02  0.13553746164E+03  0.13757098992E+03  0.00000000000E+00 0. -1.
</event>
<event>
 7    1  0.2619826E-009  0.1627654E+03  0.7561462E-02  0.1185610E+00
          1   -1    0    0  501    0  0.00000000000E+00  0.00000000000E+00  0.44365545188E+03  0.44365545188E+03  0.00000000000E+00 0. -1.
         -1   -1    0    0    0  501 -0.00000000000E+00 -0.00000000000E+00 -0.83538263416E+02  0.83538263416E+02  0.00000000000E+00 0.  1.
         25    2    1    2    0    0  0.31274723073E+02 -0.13936829466E+03  0.29145246669E+03  0.34784064308E+03  0.12508774033E+03 0.  0.
          5    1    3    3  502    0  0.25862227266E+02 -0.15301453070E+03  0.29390091939E+03  0.33238159429E+03  0.41800000000E+01 0.  1.
         -5    1    3    3    0  502  0.54124958074E+01  0.13646236039E+02 -0.24484527034E+01  0.15459048791E+02  0.41800000000E+01 0.  1.
        -11    1    1    2    0    0 -0.37753237914E+02  0.38401426637E+02  0.55489384378E+02  0.77324306136E+02  0.00000000000E+00 0.  1.
         11    1    1    2    0    0  0.64785148407E+01  0.10096686802E+03  0.13175337400E+02  0.10202876608E+03  0.00000000000E+00 0. -1.
</event>
<event>
 7    1  0.2619826E-009  0.5243467E+03  0.7561462E-02  0.1007612E+00
         -3   -1    0    0    0  501 -0.00000000000E+00  0.00000000000E+00  0.39768769739E+03  0.39768769739E+03  0.00000000000E+00 0.  1.
          3   -1    0    0  501    0  0.00000000000E+00 -0.00000000000E+00 -0.72151169805E+03  0.72151169805E+03  0.00000000000E+00 0. -1.
         25    2    1    2    0    0 -0.43234483783E+03 -0.27616573521E+03 -0.50668591394E+02  0.53047510520E+03  0.12508780507E+03 0.  0.
          5    1    3    3  502    0 -0.28231258810E+03 -0.24517386800E+03 -0.22181772889E+02  0.37459328130E+03  0.41800000000E+01 0. -1.
         -5    1    3    3    0  502 -0.15003224973E+03 -0.30991867215E+02 -0.28486818505E+02  0.15588182390E+03  0.41800000000E+01 0. -1.
        -11    1    1    2    0    0  0.13597629686E+02  0.36654703283E+02 -0.19176910973E+02  0.43545570616E+02  0.00000000000E+00 0.  1.
         11    1    1    2    0    0  0.41874720814E+03  0.23951103193E+03 -0.25397849829E+03  0.54517871963E+03  0.00000000000E+00 0. -1.
</event>
<event>
 7    1  0.2619826E-009  0.1264899E+03  0.7561462E-02  0.1232759E+00
         -2   -1    0    0    0  501 -0.00000000000E+00  0.00000000000E+00  0.18956657746E+02  0.18956657746E+02  0.00000000000E+00 0.  1.
          2   -1    0    0  501    0  0.00000000000E+00 -0.00000000000E+00 -0.12085997543E+04  0.12085997543E+04  0.00000000000E+00 0. -1.
         25    2    1    2    0    0  0.99613326332E+02  0.35925922695E+02 -0.72055000855E+03  0.73895415528E+03  0.12508973613E+03 0.  0.
          5    1    3    3  502    0  0.21475789183E+02 -0.28827434660E+02 -0.42303127146E+03  0.42457644723E+03  0.41800000000E+01 0.  1.
         -5    1    3    3    0  502  0.78137537149E+02  0.64753357355E+02 -0.29751873709E+03  0.31437770805E+03  0.41800000000E+01 0.  1.
        -11    1    1    2    0    0  0.14222178137E+01 -0.11088027436E+02 -0.37825669781E+01  0.11801477402E+02  0.00000000000E+00 0.  1.
         11    1    1    2    0    0 -0.10103554415E+03 -0.24837895259E+02 -0.46531052105E+03  0.47680077938E+03  0.00000000000E+00 0. -1.
</event>
<event>
 7    1  0.2619826E-009  0.9127414E+02  0.7561462E-02  0.1299795E+00
         -2   -1    0    0    0  501 -0.00000000000E+00  0.00000000000E+00  0.89713934718E+02  0.89713934718E+02  0.00000000000E+00 0.  1.
          2   -1    0    0  501    0  0.00000000000E+00 -0.00000000000E+00 -0.19791293786E+03  0.19791293786E+03  0.00000000000E+00 0. -1.
         25    2    1    2    0    0  0.59804871232E+02  0.37442552691E+02 -0.93419251511E+02  0.17132486392E+03  0.12508591075E+03 0.  0.
          5    1    3    3  502    0 -0.16026658955E+02 -0.10479388649E+02 -0.77729575203E+02  0.80162526438E+02  0.41800000000E+01 0.  1.
         -5    1    3    3    0  502  0.75831530187E+02  0.47921941340E+02 -0.15689676308E+02  0.91162337481E+02  0.41800000000E+01 0.  1.
        -11    1    1    2    0    0 -0.32232254472E+02 -0.31235530382E+02 -0.52562183558E+02  0.69118447081E+02  0.00000000000E+00 0. -1.
         11    1    1    2    0    0 -0.27572616761E+02 -0.62070223089E+01  0.37782431926E+02  0.47183561578E+02  0.00000000000E+00 0.  1.
</event>
<event>
 7    1  0.2619826E-009  0.1242580E+03  0.7561462E-02  0.1236234E+00
          2   -1    0    0  501    0  0.00000000000E+00  0.00000000000E+00  0.98247078139E+03  0.98247078139E+03  0.00000000000E+00 0.  1.
         -2   -1    0    0    0  501 -0.00000000000E+00 -0.00000000000E+00 -0.21686285940E+02  0.21686285940E+02  0.00000000000E+00 0. -1.
         25    2    1    2    0    0 -0.35196108057E+02 -0.75035623777E+02  0.71111914546E+03  0.72678125909E+03  0.12510574996E+03 0.  0.
          5    1    3    3  502    0  0.50761328838E+01  0.25017982745E+02  0.44432639285E+02  0.51413990503E+02  0.41800000000E+01 0.  1.
         -5    1    3    3    0  502 -0.40272240940E+02 -0.10005360652E+03  0.66668650617E+03  0.67536726859E+03  0.41800000000E+01 0.  1.
        -11    1    1    2    0    0  0.93572593431E+00  0.80077928774E+02  0.12897253413E+03  0.15181325641E+03  0.00000000000E+00 0.  1.
         11    1    1    2    0    0  0.34260382122E+02 -0.50423049967E+01  0.12069281586E+03  0.12556255184E+03  0.00000000000E+00 0. -1.
</event>
<event>
 7    1  0.2619826E-009  0.8228054E+02  0.7561462E-02  0.1322701E+00
         -1   -1    0    0    0  501 -0.00000000000E+00  0.00000000000E+00  0.71170893413E+02  0.71170893413E+02  0.00000000000E+00 0.  1.
          1   -1    0    0  501    0  0.00000000000E+00 -0.00000000000E+00 -0.23391111395E+03  0.23391111395E+03  0.00000000000E+00 0. -1.
         25    2    1    2    0    0 -0.18247775760E+02 -0.43855086327E+01 -0.13536443009E+02  0.12719711734E+03  0.12507460719E+03 0.  0.
          5    1    3    3  502    0 -0.61185966933E+02  0.20556485032E+02  0.19322499407E+02  0.67506466429E+02  0.41800000000E+01 0.  1.
         -5    1    3    3    0  502  0.42938191173E+02 -0.24941993664E+02 -0.32858942416E+02  0.59690650909E+02  0.41800000000E+01 0.  1.
        -11    1    1    2    0    0 -0.23379840794E+01  0.22502784483E+02  0.33635996753E+01  0.22872588000E+02  0.00000000000E+00 0.  1.
         11    1    1    2    0    0  0.20585759839E+02 -0.18117275850E+02 -0.15256737720E+03  0.15501230202E+03  0.00000000000E+00 0. -1.
</event>
<event>
 7    1  0.2619826E-009  0.2031914E+03  0.7561462E-02  0.1147074E+00
         -3   -1    0    0    0  501 -0.00000000000E+00  0.00000000000E+00  0.10853729685E+03  0.10853729685E+03  0.00000000000E+00 0.  1.
          3   -1    0    0  501    0  0.00000000000E+00 -0.00000000000E+00 -0.40574326677E+03  0.40574326677E+03  0.00000000000E+00 0. -1.
         25    2    1    2    0    0  0.66555309197E+02  0.16408364211E+03 -0.12223647768E+03  0.24888112868E+03  0.12508800480E+03 0.  0.
          5    1    3    3  502    0  0.70368289495E+02  0.17849516468E+03 -0.87633288165E+02  0.21097223887E+03  0.41800000000E+01 0.  1.
         -5    1    3    3    0  502 -0.38129802980E+01 -0.14411522568E+02 -0.34603189517E+02  0.37908889805E+02  0.41800000000E+01 0.  1.
        -11    1    1    2    0    0 -0.88158081867E+02 -0.14716733521E+03 -0.14357668191E+03  0.22370591307E+03  0.00000000000E+00 0. -1.
         11    1    1    2    0    0  0.21602772670E+02 -0.16916306898E+02 -0.31392810326E+02  0.41693521874E+02  0.00000000000E+00 0.  1.
</event>
<event>
 7    1  0.2619826E-009  0.1139824E+03  0.7561462E-02  0.1253368E+00
          2   -1    0    0  501    0  0.00000000000E+00  0.00000000000E+00  0.18658501392E+03  0.18658501392E+03  0.00000000000E+00 0. -1.
         -2   -1    0    0    0  501 -0.00000000000E+00 -0.00000000000E+00 -0.74323817075E+02  0.74323817075E+02  0.00000000000E+00 0.  1.
         25    2    1    2    0    0  0.14053720656E+02  0.43118551287E+02  0.75563171853E+02  0.15301444098E+03  0.12508760801E+03 0.  0.
          5    1    3    3  502    0  0.12704574057E+02  0.85517267225E+02  0.67189236751E+02  0.10957406231E+03  0.41800000000E+01 0. -1.
         -5    1    3    3    0  502  0.13491465991E+01 -0.42398715938E+02  0.83739351024E+01  0.43440378668E+02  0.41800000000E+01 0. -1.
        -11    1    1    2    0    0  0.12870077472E+02  0.23575103332E+02 -0.61935683533E+00  0.26866484589E+02  0.00000000000E+00 0.  1.
         11    1    1    2    0    0 -0.26923798128E+02 -0.66693654620E+02  0.37317381828E+02  0.81027905432E+02  0.00000000000E+00 0. -1.
</event>
<event>
 7    1  0.2619826E-009  0.2277803E+03  0.7561462E-02  0.1128212E+00
          4   -1    0    0  501    0  0.00000000000E+00  0.00000000000E+00  0.72006912329E+02  0.72006912329E+02  0.00000000000E+00 0.  1.
         -4   -1    0    0    0  501 -0.00000000000E+00 -0.00000000000E+00 -0.77709771135E+03  0.77709771135E+03  0.00000000000E+00 0. -1.
         25    2    1    2    0    0  0.20025298463E+03 -0.58752126214E+02 -0.37909433258E+03  0.45045865453E+03  0.12508963290E+03 0.  0.
          5    1    3    3  502    0  0.88713746708E+02  0.35783972234E+02 -0.17304742368E+03  0.19777134465E+03  0.41800000000E+01 0. -1.
         -5    1    3    3    0  502  0.11153923793E+03 -0.94536098448E+02 -0.20604690890E+03  0.25268730988E+03  0.41800000000E+01 0. -1.
        -11    1    1    2    0    0 -0.84351972049E+02  0.48214922455E+02 -0.77625218275E+02  0.12436079948E+03  0.00000000000E+00 0.  1.
         11    1    1    2    0    0 -0.11590101259E+03  0.10537203759E+02 -0.24837124817E+03  0.27428516967E+03  0.00000000000E+00 0. -1.
</event>
<event>
 7    1  0.2619826E-009  0.1210877E+03  0.7561462E-02  0.1241313E+00
          1   -1    0    0  501    0  0.00000000000E+00  0.00000000000E+00  0.31269432473E+03  0.31269432473E+03  0.00000000000E+00 0. -1.
         -1   -1    0    0    0  501 -0.00000000000E+00 -0.00000000000E+00 -0.54315138584E+02  0.54315138584E+02  0.00000000000E+00 0.  1.
         25    2    1    2    0    0 -0.38543866030E+02  0.47169683883E+02  0.89728497140E+02  0.16555726931E+03  0.12508955807E+03 0.  0.
          5    1    3    3  502    0 -0.53163582910E+02 -0.27924456916E+02  0.54600791801E+02  0.81270294125E+02  0.41800000000E+01 0. -1.
         -5    1    3    3    0  502  0.14619716880E+02  0.75094140799E+02  0.35127705338E+02  0.84286975188E+02  0.41800000000E+01 0. -1.
        -11    1    1    2    0    0  0.65428779458E+02 -0.23437947045E+02  0.13700497539E+03  0.15362495183E+03  0.00000000000E+00 0. -1.
         11    1    1    2    0    0 -0.26884913428E+02 -0.23731736839E+02  0.31645713615E+02  0.47827242170E+02  0.00000000000E+00 0.  1.
</event>
<event>
 7    1  0.2619826E-009  0.1370323E+03  0.7561462E-02  0.1217379E+00
          2   -1    0    0  501    0  0.00000000000E+00  0.00000000000E+00  0.59524422644E+03  0.59524422644E+03  0.00000000000E+00 0. -1.
         -2   -1    0    0    0  501 -0.00000000000E+00 -0.00000000000E+00 -0.32506337766E+02  0.32506337766E+02  0.00000000000E+00 0.  1.
         25    2    1    2    0    0 -0.82879497504E+02  0.18555131021E+02  0.34796182254E+03  0.37939202766E+03  0.12509027424E+03 0.  0.
          5    1    3    3  502    0  0.21141732698E+02  0.39417295569E+02  0.97266131997E+02  0.10713948332E+03  0.41800000000E+01 0.  1.
         -5    1    3    3    0  502 -0.10402123020E+03 -0.20862164548E+02  0.25069569055E+03  0.27225254434E+03  0.41800000000E+01 0.  1.
        -11    1    1    2    0    0 -0.49387278876E+01 -0.33519672125E+02  0.79091604643E+02  0.86043252946E+02  0.00000000000E+00 0.  1.
         11    1    1    2    0    0  0.87818225391E+02  0.14964541104E+02  0.13568446149E+03  0.16231528360E+03  0.00000000000E+00 0. -1.
</event>
<event>
 7    1  0.2784932E-009  0.1048161E+03  0.7561462E-02  0.1270482E+00
         -1   -1    0    0    0  501 -0.00000000000E+00  0.00000000000E+00  0.10341596825E+03  0.10341596825E+03  0.00000000000E+00 0.  1.
          1   -1    0    0  501    0  0.00000000000E+00 -0.00000000000E+00 -0.18067865475E+03  0.18067865475E+03  0.00000000000E+00 0. -1.
         25    2    1    2    0    0 -0.21280301295E+01 -0.64952916019E+02  0.12026992962E+02  0.14147499723E+03  0.12508843460E+03 0.  0.
          5    1    3    3  502    0 -0.29356496535E+02  0.10109935995E+02 -0.36376284787E+02  0.48007511803E+02  0.41800000000E+01 0.  1.
         -5    1    3    3    0  502  0.27228466405E+02 -0.75062852015E+02  0.48403277749E+02  0.93467485428E+02  0.41800000000E+01 0.  1.
        -11    1    1    2    0    0 -0.17687483048E+02  0.74342608518E+02 -0.34966179978E+02  0.84037516861E+02  0.00000000000E+00 0.  1.
         11    1    1    2    0    0  0.19815513178E+02 -0.93896924986E+01 -0.54323499488E+02  0.58582108910E+02  0.00000000000E+00 0. -1.
</event>
<event>
 7    1  0.2619826E-009  0.1878910E+03  0.7561462E-02  0.1160377E+00
          2   -1    0    0  501    0  0.00000000000E+00  0.00000000000E+00  0.12497702175E+04  0.12497702175E+04  0.00000000000E+00 0. -1.
         -2   -1    0    0    0  501 -0.00000000000E+00 -0.00000000000E+00 -0.35310664289E+02  0.35310664289E+02  0.00000000000E+00 0.  1.
         25    2    1    2    0    0  0.17352506750E+03  0.25913682926E+01  0.70336780505E+03  0.73518176680E+03  0.12509315256E+03 0.  0.
          5    1    3    3  502    0  0.11998937382E+03 -0.33653085722E+02  0.60274120293E+03  0.61550337945E+03  0.41800000000E+01 0.  1.
         -5    1    3    3    0  502  0.53535693676E+02  0.36244454014E+02  0.10062660212E+03  0.11967838735E+03  0.41800000000E+01 0.  1.
        -11    1    1    2    0    0 -0.41834405438E+02 -0.30398279574E+02  0.60270157671E+02  0.79414512434E+02  0.00000000000E+00 0.  1.
         11    1    1    2    0    0 -0.13169066206E+03  0.27806911282E+02  0.45082159053E+03  0.47048460260E+03  0.00000000000E+00 0. -1.
</event>
<event>
 7    1  0.2619826E-009  0.1360036E+03  0.7561462E-02  0.1218810E+00
          2   -1    0    0  501    0  0.00000000000E+00  0.00000000000E+00  0.13770339535E+04  0.13770339535E+04  0.00000000000E+00 0.  1.
         -2   -1    0    0    0  501 -0.00000000000E+00 -0.00000000000E+00 -0.23134524795E+02  0.23134524795E+02  0.00000000000E+00 0. -1.
         25    2    1    2    0    0  0.11287376367E+03  0.20859446652E+02  0.10351641889E+04  0.10489940605E+04  0.12509211748E+03 0.  0.
          5    1    3    3  502    0  0.74034759320E+02  0.43277335364E+02  0.93774717142E+03  0.94166942355E+03  0.41800000000E+01 0. -1.
         -5    1    3    3    0  502  0.38839004353E+02 -0.22417888712E+02  0.97417017518E+02  0.10732463695E+03  0.41800000000E+01 0. -1.
        -11    1    1    2    0    0 -0.96075000905E+02 -0.49371106409E+02  0.19315297741E+03  0.22130518437E+03  0.00000000000E+00 0.  1.
         11    1    1    2    0    0 -0.16798762768E+02  0.28511659757E+02  0.12558226235E+03  0.12986923343E+03  0.00000000000E+00 0. -1.
</event>
<event>
 7    1  0.2619826E-009  0.1252845E+03  0.7561462E-02  0.1234625E+00
          2   -1    0    0  501    0  0.00000000000E+00  0.00000000000E+00  0.35283458211E+03  0.35283458211E+03  0.00000000000E+00 0. -1.
         -2   -1    0    0    0  501 -0.00000000000E+00 -0.00000000000E+00 -0.56172129804E+02  0.56172129804E+02  0.00000000000E+00 0.  1.
         25    2    1    2    0    0  0.40450789110E+02  0.76850060178E+02  0.18773928573E+03  0.24173382043E+03  0.12508797883E+03 0.  0.
          5    1    3    3  502    0 -0.40752089001E+02  0.43096212762E+02  0.47288857577E+02  0.75971868236E+02  0.41800000000E+01 0. -1.
         -5    1    3    3    0  502  0.81202878111E+02  0.33753847416E+02  0.14045042815E+03  0.16576195220E+03  0.41800000000E+01 0. -1.
        -11    1    1    2    0    0 -0.50081084477E+02 -0.37514132672E+02  0.14069335680E+02  0.64135570310E+02  0.00000000000E+00 0.  1.
         11    1    1    2    0    0  0.96302953669E+01 -0.39335927506E+02  0.94853830897E+02  0.10313732117E+03  0.00000000000E+00 0. -1.
</event>
<event>
 7    1  0.2619826E-009  0.1324960E+03  0.7561462E-02  0.1223798E+00
         -2   -1    0    0    0  501 -0.00000000000E+00  0.00000000000E+00  0.20143015270E+02  0.20143015270E+02  0.00000000000E+00 0.  1.
          2   -1    0    0  501    0  0.00000000000E+00 -0.00000000000E+00 -0.10874407656E+04  0.10874407656E+04  0.00000000000E+00 0. -1.
         25    2    1    2    0    0 -0.58972393163E+02  0.80047986986E+02 -0.55351736748E+03  0.57611928459E+03  0.12508609274E+03 0.  0.
          5    1    3    3  502    0 -0.39514522317E+02 -0.28673036024E+02 -0.18550910769E+03  0.19187142024E+03  0.41800000000E+01 0.  1.
         -5    1    3    3    0  502 -0.19457870845E+02  0.10872102301E+03 -0.36800825979E+03  0.38424786435E+03  0.41800000000E+01 0.  1.
        -11    1    1    2    0    0 -0.40112769462E+01 -0.12410000924E+02 -0.43953709756E+01  0.13762912181E+02  0.00000000000E+00 0.  1.
         11    1    1    2    0    0  0.62983670109E+02 -0.67637986062E+02 -0.50938501186E+03  0.51770158408E+03  0.00000000000E+00 0. -1.
</event>
<event>
 7    1  0.2619826E-009  0.6923516E+02  0.7561462E-02  0.1362713E+00
          2   -1    0    0  501    0  0.00000000000E+00  0.00000000000E+00  0.42626644465E+03  0.42626644465E+03  0.00000000000E+00 0. -1.
         -2   -1    0    0    0  501 -0.00000000000E+00 -0.00000000000E+00 -0.45434548888E+02  0.45434548888E+02  0.00000000000E+00 0.  1.
         25    2    1    2    0    0 -0.20361702016E+02 -0.88650158532E+01  0.35517882472E+03  0.37721714725E+03  0.12509033228E+03 0.  0.
          5    1    3    3  502    0  0.25165768405E+01  0.15151889754E+02 -0.40586631733E+01  0.16427357330E+02  0.41800000000E+01 0. -1.
         -5    1    3    3    0  502 -0.22878278857E+02 -0.24016905607E+02  0.35923748790E+03  0.36078978992E+03  0.41800000000E+01 0. -1.
        -11    1    1    2    0    0  0.32923644893E+02  0.42184323191E+02  0.60949487290E+01  0.53857514946E+02  0.00000000000E+00 0. -1.
         11    1    1    2    0    0 -0.12561942876E+02 -0.33319307338E+02  0.19558122313E+02  0.40626331347E+02  0.00000000000E+00 0.  1.
</event>
<event>
 7    1  0.2619826E-009  0.1535407E+03  0.7561462E-02  0.1196189E+00
         -1   -1    0    0    0  501 -0.00000000000E+00  0.00000000000E+00  0.22009102483E+03  0.22009102483E+03  0.00000000000E+00 0.  1.
          1   -1    0    0  501    0  0.00000000000E+00 -0.00000000000E+00 -0.15391013139E+03  0.15391013139E+03  0.00000000000E+00 0. -1.
         25    2    1    2    0    0  0.71950665398E+02  0.10436527928E+03 -0.44362141578E+02  0.18353195480E+03  0.12508784536E+03 0.  0.
          5    1    3    3  502    0  0.68147895458E+02  0.19232861448E+00  0.43069319933E+01  0.68411948582E+02  0.41800000000E+01 0. -1.
         -5    1    3    3    0  502  0.38027699404E+01  0.10417295067E+03 -0.48669073572E+02  0.11512000622E+03  0.41800000000E+01 0. -1.
        -11    1    1    2    0    0 -0.68204128495E+02 -0.62697889253E+02  0.11580677970E+03  0.14830387280E+03  0.00000000000E+00 0. -1.
         11    1    1    2    0    0 -0.37465369035E+01 -0.41667390026E+02 -0.52637446862E+01  0.42165328630E+02  0.00000000000E+00 0.  1.
</event>
<event>
 7    1  0.2619826E-009  0.1255505E+03  0.7561462E-02  0.1234211E+00
         -2   -1    0    0    0  501 -0.00000000000E+00  0.00000000000E+00  0.24724653763E+02  0.24724653763E+02  0.00000000000E+00 0.  1.
          2   -1    0    0  501    0  0.00000000000E+00 -0.00000000000E+00 -0.80209843379E+03  0.80209843379E+03  0.00000000000E+00 0. -1.
         25    2    1    2    0    0  0.38996567617E+02 -0.55211478002E+02 -0.59700246790E+03  0.61369885851E+03  0.12508118434E+03 0.  0.
          5    1    3    3  502    0  0.50094024314E+02 -0.88756240546E+02 -0.50186866845E+03  0.51212958738E+03  0.41800000000E+01 0. -1.
         -5    1    3    3    0  502 -0.11097456696E+02  0.33544762544E+02 -0.95133799453E+02  0.10156927113E+03  0.41800000000E+01 0. -1.
        -11    1    1    2    0    0 -0.68368073804E+02  0.29413996069E+02 -0.11935903754E+03  0.14066256262E+03  0.00000000000E+00 0. -1.
         11    1    1    2    0    0  0.29371506187E+02  0.25797481932E+02 -0.61012274592E+02  0.72461666422E+02  0.00000000000E+00 0.  1.
</event>
<event>
 7    1  0.2619826E-009  0.1269485E+03  0.7561462E-02  0.1232055E+00
          1   -1    0    0  501    0  0.00000000000E+00  0.00000000000E+00  0.94627153091E+03  0.94627153091E+03  0.00000000000E+00 0. -1.
         -1   -1    0    0    0  501 -0.00000000000E+00 -0.00000000000E+00 -0.17537821201E+02  0.17537821201E+02  0.00000000000E+00 0.  1.
         25    2    1    2    0    0  0.30367133092E+02  0.62512053723E+02  0.56985679375E+03  0.58754900575E+03  0.12508856517E+03 0.  0.
          5    1    3    3  502    0 -0.25184653490E+02  0.80560260327E+02  0.33066106770E+03  0.34128937342E+03  0.41800000000E+01 0. -1.
         -5    1    3    3    0  502  0.55551786582E+02 -0.18048206604E+02  0.23919572605E+03  0.24625963233E+03  0.41800000000E+01 0. -1.
        -11    1    1    2    0    0 -0.57431161438E+02 -0.20750998605E+02  0.16014202282E+03  0.17138964298E+03  0.00000000000E+00 0.  1.
         11    1    1    2    0    0  0.27064028347E+02 -0.41761055118E+02  0.19873489313E+03  0.20487070338E+03  0.00000000000E+00 0. -1.
</event>
<event>
 7    1  0.3002310E-009  0.1254395E+03  0.7561462E-02  0.1234384E+00
          2   -1    0    0  501    0  0.00000000000E+00  0.00000000000E+00  0.46378036982E+03  0.46378036982E+03  0.00000000000E+00 0. -1.
         -2   -1    0    0    0  501 -0.00000000000E+00 -0.00000000000E+00 -0.39753747066E+02  0.39753747066E+02  0.00000000000E+00 0.  1.
         25    2    1    2    0    0 -0.76350514361E+02 -0.27567103623E+02  0.22949658337E+03  0.27368907071E+03  0.12509068472E+03 0.  0.
          5    1    3    3  502    0  0.30425499974E+02  0.14427115486E+02  0.60829061683E+02  0.69652708886E+02  0.41800000000E+01 0.  1.
         -5    1    3    3    0  502 -0.10677601433E+03 -0.41994219110E+02  0.16866752168E+03  0.20403636183E+03  0.41800000000E+01 0.  1.
        -11    1    1    2    0    0  0.18967390622E+02  0.39233140510E+02  0.24452419420E+02  0.49969210888E+02  0.00000000000E+00 0.  1.
         11    1    1    2    0    0  0.57383123740E+02 -0.11666036886E+02  0.17007761996E+03  0.17987583529E+03  0.00000000000E+00 0. -1.
</event>
<event>
 7    1  0.2619826E-009  0.1211047E+03  0.7561462E-02  0.1241286E+00
         -2   -1    0    0    0  501 -0.00000000000E+00  0.00000000000E+00  0.65321588458E+02  0.65321588458E+02  0.00000000000E+00 0.  1.
          2   -1    0    0  501    0  0.00000000000E+00 -0.00000000000E+00 -0.30937520305E+03  0.30937520305E+03  0.00000000000E+00 0. -1.
         25    2    1    2    0    0 -0.85625339238E+02 -0.28333543454E+02 -0.15664953987E+03  0.21983543327E+03  0.12511614994E+03 0.  0.
          5    1    3    3  502    0 -0.46665383762E+02  0.22463109362E+02 -0.14578642292E+03  0.15476886906E+03  0.41800000000E+01 0. -1.
         -5    1    3    3    0  502 -0.38959955476E+02 -0.50796652816E+02 -0.10863116951E+02  0.65066564209E+02  0.41800000000E+01 0. -1.
        -11    1    1    2    0    0  0.64241247173E+02 -0.24768843531E+02 -0.60297594016E+02  0.91521764036E+02  0.00000000000E+00 0.  1.
         11    1    1    2    0    0  0.21384092065E+02  0.53102386986E+02 -0.27106480705E+02  0.63339594198E+02  0.00000000000E+00 0. -1.
</event>
<event>
 7    1  0.2619826E-009  0.1022252E+03  0.7561462E-02  0.1275685E+00
         -2   -1    0    0    0  501 -0.00000000000E+00  0.00000000000E+00  0.12210707878E+02  0.12210707878E+02  0.00000000000E+00 0.  1.
          2   -1    0    0  501    0  0.00000000000E+00 -0.00000000000E+00 -0.95288000232E+03  0.95288000232E+03  0.00000000000E+00 0. -1.
         25    2    1    2    0    0 -0.12279115739E+02  0.21928464890E+00 -0.55778916726E+03  0.57177557931E+03  0.12509089977E+03 0.  0.
          5    1    3    3  502    0  0.26848818346E+02 -0.46881483278E+02 -0.15197074890E+03  0.16134222461E+03  0.41800000000E+01 0. -1.
         -5    1    3    3    0  502 -0.39127934085E+02  0.47100767926E+02 -0.40581841836E+03  0.41043335470E+03  0.41800000000E+01 0. -1.
        -11    1    1    2    0    0  0.10197748887E+02 -0.43945060823E+02 -0.22503408059E+03  0.22951143737E+03  0.00000000000E+00 0. -1.
         11    1    1    2    0    0  0.20813668516E+01  0.43725776174E+02 -0.15784604659E+03  0.16380369353E+03  0.00000000000E+00 0.  1.
</event>
<event>
 7    1  0.2619826E-009  0.1131451E+03  0.7561462E-02  0.1254854E+00
          2   -1    0    0  501    0  0.00000000000E+00  0.00000000000E+00  0.42562834519E+03  0.42562834519E+03  0.00000000000E+00 0. -1.
         -2   -1    0    0    0  501 -0.00000000000E+00 -0.00000000000E+00 -0.35021570309E+02  0.35021570309E+02  0.00000000000E+00 0.  1.
         25    2    1    2    0    0 -0.33639757354E+00  0.41427974960E+02  0.29245438212E+03  0.32076998743E+03  0.12508968360E+03 0.  0.
          5    1    3    3  502    0 -0.59023118669E+02  0.37054320809E+02  0.12428158656E+03  0.14254871584E+03  0.41800000000E+01 0.  1.
         -5    1    3    3    0  502  0.58686721095E+02  0.43736541505E+01  0.16817279555E+03  0.17822127159E+03  0.41800000000E+01 0.  1.
        -11    1    1    2    0    0 -0.39069753632E+02  0.16365192932E+01  0.54085890676E+02  0.66741347113E+02  0.00000000000E+00 0.  1.
         11    1    1    2    0    0  0.39406151205E+02 -0.43064494253E+02  0.44066502085E+02  0.73138580955E+02  0.00000000000E+00 0. -1.
</event>
<event>
 7    1  0.2619826E-009  0.1343124E+03  0.7561462E-02  0.1221194E+00
         -1   -1    0    0    0  501 -0.00000000000E+00  0.00000000000E+00  0.16727483672E+02  0.16727483672E+02  0.00000000000E+00 0.  1.
          1   -1    0    0  501    0  0.00000000000E+00 -0.00000000000E+00 -0.21773212902E+04  0.21773212902E+04  0.00000000000E+00 0. -1.
         25    2    1    2    0    0  0.11504624243E+03  0.17173057527E+02 -0.17378297470E+04  0.17462045726E+04  0.12509047900E+03 0.  0.
          5    1    3    3  502    0 -0.81414726033E+01 -0.21165868865E+02 -0.69976325351E+03  0.70014310033E+03  0.41800000000E+01 0.  1.
         -5    1    3    3    0  502  0.12318771503E+03  0.38338926392E+02 -0.10380664935E+04  0.10460614723E+04  0.41800000000E+01 0.  1.
        -11    1    1    2    0    0 -0.43555375729E+02 -0.35088225307E+01 -0.43493548580E+02  0.61652829283E+02  0.00000000000E+00 0.  1.
         11    1    1    2    0    0 -0.71490866702E+02 -0.13664234996E+02 -0.37927051087E+03  0.38619137193E+03  0.00000000000E+00 0. -1.
</event>
<event>
 7    1  0.2619826E-009  0.1128609E+03  0.7561462E-02  0.1255362E+00
          2   -1    0    0  501    0  0.00000000000E+00  0.00000000000E+00  0.24835223042E+03  0.24835223042E+03  0.00000000000E+00 0. -1.
         -2   -1    0    0    0  501 -0.00000000000E+00 -0.00000000000E+00 -0.65940356945E+02  0.65940356945E+02  0.00000000000E+00 0.  1.
         25    2    1    2    0    0  0.17520371102E+02 -0.63445667350E+02  0.12206795925E+03  0.18676578416E+03  0.12509418591E+03 0.  0.
          5    1    3    3  502    0  0.45870951323E+02  0.22007856363E+02  0.48636993832E+02  0.70509002872E+02  0.41800000000E+01 0. -1.
         -5    1    3    3    0  502 -0.28350580222E+02 -0.85453523713E+02  0.73430965415E+02  0.11625678129E+03  0.41800000000E+01 0. -1.
        -11    1    1    2    0    0  0.15894115726E+02  0.41825402012E+02  0.73123328953E+02  0.85726357705E+02  0.00000000000E+00 0. -1.
         11    1    1    2    0    0 -0.33414486828E+02  0.21620265339E+02 -0.12779414725E+02  0.41800445500E+02  0.00000000000E+00 0.  1.
</event>
<event>
 7    1  0.2619826E-009  0.9349722E+02  0.7561462E-02  0.1294597E+00
          3   -1    0    0  501    0  0.00000000000E+00  0.00000000000E+00  0.21171758371E+03  0.21171758371E+03  0.00000000000E+00 0. -1.
         -3   -1    0    0    0  501 -0.00000000000E+00 -0.00000000000E+00 -0.70029901190E+02  0.70029901190E+02  0.00000000000E+00 0.  1.
         25    2    1    2    0    0 -0.43616842985E+02 -0.36352624277E+02  0.64818590580E+02  0.15189541492E+03  0.12508726995E+03 0.  0.
          5    1    3    3  502    0 -0.33414260234E+02 -0.71915480935E+02  0.79038336550E+02  0.11203963687E+03  0.41800000000E+01 0.  1.
         -5    1    3    3    0  502 -0.10202582752E+02  0.35562856657E+02 -0.14219745970E+02  0.39855778049E+02  0.41800000000E+01 0.  1.
        -11    1    1    2    0    0  0.26424393223E+02 -0.37789716664E+01 -0.13185561184E+02  0.29772272466E+02  0.00000000000E+00 0. -1.
         11    1    1    2    0    0  0.17192449763E+02  0.40131595944E+02  0.90054653128E+02  0.10007979752E+03  0.00000000000E+00 0.  1.
</event>
<event>
 7    1  0.2619826E-009  0.1183828E+03  0.7561462E-02  0.1245789E+00
          2   -1    0    0  501    0  0.00000000000E+00  0.00000000000E+00  0.23936031453E+03  0.23936031453E+03  0.00000000000E+00 0. -1.
         -2   -1    0    0    0  501 -0.00000000000E+00 -0.00000000000E+00 -0.84161264588E+02  0.84161264588E+02  0.00000000000E+00 0.  1.
         25    2    1    2    0    0  0.88623327709E+02  0.13200403780E+02  0.69719264119E+02  0.16893173678E+03  0.12509520785E+03 0.  0.
          5    1    3    3  502    0 -0.18350193015E+02 -0.22808056949E+02 -0.94000898280E+01  0.31028553531E+02  0.41800000000E+01 0.  1.
         -5    1    3    3    0  502  0.10697352072E+03  0.36008460729E+02  0.79119353947E+02  0.13790318324E+03  0.41800000000E+01 0.  1.
        -11    1    1    2    0    0 -0.74945842406E+02 -0.21846806493E+02  0.11555993704E+02  0.78915798408E+02  0.00000000000E+00 0.  1.
         11    1    1    2    0    0 -0.13677485303E+02  0.86464027129E+01  0.73923792120E+02  0.75674043935E+02  0.00000000000E+00 0. -1.
</event>
<event>
 7    1  0.2619826E-009  0.1049466E+03  0.7561462E-02  0.1270225E+00
         -2   -1    0    0    0  501 -0.00000000000E+00  0.00000000000E+00  0.10346026516E+03  0.10346026516E+03  0.00000000000E+00 0.  1.
          2   -1    0    0  501    0  0.00000000000E+00 -0.00000000000E+00 -0.14996551333E+03  0.14996551333E+03  0.00000000000E+00 0. -1.
         25    2    1    2    0    0  0.33500031806E+02 -0.50580655459E+02 -0.18849344423E+02  0.14029816634E+03  0.12509045869E+03 0.  0.
          5    1    3    3  502    0  0.76028137704E+02 -0.54697965256E+02 -0.87686292019E+00  0.93757060611E+02  0.41800000000E+01 0.  1.
         -5    1    3    3    0  502 -0.42528105898E+02  0.41173097969E+01 -0.17972481502E+02  0.46541105730E+02  0.41800000000E+01 0.  1.
        -11    1    1    2    0    0 -0.15619761020E+02 -0.37063576314E+01  0.28684775848E+02  0.32871422036E+02  0.00000000000E+00 0.  1.
         11    1    1    2    0    0 -0.17880270786E+02  0.54287013090E+02 -0.56340679598E+02  0.80256190112E+02  0.00000000000E+00 0. -1.
</event>
<event>
 7    1  0.2619826E-009  0.8439110E+02  0.7561462E-02  0.1317033E+00
         -2   -1    0    0    0  501 -0.00000000000E+00  0.00000000000E+00  0.56027833211E+02  0.56027833211E+02  0.00000000000E+00 0.  1.
          2   -1    0    0  501    0  0.00000000000E+00 -0.00000000000E+00 -0.22825215632E+03  0.22825215632E+03  0.00000000000E+00 0. -1.
         25    2    1    2    0    0  0.11012202473E+02  0.31989533800E+02 -0.10612878655E+03  0.16749800353E+03  0.12509061906E+03 0.  0.
          5    1    3    3  502    0  0.43429905819E+02  0.45713073855E+02 -0.86608445490E+01  0.63783418449E+02  0.41800000000E+01 0. -1.
         -5    1    3    3    0  502 -0.32417703346E+02 -0.13723540055E+02 -0.97467941999E+02  0.10371458508E+03  0.41800000000E+01 0. -1.
        -11    1    1    2    0    0  0.14987424944E+02  0.11893021258E+02  0.12666971000E+02  0.22946002166E+02  0.00000000000E+00 0.  1.
         11    1    1    2    0    0 -0.25999627417E+02 -0.43882555058E+02 -0.78762507563E+02  0.93835983833E+02  0.00000000000E+00 0. -1.
</event>
<event>
 7    1  0.2619826E-009  0.1071335E+03  0.7561462E-02  0.1265972E+00
          2   -1    0    0  501    0  0.00000000000E+00  0.00000000000E+00  0.20055960305E+03  0.20055960305E+03  0.00000000000E+00 0. -1.
         -2   -1    0    0    0  501 -0.00000000000E+00 -0.00000000000E+00 -0.12254585327E+03  0.12254585327E+03  0.00000000000E+00 0.  1.
         25    2    1    2    0    0  0.45356319516E+02 -0.71664886664E+02 -0.35539915018E+02  0.15525779605E+03  0.12509534753E+03 0.  0.
          5    1    3    3  502    0  0.64682835673E+02 -0.53642304841E+02  0.26075962145E+02  0.88084018420E+02  0.41800000000E+01 0. -1.
         -5    1    3    3    0  502 -0.19326516156E+02 -0.18022581823E+02 -0.61615877163E+02  0.67173777628E+02  0.41800000000E+01 0. -1.
        -11    1    1    2    0    0 -0.50264925618E+02  0.24429542712E+02  0.14101404937E+02  0.57638658257E+02  0.00000000000E+00 0.  1.
         11    1    1    2    0    0  0.49086061020E+01  0.47235343952E+02  0.99452259860E+02  0.11020900201E+03  0.00000000000E+00 0. -1.
</event>
<event>
 7    1  0.2619826E-009  0.2455904E+03  0.7561462E-02  0.1116124E+00
         -2   -1    0    0    0  501 -0.00000000000E+00  0.00000000000E+00  0.36973744503E+03  0.36973744503E+03  0.00000000000E+00 0.  1.
          2   -1    0    0  501    0  0.00000000000E+00 -0.00000000000E+00 -0.18072916181E+03  0.18072916181E+03  0.00000000000E+00 0. -1.
         25    2    1    2    0    0 -0.18173978625E+03 -0.14769630936E+03  0.10542137387E+03  0.28566984404E+03  0.12510013596E+03 0.  0.
          5    1    3    3  502    0 -0.27158355908E+02 -0.79178909222E+02  0.77676906884E+02  0.11427182603E+03  0.41800000000E+01 0. -1.
         -5    1    3    3    0  502 -0.15458143035E+03 -0.68517400141E+02  0.27744466989E+02  0.17139801801E+03  0.41800000000E+01 0. -1.
        -11    1    1    2    0    0  0.13120171723E+03  0.79703519011E+02  0.12174766259E+02  0.15399599501E+03  0.00000000000E+00 0. -1.
         11    1    1    2    0    0  0.50538069025E+02  0.67992790352E+02  0.71412143093E+02  0.11080076778E+03  0.00000000000E+00 0.  1.
</event>
<event>
 7    1  0.2619826E-009  0.1059957E+03  0.7561462E-02  0.1268170E+00
          2   -1    0    0  501    0  0.00000000000E+00  0.00000000000E+00  0.17946945965E+03  0.17946945965E+03  0.00000000000E+00 0. -1.
         -2   -1    0    0    0  501 -0.00000000000E+00 -0.00000000000E+00 -0.76165921949E+02  0.76165921949E+02  0.00000000000E+00 0.  1.
         25    2    1    2    0    0  0.43111132117E+02 -0.85924573249E+01  0.70928840755E+02  0.15036095077E+03  0.12508043425E+03 0.  0.
          5    1    3    3  502    0 -0.17426136743E+02 -0.50428805505E+02  0.93756850586E+01  0.54333328048E+02  0.41800000000E+01 0.  1.
         -5    1    3    3    0  502  0.60537268860E+02  0.41836348180E+02  0.61553155697E+02  0.96027622725E+02  0.41800000000E+01 0.  1.
        -11    1    1    2    0    0 -0.54649265396E+02  0.28593011819E+02 -0.44191647992E+01  0.61835520138E+02  0.00000000000E+00 0.  1.
         11    1    1    2    0    0  0.11538133279E+02 -0.20000554494E+02  0.36793861750E+02  0.43438910692E+02  0.00000000000E+00 0. -1.
</event>
<event>
 7    1  0.2619826E-009  0.1275557E+03  0.7561462E-02  0.1231128E+00
         -2   -1    0    0    0  501 -0.00000000000E+00  0.00000000000E+00  0.13349795700E+03  0.13349795700E+03  0.00000000000E+00 0.  1.
          2   -1    0    0  501    0  0.00000000000E+00 -0.00000000000E+00 -0.14749108042E+03  0.14749108042E+03  0.00000000000E+00 0. -1.
         25    2    1    2    0    0 -0.75483290584E+02  0.30138723258E+02 -0.41972093127E+02  0.15497376147E+03  0.12509652412E+03 0.  0.
          5    1    3    3  502    0 -0.21678803893E+02  0.71290226471E+02  0.10169188942E+01  0.74637614193E+02  0.41800000000E+01 0. -1.
         -5    1    3    3    0  502 -0.53804486691E+02 -0.41151503212E+02 -0.42989012021E+02  0.80336147277E+02  0.41800000000E+01 0. -1.
        -11    1    1    2    0    0  0.57406198415E+02 -0.56568089106E+02 -0.40893392803E+01  0.80697850140E+02  0.00000000000E+00 0. -1.
         11    1    1    2    0    0  0.18077092169E+02  0.26429365848E+02  0.32068308994E+02  0.45317425811E+02  0.00000000000E+00 0.  1.
</event>
<event>
 7    1  0.2619826E-009  0.1744587E+03  0.7561462E-02  0.1173276E+00
          2   -1    0    0  501    0  0.00000000000E+00  0.00000000000E+00  0.70155236714E+03  0.70155236714E+03  0.00000000000E+00 0. -1.
         -2   -1    0    0    0  501 -0.00000000000E+00 -0.00000000000E+00 -0.51539349865E+02  0.51539349865E+02  0.00000000000E+00 0.  1.
         25    2    1    2    0    0  0.75750017758E+02 -0.12122122992E+03  0.46126862578E+03  0.49884706537E+03  0.12508795995E+03 0.  0.
          5    1    3    3  502    0  0.58137378262E+01  0.24273165345E+02  0.36472986750E+02  0.44392986674E+02  0.41800000000E+01 0.  1.
         -5    1    3    3    0  502  0.69936279932E+02 -0.14549439527E+03  0.42479563903E+03  0.45445407869E+03  0.41800000000E+01 0.  1.
        -11    1    1    2    0    0 -0.77390832834E+02  0.52804011634E+02  0.69117597407E+02  0.11642528472E+03  0.00000000000E+00 0.  1.
         11    1    1    2    0    0  0.16408150755E+01  0.68417218289E+02  0.11962679409E+03  0.13781936692E+03  0.00000000000E+00 0. -1.
</event>
<event>
 7    1  0.2619826E-009  0.1537027E+03  0.7561462E-02  0.1195996E+00
          2   -1    0    0  501    0  0.00000000000E+00  0.00000000000E+00  0.90431301925E+03  0.90431301925E+03  0.00000000000E+00 0. -1.
         -2   -1    0    0    0  501 -0.00000000000E+00 -0.00000000000E+00 -0.32444677945E+02  0.32444677945E+02  0.00000000000E+00 0.  1.
         25    2    1    2    0    0  0.12837198759E+03  0.13427390646E+02  0.37825924161E+03  0.41879170730E+03  0.12508708254E+03 0.  0.
          5    1    3    3  502    0  0.12856754219E+03  0.51265937844E+02  0.32550760018E+03  0.35373786829E+03  0.41800000000E+01 0. -1.
         -5    1    3    3    0  502 -0.19555460463E+00 -0.37838547198E+02  0.52751641434E+02  0.65053839008E+02  0.41800000000E+01 0. -1.
        -11    1    1    2    0    0 -0.24209414087E+02  0.59065794245E+01  0.18102931831E+02  0.30800966735E+02  0.00000000000E+00 0.  1.
         11    1    1    2    0    0 -0.10416257350E+03 -0.19333970070E+02  0.47550616786E+03  0.48716502316E+03  0.00000000000E+00 0. -1.
</event>
<event>
 7    1  0.2619826E-009  0.7388028E+02  0.7561462E-02  0.1347374E+00
         -1   -1    0    0    0  501 -0.00000000000E+00  0.00000000000E+00  0.41934911065E+02  0.41934911065E+02  0.00000000000E+00 0.  1.
          1   -1    0    0  501    0  0.00000000000E+00 -0.00000000000E+00 -0.43894778223E+03  0.43894778223E+03  0.00000000000E+00 0. -1.
         25    2    1    2    0    0  0.51175022346E+02 -0.15458451699E+02 -0.32663799788E+03  0.35383225439E+03  0.12508811272E+03 0.  0.
          5    1    3    3  502    0  0.32090303239E+02 -0.59697280712E+01 -0.72371968836E+01  0.33693836736E+02  0.41800000000E+01 0.  1.
         -5    1    3    3    0  502  0.19084719107E+02 -0.94887236278E+01 -0.31940080100E+03  0.32013841765E+03  0.41800000000E+01 0.  1.
        -11    1    1    2    0    0 -0.51884023544E+02 -0.21504451256E+02 -0.11190019488E+02  0.57267878074E+02  0.00000000000E+00 0.  1.
         11    1    1    2    0    0  0.70900119793E+00  0.36962902955E+02 -0.59184853795E+02  0.69782560832E+02  0.00000000000E+00 0. -1.
</event>
<event>
 7    1  0.2619826E-009  0.9412145E+02  0.7561462E-02  0.1293167E+00
          1   -1    0    0  501    0  0.00000000000E+00  0.00000000000E+00  0.45475954962E+02  0.45475954962E+02  0.00000000000E+00 0. -1.
         -1   -1    0    0    0  501 -0.00000000000E+00 -0.00000000000E+00 -0.35799531993E+03  0.35799531993E+03  0.00000000000E+00 0.  1.
         25    2    1    2    0    0 -0.46792250006E+02  0.12087497038E+02 -0.99325048786E+02  0.16687181991E+03  0.12508044099E+03 0.  0.
          5    1    3    3  502    0 -0.89214193226E+02 -0.15665216369E+01 -0.66893448072E+02  0.11159673856E+03  0.41800000000E+01 0. -1.
         -5    1    3    3    0  502  0.42421943220E+02  0.13654018675E+02 -0.32431600714E+02  0.55275081343E+02  0.41800000000E+01 0. -1.
        -11    1    1    2    0    0  0.13956005018E+02  0.75789882220E+01  0.37390473488E+01  0.16315379665E+02  0.00000000000E+00 0. -1.
         11    1    1    2    0    0  0.32836244988E+02 -0.19666485260E+02 -0.21693336353E+03  0.22028407532E+03  0.00000000000E+00 0.  1.
</event>
<event>
 7    1  0.2619826E-009  0.1178105E+03  0.7561462E-02  0.1246753E+00
         -1   -1    0    0    0  501 -0.00000000000E+00  0.00000000000E+00  0.19099421726E+02  0.19099421726E+02  0.00000000000E+00 0.  1.
          1   -1    0    0  501    0  0.00000000000E+00 -0.00000000000E+00 -0.78677688186E+03  0.78677688186E+03  0.00000000000E+00 0. -1.
         25    2    1    2    0    0  0.31130060161E+02 -0.44386823496E+02 -0.47242150485E+03  0.49170067241E+03  0.12509277459E+03 0.  0.
          5    1    3    3  502    0  0.36043890945E+02  0.38491121677E+02 -0.20008973527E+03  0.20696401398E+03  0.41800000000E+01 0. -1.
         -5    1    3    3    0  502 -0.49138307839E+01 -0.82877945172E+02 -0.27233176959E+03  0.28473665843E+03  0.41800000000E+01 0. -1.
        -11    1    1    2    0    0 -0.24401571044E+02 -0.22007584806E+02 -0.16015577466E+03  0.16349202615E+03  0.00000000000E+00 0. -1.
         11    1    1    2    0    0 -0.67284891179E+01  0.66394408302E+02 -0.13510018061E+03  0.15068360502E+03  0.00000000000E+00 0.  1.
</event>
<event>
 7    1  0.2619826E-009  0.1129475E+03  0.7561462E-02  0.1255207E+00
         -1   -1    0    0    0  501 -0.00000000000E+00  0.00000000000E+00  0.45964727408E+03  0.45964727408E+03  0.00000000000E+00 0.  1.
          1   -1    0    0  501    0  0.00000000000E+00 -0.00000000000E+00 -0.42023697888E+02  0.42023697888E+02  0.00000000000E+00 0. -1.
         25    2    1    2    0    0 -0.32244376096E+02  0.39667100991E+02  0.10139716508E+03  0.16894150031E+03  0.12508663697E+03 0.  0.
          5    1    3    3  502    0  0.20252370366E+02 -0.29246571223E+02  0.40938517630E+00  0.35821228761E+02  0.41800000000E+01 0. -1.
         -5    1    3    3    0  502 -0.52496746462E+02  0.68913672214E+02  0.10098777990E+03  0.13312027155E+03  0.41800000000E+01 0. -1.
        -11    1    1    2    0    0  0.47435858339E+02  0.12462766668E+02  0.15886021207E+03  0.16625897927E+03  0.00000000000E+00 0.  1.
         11    1    1    2    0    0 -0.15191482244E+02 -0.52129867659E+02  0.15736619905E+03  0.16647049239E+03  0.00000000000E+00 0. -1.
</event>
<event>
 7    1  0.2619826E-009  0.1082042E+03  0.7561462E-02  0.1263932E+00
         -1   -1    0    0    0  501 -0.00000000000E+00  0.00000000000E+00  0.34816715797E+02  0.34816715797E+02  0.00000000000E+00 0.  1.
          1   -1    0    0  501    0  0.00000000000E+00 -0.00000000000E+00 -0.40424684054E+03  0.40424684054E+03  0.00000000000E+00 0. -1.
         25    2    1    2    0    0 -0.35458667935E+02 -0.19129883800E+02 -0.25649729569E+03  0.28820423537E+03  0.12509016349E+03 0.  0.
          5    1    3    3  502    0  0.35349824185E+02 -0.27665187631E+02 -0.17071518836E+03  0.17656760919E+03  0.41800000000E+01 0. -1.
         -5    1    3    3    0  502 -0.70808492120E+02  0.85353038308E+01 -0.85782107328E+02  0.11163662618E+03  0.41800000000E+01 0. -1.
        -11    1    1    2    0    0  0.48012328079E+02  0.48313607095E+02 -0.73221102758E+02  0.10000359077E+03  0.00000000000E+00 0.  1.
         11    1    1    2    0    0 -0.12553660144E+02 -0.29183723295E+02 -0.39711726296E+02  0.50855730196E+02  0.00000000000E+00 0. -1.
</event>
<event>
 7    1  0.2619826E-009  0.1146594E+03  0.7561462E-02  0.1252177E+00
          1   -1    0    0  501    0  0.00000000000E+00  0.00000000000E+00  0.82031561720E+03  0.82031561720E+03  0.00000000000E+00 0. -1.
         -1   -1    0    0    0  501 -0.00000000000E+00 -0.00000000000E+00 -0.20253421433E+02  0.20253421433E+02  0.00000000000E+00 0.  1.
         25    2    1    2    0    0 -0.51058324205E+02 -0.11468334789E+02  0.59210616478E+03  0.60743170244E+03  0.12508032454E+03 0.  0.
          5    1    3    3  502    0 -0.85365611590E+01  0.48994030282E+02  0.36906126256E+03  0.37242042882E+03  0.41800000000E+01 0. -1.
         -5    1    3    3    0  502 -0.42521763046E+02 -0.60462365072E+02  0.22304490222E+03  0.23501127362E+03  0.41800000000E+01 0. -1.
        -11    1    1    2    0    0 -0.13490233334E+02 -0.27036294580E+02  0.57831129737E+02  0.65248656589E+02  0.00000000000E+00 0. -1.
         11    1    1    2    0    0  0.64548557539E+02  0.38504629369E+02  0.15012490125E+03  0.16788867960E+03  0.00000000000E+00 0.  1.
</event>
<event>
 7    1  0.2619826E-009  0.1917022E+03  0.7561462E-02  0.1156935E+00
          2   -1    0    0  501    0  0.00000000000E+00  0.00000000000E+00  0.51757753868E+03  0.51757753868E+03  0.00000000000E+00 0. -1.
         -2   -1    0    0    0  501 -0.00000000000E+00 -0.00000000000E+00 -0.89434198040E+02  0.89434198040E+02  0.00000000000E+00 0.  1.
         25    2    1    2    0    0 -0.15083826754E+03 -0.63917875085E+02  0.34021637592E+03  0.39778331493E+03  0.12508679179E+03 0.  0.
          5    1    3    3  502    0 -0.14931433094E+03 -0.21507114424E+02  0.31219514984E+03  0.34675727732E+03  0.41800000000E+01 0. -1.
         -5    1    3    3    0  502 -0.15239366062E+01 -0.42410760660E+02  0.28021226081E+02  0.51026037605E+02  0.41800000000E+01 0. -1.
        -11    1    1    2    0    0 -0.38377727307E+01  0.31599005976E+02  0.15488793038E+02  0.35399553500E+02  0.00000000000E+00 0.  1.
         11    1    1    2    0    0  0.15467604027E+03  0.32318869108E+02  0.72438171682E+02  0.17382886829E+03  0.00000000000E+00 0. -1.
</event>
<event>
 7    1  0.2619826E-009  0.9516586E+02  0.7561462E-02  0.1290803E+00
          1   -1    0    0  501    0  0.00000000000E+00  0.00000000000E+00  0.36967780367E+03  0.36967780367E+03  0.00000000000E+00 0. -1.
         -1   -1    0    0    0  501 -0.00000000000E+00 -0.00000000000E+00 -0.36251015146E+02  0.36251015146E+02  0.00000000000E+00 0.  1.
         25    2    1    2    0    0  0.14367356200E+02 -0.38480604654E+02  0.20367361715E+03  0.24252058599E+03  0.12508442928E+03 0.  0.
          5    1    3    3  502    0  0.68842381358E+02 -0.10114556247E+02  0.98822144678E+02  0.12093331385E+03  0.41800000000E+01 0. -1.
         -5    1    3    3    0  502 -0.54475025158E+02 -0.28366048408E+02  0.10485147247E+03  0.12158727214E+03  0.41800000000E+01 0. -1.
        -11    1    1    2    0    0 -0.94723965430E+01 -0.79563945318E+01 -0.10097363748E+02  0.15968320665E+02  0.00000000000E+00 0.  1.
         11    1    1    2    0    0 -0.48949596570E+01  0.46436999186E+02  0.13985053512E+03  0.14743991216E+03  0.00000000000E+00 0. -1.
</event>
<event>
 7    1  0.2619826E-009  0.1484537E+03  0.7561462E-02  0.1202386E+00
          1   -1    0    0  501    0  0.00000000000E+00  0.00000000000E+00  0.70149650462E+03  0.70149650462E+03  0.00000000000E+00 0. -1.
         -1   -1    0    0    0  501 -0.00000000000E+00 -0.00000000000E+00 -0.43410095346E+02  0.43410095346E+02  0.00000000000E+00 0.  1.
         25    2    1    2    0    0 -0.11565352243E+03  0.26246350370E+02  0.19949584365E+03  0.26364884086E+03  0.12509001358E+03 0.  0.
          5    1    3    3  502    0 -0.12823733109E+03  0.39752318972E+02  0.11428762133E+03  0.17636380790E+03  0.41800000000E+01 0. -1.
         -5    1    3    3    0  502  0.12583808659E+02 -0.13505968602E+02  0.85208222320E+02  0.87285032962E+02  0.41800000000E+01 0. -1.
        -11    1    1    2    0    0  0.12024147083E+03 -0.33308654357E+01  0.41096608546E+03  0.42820816126E+03  0.00000000000E+00 0.  1.
         11    1    1    2    0    0 -0.45879483961E+01 -0.22915484935E+02  0.47624480172E+02  0.53049597849E+02  0.00000000000E+00 0. -1.
</event>
<event>
 7    1  0.2619826E-009  0.7429031E+02  0.7561462E-02  0.1346083E+00
         -1   -1    0    0    0  501 -0.00000000000E+00  0.00000000000E+00  0.13736488851E+03  0.13736488851E+03  0.00000000000E+00 0.  1.
          1   -1    0    0  501    0  0.00000000000E+00 -0.00000000000E+00 -0.11550178020E+03  0.11550178020E+03  0.00000000000E+00 0. -1.
         25    2    1    2    0    0 -0.20304161281E+02  0.60408536556E+02 -0.23762594154E+02  0.14238369928E+03  0.12508799577E+03 0.  0.
          5    1    3    3  502    0 -0.15451886980E+00  0.51137200225E+02  0.46093429013E+02  0.68971832809E+02  0.41800000000E+01 0. -1.
         -5    1    3    3    0  502 -0.20149642411E+02  0.92713363310E+01 -0.69856023167E+02  0.73411866475E+02  0.41800000000E+01 0. -1.
        -11    1    1    2    0    0  0.13488345331E+02  0.41786872113E+00  0.47366285701E+02  0.49251143085E+02  0.00000000000E+00 0.  1.
         11    1    1    2    0    0  0.68158159502E+01 -0.60826405277E+02 -0.17405832364E+01  0.61231826332E+02  0.00000000000E+00 0. -1.
</event>
<event>
 7    1  0.2619826E-009  0.7197705E+02  0.7561462E-02  0.1353496E+00
         -2   -1    0    0    0  501 -0.00000000000E+00  0.00000000000E+00  0.26257987935E+02  0.26257987935E+02  0.00000000000E+00 0.  1.
          2   -1    0    0  501    0  0.00000000000E+00 -0.00000000000E+00 -0.49498480719E+03  0.49498480719E+03  0.00000000000E+00 0. -1.
         25    2    1    2    0    0 -0.77685354762E+00 -0.19819221263E+02 -0.32385969880E+03  0.34774510578E+03  0.12509256194E+03 0.  0.
          5    1    3    3  502    0 -0.21234864126E+02  0.24502548099E+02 -0.28026026253E+03  0.28216055974E+03  0.41800000000E+01 0. -1.
         -5    1    3    3    0  502  0.20458010578E+02 -0.44321769363E+02 -0.43599436270E+02  0.65584546040E+02  0.41800000000E+01 0. -1.
        -11    1    1    2    0    0 -0.13491269892E+02  0.37322505444E+02 -0.14559212187E+03  0.15090410772E+03  0.00000000000E+00 0. -1.
         11    1    1    2    0    0  0.14268123440E+02 -0.17503284181E+02  0.72500141686E+00  0.22593581626E+02  0.00000000000E+00 0.  1.
</event>
<event>
 7    1  0.2619826E-009  0.3634230E+03  0.7561462E-02  0.1057237E+00
         -2   -1    0    0    0  501 -0.00000000000E+00  0.00000000000E+00  0.85075951345E+02  0.85075951345E+02  0.00000000000E+00 0. -1.
          2   -1    0    0  501    0  0.00000000000E+00 -0.00000000000E+00 -0.17122696020E+04  0.17122696020E+04  0.00000000000E+00 0.  1.
         25    2    1    2    0    0 -0.18977329450E+03  0.30295997325E+03 -0.98408572042E+03  0.10544539553E+04  0.12509912044E+03 0.  0.
          5    1    3    3  502    0 -0.14625496520E+03  0.15268848060E+03 -0.68493653700E+03  0.71684016285E+03  0.41800000000E+01 0.  1.
         -5    1    3    3    0  502 -0.43518329305E+02  0.15027149265E+03 -0.29914918342E+03  0.33761379242E+03  0.41800000000E+01 0.  1.
        -11    1    1    2    0    0  0.81264700114E+02 -0.15934353749E+03 -0.41803047311E+03  0.45469087397E+03  0.00000000000E+00 0.  1.
         11    1    1    2    0    0  0.10850859439E+03 -0.14361643576E+03 -0.22507745715E+03  0.28820072414E+03  0.00000000000E+00 0. -1.
</event>
<event>
 7    1  0.2619826E-009  0.1105778E+03  0.7561462E-02  0.1259504E+00
         -2   -1    0    0    0  501 -0.00000000000E+00  0.00000000000E+00  0.44292112176E+02  0.44292112176E+02  0.00000000000E+00 0. -1.
          2   -1    0    0  501    0  0.00000000000E+00 -0.00000000000E+00 -0.54863124917E+03  0.54863124917E+03  0.00000000000E+00 0.  1.
         25    2    1    2    0    0  0.67906103504E+02  0.41257446822E+02 -0.42362056176E+03  0.44879353185E+03  0.12509131892E+03 0.  0.
          5    1    3    3  502    0  0.10047249261E+03  0.22836209708E+02 -0.23777524967E+03  0.25917321621E+03  0.41800000000E+01 0. -1.
         -5    1    3    3    0  502 -0.32566389104E+02  0.18421237114E+02 -0.18584531209E+03  0.18962031564E+03  0.41800000000E+01 0. -1.
        -11    1    1    2    0    0 -0.92407110698E+01 -0.11041032060E+02  0.19437205566E+02  0.24188842268E+02  0.00000000000E+00 0. -1.
         11    1    1    2    0    0 -0.58665392434E+02 -0.30216414761E+02 -0.10015578080E+03  0.11994098723E+03  0.00000000000E+00 0.  1.
</event>
<event>
 7    1  0.2619826E-009  0.1669489E+03  0.7561462E-02  0.1181067E+00
          1   -1    0    0  501    0  0.00000000000E+00  0.00000000000E+00  0.13966469201E+04  0.13966469201E+04  0.00000000000E+00 0. -1.
         -1   -1    0    0    0  501 -0.00000000000E+00 -0.00000000000E+00 -0.21105529793E+02  0.21105529793E+02  0.00000000000E+00 0.  1.
         25    2    1    2    0    0  0.86090018758E+02 -0.95768889969E+02  0.59714126913E+03  0.62354756309E+03  0.12510274389E+03 0.  0.
          5    1    3    3  502    0  0.15530149635E+02  0.29091816546E+02  0.16154304134E+03  0.16492769914E+03  0.41800000000E+01 0. -1.
         -5    1    3    3    0  502  0.70559869123E+02 -0.12486070652E+03  0.43559822779E+03  0.45861986396E+03  0.41800000000E+01 0. -1.
        -11    1    1    2    0    0 -0.10372774072E+01 -0.16386330399E+02  0.64202617764E+02  0.66268875772E+02  0.00000000000E+00 0.  1.
         11    1    1    2    0    0 -0.85052741351E+02  0.11215522037E+03  0.71419750345E+03  0.72793601107E+03  0.00000000000E+00 0. -1.
</event>
<event>
 7    1  0.2619826E-009  0.1054224E+03  0.7561462E-02  0.1269290E+00
          1   -1    0    0  501    0  0.00000000000E+00  0.00000000000E+00  0.61496364318E+02  0.61496364318E+02  0.00000000000E+00 0. -1.
         -1   -1    0    0    0  501 -0.00000000000E+00 -0.00000000000E+00 -0.22106094282E+03  0.22106094282E+03  0.00000000000E+00 0.  1.
         25    2    1    2    0    0 -0.28065033528E+02 -0.32384030014E+02 -0.10251677668E+03  0.16731704806E+03  0.12509569762E+03 0.  0.
          5    1    3    3  502    0 -0.29010139047E+02 -0.70360573568E+02 -0.23862055828E+02  0.79869071540E+02  0.41800000000E+01 0.  1.
         -5    1    3    3    0  502  0.94510551874E+00  0.37976543554E+02 -0.78654720850E+02  0.87447976516E+02  0.41800000000E+01 0.  1.
        -11    1    1    2    0    0  0.59267513816E+02  0.17248792962E+02 -0.50930200406E+02  0.80025273295E+02  0.00000000000E+00 0.  1.
         11    1    1    2    0    0 -0.31202480288E+02  0.15135237052E+02 -0.61176014149E+01  0.35214985784E+02  0.00000000000E+00 0. -1.
</event>
<event>
 7    1  0.2619826E-009  0.1187553E+03  0.7561462E-02  0.1245165E+00
         -2   -1    0    0    0  501 -0.00000000000E+00  0.00000000000E+00  0.10024289570E+03  0.10024289570E+03  0.00000000000E+00 0.  1.
          2   -1    0    0  501    0  0.00000000000E+00 -0.00000000000E+00 -0.18045186009E+03  0.18045186009E+03  0.00000000000E+00 0. -1.
         25    2    1    2    0    0 -0.14424345687E+02  0.73496068646E+02 -0.15873192998E+02  0.14669948911E+03  0.12513611787E+03 0.  0.
          5    1    3    3  502    0 -0.77297163675E+01  0.10228711758E+03 -0.38073492979E+02  0.10949642097E+03  0.41800000000E+01 0.  1.
         -5    1    3    3    0  502 -0.66946293194E+01 -0.28791048930E+02  0.22200299981E+02  0.37203068146E+02  0.41800000000E+01 0.  1.
        -11    1    1    2    0    0  0.44490146250E+02 -0.49246657577E+02 -0.68217155056E+02  0.95174506249E+02  0.00000000000E+00 0. -1.
         11    1    1    2    0    0 -0.30065800563E+02 -0.24249411069E+02  0.38813836620E+01  0.38820760423E+02  0.00000000000E+00 0.  1.
</event>
<event>
 7    1  0.2619826E-009  0.1535842E+03  0.7561462E-02  0.1196137E+00
         -2   -1    0    0    0  501 -0.00000000000E+00  0.00000000000E+00  0.21298152512E+03  0.21298152512E+03  0.00000000000E+00 0.  1.
          2   -1    0    0  501    0  0.00000000000E+00 -0.00000000000E+00 -0.22515606249E+03  0.22515606249E+03  0.00000000000E+00 0. -1.
         25    2    1    2    0    0  0.83634011547E+02 -0.10097687417E+03  0.13084117105E+03  0.22351285324E+03  0.12509039338E+03 0.  0.
          5    1    3    3  502    0  0.60352940491E+02 -0.11410228483E+02 -0.19580733840E+01  0.61595269228E+02  0.41800000000E+01 0. -1.
         -5    1    3    3    0  502  0.23281071056E+02 -0.89566645683E+02  0.13279924443E+03  0.16191758401E+03  0.41800000000E+01 0. -1.
        -11    1    1    2    0    0 -0.31334408399E+02  0.95348581910E+02 -0.61811489558E+02  0.11787220819E+03  0.00000000000E+00 0.  1.
         11    1    1    2    0    0 -0.52299603148E+02  0.56282922559E+01 -0.81204218856E+02  0.96752526185E+02  0.00000000000E+00 0. -1.
</event>
<event>
 7    1  0.2619826E-009  0.1103953E+03  0.7561462E-02  0.1259840E+00
          3   -1    0    0  501    0  0.00000000000E+00  0.00000000000E+00  0.78785059775E+02  0.78785059775E+02  0.00000000000E+00 0. -1.
         -3   -1    0    0    0  501 -0.00000000000E+00 -0.00000000000E+00 -0.21641099764E+03  0.21641099764E+03  0.00000000000E+00 0.  1.
         25    2    1    2    0    0 -0.87140814012E+02 -0.85758262281E+01 -0.65983438111E+02  0.16633770140E+03  0.12508937021E+03 0.  0.
          5    1    3    3  502    0 -0.10566649759E+03 -0.12231910833E+02 -0.87214378655E+02  0.13761848931E+03  0.41800000000E+01 0.  1.
         -5    1    3    3    0  502  0.18525683578E+02  0.36560846049E+01  0.21230940544E+02  0.28719212090E+02  0.41800000000E+01 0.  1.
        -11    1    1    2    0    0  0.47820420989E+02  0.23063810716E+02 -0.68736707450E+02  0.86853134540E+02  0.00000000000E+00 0.  1.
         11    1    1    2    0    0  0.39320393023E+02 -0.14487984488E+02 -0.29057923001E+01  0.42005221472E+02  0.00000000000E+00 0. -1.
</event>
<event>
 6    1  0.2619826E-009  0.1364828E+03  0.7561462E-02  0.1218142E+00
         -1   -1    0    0    0  501 -0.00000000000E+00  0.00000000000E+00  0.12546778877E+04  0.12546778877E+04  0.00000000000E+00 0.  1.
          1   -1    0    0  501    0  0.00000000000E+00 -0.00000000000E+00 -0.16573284975E+02  0.16573284975E+02  0.00000000000E+00 0. -1.
          5    1    1    2  502    0  0.18866609897E+01 -0.11241127030E+03  0.59567421300E+03  0.60620548794E+03  0.41800000000E+01 0. -1.
         -5    1    1    2    0  502 -0.30418551013E+02  0.27322461221E+02  0.24744916006E+03  0.25083931978E+03  0.41800000000E+01 0. -1.
        -11    1    1    2    0    0  0.51234980006E+02  0.29051430398E+02  0.13502950167E+03  0.14731590242E+03  0.00000000000E+00 0.  1.
         11    1    1    2    0    0 -0.22703089982E+02  0.56037378681E+02  0.25995172803E+03  0.26689046257E+03  0.00000000000E+00 0. -1.
</event>
<event>
 7    1  0.2619826E-009  0.1351554E+03  0.7561462E-02  0.1220001E+00
          4   -1    0    0  501    0  0.00000000000E+00  0.00000000000E+00  0.14493158938E+03  0.14493158938E+03  0.00000000000E+00 0.  1.
         -4   -1    0    0    0  501 -0.00000000000E+00 -0.00000000000E+00 -0.18000365431E+03  0.18000365431E+03  0.00000000000E+00 0. -1.
         25    2    1    2    0    0 -0.67796772577E+02 -0.46204422301E+02  0.68440996800E+02  0.16450796370E+03  0.12508976403E+03 0.  0.
          5    1    3    3  502    0 -0.79454305880E+02 -0.79353537015E+02  0.62631375365E+02  0.12864731688E+03  0.41800000000E+01 0. -1.
         -5    1    3    3    0  502  0.11657533303E+02  0.33149114714E+02  0.58096214348E+01  0.35860646819E+02  0.41800000000E+01 0. -1.
        -11    1    1    2    0    0  0.32667913209E+02 -0.26330531349E+02 -0.34371717510E+02  0.54239325209E+02  0.00000000000E+00 0.  1.
         11    1    1    2    0    0  0.35128859368E+02  0.72534953650E+02 -0.69141344212E+02  0.10618795478E+03  0.00000000000E+00 0. -1.
</event>
<event>
 7    1  0.2619826E-009  0.1148082E+03  0.7561462E-02  0.1251916E+00
          3   -1    0    0  501    0  0.00000000000E+00  0.00000000000E+00  0.73149734424E+02  0.73149734424E+02  0.00000000000E+00 0. -1.
         -3   -1    0    0    0  501 -0.00000000000E+00 -0.00000000000E+00 -0.20776534813E+03  0.20776534813E+03  0.00000000000E+00 0.  1.
         25    2    1    2    0    0  0.90278959660E+01 -0.55602934263E+02 -0.55110456817E+02  0.14782813384E+03  0.12507120172E+03 0.  0.
          5    1    3    3  502    0  0.52344641446E+01 -0.91223818187E+02 -0.13006715243E+02  0.92389564675E+02  0.41800000000E+01 0. -1.
         -5    1    3    3    0  502  0.37934318214E+01  0.35620883923E+02 -0.42103741574E+02  0.55438569164E+02  0.41800000000E+01 0. -1.
        -11    1    1    2    0    0 -0.47202633142E+02  0.26990880457E+02 -0.22743493414E+02  0.58939483337E+02  0.00000000000E+00 0.  1.
         11    1    1    2    0    0  0.38174737176E+02  0.28612053806E+02 -0.56761663471E+02  0.74147465374E+02  0.00000000000E+00 0. -1.
</event>
<event>
 7    1  0.2619826E-009  0.1090834E+03  0.7561462E-02  0.1262277E+00
          1   -1    0    0  501    0  0.00000000000E+00  0.00000000000E+00  0.10828067417E+04  0.10828067417E+04  0.00000000000E+00 0. -1.
         -1   -1    0    0    0  501 -0.00000000000E+00 -0.00000000000E+00 -0.18873665402E+02  0.18873665402E+02  0.00000000000E+00 0.  1.
         25    2    1    2    0    0 -0.59258363206E+02 -0.45339730353E+02  0.80126275700E+03  0.81439330134E+03  0.12508876353E+03 0.  0.
          5    1    3    3  502    0 -0.88870696930E+02 -0.10193636142E+02  0.37063832881E+03  0.38130323127E+03  0.41800000000E+01 0.  1.
         -5    1    3    3    0  502  0.29612333724E+02 -0.35146094212E+02  0.43062442819E+03  0.43309007008E+03  0.41800000000E+01 0.  1.
        -11    1    1    2    0    0  0.17532192655E+02 -0.38648913169E+01  0.12199033782E+01  0.17994536072E+02  0.00000000000E+00 0.  1.
         11    1    1    2    0    0  0.41726170551E+02  0.49204621670E+02  0.26145041589E+03  0.26929256966E+03  0.00000000000E+00 0. -1.
</event>
<event>
 7    1  0.2619826E-009  0.8408438E+02  0.7561462E-02  0.1317844E+00
          2   -1    0    0  501    0  0.00000000000E+00  0.00000000000E+00  0.47446480126E+03  0.47446480126E+03  0.00000000000E+00 0. -1.
         -2   -1    0    0    0  501 -0.00000000000E+00 -0.00000000000E+00 -0.27366380461E+02  0.27366380461E+02  0.00000000000E+00 0.  1.
         25    2    1    2    0    0 -0.23198952237E+02  0.27295996199E+02  0.26457384169E+03  0.29483613628E+03  0.12508303946E+03 0.  0.
          5    1    3    3  502    0 -0.48146583004E+02  0.30977625445E+02  0.26303722732E+03  0.26922808562E+03  0.41800000000E+01 0. -1.
         -5    1    3    3    0  502  0.24947630767E+02 -0.36816292460E+01  0.15366143671E+01  0.25608050658E+02  0.41800000000E+01 0. -1.
        -11    1    1    2    0    0 -0.48108181635E+01 -0.49330923561E+02  0.52608771825E+02  0.72279781846E+02  0.00000000000E+00 0.  1.
         11    1    1    2    0    0  0.28009770401E+02  0.22034927363E+02  0.12991580729E+03  0.13471526360E+03  0.00000000000E+00 0. -1.
</event>
<event>
 7    1  0.2619826E-009  0.7691479E+02  0.7561462E-02  0.1338042E+00
          4   -1    0    0  501    0  0.00000000000E+00  0.00000000000E+00  0.51747595284E+02  0.51747595284E+02  0.00000000000E+00 0. -1.
         -4   -1    0    0    0  501 -0.00000000000E+00 -0.00000000000E+00 -0.32806571373E+03  0.32806571373E+03  0.00000000000E+00 0.  1.
         25    2    1    2    0    0 -0.13789056380E+02  0.15203831952E+02 -0.52544215149E+02  0.13722100578E+03  0.12508962906E+03 0.  0.
          5    1    3    3  502    0  0.14451477926E+02  0.26642543231E+02 -0.86295646339E+02  0.91559168307E+02  0.41800000000E+01 0.  1.
         -5    1    3    3    0  502 -0.28240534306E+02 -0.11438711279E+02  0.33751431190E+02  0.45661837468E+02  0.41800000000E+01 0.  1.
        -11    1    1    2    0    0  0.76420764110E+01  0.38081042216E+02 -0.11357467441E+03  0.12003238636E+03  0.00000000000E+00 0.  1.
         11    1    1    2    0    0  0.61469799686E+01 -0.53284874168E+02 -0.11019922888E+03  0.12255991687E+03  0.00000000000E+00 0. -1.
</event>
<event>
 7    1  0.2619826E-009  0.1167268E+03  0.7561462E-02  0.1248597E+00
         -2   -1    0    0    0  501 -0.00000000000E+00  0.00000000000E+00  0.20464592750E+02  0.20464592750E+02  0.00000000000E+00 0.  1.
          2   -1    0    0  501    0  0.00000000000E+00 -0.00000000000E+00 -0.90076304545E+03  0.90076304545E+03  0.00000000000E+00 0. -1.
         25    2    1    2    0    0 -0.71201499867E+02 -0.35769060564E+02 -0.52212796678E+03  0.54278321311E+03  0.12508766311E+03 0.  0.
          5    1    3    3  502    0  0.17749581165E+02 -0.15201595184E+02 -0.16378011037E+02  0.28841771326E+02  0.41800000000E+01 0. -1.
         -5    1    3    3    0  502 -0.88951081031E+02 -0.20567465380E+02 -0.50574995574E+03  0.51394144178E+03  0.41800000000E+01 0. -1.
        -11    1    1    2    0    0  0.67872075772E+02  0.61970591508E+02 -0.31197629551E+03  0.32523250428E+03  0.00000000000E+00 0.  1.
         11    1    1    2    0    0  0.33294240942E+01 -0.26201530944E+02 -0.46194190420E+02  0.53211920818E+02  0.00000000000E+00 0. -1.
</event>
<event>
 7    1  0.2619826E-009  0.1601646E+03  0.7561462E-02  0.1188511E+00
         -2   -1    0    0    0  501 -0.00000000000E+00  0.00000000000E+00  0.13177739757E+03  0.13177739757E+03  0.00000000000E+00 0.  1.
          2   -1    0    0  501    0  0.00000000000E+00 -0.00000000000E+00 -0.28906578587E+03  0.28906578587E+03  0.00000000000E+00 0. -1.
         25    2    1    2    0    0 -0.69565094375E+02  0.11662198310E+03  0.12384049612E+02  0.18504257944E+03  0.12508957679E+03 0.  0.
          5    1    3    3  502    0 -0.42802496673E+02 -0.81154330411E+01 -0.27044694568E+02  0.51447078432E+02  0.41800000000E+01 0. -1.
         -5    1    3    3    0  502 -0.26762597702E+02  0.12473741614E+03  0.39428744180E+02  0.13359550101E+03  0.41800000000E+01 0. -1.
        -11    1    1    2    0    0  0.73934777523E+02 -0.69104933712E+02 -0.15637325687E+03  0.18626443207E+03  0.00000000000E+00 0. -1.
         11    1    1    2    0    0 -0.43696831480E+01 -0.47517049388E+02 -0.13299181041E+02  0.49536171933E+02  0.00000000000E+00 0.  1.
</event>
<event>
 7    1  0.2619826E-009  0.1040462E+03  0.7561462E-02  0.1272010E+00
         -2   -1    0    0    0  501 -0.00000000000E+00  0.00000000000E+00  0.33222467390E+02  0.33222467390E+02  0.00000000000E+00 0.  1.
          2   -1    0    0  501    0  0.00000000000E+00 -0.00000000000E+00 -0.56024309451E+03  0.56024309451E+03  0.00000000000E+00 0. -1.
         25    2    1    2    0    0 -0.46918191711E+02 -0.64917495715E+02 -0.24625519155E+03  0.28758435833E+03  0.12509015080E+03 0.  0.
          5    1    3    3  502    0 -0.29945084493E+02 -0.64115316661E+02 -0.25730360747E+03  0.26688967895E+03  0.41800000000E+01 0.  1.
         -5    1    3    3    0  502 -0.16973107218E+02 -0.80217905450E+00  0.11048415923E+02  0.20694679371E+02  0.41800000000E+01 0.  1.
        -11    1    1    2    0    0  0.73730688496E+02  0.46253486628E+02 -0.22504553059E+03  0.24129046871E+03  0.00000000000E+00 0.  1.
         11    1    1    2    0    0 -0.26812496785E+02  0.18664009087E+02 -0.55719904986E+02  0.64590734867E+02  0.00000000000E+00 0. -1.
</event>
<event>
 7    1  0.2955345E-009  0.2366276E+03  0.7561462E-02  0.1122060E+00
         -1   -1    0    0    0  501 -0.00000000000E+00  0.00000000000E+00  0.12414787040E+03  0.12414787040E+03  0.00000000000E+00 0.  1.
          1   -1    0    0  501    0  0.00000000000E+00 -0.00000000000E+00 -0.46886610004E+03  0.46886610004E+03  0.00000000000E+00 0. -1.
         25    2    1    2    0    0  0.18312822455E+03  0.11259819087E+03 -0.18525021033E+03  0.31013190923E+03  0.12509940641E+03 0.  0.
          5    1    3    3  502    0  0.20208724319E+03  0.10428348482E+03 -0.17250726869E+03  0.28546546064E+03  0.41800000000E+01 0. -1.
         -5    1    3    3    0  502 -0.18959018643E+02  0.83147060485E+01 -0.12742941640E+02  0.24666448594E+02  0.41800000000E+01 0. -1.
        -11    1    1    2    0    0 -0.99719299129E+02 -0.98373307508E+02 -0.13562103608E+03  0.19497259212E+03  0.00000000000E+00 0. -1.
         11    1    1    2    0    0 -0.83408925421E+02 -0.14224883362E+02 -0.23846983231E+02  0.87909469090E+02  0.00000000000E+00 0.  1.
</event>
<event>
 7    1  0.2619826E-009  0.9418255E+02  0.7561462E-02  0.1293028E+00
          2   -1    0    0  501    0  0.00000000000E+00  0.00000000000E+00  0.41283927778E+03  0.41283927778E+03  0.00000000000E+00 0. -1.
         -2   -1    0    0    0  501 -0.00000000000E+00 -0.00000000000E+00 -0.56586355239E+02  0.56586355239E+02  0.00000000000E+00 0.  1.
         25    2    1    2    0    0  0.22643750358E+02  0.30689115970E+01  0.35376219214E+03  0.37592223255E+03  0.12509068186E+03 0.  0.
          5    1    3    3  502    0 -0.45121502889E+02 -0.12298948471E+02  0.74079048813E+02  0.87706282725E+02  0.41800000000E+01 0. -1.
         -5    1    3    3    0  502  0.67765253247E+02  0.15367860068E+02  0.27968314333E+03  0.28821594982E+03  0.41800000000E+01 0. -1.
        -11    1    1    2    0    0  0.22389498809E+02 -0.12710217619E+02 -0.28180972763E+02  0.38170754704E+02  0.00000000000E+00 0.  1.
         11    1    1    2    0    0 -0.45033249166E+02  0.96413060222E+01  0.30671703160E+02  0.55332645762E+02  0.00000000000E+00 0. -1.
</event>
<event>
 7    1  0.2619826E-009  0.1438150E+03  0.7561462E-02  0.1208286E+00
         -1   -1    0    0    0  501 -0.00000000000E+00  0.00000000000E+00  0.12983259168E+03  0.12983259168E+03  0.00000000000E+00 0.  1.
          1   -1    0    0  501    0  0.00000000000E+00 -0.00000000000E+00 -0.21255441871E+03  0.21255441871E+03  0.00000000000E+00 0. -1.
         25    2    1    2    0    0  0.44700575348E+02 -0.11516465968E+03 -0.17654305312E+02  0.17669355939E+03  0.12509156309E+03 0.  0.
          5    1    3    3  502    0  0.41789595624E+02 -0.12866750077E+03  0.19582823506E+02  0.13675765220E+03  0.41800000000E+01 0.  1.
         -5    1    3    3    0  502  0.29109797241E+01  0.13502841092E+02 -0.37237128819E+02  0.39935907191E+02  0.41800000000E+01 0.  1.
        -11    1    1    2    0    0 -0.60052886359E+01  0.93124954753E+02 -0.85057758911E+01  0.93705223509E+02  0.00000000000E+00 0.  1.
         11    1    1    2    0    0 -0.38695286713E+02  0.22039704928E+02 -0.56561745825E+02  0.71988227495E+02  0.00000000000E+00 0. -1.
</event>
<event>
 7    1  0.2619826E-009  0.9093214E+02  0.7561462E-02  0.1300610E+00
         -2   -1    0    0    0  501 -0.00000000000E+00  0.00000000000E+00  0.25640250838E+02  0.25640250838E+02  0.00000000000E+00 0. -1.
          2   -1    0    0  501    0  0.00000000000E+00 -0.00000000000E+00 -0.47389987245E+03  0.47389987245E+03  0.00000000000E+00 0.  1.
         25    2    1    2    0    0 -0.14057681887E+02  0.18304367089E+02 -0.25737965437E+03  0.28709790806E+03  0.12509298162E+03 0.  0.
          5    1    3    3  502    0  0.46085019774E+02  0.34719499562E+02 -0.77749171094E+02  0.96910673836E+02  0.41800000000E+01 0. -1.
         -5    1    3    3    0  502 -0.60142701661E+02 -0.16415132473E+02 -0.17963048328E+03  0.19018723422E+03  0.41800000000E+01 0. -1.
        -11    1    1    2    0    0  0.36585322519E+01 -0.38575033735E+02 -0.18486066247E+03  0.18887795693E+03  0.00000000000E+00 0.  1.
         11    1    1    2    0    0  0.10399149635E+02  0.20270666646E+02 -0.60193047699E+01  0.23564258302E+02  0.00000000000E+00 0. -1.
</event>
<event>
 7    1  0.2619826E-009  0.1143366E+03  0.7561462E-02  0.1252744E+00
         -2   -1    0    0    0  501 -0.00000000000E+00  0.00000000000E+00  0.49805347045E+02  0.49805347045E+02  0.00000000000E+00 0. -1.
          2   -1    0    0  501    0  0.00000000000E+00 -0.00000000000E+00 -0.37004333600E+03  0.37004333600E+03  0.00000000000E+00 0.  1.
         25    2    1    2    0    0 -0.46607492517E+02 -0.49666577930E+02 -0.24333287225E+03  0.28195222036E+03  0.12508853075E+03 0.  0.
          5    1    3    3  502    0 -0.88544306844E+02 -0.34497121070E+02 -0.18859066962E+03  0.21122040315E+03  0.41800000000E+01 0.  1.
         -5    1    3    3    0  502  0.41936814327E+02 -0.15169456860E+02 -0.54742202631E+02  0.70731817213E+02  0.41800000000E+01 0.  1.
        -11    1    1    2    0    0  0.55467915569E+02  0.21930906307E+02 -0.44523333535E+01  0.59812018703E+02  0.00000000000E+00 0. -1.
         11    1    1    2    0    0 -0.88604230521E+01  0.27735671624E+02 -0.72452783345E+02  0.78084443979E+02  0.00000000000E+00 0.  1.
</event>
<event>
 7    1  0.2619826E-009  0.1222292E+03  0.7561462E-02  0.1239464E+00
         -1   -1    0    0    0  501 -0.00000000000E+00  0.00000000000E+00  0.12167298408E+03  0.12167298408E+03  0.00000000000E+00 0.  1.
          1   -1    0    0  501    0  0.00000000000E+00 -0.00000000000E+00 -0.21520457551E+03  0.21520457551E+03  0.00000000000E+00 0. -1.
         25    2    1    2    0    0 -0.82115123789E+02  0.48389333942E+02  0.12853023121E+02  0.15778949236E+03  0.12509157646E+03 0.  0.
          5    1    3    3  502    0 -0.56640016720E+02  0.48926336525E+02  0.65245444286E+02  0.99379667437E+02  0.41800000000E+01 0.  1.
         -5    1    3    3    0  502 -0.25475107069E+02 -0.53700258284E+00 -0.52392421165E+02  0.58409824923E+02  0.41800000000E+01 0.  1.
        -11    1    1    2    0    0  0.53317345630E+02 -0.83000327389E+02 -0.79055468954E+02  0.12641819831E+03  0.00000000000E+00 0.  1.
         11    1    1    2    0    0  0.28797778158E+02  0.34610993447E+02 -0.27329145597E+02  0.52669868932E+02  0.00000000000E+00 0. -1.
</event>
<event>
 7    1  0.2619826E-009  0.1098022E+03  0.7561462E-02  0.1260937E+00
          2   -1    0    0  501    0  0.00000000000E+00  0.00000000000E+00  0.16548916238E+03  0.16548916238E+03  0.00000000000E+00 0. -1.
         -2   -1    0    0    0  501 -0.00000000000E+00 -0.00000000000E+00 -0.10410160876E+03  0.10410160876E+03  0.00000000000E+00 0.  1.
         25    2    1    2    0    0 -0.34198598358E+02  0.39830925301E+02 -0.18360134586E+02  0.13689893223E+03  0.12509267110E+03 0.  0.
          5    1    3    3  502    0 -0.76188602725E+01 -0.36517311983E+02  0.24967555203E+02  0.45082283872E+02  0.41800000000E+01 0. -1.
         -5    1    3    3    0  502 -0.26579738086E+02  0.76348237283E+02 -0.43327689788E+02  0.91816648356E+02  0.41800000000E+01 0. -1.
        -11    1    1    2    0    0  0.14650518955E+02 -0.66475272688E+02  0.71314076120E+02  0.98586495208E+02  0.00000000000E+00 0.  1.
         11    1    1    2    0    0  0.19548079404E+02  0.26644347388E+02  0.84336120863E+01  0.34105343700E+02  0.00000000000E+00 0. -1.
</event>
<event>
 7    1  0.2619826E-009  0.1540551E+03  0.7561462E-02  0.1195577E+00
          1   -1    0    0  501    0  0.00000000000E+00  0.00000000000E+00  0.10824812279E+04  0.10824812279E+04  0.00000000000E+00 0. -1.
         -1   -1    0    0    0  501 -0.00000000000E+00 -0.00000000000E+00 -0.30596951500E+02  0.30596951500E+02  0.00000000000E+00 0.  1.
         25    2    1    2    0    0 -0.20593676818E+02 -0.12990437915E+03  0.74012393688E+03  0.76205568437E+03  0.12508467888E+03 0.  0.
          5    1    3    3  502    0  0.49297743348E+02 -0.50255869300E+02  0.21303311548E+03  0.22440254140E+03  0.41800000000E+01 0. -1.
         -5    1    3    3    0  502 -0.69891420166E+02 -0.79648509850E+02  0.52709082140E+03  0.53765314297E+03  0.41800000000E+01 0. -1.
        -11    1    1    2    0    0  0.13492253142E+02  0.90629518057E+02  0.10039702806E+03  0.13592392608E+03  0.00000000000E+00 0.  1.
         11    1    1    2    0    0  0.71014236756E+01  0.39274861093E+02  0.21136331143E+03  0.21509856891E+03  0.00000000000E+00 0. -1.
</event>
<event>
 6    1  0.2619826E-009  0.8750303E+02  0.7561462E-02  0.1309014E+00
         -2   -1    0    0    0  501 -0.00000000000E+00  0.00000000000E+00  0.11403668844E+03  0.11403668844E+03  0.00000000000E+00 0. -1.
          2   -1    0    0  501    0  0.00000000000E+00 -0.00000000000E+00 -0.11755414311E+03  0.11755414311E+03  0.00000000000E+00 0.  1.
          5    1    1    2  502    0  0.46274403257E+02  0.52792360735E+02  0.31338616936E+02  0.76993084496E+02  0.41800000000E+01 0. -1.
         -5    1    1    2    0  502 -0.24286192642E+02 -0.18955241876E+02 -0.45866096311E+02  0.55410211500E+02  0.41800000000E+01 0. -1.
        -11    1    1    2    0    0 -0.14936276008E+02  0.16790801224E+02 -0.27262369544E+02  0.35330725153E+02  0.00000000000E+00 0.  1.
         11    1    1    2    0    0 -0.70519346067E+01 -0.50627920083E+02  0.38272394250E+02  0.63856810406E+02  0.00000000000E+00 0. -1.
</event>
<event>
 7    1  0.2619826E-009  0.1090323E+03  0.7561462E-02  0.1262372E+00
          1   -1    0    0  501    0  0.00000000000E+00  0.00000000000E+00  0.39474970242E+03  0.39474970242E+03  0.00000000000E+00 0. -1.
         -1   -1    0    0    0  501 -0.00000000000E+00 -0.00000000000E+00 -0.48847187002E+02  0.48847187002E+02  0.00000000000E+00 0.  1.
         25    2    1    2    0    0 -0.60506012491E+02  0.52278485356E+02  0.23695917754E+03  0.27962932489E+03  0.12509552324E+03 0.  0.
          5    1    3    3  502    0 -0.86932395761E+02  0.97689176903E+01  0.19649688539E+03  0.21513059186E+03  0.41800000000E+01 0. -1.
         -5    1    3    3    0  502  0.26426383270E+02  0.42509567666E+02  0.40462292155E+02  0.64498733029E+02  0.41800000000E+01 0. -1.
        -11    1    1    2    0    0  0.38654165905E+02 -0.28956574252E+02  0.12062918209E+03  0.12993855204E+03  0.00000000000E+00 0. -1.
         11    1    1    2    0    0  0.21851846586E+02 -0.23321911105E+02 -0.11685844212E+02  0.34029012500E+02  0.00000000000E+00 0.  1.
</event>
<event>
 7    1  0.2619826E-009  0.1717489E+03  0.7561462E-02  0.1176036E+00
         -1   -1    0    0    0  501 -0.00000000000E+00  0.00000000000E+00  0.33488416705E+02  0.33488416705E+02  0.00000000000E+00 0. -1.
          1   -1    0    0  501    0  0.00000000000E+00 -0.00000000000E+00 -0.12680687949E+04  0.12680687949E+04  0.00000000000E+00 0.  1.
         25    2    1    2    0    0 -0.13587977606E+03  0.10001226153E+03 -0.78759570844E+03  0.81511828858E+03  0.12508020795E+03 0.  0.
          5    1    3    3  502    0 -0.95792012827E+02  0.43779952072E+02 -0.67340122734E+03  0.68160067438E+03  0.41800000000E+01 0. -1.
         -5    1    3    3    0  502 -0.40087763237E+02  0.56232309460E+02 -0.11419448110E+03  0.13351761420E+03  0.41800000000E+01 0. -1.
        -11    1    1    2    0    0  0.67390138838E+02 -0.54564354803E+02 -0.11270071863E+03  0.14219757947E+03  0.00000000000E+00 0. -1.
         11    1    1    2    0    0  0.68489637226E+02 -0.45447906729E+02 -0.33428395110E+03  0.34424134353E+03  0.00000000000E+00 0.  1.
</event>
<event>
 7    1  0.2619826E-009  0.1390035E+03  0.7561462E-02  0.1214676E+00
          1   -1    0    0  501    0  0.00000000000E+00  0.00000000000E+00  0.56817153338E+02  0.56817153338E+02  0.00000000000E+00 0. -1.
         -1   -1    0    0    0  501 -0.00000000000E+00 -0.00000000000E+00 -0.50209085356E+03  0.50209085356E+03  0.00000000000E+00 0.  1.
         25    2    1    2    0    0 -0.96963792483E+02 -0.50793813269E+01 -0.37833433940E+03  0.41013503722E+03  0.12508436840E+03 0.  0.
          5    1    3    3  502    0 -0.12596224816E+03 -0.24891138017E+01 -0.27168814465E+03  0.29950726868E+03  0.41800000000E+01 0.  1.
         -5    1    3    3    0  502  0.28998455673E+02 -0.25902675252E+01 -0.10664619474E+03  0.11062776853E+03  0.41800000000E+01 0.  1.
        -11    1    1    2    0    0  0.61312163063E+02  0.39538631180E+02 -0.67201329740E+02  0.99189230332E+02  0.00000000000E+00 0.  1.
         11    1    1    2    0    0  0.35651629420E+02 -0.34459249853E+02  0.26196891133E+00  0.49583739355E+02  0.00000000000E+00 0. -1.
</event>
<event>
 7    1  0.2619826E-009  0.1199932E+03  0.7561462E-02  0.1243108E+00
         -2   -1    0    0    0  501 -0.00000000000E+00  0.00000000000E+00  0.92988683255E+02  0.92988683255E+02  0.00000000000E+00 0.  1.
          2   -1    0    0  501    0  0.00000000000E+00 -0.00000000000E+00 -0.37187306926E+03  0.37187306926E+03  0.00000000000E+00 0. -1.
         25    2    1    2    0    0  0.96795958249E+02 -0.24036410425E+02 -0.28783445571E+03  0.32930725489E+03  0.12508951863E+03 0.  0.
          5    1    3    3  502    0  0.10791161932E+03 -0.31677888983E+02 -0.29331073923E+03  0.31416089570E+03  0.41800000000E+01 0.  1.
         -5    1    3    3    0  502 -0.11115661071E+02  0.76414785586E+01  0.54762835235E+01  0.15146359194E+02  0.41800000000E+01 0.  1.
        -11    1    1    2    0    0 -0.12991790305E+02 -0.15863071840E+02  0.33741489454E+02  0.39483056798E+02  0.00000000000E+00 0.  1.
         11    1    1    2    0    0 -0.83804167944E+02  0.39899482265E+02 -0.24791419751E+02  0.96071440829E+02  0.00000000000E+00 0. -1.
</event>
<event>
 7    1  0.2619826E-009  0.1946644E+03  0.7561462E-02  0.1154320E+00
          2   -1    0    0  501    0  0.00000000000E+00  0.00000000000E+00  0.50598729474E+02  0.50598729474E+02  0.00000000000E+00 0.  1.
         -2   -1    0    0    0  501 -0.00000000000E+00 -0.00000000000E+00 -0.81452283974E+03  0.81452283974E+03  0.00000000000E+00 0. -1.
         25    2    1    2    0    0  0.61246626355E+01  0.16630708441E+03 -0.31641910725E+03  0.37876630978E+03  0.12508920087E+03 0.  0.
          5    1    3    3  502    0 -0.64366168973E+01  0.18089398564E+03 -0.24475799558E+03  0.30444706088E+03  0.41800000000E+01 0. -1.
         -5    1    3    3    0  502  0.12561279533E+02 -0.14586901231E+02 -0.71661111674E+02  0.74319248902E+02  0.41800000000E+01 0. -1.
        -11    1    1    2    0    0 -0.40222459344E+02 -0.36337982202E+02 -0.16161759211E+03  0.17046566007E+03  0.00000000000E+00 0. -1.
         11    1    1    2    0    0  0.34097796708E+02 -0.12996910221E+03 -0.28588741091E+03  0.31588959937E+03  0.00000000000E+00 0.  1.
</event>
<event>
 7    1  0.2619826E-009  0.1173675E+03  0.7561462E-02  0.1247504E+00
          2   -1    0    0  501    0  0.00000000000E+00  0.00000000000E+00  0.51747289125E+03  0.51747289125E+03  0.00000000000E+00 0.  1.
         -2   -1    0    0    0  501 -0.00000000000E+00 -0.00000000000E+00 -0.40711494798E+02  0.40711494798E+02  0.00000000000E+00 0. -1.
         25    2    1    2    0    0  0.90119508030E+01 -0.46025696478E+02  0.41950927145E+03  0.44026708395E+03  0.12508995317E+03 0.  0.
          5    1    3    3  502    0 -0.49926577871E+02  0.92667769509E+01  0.19760689793E+03  0.20406982834E+03  0.41800000000E+01 0.  1.
         -5    1    3    3    0  502  0.58938528674E+02 -0.55292473429E+02  0.22190237352E+03  0.23619725561E+03  0.41800000000E+01 0.  1.
        -11    1    1    2    0    0 -0.26533791610E+01 -0.28219667099E+02  0.19309381758E+02  0.34296388382E+02  0.00000000000E+00 0.  1.
         11    1    1    2    0    0 -0.63585716420E+01  0.74245363577E+02  0.37942743247E+02  0.83620913718E+02  0.00000000000E+00 0. -1.
</event>
<event>
 7    1  0.2619826E-009  0.9210803E+02  0.7561462E-02  0.1297826E+00
          2   -1    0    0  501    0  0.00000000000E+00  0.00000000000E+00  0.42338640336E+03  0.42338640336E+03  0.00000000000E+00 0. -1.
         -2   -1    0    0    0  501 -0.00000000000E+00 -0.00000000000E+00 -0.44555788783E+02  0.44555788783E+02  0.00000000000E+00 0.  1.
         25    2    1    2    0    0 -0.49457916420E+02 -0.13632203709E+02  0.96500431091E+02  0.16611058527E+03  0.12509384822E+03 0.  0.
          5    1    3    3  502    0  0.61429278949E+01  0.21700704812E+02 -0.21154432063E+02  0.31203181703E+02  0.41800000000E+01 0.  1.
         -5    1    3    3    0  502 -0.55600844315E+02 -0.35332908521E+02  0.11765486315E+03  0.13490740357E+03  0.41800000000E+01 0.  1.
        -11    1    1    2    0    0  0.21726677194E+02 -0.33884333674E+02  0.56343690933E+02  0.69244552699E+02  0.00000000000E+00 0.  1.
         11    1    1    2    0    0  0.27731239225E+02  0.47516537383E+02  0.22598649256E+03  0.23258705418E+03  0.00000000000E+00 0. -1.
</event>
<event>
 7    1  0.2619826E-009  0.1109157E+03  0.7561462E-02  0.1258883E+00
          2   -1    0    0  501    0  0.00000000000E+00  0.00000000000E+00  0.40971047443E+02  0.40971047443E+02  0.00000000000E+00 0. -1.
         -2   -1    0    0    0  501 -0.00000000000E+00 -0.00000000000E+00 -0.30947387159E+03  0.30947387159E+03  0.00000000000E+00 0.  1.
         25    2    1    2    0    0  0.23563218298E+02  0.16474178210E+02 -0.17515347680E+03  0.21714931358E+03  0.12509380540E+03 0.  0.
          5    1    3    3  502    0  0.20837261264E+02 -0.53074656096E+02 -0.62877019138E+02  0.84982954246E+02  0.41800000000E+01 0.  1.
         -5    1    3    3    0  502  0.27259570336E+01  0.69548834306E+02 -0.11227645766E+03  0.13216635933E+03  0.41800000000E+01 0.  1.
        -11    1    1    2    0    0  0.25316016387E+02  0.21358414901E+02 -0.36935589646E+02  0.49611695751E+02  0.00000000000E+00 0. -1.
         11    1    1    2    0    0 -0.48879234685E+02 -0.37832593111E+02 -0.56413757708E+02  0.83683909706E+02  0.00000000000E+00 0.  1.
</event>
<event>
 7    1  0.2619826E-009  0.1081192E+03  0.7561462E-02  0.1264093E+00
         -1   -1    0    0    0  501 -0.00000000000E+00  0.00000000000E+00  0.78713203955E+02  0.78713203955E+02  0.00000000000E+00 0.  1.
          1   -1    0    0  501    0  0.00000000000E+00 -0.00000000000E+00 -0.30869436435E+03  0.30869436435E+03  0.00000000000E+00 0. -1.
         25    2    1    2    0    0 -0.22191430765E+02  0.75156591190E+02 -0.22230773579E+03  0.26685124296E+03  0.12509150123E+03 0.  0.
          5    1    3    3  502    0  0.54132440060E+01 -0.21454843301E+02 -0.12466402458E+03  0.12668150984E+03  0.41800000000E+01 0.  1.
         -5    1    3    3    0  502 -0.27604674771E+02  0.96611434492E+02 -0.97643711210E+02  0.14016973312E+03  0.41800000000E+01 0.  1.
        -11    1    1    2    0    0 -0.16398768618E+02 -0.24271865903E+02  0.33554749585E+02  0.44541714227E+02  0.00000000000E+00 0.  1.
         11    1    1    2    0    0  0.38590199384E+02 -0.50884725288E+02 -0.41228174193E+02  0.76014611118E+02  0.00000000000E+00 0. -1.
</event>
<event>
 7    1  0.2619826E-009  0.1012001E+03  0.7561462E-02  0.1277792E+00
         -2   -1    0    0    0  501 -0.00000000000E+00  0.00000000000E+00  0.20437551061E+03  0.20437551061E+03  0.00000000000E+00 0.  1.
          2   -1    0    0  501    0  0.00000000000E+00 -0.00000000000E+00 -0.94391986425E+02  0.94391986425E+02  0.00000000000E+00 0. -1.
         25    2    1    2    0    0  0.57386870773E+02  0.61784220281E+02  0.28702700903E+02  0.15356355027E+03  0.12508947245E+03 0.  0.
          5    1    3    3  502    0  0.81328364798E+01 -0.10874233392E+02 -0.39722640863E+02  0.42187113888E+02  0.41800000000E+01 0.  1.
         -5    1    3    3    0  502  0.49254034293E+02  0.72658453673E+02  0.68425341766E+02  0.11137643638E+03  0.41800000000E+01 0.  1.
        -11    1    1    2    0    0 -0.80810025365E+01 -0.48610986464E+02  0.57921013969E-01  0.49278128636E+02  0.00000000000E+00 0. -1.
         11    1    1    2    0    0 -0.49305868237E+02 -0.13173233816E+02  0.81222902269E+02  0.95925818135E+02  0.00000000000E+00 0.  1.
</event>
<event>
 7    1  0.2619826E-009  0.8404990E+02  0.7561462E-02  0.1317936E+00
         -1   -1    0    0    0  501 -0.00000000000E+00  0.00000000000E+00  0.74360385117E+02  0.74360385117E+02  0.00000000000E+00 0.  1.
          1   -1    0    0  501    0  0.00000000000E+00 -0.00000000000E+00 -0.21398127166E+03  0.21398127166E+03  0.00000000000E+00 0. -1.
         25    2    1    2    0    0 -0.63134913191E+02  0.21773397883E+01 -0.71009866407E+02  0.15710078328E+03  0.12508995526E+03 0.  0.
          5    1    3    3  502    0 -0.10860951881E+02  0.24657955875E+02 -0.92268414581E+02  0.96212825512E+02  0.41800000000E+01 0.  1.
         -5    1    3    3    0  502 -0.52273961310E+02 -0.22480616087E+02  0.21258548174E+02  0.60887957768E+02  0.41800000000E+01 0.  1.
        -11    1    1    2    0    0 -0.26523391663E+01  0.15444692142E+02  0.16152897056E+02  0.22505321631E+02  0.00000000000E+00 0.  1.
         11    1    1    2    0    0  0.65787252358E+02 -0.17622031930E+02 -0.84763917192E+02  0.10873555187E+03  0.00000000000E+00 0. -1.
</event>
<event>
 7    1  0.2619826E-009  0.1297171E+03  0.7561462E-02  0.1227876E+00
         -1   -1    0    0    0  501 -0.00000000000E+00  0.00000000000E+00  0.14735744166E+03  0.14735744166E+03  0.00000000000E+00 0.  1.
          1   -1    0    0  501    0  0.00000000000E+00 -0.00000000000E+00 -0.11634578833E+03  0.11634578833E+03  0.00000000000E+00 0. -1.
         25    2    1    2    0    0 -0.57490048197E+02 -0.42973294645E+02  0.34510122785E+02  0.14829245302E+03  0.12509153990E+03 0.  0.
          5    1    3    3  502    0 -0.96219314318E+02 -0.18130581621E+02  0.22369539621E+02  0.10052235145E+03  0.41800000000E+01 0.  1.
         -5    1    3    3    0  502  0.38729266121E+02 -0.24842713024E+02  0.12140583163E+02  0.47770101572E+02  0.41800000000E+01 0.  1.
        -11    1    1    2    0    0 -0.22027600180E+02 -0.46913750854E+01 -0.28344347108E+01  0.22699299328E+02  0.00000000000E+00 0. -1.
         11    1    1    2    0    0  0.79517648377E+02  0.47664669730E+02 -0.66403473830E+00  0.92711477639E+02  0.00000000000E+00 0.  1.
</event>
<event>
 7    1  0.2619826E-009  0.9048676E+02  0.7561462E-02  0.1301677E+00
         -1   -1    0    0    0  501 -0.00000000000E+00  0.00000000000E+00  0.44077511887E+02  0.44077511887E+02  0.00000000000E+00 0.  1.
          1   -1    0    0  501    0  0.00000000000E+00 -0.00000000000E+00 -0.30488175768E+03  0.30488175768E+03  0.00000000000E+00 0. -1.
         25    2    1    2    0    0  0.31085464366E+02 -0.22758100660E+02 -0.13967935101E+03  0.19142470225E+03  0.12509539677E+03 0.  0.
          5    1    3    3  502    0 -0.21928046164E+02  0.43046070598E+01  0.13910121649E+02  0.26652068115E+02  0.41800000000E+01 0.  1.
         -5    1    3    3    0  502  0.53013510531E+02 -0.27062707720E+02 -0.15358947266E+03  0.16477263414E+03  0.41800000000E+01 0.  1.
        -11    1    1    2    0    0 -0.51226240753E+02 -0.17024190250E+02 -0.49949939643E+02  0.73545545519E+02  0.00000000000E+00 0.  1.
         11    1    1    2    0    0  0.20140776386E+02  0.39782290910E+02 -0.71174955133E+02  0.83989021793E+02  0.00000000000E+00 0. -1.
</event>
<event>
 7    1  0.2619826E-009  0.9257586E+02  0.7561462E-02  0.1296731E+00
         -2   -1    0    0    0  501 -0.00000000000E+00  0.00000000000E+00  0.38157693229E+02  0.38157693229E+02  0.00000000000E+00 0.  1.
          2   -1    0    0  501    0  0.00000000000E+00 -0.00000000000E+00 -0.41493919771E+03  0.41493919771E+03  0.00000000000E+00 0. -1.
         25    2    1    2    0    0 -0.60083875079E+02 -0.16271925686E+02 -0.19107977038E+03  0.23671445739E+03  0.12508960020E+03 0.  0.
          5    1    3    3  502    0  0.17244418645E+02 -0.12485729364E+02  0.79569320653E+01  0.23109491125E+02  0.41800000000E+01 0.  1.
         -5    1    3    3    0  502 -0.77328293724E+02 -0.37861963219E+01 -0.19903670245E+03  0.21360496627E+03  0.41800000000E+01 0.  1.
        -11    1    1    2    0    0  0.28971918486E+02 -0.22159867071E+02 -0.15255226610E+03  0.15685224149E+03  0.00000000000E+00 0.  1.
         11    1    1    2    0    0  0.31111956593E+02  0.38431792757E+02 -0.33149468002E+02  0.59530192057E+02  0.00000000000E+00 0. -1.
</event>
<event>
 7    1  0.2619826E-009  0.1098078E+03  0.7561462E-02  0.1260926E+00
          1   -1    0    0  501    0  0.00000000000E+00  0.00000000000E+00  0.28891698556E+03  0.28891698556E+03  0.00000000000E+00 0. -1.
         -1   -1    0    0    0  501 -0.00000000000E+00 -0.00000000000E+00 -0.50991803893E+02  0.50991803893E+02  0.00000000000E+00 0.  1.
         25    2    1    2    0    0 -0.45955309134E+02  0.14941016015E+02  0.17219375229E+03  0.21823201676E+03  0.12505758839E+03 0.  0.
          5    1    3    3  502    0 -0.85618737390E+02  0.19587703347E+02  0.85284562404E+02  0.12249561339E+03  0.41800000000E+01 0.  1.
         -5    1    3    3    0  502  0.39663428256E+02 -0.46466873320E+01  0.86909189885E+02  0.95736403373E+02  0.41800000000E+01 0.  1.
        -11    1    1    2    0    0 -0.22160391492E+02 -0.46651637826E+01  0.43928559120E+02  0.49422312882E+02  0.00000000000E+00 0. -1.
         11    1    1    2    0    0  0.68115700626E+02 -0.10275852233E+02  0.21802870254E+02  0.72254459809E+02  0.00000000000E+00 0.  1.
</event>
<event>
 7    1  0.2619826E-009  0.1561609E+03  0.7561462E-02  0.1193101E+00
         -1   -1    0    0    0  501 -0.00000000000E+00  0.00000000000E+00  0.56900847242E+02  0.56900847242E+02  0.00000000000E+00 0.  1.
          1   -1    0    0  501    0  0.00000000000E+00 -0.00000000000E+00 -0.87274024596E+03  0.87274024596E+03  0.00000000000E+00 0. -1.
         25    2    1    2    0    0  0.71019607631E+02  0.12422563548E+03 -0.14839161305E+03  0.24113459794E+03  0.12510008122E+03 0.  0.
          5    1    3    3  502    0  0.28044853889E+02  0.50596687803E+02 -0.14448295691E+03  0.15568987085E+03  0.41800000000E+01 0. -1.
         -5    1    3    3    0  502  0.42974753742E+02  0.73628947675E+02 -0.39086561408E+01  0.85444727092E+02  0.41800000000E+01 0. -1.
        -11    1    1    2    0    0 -0.84165553938E+01 -0.10228367748E+03 -0.40093157273E+03  0.41385856895E+03  0.00000000000E+00 0. -1.
         11    1    1    2    0    0 -0.62603052237E+02 -0.21941958003E+02 -0.26651621294E+03  0.27464792631E+03  0.00000000000E+00 0.  1.
</event>
<event>
 7    1  0.2619826E-009  0.1026571E+03  0.7561462E-02  0.1274806E+00
         -1   -1    0    0    0  501 -0.00000000000E+00  0.00000000000E+00  0.29797004397E+02  0.29797004397E+02  0.00000000000E+00 0.  1.
          1   -1    0    0  501    0  0.00000000000E+00 -0.00000000000E+00 -0.53326018372E+03  0.53326018372E+03  0.00000000000E+00 0. -1.
         25    2    1    2    0    0 -0.62934327908E+02 -0.92854837454E+01 -0.23378342145E+03  0.27267019094E+03  0.12508954809E+03 0.  0.
          5    1    3    3  502    0 -0.37372549076E+02  0.43381851416E+02 -0.39430637194E+02  0.69648689910E+02  0.41800000000E+01 0. -1.
         -5    1    3    3    0  502 -0.25561778832E+02 -0.52667335161E+02 -0.19435278426E+03  0.20302150103E+03  0.41800000000E+01 0. -1.
        -11    1    1    2    0    0  0.35625088733E+01 -0.21871463037E+02 -0.14350301521E+02  0.26400445424E+02  0.00000000000E+00 0.  1.
         11    1    1    2    0    0  0.59371819035E+02  0.31156946782E+02 -0.25532945634E+03  0.26398655175E+03  0.00000000000E+00 0. -1.
</event>
<event>
 7    1  0.2619826E-009  0.1061059E+03  0.7561462E-02  0.1267956E+00
         -1   -1    0    0    0  501 -0.00000000000E+00  0.00000000000E+00  0.27891400093E+03  0.27891400093E+03  0.00000000000E+00 0.  1.
          1   -1    0    0  501    0  0.00000000000E+00 -0.00000000000E+00 -0.71873030861E+02  0.71873030861E+02  0.00000000000E+00 0. -1.
         25    2    1    2    0    0 -0.35067883405E+02  0.35620240077E+02  0.20886469964E+03  0.24853801682E+03  0.12509246620E+03 0.  0.
          5    1    3    3  502    0 -0.69273857637E+02  0.27174316734E+02  0.60514900501E+02  0.96004356279E+02  0.41800000000E+01 0.  1.
         -5    1    3    3    0  502  0.34205974231E+02  0.84459233427E+01  0.14834979914E+03  0.15253366054E+03  0.41800000000E+01 0.  1.
        -11    1    1    2    0    0 -0.26695600735E+02  0.64586116170E+01  0.63885002376E+00  0.27473203162E+02  0.00000000000E+00 0.  1.
         11    1    1    2    0    0  0.61763484141E+02 -0.42078851694E+02 -0.24625795956E+01  0.74775811806E+02  0.00000000000E+00 0. -1.
</event>
<event>
 7    1  0.2619826E-009  0.1079400E+03  0.7561462E-02  0.1264433E+00
         -4   -1    0    0    0  501 -0.00000000000E+00  0.00000000000E+00  0.14854877901E+03  0.14854877901E+03  0.00000000000E+00 0. -1.
          4   -1    0    0  501    0  0.00000000000E+00 -0.00000000000E+00 -0.88653703349E+02  0.88653703349E+02  0.00000000000E+00 0.  1.
         25    2    1    2    0    0 -0.23554022486E+02  0.28433701150E+01  0.62875392392E+02  0.14200373947E+03  0.12509544487E+03 0.  0.
          5    1    3    3  502    0  0.33429079154E+02 -0.41154232142E+02  0.39317099744E+02  0.66139858547E+02  0.41800000000E+01 0.  1.
         -5    1    3    3    0  502 -0.56983101640E+02  0.43997602257E+02  0.23558292648E+02  0.75863880928E+02  0.41800000000E+01 0.  1.
        -11    1    1    2    0    0 -0.33118722831E+02 -0.66554725438E+01 -0.15288943745E+02  0.37079602447E+02  0.00000000000E+00 0.  1.
         11    1    1    2    0    0  0.56672745317E+02  0.38121024287E+01  0.12308627019E+02  0.58119140443E+02  0.00000000000E+00 0. -1.
</event>
<event>
 7    1  0.2619826E-009  0.9898662E+02  0.7561462E-02  0.1282441E+00
          1   -1    0    0  501    0  0.00000000000E+00  0.00000000000E+00  0.78624817229E+02  0.78624817229E+02  0.00000000000E+00 0. -1.
         -1   -1    0    0    0  501 -0.00000000000E+00 -0.00000000000E+00 -0.19213774223E+03  0.19213774223E+03  0.00000000000E+00 0.  1.
         25    2    1    2    0    0 -0.44985710903E+01  0.18960907076E+02 -0.31998803279E+01  0.12663709285E+03  0.12508781281E+03 0.  0.
          5    1    3    3  502    0 -0.50035692192E+02 -0.12606170258E+02 -0.35118436168E+02  0.62556078686E+02  0.41800000000E+01 0. -1.
         -5    1    3    3    0  502  0.45537121101E+02  0.31567077334E+02  0.31918555840E+02  0.64081014166E+02  0.41800000000E+01 0. -1.
        -11    1    1    2    0    0 -0.41633903266E+01  0.35373868443E+02 -0.28920804961E+02  0.45880903949E+02  0.00000000000E+00 0. -1.
         11    1    1    2    0    0  0.86619614169E+01 -0.54334775519E+02 -0.81392239713E+02  0.98244562657E+02  0.00000000000E+00 0.  1.
</event>
<event>
 7    1  0.2619826E-009  0.1055503E+03  0.7561462E-02  0.1269039E+00
          3   -1    0    0  501    0  0.00000000000E+00  0.00000000000E+00  0.93227663728E+02  0.93227663728E+02  0.00000000000E+00 0. -1.
         -3   -1    0    0    0  501 -0.00000000000E+00 -0.00000000000E+00 -0.14843072317E+03  0.14843072317E+03  0.00000000000E+00 0.  1.
         25    2    1    2    0    0 -0.11145036660E+02  0.42050088640E+02 -0.17388433999E+02  0.13357290586E+03  0.12508773620E+03 0.  0.
          5    1    3    3  502    0  0.34192487614E+01 -0.40507064282E+02  0.15103700387E+02  0.43567277678E+02  0.41800000000E+01 0. -1.
         -5    1    3    3    0  502 -0.14564285421E+02  0.82557152922E+02 -0.32492134386E+02  0.90005628187E+02  0.41800000000E+01 0. -1.
        -11    1    1    2    0    0  0.29233812125E+02  0.10234748968E+02  0.12406101041E+02  0.33365808859E+02  0.00000000000E+00 0. -1.
         11    1    1    2    0    0 -0.18088775465E+02 -0.52284837608E+02 -0.50220726489E+02  0.74719672179E+02  0.00000000000E+00 0.  1.
</event>
<event>
 7    1  0.2619826E-009  0.1607102E+03  0.7561462E-02  0.1187897E+00
          2   -1    0    0  501    0  0.00000000000E+00  0.00000000000E+00  0.99898540515E+03  0.99898540515E+03  0.00000000000E+00 0.  1.
         -2   -1    0    0    0  501 -0.00000000000E+00 -0.00000000000E+00 -0.43805895692E+02  0.43805895692E+02  0.00000000000E+00 0. -1.
         25    2    1    2    0    0 -0.48593850023E+02 -0.12121580136E+03  0.79642033732E+03  0.81669501629E+03  0.12510301024E+03 0.  0.
          5    1    3    3  502    0  0.66536016196E+01 -0.10660133777E+03  0.33273748269E+03  0.34948507896E+03  0.41800000000E+01 0. -1.
         -5    1    3    3    0  502 -0.55247451642E+02 -0.14614463588E+02  0.46368285463E+03  0.46720993733E+03  0.41800000000E+01 0. -1.
        -11    1    1    2    0    0 -0.22870633256E+00  0.10612859736E+03  0.12868501606E+03  0.16680277229E+03  0.00000000000E+00 0.  1.
         11    1    1    2    0    0  0.48822556355E+02  0.15087203999E+02  0.30074156079E+02  0.59293512271E+02  0.00000000000E+00 0. -1.
</event>
<event>
 7    1  0.2619826E-009  0.9933159E+02  0.7561462E-02  0.1281708E+00
          1   -1    0    0  501    0  0.00000000000E+00  0.00000000000E+00  0.16295370680E+03  0.16295370680E+03  0.00000000000E+00 0. -1.
         -1   -1    0    0    0  501 -0.00000000000E+00 -0.00000000000E+00 -0.11253519291E+03  0.11253519291E+03  0.00000000000E+00 0.  1.
         25    2    1    2    0    0 -0.74967258210E+02  0.27295340264E+02  0.89157217771E+01  0.14863928553E+03  0.12509604992E+03 0.  0.
          5    1    3    3  502    0 -0.14675123326E+02 -0.24101619503E+01 -0.54190511891E+02  0.56349375367E+02  0.41800000000E+01 0.  1.
         -5    1    3    3    0  502 -0.60292134884E+02  0.29705502214E+02  0.63106233668E+02  0.92289910166E+02  0.41800000000E+01 0.  1.
        -11    1    1    2    0    0  0.47496779710E+02  0.27279957913E+02  0.35909115151E+02  0.65495074146E+02  0.00000000000E+00 0.  1.
         11    1    1    2    0    0  0.27470478501E+02 -0.54575298177E+02  0.55936769651E+01  0.61354540029E+02  0.00000000000E+00 0. -1.
</event>
<event>
 7    1  0.2619826E-009  0.1050377E+03  0.7561462E-02  0.1270045E+00
          2   -1    0    0  501    0  0.00000000000E+00  0.00000000000E+00  0.83461191828E+02  0.83461191828E+02  0.00000000000E+00 0. -1.
         -2   -1    0    0    0  501 -0.00000000000E+00 -0.00000000000E+00 -0.15843969503E+03  0.15843969503E+03  0.00000000000E+00 0.  1.
         25    2    1    2    0    0 -0.23988901308E+02 -0.24956277203E+02 -0.54036717148E+02  0.14059892110E+03  0.12509918727E+03 0.  0.
          5    1    3    3  502    0  0.17951233786E+02 -0.61797099828E+02 -0.25422942727E+01  0.64537307053E+02  0.41800000000E+01 0.  1.
         -5    1    3    3    0  502 -0.41940135094E+02  0.36840822625E+02 -0.51494422875E+02  0.76061614042E+02  0.41800000000E+01 0.  1.
        -11    1    1    2    0    0 -0.29478215553E+02 -0.23513663893E+01 -0.28157314511E+02  0.40832933725E+02  0.00000000000E+00 0.  1.
         11    1    1    2    0    0  0.53467116862E+02  0.27307643592E+02  0.72155284611E+01  0.60469032033E+02  0.00000000000E+00 0. -1.
</event>
<event>
 7    1  0.2619826E-009  0.1461309E+03  0.7561462E-02  0.1205310E+00
          1   -1    0    0  501    0  0.00000000000E+00  0.00000000000E+00  0.33768807318E+03  0.33768807318E+03  0.00000000000E+00 0. -1.
         -1   -1    0    0    0  501 -0.00000000000E+00 -0.00000000000E+00 -0.74321631404E+02  0.74321631404E+02  0.00000000000E+00 0.  1.
         25    2    1    2    0    0  0.10652947005E+03  0.27694159951E+02  0.96995951386E+02  0.19282090473E+03  0.12512470672E+03 0.  0.
          5    1    3    3  502    0  0.23758650390E+02 -0.44102885354E+02  0.57252672565E+02  0.76189755747E+02  0.41800000000E+01 0.  1.
         -5    1    3    3    0  502  0.82770819660E+02  0.71797045304E+02  0.39743278820E+02  0.11663114898E+03  0.41800000000E+01 0.  1.
        -11    1    1    2    0    0 -0.82647813592E+02 -0.52496333176E+02  0.15422284059E+03  0.18267788768E+03  0.00000000000E+00 0. -1.
         11    1    1    2    0    0 -0.23881656458E+02  0.24802173225E+02  0.12147649797E+02  0.36510912170E+02  0.00000000000E+00 0.  1.
</event>
<event>
 7    1  0.2619826E-009  0.4415942E+03  0.7561462E-02  0.1030259E+00
         -2   -1    0    0    0  501 -0.00000000000E+00  0.00000000000E+00  0.99470102533E+02  0.99470102533E+02  0.00000000000E+00 0.  1.
          2   -1    0    0  501    0  0.00000000000E+00 -0.00000000000E+00 -0.21078976279E+04  0.21078976279E+04  0.00000000000E+00 0. -1.
         25    2    1    2    0    0  0.43207986293E+03 -0.36072838178E+02 -0.77554494581E+03  0.89728082794E+03  0.12509461866E+03 0.  0.
          5    1    3    3  502    0  0.32954694632E+03 -0.75280264141E+02 -0.62951006652E+03  0.71454090453E+03  0.41800000000E+01 0.  1.
         -5    1    3    3    0  502  0.10253291661E+03  0.39207425963E+02 -0.14603487928E+03  0.18273992341E+03  0.41800000000E+01 0.  1.
        -11    1    1    2    0    0 -0.28447246717E+03  0.41951802026E+02 -0.92377063669E+03  0.96748991079E+03  0.00000000000E+00 0. -1.
         11    1    1    2    0    0 -0.14760739576E+03 -0.58789638480E+01 -0.30911194290E+03  0.34259699173E+03  0.00000000000E+00 0.  1.
</event>
<event>
 7    1  0.2619826E-009  0.1052618E+03  0.7561462E-02  0.1269605E+00
         -2   -1    0    0    0  501 -0.00000000000E+00  0.00000000000E+00  0.23565878309E+03  0.23565878309E+03  0.00000000000E+00 0.  1.
          2   -1    0    0  501    0  0.00000000000E+00 -0.00000000000E+00 -0.60617754587E+02  0.60617754587E+02  0.00000000000E+00 0. -1.
         25    2    1    2    0    0 -0.15513050142E+02 -0.51902463921E+02  0.87830537710E+02  0.16216005297E+03  0.12508860436E+03 0.  0.
          5    1    3    3  502    0  0.31995619876E+02  0.19255957913E+02  0.62333384607E+02  0.72783479190E+02  0.41800000000E+01 0.  1.
         -5    1    3    3    0  502 -0.47508670018E+02 -0.71158421834E+02  0.25497153103E+02  0.89376573783E+02  0.41800000000E+01 0.  1.
        -11    1    1    2    0    0 -0.16908817081E+02  0.52190889179E+02  0.85576704287E+02  0.10165219784E+03  0.00000000000E+00 0.  1.
         11    1    1    2    0    0  0.32421867223E+02 -0.28842525742E+00  0.16337865028E+01  0.32464286866E+02  0.00000000000E+00 0. -1.
</event>
<event>
 7    1  0.2619826E-009  0.3122069E+03  0.7561462E-02  0.1079293E+00
         -3   -1    0    0    0  501 -0.00000000000E+00  0.00000000000E+00  0.17223848619E+03  0.17223848619E+03  0.00000000000E+00 0.  1.
          3   -1    0    0  501    0  0.00000000000E+00 -0.00000000000E+00 -0.73867243528E+03  0.73867243528E+03  0.00000000000E+00 0. -1.
         25    2    1    2    0    0  0.18611834879E+03  0.24132532936E+03 -0.89532764019E+02  0.34138206228E+03  0.12509053629E+03 0.  0.
          5    1    3    3  502    0  0.78243785764E+02  0.47041076355E+02  0.20062600217E+02  0.93567800032E+02  0.41800000000E+01 0. -1.
         -5    1    3    3    0  502  0.10787456302E+03  0.19428425301E+03 -0.10959536424E+03  0.24781426225E+03  0.41800000000E+01 0. -1.
        -11    1    1    2    0    0 -0.10481903159E+03 -0.86560860465E+02 -0.19158071984E+03  0.23491058759E+03  0.00000000000E+00 0.  1.
         11    1    1    2    0    0 -0.81299317197E+02 -0.15476446890E+03 -0.28532046523E+03  0.33461827160E+03  0.00000000000E+00 0. -1.
</event>
<event>
 7    1  0.3075703E-009  0.1675725E+03  0.7561462E-02  0.1180403E+00
         -2   -1    0    0    0  501 -0.00000000000E+00  0.00000000000E+00  0.17669767871E+02  0.17669767871E+02  0.00000000000E+00 0.  1.
          2   -1    0    0  501    0  0.00000000000E+00 -0.00000000000E+00 -0.16592488302E+04  0.16592488302E+04  0.00000000000E+00 0. -1.
         25    2    1    2    0    0 -0.10443640222E+03  0.79400235174E+02 -0.94855430330E+03  0.96571928259E+03  0.12508839676E+03 0.  0.
          5    1    3    3  502    0 -0.11977752921E+03  0.95359769945E+02 -0.88797359571E+03  0.90108530190E+03  0.41800000000E+01 0. -1.
         -5    1    3    3    0  502  0.15341126990E+02 -0.15959534771E+02 -0.60580707589E+02  0.64633980687E+02  0.41800000000E+01 0. -1.
        -11    1    1    2    0    0  0.50095518379E+02  0.13454665838E+02 -0.24614663181E+03  0.25155268503E+03  0.00000000000E+00 0.  1.
         11    1    1    2    0    0  0.54340883839E+02 -0.92854901011E+02 -0.44687812724E+03  0.45964663047E+03  0.00000000000E+00 0. -1.
</event>
<event>
 7    1  0.2619826E-009  0.1113096E+03  0.7561462E-02  0.1258164E+00
          2   -1    0    0  501    0  0.00000000000E+00  0.00000000000E+00  0.36946765415E+02  0.36946765415E+02  0.00000000000E+00 0. -1.
         -2   -1    0    0    0  501 -0.00000000000E+00 -0.00000000000E+00 -0.50725911470E+03  0.50725911470E+03  0.00000000000E+00 0.  1.
         25    2    1    2    0    0  0.78120191725E+02 -0.27465859415E+02 -0.27836218677E+03  0.31621194091E+03  0.12508935511E+03 0.  0.
          5    1    3    3  502    0  0.88345452102E+02 -0.50529028625E+02 -0.27113617532E+03  0.28963839457E+03  0.41800000000E+01 0. -1.
         -5    1    3    3    0  502 -0.10225260377E+02  0.23063169210E+02 -0.72260114558E+01  0.26573546345E+02  0.41800000000E+01 0. -1.
        -11    1    1    2    0    0 -0.78527897721E+02  0.11675935342E+02 -0.19618571644E+03  0.21164071801E+03  0.00000000000E+00 0.  1.
         11    1    1    2    0    0  0.40770599655E+00  0.15789924074E+02  0.42355539235E+01  0.16353221195E+02  0.00000000000E+00 0. -1.
</event>
<event>
 7    1  0.2619826E-009  0.2082758E+03  0.7561462E-02  0.1142939E+00
          1   -1    0    0  501    0  0.00000000000E+00  0.00000000000E+00  0.77455686328E+03  0.77455686328E+03  0.00000000000E+00 0.  1.
         -1   -1    0    0    0  501 -0.00000000000E+00 -0.00000000000E+00 -0.66785658025E+02  0.66785658025E+02  0.00000000000E+00 0. -1.
         25    2    1    2    0    0 -0.15440732054E+03  0.98484785617E+02  0.22794626738E+03  0.31803661575E+03  0.12508762732E+03 0.  0.
          5    1    3    3  502    0 -0.16577887532E+02  0.78439715613E+02  0.62578934438E+02  0.10179003279E+03  0.41800000000E+01 0.  1.
         -5    1    3    3    0  502 -0.13782943301E+03  0.20045070004E+02  0.16536733295E+03  0.21624658296E+03  0.41800000000E+01 0.  1.
        -11    1    1    2    0    0  0.50443472632E+02 -0.74933079652E+02  0.30915442823E+03  0.32208068997E+03  0.00000000000E+00 0.  1.
         11    1    1    2    0    0  0.10396384791E+03 -0.23551705965E+02  0.17067050964E+03  0.20122521558E+03  0.00000000000E+00 0. -1.
</event>
<event>
 7    1  0.2619826E-009  0.2626848E+03  0.7561462E-02  0.1105541E+00
         -4   -1    0    0    0  501 -0.00000000000E+00  0.00000000000E+00  0.19396036402E+03  0.19396036402E+03  0.00000000000E+00 0.  1.
          4   -1    0    0  501    0  0.00000000000E+00 -0.00000000000E+00 -0.36625819025E+03  0.36625819025E+03  0.00000000000E+00 0. -1.
         25    2    1    2    0    0  0.15947137819E+03  0.18323440176E+03 -0.70780455494E+02  0.28224771657E+03  0.12509170307E+03 0.  0.
          5    1    3    3  502    0  0.12970200732E+03  0.19958023056E+03 -0.53867090247E+02  0.24407788705E+03  0.41800000000E+01 0.  1.
         -5    1    3    3    0  502  0.29769370873E+02 -0.16345828805E+02 -0.16913365246E+02  0.38169829518E+02  0.41800000000E+01 0.  1.
        -11    1    1    2    0    0 -0.12890800990E+02 -0.60661549369E+02 -0.90100305072E+00  0.62022642063E+02  0.00000000000E+00 0.  1.
         11    1    1    2    0    0 -0.14658057720E+03 -0.12257285239E+03 -0.10061636768E+03  0.21594819564E+03  0.00000000000E+00 0. -1.
</event>
<event>
 7    1  0.2619826E-009  0.8441337E+02  0.7561462E-02  0.1316974E+00
          2   -1    0    0  501    0  0.00000000000E+00  0.00000000000E+00  0.46063799934E+03  0.46063799934E+03  0.00000000000E+00 0. -1.
         -2   -1    0    0    0  501 -0.00000000000E+00 -0.00000000000E+00 -0.22232087923E+02  0.22232087923E+02  0.00000000000E+00 0.  1.
         25    2    1    2    0    0  0.33731017763E+02 -0.29559582758E+01  0.30424140901E+03  0.33067518684E+03  0.12504689115E+03 0.  0.
          5    1    3    3  502    0  0.46063065043E+02 -0.51366833484E+02  0.10874784825E+03  0.12885621616E+03  0.41800000000E+01 0. -1.
         -5    1    3    3    0  502 -0.12332047279E+02  0.48410875208E+02  0.19549356076E+03  0.20181897069E+03  0.41800000000E+01 0. -1.
        -11    1    1    2    0    0 -0.94576006986E+01  0.18480583497E+02  0.71555060477E+01  0.21958584749E+02  0.00000000000E+00 0.  1.
         11    1    1    2    0    0 -0.24273417065E+02 -0.15524625221E+02  0.12700899636E+03  0.13023631567E+03  0.00000000000E+00 0. -1.
</event>
<event>
 7    1  0.2619826E-009  0.9513424E+02  0.7561462E-02  0.1290874E+00
          1   -1    0    0  501    0  0.00000000000E+00  0.00000000000E+00  0.59299237848E+02  0.59299237848E+02  0.00000000000E+00 0. -1.
         -1   -1    0    0    0  501 -0.00000000000E+00 -0.00000000000E+00 -0.22812111414E+03  0.22812111414E+03  0.00000000000E+00 0.  1.
         25    2    1    2    0    0  0.38262809697E+02  0.57436364624E+01 -0.11709120598E+03  0.17564650548E+03  0.12507722577E+03 0.  0.
          5    1    3    3  502    0  0.27743194385E+02  0.61921871180E+02 -0.37707424870E+02  0.77738827207E+02  0.41800000000E+01 0.  1.
         -5    1    3    3    0  502  0.10519615311E+02 -0.56178234718E+02 -0.79383781106E+02  0.97907678274E+02  0.41800000000E+01 0.  1.
        -11    1    1    2    0    0  0.63331413103E+01 -0.17708249036E+02 -0.61729315826E+02  0.64530606654E+02  0.00000000000E+00 0.  1.
         11    1    1    2    0    0 -0.44595951007E+02  0.11964612574E+02  0.99986455055E+01  0.47243239857E+02  0.00000000000E+00 0. -1.
</event>
<event>
 7    1  0.2619826E-009  0.1035964E+03  0.7561462E-02  0.1272910E+00
         -1   -1    0    0    0  501 -0.00000000000E+00  0.00000000000E+00  0.30837023255E+03  0.30837023255E+03  0.00000000000E+00 0.  1.
          1   -1    0    0  501    0  0.00000000000E+00 -0.00000000000E+00 -0.66049266261E+02  0.66049266261E+02  0.00000000000E+00 0. -1.
         25    2    1    2    0    0 -0.75675087563E+02  0.29584773944E+02  0.78770653340E+02  0.16869770804E+03  0.12510844553E+03 0.  0.
          5    1    3    3  502    0 -0.37163449201E+02 -0.14826913624E+02  0.98622088716E+02  0.10651172756E+03  0.41800000000E+01 0.  1.
         -5    1    3    3    0  502 -0.38511638362E+02  0.44411687568E+02 -0.19851435377E+02  0.62185980482E+02  0.41800000000E+01 0.  1.
        -11    1    1    2    0    0  0.25935624351E+02  0.23703746826E+02  0.11279155948E+02  0.36901810023E+02  0.00000000000E+00 0. -1.
         11    1    1    2    0    0  0.49739463212E+02 -0.53288520770E+02  0.15227115700E+03  0.16881998075E+03  0.00000000000E+00 0.  1.
</event>
<event>
 7    1  0.2619826E-009  0.1678565E+03  0.7561462E-02  0.1180102E+00
         -2   -1    0    0    0  501 -0.00000000000E+00  0.00000000000E+00  0.67315286307E+02  0.67315286307E+02  0.00000000000E+00 0.  1.
          2   -1    0    0  501    0  0.00000000000E+00 -0.00000000000E+00 -0.12939901176E+04  0.12939901176E+04  0.00000000000E+00 0. -1.
         25    2    1    2    0    0 -0.12089115894E+03  0.84448159800E+02 -0.11582139598E+04  0.11742459723E+04  0.12509141778E+03 0.  0.
          5    1    3    3  502    0 -0.10713854617E+02 -0.26293520872E+02 -0.84988112702E+02  0.89702773766E+02  0.41800000000E+01 0.  1.
         -5    1    3    3    0  502 -0.11017730433E+03  0.11074168067E+03 -0.10732258470E+04  0.10845431985E+04  0.41800000000E+01 0. -1.
        -11    1    1    2    0    0  0.67503443696E+02 -0.28091333998E+02 -0.80224098900E+02  0.10854374234E+03  0.00000000000E+00 0. -1.
         11    1    1    2    0    0  0.53387715248E+02 -0.56356825801E+02  0.11763227334E+02  0.78515689331E+02  0.00000000000E+00 0.  1.
</event>
<event>
 7    1  0.2619826E-009  0.1609782E+03  0.7561462E-02  0.1187597E+00
         -1   -1    0    0    0  501 -0.00000000000E+00  0.00000000000E+00  0.72673047468E+02  0.72673047468E+02  0.00000000000E+00 0.  1.
          1   -1    0    0  501    0  0.00000000000E+00 -0.00000000000E+00 -0.49908542832E+03  0.49908542832E+03  0.00000000000E+00 0. -1.
         25    2    1    2    0    0 -0.14819272623E+03 -0.20650288166E+02 -0.15755830366E+03  0.25072486734E+03  0.12510324354E+03 0.  0.
          5    1    3    3  502    0 -0.67618865628E+02  0.67366397999E+01 -0.15055594967E+03  0.16523395440E+03  0.41800000000E+01 0.  1.
         -5    1    3    3    0  502 -0.80573860599E+02 -0.27386927966E+02 -0.70023539882E+01  0.85490912948E+02  0.41800000000E+01 0.  1.
        -11    1    1    2    0    0  0.13400991995E+03 -0.10523256175E+02 -0.24447828635E+03  0.27899646963E+03  0.00000000000E+00 0.  1.
         11    1    1    2    0    0  0.14182806274E+02  0.31173544341E+02 -0.24375790838E+02  0.42037138813E+02  0.00000000000E+00 0. -1.
</event>
<event>
 7    1  0.2619826E-009  0.1106030E+03  0.7561462E-02  0.1259457E+00
          3   -1    0    0  501    0  0.00000000000E+00  0.00000000000E+00  0.14327248420E+03  0.14327248420E+03  0.00000000000E+00 0. -1.
         -3   -1    0    0    0  501 -0.00000000000E+00 -0.00000000000E+00 -0.11745969950E+03  0.11745969950E+03  0.00000000000E+00 0.  1.
         25    2    1    2    0    0 -0.26563232108E+02 -0.45781974317E+02 -0.33668229533E+02  0.13993869492E+03  0.12509074380E+03 0.  0.
          5    1    3    3  502    0  0.19227322039E+02 -0.74032558304E+02 -0.51893158207E+00  0.76604512216E+02  0.41800000000E+01 0. -1.
         -5    1    3    3    0  502 -0.45790554148E+02  0.28250583987E+02 -0.33149297951E+02  0.63334182709E+02  0.41800000000E+01 0. -1.
        -11    1    1    2    0    0 -0.25093190027E+02  0.70253243518E+01  0.48821658585E+02  0.55340561209E+02  0.00000000000E+00 0. -1.
         11    1    1    2    0    0  0.51656422135E+02  0.38756649965E+02  0.10659355643E+02  0.65452927567E+02  0.00000000000E+00 0.  1.
</event>
<event>
 7    1  0.2619826E-009  0.1164430E+03  0.7561462E-02  0.1249083E+00
          1   -1    0    0  501    0  0.00000000000E+00  0.00000000000E+00  0.28959726007E+02  0.28959726007E+02  0.00000000000E+00 0. -1.
         -1   -1    0    0    0  501 -0.00000000000E+00 -0.00000000000E+00 -0.78991733628E+03  0.78991733628E+03  0.00000000000E+00 0.  1.
         25    2    1    2    0    0  0.76006934640E+02 -0.56906932808E+01 -0.21646078283E+03  0.26136658031E+03  0.12509108960E+03 0.  0.
          5    1    3    3  502    0  0.88547004770E+02  0.14542528845E+02 -0.21934483358E+03  0.23702676139E+03  0.41800000000E+01 0.  1.
         -5    1    3    3    0  502 -0.12540070129E+02 -0.20233222126E+02  0.28840507440E+01  0.24339818922E+02  0.41800000000E+01 0.  1.
        -11    1    1    2    0    0  0.21148329291E+02  0.49906685993E+01 -0.12802581340E+03  0.12985671913E+03  0.00000000000E+00 0.  1.
         11    1    1    2    0    0 -0.97155263931E+02  0.70002468145E+00 -0.41647101403E+03  0.42765376284E+03  0.00000000000E+00 0. -1.
</event>
<event>
 7    1  0.2619826E-009  0.3169094E+03  0.7561462E-02  0.1077081E+00
         -2   -1    0    0    0  501 -0.00000000000E+00  0.00000000000E+00  0.21400241881E+03  0.21400241881E+03  0.00000000000E+00 0.  1.
          2   -1    0    0  501    0  0.00000000000E+00 -0.00000000000E+00 -0.65810094898E+03  0.65810094898E+03  0.00000000000E+00 0. -1.
         25    2    1    2    0    0  0.26975802471E+03 -0.14626525291E+03 -0.44161210936E+03  0.55211642500E+03  0.12509346710E+03 0.  0.
          5    1    3    3  502    0  0.10118174950E+03 -0.11816292532E+03 -0.16395274392E+03  0.22604910526E+03  0.41800000000E+01 0. -1.
         -5    1    3    3    0  502  0.16857627521E+03 -0.28102327589E+02 -0.27765936544E+03  0.32606731974E+03  0.41800000000E+01 0. -1.
        -11    1    1    2    0    0 -0.19908610955E+02  0.64056510255E+01  0.24704060147E+02  0.32367819558E+02  0.00000000000E+00 0.  1.
         11    1    1    2    0    0 -0.24984941376E+03  0.13985960188E+03 -0.27190480961E+02  0.28761912323E+03  0.00000000000E+00 0. -1.
</event>
<event>
 7    1  0.2619826E-009  0.1575646E+03  0.7561462E-02  0.1191474E+00
         -2   -1    0    0    0  501 -0.00000000000E+00  0.00000000000E+00  0.27657043692E+02  0.27657043692E+02  0.00000000000E+00 0.  1.
          2   -1    0    0  501    0  0.00000000000E+00 -0.00000000000E+00 -0.13346483325E+04  0.13346483325E+04  0.00000000000E+00 0. -1.
         25    2    1    2    0    0  0.15539655340E+03  0.40135400484E+01 -0.59041188606E+03  0.62321575828E+03  0.12508992308E+03 0.  0.
          5    1    3    3  502    0  0.10930454716E+03 -0.12930664693E+02 -0.54558901720E+03  0.55659638358E+03  0.41800000000E+01 0.  1.
         -5    1    3    3    0  502  0.46092006235E+02  0.16944204742E+02 -0.44822868861E+02  0.66619374705E+02  0.41800000000E+01 0.  1.
        -11    1    1    2    0    0 -0.13796000919E+03 -0.63454696578E+01 -0.70411090884E+03  0.71752728246E+03  0.00000000000E+00 0. -1.
         11    1    1    2    0    0 -0.17436544201E+02  0.23319296094E+01 -0.12468493873E+02  0.21562335422E+02  0.00000000000E+00 0.  1.
</event>
<event>
 7    1  0.2619826E-009  0.1476724E+03  0.7561462E-02  0.1203363E+00
          2   -1    0    0  501    0  0.00000000000E+00  0.00000000000E+00  0.13483006311E+03  0.13483006311E+03  0.00000000000E+00 0. -1.
         -2   -1    0    0    0  501 -0.00000000000E+00 -0.00000000000E+00 -0.23826178273E+03  0.23826178273E+03  0.00000000000E+00 0.  1.
         25    2    1    2    0    0 -0.13286790335E+03 -0.51669548745E+02 -0.42671862229E+02  0.19440201736E+03  0.12509050531E+03 0.  0.
          5    1    3    3  502    0 -0.96734855101E+02 -0.11868615361E+02  0.31673398583E+02  0.10256301868E+03  0.41800000000E+01 0.  1.
         -5    1    3    3    0  502 -0.36133048253E+02 -0.39800933385E+02 -0.74345260812E+02  0.91838998686E+02  0.41800000000E+01 0.  1.
        -11    1    1    2    0    0  0.66893156103E+02  0.36410181162E+02  0.14415408483E+02  0.77512577221E+02  0.00000000000E+00 0. -1.
         11    1    1    2    0    0  0.65974747251E+02  0.15259367584E+02 -0.75175265869E+02  0.10117725126E+03  0.00000000000E+00 0.  1.
</event>
<event>
 7    1  0.2619826E-009  0.1075351E+03  0.7561462E-02  0.1265204E+00
         -2   -1    0    0    0  501 -0.00000000000E+00  0.00000000000E+00  0.34910123745E+03  0.34910123745E+03  0.00000000000E+00 0.  1.
          2   -1    0    0  501    0  0.00000000000E+00 -0.00000000000E+00 -0.37563656614E+02  0.37563656614E+02  0.00000000000E+00 0. -1.
         25    2    1    2    0    0  0.29685903243E+02 -0.16828596504E+02  0.22263159493E+03  0.25763685719E+03  0.12508984215E+03 0.  0.
          5    1    3    3  502    0  0.44090659168E+02 -0.65097665474E+02  0.12582259381E+03  0.14842671521E+03  0.41800000000E+01 0. -1.
         -5    1    3    3    0  502 -0.14404755925E+02  0.48269068970E+02  0.96809001125E+02  0.10921014198E+03  0.41800000000E+01 0. -1.
        -11    1    1    2    0    0 -0.42361403755E+02 -0.19996613579E+02  0.22321897448E+02  0.51890463367E+02  0.00000000000E+00 0. -1.
         11    1    1    2    0    0  0.12675500512E+02  0.36825210083E+02  0.66584088454E+02  0.77137573505E+02  0.00000000000E+00 0.  1.
</event>
<event>
 7    1  0.2619826E-009  0.1312589E+03  0.7561462E-02  0.1225600E+00
         -1   -1    0    0    0  501 -0.00000000000E+00  0.00000000000E+00  0.34661065358E+02  0.34661065358E+02  0.00000000000E+00 0.  1.
          1   -1    0    0  501    0  0.00000000000E+00 -0.00000000000E+00 -0.59605222851E+03  0.59605222851E+03  0.00000000000E+00 0. -1.
         25    2    1    2    0    0  0.21470561560E+02 -0.90020810981E+02 -0.25722505976E+03  0.30062635053E+03  0.12508692913E+03 0.  0.
          5    1    3    3  502    0  0.58545294422E+02 -0.82711030444E+01 -0.14642232493E+03  0.15796497170E+03  0.41800000000E+01 0.  1.
         -5    1    3    3    0  502 -0.37074732862E+02 -0.81749707937E+02 -0.11080273483E+03  0.14266137883E+03  0.41800000000E+01 0.  1.
        -11    1    1    2    0    0 -0.37525738164E+02  0.89800357610E+02 -0.29693282389E+03  0.31247621855E+03  0.00000000000E+00 0. -1.
         11    1    1    2    0    0  0.16055176604E+02  0.22045337072E+00 -0.72332794998E+01  0.17610724795E+02  0.00000000000E+00 0.  1.
</event>
<event>
 7    1  0.2619826E-009  0.3458920E+03  0.7561462E-02  0.1064314E+00
          1   -1    0    0  501    0  0.00000000000E+00  0.00000000000E+00  0.99453375198E+03  0.99453375198E+03  0.00000000000E+00 0. -1.
         -1   -1    0    0    0  501 -0.00000000000E+00 -0.00000000000E+00 -0.12520640410E+03  0.12520640410E+03  0.00000000000E+00 0.  1.
         25    2    1    2    0    0 -0.22399106851E+03  0.24441682503E+03  0.52106146904E+03  0.63012986138E+03  0.12508798724E+03 0.  0.
          5    1    3    3  502    0 -0.24172690225E+02  0.10088193244E+03  0.20289014632E+03  0.22791087539E+03  0.41800000000E+01 0.  1.
         -5    1    3    3    0  502 -0.19981837828E+03  0.14353489260E+03  0.31817132272E+03  0.40221898600E+03  0.41800000000E+01 0.  1.
        -11    1    1    2    0    0  0.39322442208E+02 -0.10004036187E+03  0.84430866070E+02  0.13668540379E+03  0.00000000000E+00 0.  1.
         11    1    1    2    0    0  0.18466862630E+03 -0.14437646316E+03  0.26383501277E+03  0.35292489090E+03  0.00000000000E+00 0. -1.
</event>
<event>
 7    1  0.2619826E-009  0.1003036E+03  0.7561462E-02  0.1279659E+00
         -1   -1    0    0    0  501 -0.00000000000E+00  0.00000000000E+00  0.98019294974E+02  0.98019294974E+02  0.00000000000E+00 0.  1.
          1   -1    0    0  501    0  0.00000000000E+00 -0.00000000000E+00 -0.13037697437E+03  0.13037697437E+03  0.00000000000E+00 0. -1.
         25    2    1    2    0    0 -0.98975451992E+01  0.29532107884E+02  0.31666865378E+01  0.12895004826E+03  0.12509188721E+03 0.  0.
          5    1    3    3  502    0 -0.66168700794E+02  0.21603127359E+02  0.13537802546E+02  0.71033348325E+02  0.41800000000E+01 0. -1.
         -5    1    3    3    0  502  0.56271155594E+02  0.79289805249E+01 -0.10371116009E+02  0.57916699935E+02  0.41800000000E+01 0. -1.
        -11    1    1    2    0    0  0.38723120968E+02 -0.19644615552E+02 -0.49563787455E+02  0.65893550858E+02  0.00000000000E+00 0. -1.
         11    1    1    2    0    0 -0.28825575769E+02 -0.98874923324E+01  0.14039421517E+02  0.33552670230E+02  0.00000000000E+00 0.  1.
</event>
<event>
 7    1  0.2619826E-009  0.1027082E+03  0.7561462E-02  0.1274702E+00
         -2   -1    0    0    0  501 -0.00000000000E+00  0.00000000000E+00  0.26771373261E+03  0.26771373261E+03  0.00000000000E+00 0.  1.
          2   -1    0    0  501    0  0.00000000000E+00 -0.00000000000E+00 -0.58078144084E+02  0.58078144084E+02  0.00000000000E+00 0. -1.
         25    2    1    2    0    0 -0.29805566818E+01 -0.47636625449E+02  0.66416883227E+02  0.14945570471E+03  0.12509066109E+03 0.  0.
          5    1    3    3  502    0 -0.44002132392E+02 -0.16281610778E+01 -0.15486819067E+02  0.46863125465E+02  0.41800000000E+01 0. -1.
         -5    1    3    3    0  502  0.41021575711E+02 -0.46008464371E+02  0.81903702293E+02  0.10259257925E+03  0.41800000000E+01 0. -1.
        -11    1    1    2    0    0  0.44436114817E+02  0.15899843143E+02  0.45561171032E+02  0.65598731831E+02  0.00000000000E+00 0. -1.
         11    1    1    2    0    0 -0.41455558135E+02  0.31736782306E+02  0.97657534264E+02  0.11073744015E+03  0.00000000000E+00 0.  1.
</event>
<event>
 7    1  0.2619826E-009  0.1473163E+03  0.7561462E-02  0.1203810E+00
         -2   -1    0    0    0  501 -0.00000000000E+00  0.00000000000E+00  0.75671281689E+02  0.75671281689E+02  0.00000000000E+00 0.  1.
          2   -1    0    0  501    0  0.00000000000E+00 -0.00000000000E+00 -0.31864805766E+03  0.31864805766E+03  0.00000000000E+00 0. -1.
         25    2    1    2    0    0  0.75114755220E+01 -0.10449985780E+03 -0.17716420216E+03  0.24086166545E+03  0.12510213751E+03 0.  0.
          5    1    3    3  502    0  0.46722728572E+02 -0.10667321213E+03 -0.97480683487E+02  0.15192808695E+03  0.41800000000E+01 0. -1.
         -5    1    3    3    0  502 -0.39211253050E+02  0.21733543347E+01 -0.79683518678E+02  0.88933578494E+02  0.41800000000E+01 0. -1.
        -11    1    1    2    0    0 -0.40276412452E+02  0.96950987335E+02 -0.50997277506E+02  0.11671506183E+03  0.00000000000E+00 0.  1.
         11    1    1    2    0    0  0.32764936930E+02  0.75488704625E+01 -0.14815296298E+02  0.36742612069E+02  0.00000000000E+00 0. -1.
</event>
<event>
 7    1  0.2619826E-009  0.1052710E+03  0.7561462E-02  0.1269587E+00
          4   -1    0    0  501    0  0.00000000000E+00  0.00000000000E+00  0.12258784760E+03  0.12258784760E+03  0.00000000000E+00 0. -1.
         -4   -1    0    0    0  501 -0.00000000000E+00 -0.00000000000E+00 -0.17173926019E+03  0.17173926019E+03  0.00000000000E+00 0.  1.
         25    2    1    2    0    0 -0.71471735927E+01 -0.84084254036E+02  0.17612257605E+02  0.15191806344E+03  0.12509061721E+03 0.  0.
          5    1    3    3  502    0  0.14876248166E+02  0.11236674418E+02 -0.35651138696E+02  0.40448012335E+02  0.41800000000E+01 0.  1.
         -5    1    3    3    0  502 -0.22023421759E+02 -0.95320928453E+02  0.53263396301E+02  0.11147005110E+03  0.41800000000E+01 0.  1.
        -11    1    1    2    0    0  0.20186622861E+02  0.74881971159E+02 -0.40111649600E+01  0.77658861642E+02  0.00000000000E+00 0. -1.
         11    1    1    2    0    0 -0.13039449269E+02  0.92022828772E+01 -0.62752505242E+02  0.64750182714E+02  0.00000000000E+00 0.  1.
</event>
<event>
 7    1  0.2619826E-009  0.1399672E+03  0.7561462E-02  0.1213373E+00
         -1   -1    0    0    0  501 -0.00000000000E+00  0.00000000000E+00  0.57115385863E+02  0.57115385863E+02  0.00000000000E+00 0. -1.
          1   -1    0    0  501    0  0.00000000000E+00 -0.00000000000E+00 -0.50637369634E+03  0.50637369634E+03  0.00000000000E+00 0.  1.
         25    2    1    2    0    0 -0.64795070013E+02 -0.11203131590E+03 -0.20766520105E+03  0.27480594817E+03  0.12507620311E+03 0.  0.
          5    1    3    3  502    0 -0.56274752883E+02 -0.84529640995E+02 -0.47798010740E+02  0.11231309029E+03  0.41800000000E+01 0. -1.
         -5    1    3    3    0  502 -0.85203171302E+01 -0.27501674902E+02 -0.15986719031E+03  0.16249285788E+03  0.41800000000E+01 0. -1.
        -11    1    1    2    0    0 -0.11927622245E+02 -0.16672758836E+01 -0.59519745906E+02  0.60726008711E+02  0.00000000000E+00 0.  1.
         11    1    1    2    0    0  0.76722692258E+02  0.11369859178E+03 -0.18207336352E+03  0.22795712532E+03  0.00000000000E+00 0. -1.
</event>
<event>
 7    1  0.2619826E-009  0.1122446E+03  0.7561462E-02  0.1256469E+00
          1   -1    0    0  501    0  0.00000000000E+00  0.00000000000E+00  0.39549987108E+03  0.39549987108E+03  0.00000000000E+00 0. -1.
         -1   -1    0    0    0  501 -0.00000000000E+00 -0.00000000000E+00 -0.40077986716E+02  0.40077986716E+02  0.00000000000E+00 0.  1.
         25    2    1    2    0    0 -0.68203516918E+02  0.15224861685E+02  0.18808829832E+03  0.23644898664E+03  0.12508956464E+03 0.  0.
          5    1    3    3  502    0 -0.81159726357E+02 -0.22877881552E+02  0.64033891444E+02  0.10596277790E+03  0.41800000000E+01 0. -1.
         -5    1    3    3    0  502  0.12956209438E+02  0.38102743237E+02  0.12405440688E+03  0.13048620874E+03  0.41800000000E+01 0. -1.
        -11    1    1    2    0    0  0.21973942204E+02 -0.41112806252E+02  0.40799504610E+02  0.61949306294E+02  0.00000000000E+00 0.  1.
         11    1    1    2    0    0  0.46229574715E+02  0.25887944568E+02  0.12653408143E+03  0.13717956486E+03  0.00000000000E+00 0. -1.
</event>
<event>
 7    1  0.2619826E-009  0.3558007E+03  0.7561462E-02  0.1060259E+00
         -3   -1    0    0    0  501 -0.00000000000E+00  0.00000000000E+00  0.49717491662E+03  0.49717491662E+03  0.00000000000E+00 0.  1.
          3   -1    0    0  501    0  0.00000000000E+00 -0.00000000000E+00 -0.30405115634E+03  0.30405115634E+03  0.00000000000E+00 0. -1.
         25    2    1    2    0    0 -0.46148478575E+02 -0.34813829062E+03 -0.32310255283E+02  0.37419402970E+03  0.12508903948E+03 0.  0.
          5    1    3    3  502    0 -0.56678848605E+02 -0.16387203803E+03 -0.67748557002E+02  0.18620922669E+03  0.41800000000E+01 0. -1.
         -5    1    3    3    0  502  0.10530370030E+02 -0.18426625259E+03  0.35438301719E+02  0.18798480302E+03  0.41800000000E+01 0. -1.
        -11    1    1    2    0    0  0.31708058907E+02  0.98361069547E+02  0.11177865237E+03  0.15223261190E+03  0.00000000000E+00 0.  1.
         11    1    1    2    0    0  0.14440419669E+02  0.24977722107E+03  0.11365536320E+03  0.27479943135E+03  0.00000000000E+00 0. -1.
</event>
<event>
 6    1  0.2619826E-009  0.1076641E+03  0.7561462E-02  0.1264958E+00
         -1   -1    0    0    0  501 -0.00000000000E+00  0.00000000000E+00  0.83678991765E+03  0.83678991765E+03  0.00000000000E+00 0.  1.
          1   -1    0    0  501    0  0.00000000000E+00 -0.00000000000E+00 -0.27416453442E+02  0.27416453442E+02  0.00000000000E+00 0. -1.
          5    1    1    2  502    0  0.82222348470E-01 -0.69208424231E+02  0.13618340003E+03  0.15281755000E+03  0.41800000000E+01 0.  1.
         -5    1    1    2    0  502 -0.23212079247E+02 -0.76671736535E+01  0.49471761473E+03  0.49533885058E+03  0.41800000000E+01 0.  1.
        -11    1    1    2    0    0  0.57250070737E+02  0.34703931846E+02  0.88160597035E+02  0.11069880015E+03  0.00000000000E+00 0. -1.
         11    1    1    2    0    0 -0.34120213838E+02  0.42171666038E+02  0.90311852411E+02  0.10535117035E+03  0.00000000000E+00 0.  1.
</event>
<event>
 7    1  0.2619826E-009  0.1543835E+03  0.7561462E-02  0.1195188E+00
          2   -1    0    0  501    0  0.00000000000E+00  0.00000000000E+00  0.26204807016E+03  0.26204807016E+03  0.00000000000E+00 0. -1.
         -2   -1    0    0    0  501 -0.00000000000E+00 -0.00000000000E+00 -0.16118674333E+03  0.16118674333E+03  0.00000000000E+00 0.  1.
         25    2    1    2    0    0  0.10392262978E+03  0.76957553160E+02 -0.67620253826E+02  0.19220497394E+03  0.12509146778E+03 0.  0.
          5    1    3    3  502    0  0.46618635571E+02 -0.29222751125E+02 -0.29781982274E+01  0.55259464624E+02  0.41800000000E+01 0.  1.
         -5    1    3    3    0  502  0.57303994213E+02  0.10618030428E+03 -0.64642055598E+02  0.13694550932E+03  0.41800000000E+01 0.  1.
        -11    1    1    2    0    0 -0.48246593741E+02 -0.54598495476E+02  0.15238841248E+03  0.16891109428E+03  0.00000000000E+00 0. -1.
         11    1    1    2    0    0 -0.55676036044E+02 -0.22359057683E+02  0.16093168180E+02  0.62118745256E+02  0.00000000000E+00 0.  1.
</event>
<event>
 7    1  0.2619826E-009  0.7868990E+02  0.7561462E-02  0.1332811E+00
         -2   -1    0    0    0  501 -0.00000000000E+00  0.00000000000E+00  0.14443642387E+02  0.14443642387E+02  0.00000000000E+00 0.  1.
          2   -1    0    0  501    0  0.00000000000E+00 -0.00000000000E+00 -0.99984914761E+03  0.99984914761E+03  0.00000000000E+00 0. -1.
         25    2    1    2    0    0  0.70653971753E+01  0.23600676189E+02 -0.75097123479E+03  0.76171678370E+03  0.12509097223E+03 0.  0.
          5    1    3    3  502    0  0.72105599597E+01  0.46839244597E+02 -0.10456168569E+03  0.11487613121E+03  0.41800000000E+01 0. -1.
         -5    1    3    3    0  502 -0.14516278442E+00 -0.23238568408E+02 -0.64640954910E+03  0.64684065248E+03  0.41800000000E+01 0. -1.
        -11    1    1    2    0    0  0.36123033099E+02 -0.23333154639E+02 -0.66626256080E+02  0.79299228401E+02  0.00000000000E+00 0. -1.
         11    1    1    2    0    0 -0.43188430274E+02 -0.26752154944E+00 -0.16780801435E+03  0.17327677789E+03  0.00000000000E+00 0.  1.
</event>
<event>
 6    1  0.2619826E-009  0.1124760E+03  0.7561462E-02  0.1256052E+00
         -3   -1    0    0    0  501 -0.00000000000E+00  0.00000000000E+00  0.21759379653E+03  0.21759379653E+03  0.00000000000E+00 0.  1.
          3   -1    0    0  501    0  0.00000000000E+00 -0.00000000000E+00 -0.12894018251E+03  0.12894018251E+03  0.00000000000E+00 0. -1.
          5    1    1    2  502    0  0.22408936817E+02  0.44583060561E+02 -0.25701213544E+02  0.56283519043E+02  0.41800000000E+01 0.  1.
         -5    1    1    2    0  502  0.27314211342E+02 -0.86420443746E+02 -0.38707456411E+02  0.98642277043E+02  0.41800000000E+01 0.  1.
        -11    1    1    2    0    0 -0.18498080110E+02  0.48772589076E+02  0.21851023252E+02  0.56554501413E+02  0.00000000000E+00 0. -1.
         11    1    1    2    0    0 -0.31225068049E+02 -0.69352058914E+01  0.13121126072E+03  0.13505368153E+03  0.00000000000E+00 0.  1.
</event>
<event>
 7    1  0.2785100E-009  0.1594731E+03  0.7561462E-02  0.1189293E+00
         -2   -1    0    0    0  501 -0.00000000000E+00  0.00000000000E+00  0.12976867534E+03  0.12976867534E+03  0.00000000000E+00 0. -1.
          2   -1    0    0  501    0  0.00000000000E+00 -0.00000000000E+00 -0.27880273692E+03  0.27880273692E+03  0.00000000000E+00 0.  1.
         25    2    1    2    0    0  0.12353441552E+03 -0.74816832958E+02 -0.14060394735E+03  0.23722092315E+03  0.12508391607E+03 0.  0.
          5    1    3    3  502    0  0.57810487927E+02 -0.16198878331E+02 -0.13624799314E+03  0.14894779021E+03  0.41800000000E+01 0. -1.
         -5    1    3    3    0  502  0.65723927589E+02 -0.58617954627E+02 -0.43559542070E+01  0.88273132942E+02  0.41800000000E+01 0. -1.
        -11    1    1    2    0    0 -0.10235686294E+03  0.10511386596E+02 -0.11764621048E+02  0.10356554904E+03  0.00000000000E+00 0.  1.
         11    1    1    2    0    0 -0.21177552578E+02  0.64305446362E+02  0.33345068082E+01  0.67784940073E+02  0.00000000000E+00 0. -1.
</event>
<event>
 7    1  0.2619826E-009  0.1027292E+03  0.7561462E-02  0.1274659E+00
          3   -1    0    0  501    0  0.00000000000E+00  0.00000000000E+00  0.12416466321E+03  0.12416466321E+03  0.00000000000E+00 0. -1.
         -3   -1    0    0    0  501 -0.00000000000E+00 -0.00000000000E+00 -0.16527206355E+03  0.16527206355E+03  0.00000000000E+00 0.  1.
         25    2    1    2    0    0  0.41488531679E+02 -0.18344787421E+02  0.63417117836E+02  0.14739909502E+03  0.12508770081E+03 0.  0.
          5    1    3    3  502    0  0.13884132170E+01 -0.56994326358E+02 -0.69236664320E+01  0.57582032658E+02  0.41800000000E+01 0. -1.
         -5    1    3    3    0  502  0.40100118462E+02  0.38649538937E+02  0.70340784268E+02  0.89817062366E+02  0.41800000000E+01 0. -1.
        -11    1    1    2    0    0 -0.61698161835E+02 -0.45978228131E+01 -0.50088753522E+02  0.79603306324E+02  0.00000000000E+00 0. -1.
         11    1    1    2    0    0  0.20209630156E+02  0.22942610234E+02 -0.54435764652E+02  0.62434325404E+02  0.00000000000E+00 0.  1.
</event>
<event>
 7    1  0.2619826E-009  0.2363155E+03  0.7561462E-02  0.1122272E+00
          2   -1    0    0  501    0  0.00000000000E+00  0.00000000000E+00  0.94231952956E+03  0.94231952956E+03  0.00000000000E+00 0. -1.
         -2   -1    0    0    0  501 -0.00000000000E+00 -0.00000000000E+00 -0.64340807620E+02  0.64340807620E+02  0.00000000000E+00 0.  1.
         25    2    1    2    0    0 -0.96694123450E+02 -0.19794323563E+03  0.42496449554E+03  0.49474574441E+03  0.12508897275E+03 0.  0.
          5    1    3    3  502    0  0.66763286428E+01 -0.11487891685E+03  0.14690657886E+03  0.18665678186E+03  0.41800000000E+01 0. -1.
         -5    1    3    3    0  502 -0.10337045209E+03 -0.83064318779E+02  0.27805791667E+03  0.30808896255E+03  0.41800000000E+01 0. -1.
        -11    1    1    2    0    0 -0.45035221534E+01  0.15919340959E+02  0.41019676103E+01  0.17045036422E+02  0.00000000000E+00 0.  1.
         11    1    1    2    0    0  0.10119764560E+03  0.18202389467E+03  0.44891225879E+03  0.49486955635E+03  0.00000000000E+00 0. -1.
</event>
<event>
 7    1  0.2619826E-009  0.1470354E+03  0.7561462E-02  0.1204164E+00
          2   -1    0    0  501    0  0.00000000000E+00  0.00000000000E+00  0.16207343236E+04  0.16207343236E+04  0.00000000000E+00 0.  1.
         -2   -1    0    0    0  501 -0.00000000000E+00 -0.00000000000E+00 -0.19063878258E+02  0.19063878258E+02  0.00000000000E+00 0. -1.
         25    2    1    2    0    0 -0.88211032790E+02 -0.83366065206E+02  0.11693654389E+04  0.11822832383E+04  0.12508812390E+03 0.  0.
          5    1    3    3  502    0 -0.65816537726E+02 -0.56773190408E+00  0.81487248481E+03  0.81753701926E+03  0.41800000000E+01 0.  1.
         -5    1    3    3    0  502 -0.22394495064E+02 -0.82798333302E+02  0.35449295409E+03  0.36474621905E+03  0.41800000000E+01 0.  1.
        -11    1    1    2    0    0  0.38039520164E+02 -0.71949660360E+01  0.19188135969E+03  0.19574787055E+03  0.00000000000E+00 0.  1.
         11    1    1    2    0    0  0.50171512627E+02  0.90561031242E+02  0.24042364671E+03  0.26176709296E+03  0.00000000000E+00 0. -1.
</event>
<event>
 7    1  0.2619826E-009  0.2546159E+03  0.7561462E-02  0.1110422E+00
          1   -1    0    0  501    0  0.00000000000E+00  0.00000000000E+00  0.56760152731E+03  0.56760152731E+03  0.00000000000E+00 0. -1.
         -1   -1    0    0    0  501 -0.00000000000E+00 -0.00000000000E+00 -0.13910446865E+03  0.13910446865E+03  0.00000000000E+00 0.  1.
         25    2    1    2    0    0 -0.24300698438E+03  0.45242681460E+02  0.11926240797E+03  0.30161391278E+03  0.12509250875E+03 0.  0.
          5    1    3    3  502    0 -0.16887675287E+03  0.11624522228E+02  0.13746444503E+03  0.21810188726E+03  0.41800000000E+01 0. -1.
         -5    1    3    3    0  502 -0.74130231509E+02  0.33618159232E+02 -0.18202037065E+02  0.83512025523E+02  0.41800000000E+01 0. -1.
        -11    1    1    2    0    0  0.77174732135E+02  0.20755052114E+02  0.12669789881E+03  0.14979675908E+03  0.00000000000E+00 0. -1.
         11    1    1    2    0    0  0.16583225224E+03 -0.65997733574E+02  0.18253675188E+03  0.25529532410E+03  0.00000000000E+00 0.  1.
</event>
<event>
 7    1  0.2619826E-009  0.6954358E+02  0.7561462E-02  0.1361652E+00
         -2   -1    0    0    0  501 -0.00000000000E+00  0.00000000000E+00  0.84078680208E+02  0.84078680208E+02  0.00000000000E+00 0.  1.
          2   -1    0    0  501    0  0.00000000000E+00 -0.00000000000E+00 -0.17191514935E+03  0.17191514935E+03  0.00000000000E+00 0. -1.
         25    2    1    2    0    0 -0.10397454893E+02 -0.49394000511E+02 -0.41376051617E+02  0.14109698190E+03  0.12509398986E+03 0.  0.
          5    1    3    3  502    0  0.25381063900E+01 -0.16267094805E+02  0.44727610697E+02  0.47844455438E+02  0.41800000000E+01 0. -1.
         -5    1    3    3    0  502 -0.12935561283E+02 -0.33126905707E+02 -0.86103662315E+02  0.93252526461E+02  0.41800000000E+01 0. -1.
        -11    1    1    2    0    0  0.39845280276E+02  0.19610607218E+02  0.90857466050E+01  0.45329604753E+02  0.00000000000E+00 0. -1.
         11    1    1    2    0    0 -0.29447825383E+02  0.29783393294E+02 -0.55546164129E+02  0.69567242904E+02  0.00000000000E+00 0.  1.
</event>
<event>
 7    1  0.2685294E-009  0.9925834E+02  0.7561462E-02  0.1281863E+00
         -3   -1    0    0    0  501 -0.00000000000E+00  0.00000000000E+00  0.12826494437E+03  0.12826494437E+03  0.00000000000E+00 0.  1.
          3   -1    0    0  501    0  0.00000000000E+00 -0.00000000000E+00 -0.29426931019E+03  0.29426931019E+03  0.00000000000E+00 0. -1.
         25    2    1    2    0    0 -0.57221549258E+02  0.30958189946E+02  0.72751577000E+02  0.15866578619E+03  0.12509726026E+03 0.  0.
          5    1    3    3  502    0 -0.86430576351E+02  0.33446931491E+02  0.15288825420E+02  0.94022137485E+02  0.41800000000E+01 0. -1.
         -5    1    3    3    0  502  0.29209027093E+02 -0.24887415450E+01  0.57462751579E+02  0.64643648700E+02  0.41800000000E+01 0. -1.
        -11    1    1    2    0    0  0.48391949683E+02 -0.49216525572E+01 -0.22989253334E+03  0.23498208515E+03  0.00000000000E+00 0. -1.
         11    1    1    2    0    0  0.88295995750E+01 -0.26036537389E+02 -0.88634094861E+01  0.28886383221E+02  0.00000000000E+00 0.  1.
</event>
<event>
 7    1  0.2619826E-009  0.1261701E+03  0.7561462E-02  0.1233252E+00
         -1   -1    0    0    0  501 -0.00000000000E+00  0.00000000000E+00  0.75746910990E+02  0.75746910990E+02  0.00000000000E+00 0.  1.
          1   -1    0    0  501    0  0.00000000000E+00 -0.00000000000E+00 -0.39934274446E+03  0.39934274446E+03  0.00000000000E+00 0. -1.
         25    2    1    2    0    0  0.10894753138E+03  0.56557796878E+02 -0.15572367328E+03  0.23444834856E+03  0.12509123368E+03 0.  0.
          5    1    3    3  502    0  0.60253137164E+02  0.27939717490E+02  0.22949168420E+01  0.66586841004E+02  0.41800000000E+01 0. -1.
         -5    1    3    3    0  502  0.48694394216E+02  0.28618079387E+02 -0.15801859012E+03  0.16786150756E+03  0.41800000000E+01 0. -1.
        -11    1    1    2    0    0 -0.10148436387E+03 -0.36655051922E+02 -0.46623005542E+02  0.11754307120E+03  0.00000000000E+00 0.  1.
         11    1    1    2    0    0 -0.74631675097E+01 -0.19902744956E+02 -0.12124915465E+03  0.12309823569E+03  0.00000000000E+00 0. -1.
</event>
<event>
 7    1  0.2619826E-009  0.8600199E+02  0.7561462E-02  0.1312833E+00
         -2   -1    0    0    0  501 -0.00000000000E+00  0.00000000000E+00  0.48830500344E+03  0.48830500344E+03  0.00000000000E+00 0. -1.
          2   -1    0    0  501    0  0.00000000000E+00 -0.00000000000E+00 -0.33468804956E+02  0.33468804956E+02  0.00000000000E+00 0.  1.
         25    2    1    2    0    0  0.27294914387E+02  0.35892596537E+02  0.35581384354E+03  0.37984690775E+03  0.12508753428E+03 0.  0.
          5    1    3    3  502    0  0.28441531499E+02  0.71160680092E+02  0.12774751325E+03  0.14902906645E+03  0.41800000000E+01 0. -1.
         -5    1    3    3    0  502 -0.11466171118E+01 -0.35268083556E+02  0.22806633030E+03  0.23081784130E+03  0.41800000000E+01 0. -1.
        -11    1    1    2    0    0 -0.31866268272E+02 -0.99545787111E+01 -0.57661242807E+01  0.33879210146E+02  0.00000000000E+00 0.  1.
         11    1    1    2    0    0  0.45713538845E+01 -0.25938017826E+02  0.10478847923E+03  0.10804769050E+03  0.00000000000E+00 0. -1.
</event>
<event>
 7    1  0.2619826E-009  0.2640170E+03  0.7561462E-02  0.1104753E+00
         -2   -1    0    0    0  501 -0.00000000000E+00  0.00000000000E+00  0.98312514989E+02  0.98312514989E+02  0.00000000000E+00 0. -1.
          2   -1    0    0  501    0  0.00000000000E+00 -0.00000000000E+00 -0.87547635538E+03  0.87547635538E+03  0.00000000000E+00 0.  1.
         25    2    1    2    0    0 -0.17748279590E+03  0.18471510490E+03 -0.24334222687E+03  0.37481088746E+03  0.12509176295E+03 0.  0.
          5    1    3    3  502    0 -0.65264519424E+01 -0.12448291304E+01 -0.65232175978E+02  0.65702765218E+02  0.41800000000E+01 0. -1.
         -5    1    3    3    0  502 -0.17095634396E+03  0.18595993403E+03 -0.17811005089E+03  0.30910812224E+03  0.41800000000E+01 0. -1.
        -11    1    1    2    0    0  0.87904115333E+02 -0.14499235413E+03 -0.38633360973E+03  0.42190469808E+03  0.00000000000E+00 0.  1.
         11    1    1    2    0    0  0.89578680567E+02 -0.39722750775E+02 -0.14748800379E+03  0.17707328484E+03  0.00000000000E+00 0. -1.
</event>
<event>
 7    1  0.2619826E-009  0.1350839E+03  0.7561462E-02  0.1220101E+00
          1   -1    0    0  501    0  0.00000000000E+00  0.00000000000E+00  0.45734060481E+03  0.45734060481E+03  0.00000000000E+00 0. -1.
         -1   -1    0    0    0  501 -0.00000000000E+00 -0.00000000000E+00 -0.93032653847E+02  0.93032653847E+02  0.00000000000E+00 0.  1.
         25    2    1    2    0    0  0.75818160603E+02  0.92462225361E+02  0.19401682317E+02  0.17412697969E+03  0.12508446420E+03 0.  0.
          5    1    3    3  502    0  0.45656786267E+02  0.45951985682E+02  0.72457163534E+02  0.97281242116E+02  0.41800000000E+01 0. -1.
         -5    1    3    3    0  502  0.30161374336E+02  0.46510239679E+02 -0.53055481216E+02  0.76845737578E+02  0.41800000000E+01 0. -1.
        -11    1    1    2    0    0 -0.30829193557E+01 -0.74736847573E+02  0.19014460248E+03  0.20432834025E+03  0.00000000000E+00 0. -1.
         11    1    1    2    0    0 -0.72735241247E+02 -0.17725377789E+02  0.15476166617E+03  0.17191793872E+03  0.00000000000E+00 0.  1.
</event>
<event>
 7    1  0.2619826E-009  0.1184989E+03  0.7561462E-02  0.1245594E+00
         -2   -1    0    0    0  501 -0.00000000000E+00  0.00000000000E+00  0.31030295887E+02  0.31030295887E+02  0.00000000000E+00 0. -1.
          2   -1    0    0  501    0  0.00000000000E+00 -0.00000000000E+00 -0.90252368711E+03  0.90252368711E+03  0.00000000000E+00 0.  1.
         25    2    1    2    0    0 -0.56332099555E+02  0.90163488822E+02 -0.66628475599E+03  0.68620991554E+03  0.12508361991E+03 0.  0.
          5    1    3    3  502    0  0.92275440840E+01  0.47511172117E+02 -0.72432271983E+02  0.87214479705E+02  0.41800000000E+01 0. -1.
         -5    1    3    3    0  502 -0.65559643639E+02  0.42652316705E+02 -0.59385248400E+03  0.59899543584E+03  0.41800000000E+01 0. -1.
        -11    1    1    2    0    0  0.23752546484E+02 -0.64140296839E+02 -0.45178885442E+02  0.81971292737E+02  0.00000000000E+00 0.  1.
         11    1    1    2    0    0  0.32579553071E+02 -0.26023191982E+02 -0.16002974979E+03  0.16537277472E+03  0.00000000000E+00 0. -1.
</event>
<event>
 7    1  0.2619826E-009  0.1522271E+03  0.7561462E-02  0.1197763E+00
         -2   -1    0    0    0  501 -0.00000000000E+00  0.00000000000E+00  0.57871674700E+02  0.57871674700E+02  0.00000000000E+00 0.  1.
          2   -1    0    0  501    0  0.00000000000E+00 -0.00000000000E+00 -0.55864974750E+03  0.55864974750E+03  0.00000000000E+00 0. -1.
         25    2    1    2    0    0 -0.19905251230E+02  0.13662302409E+03 -0.20405993790E+03  0.27631550507E+03  0.12509088836E+03 0.  0.
          5    1    3    3  502    0  0.21761965404E+02  0.99037732123E+02 -0.19429707441E+03  0.21920511182E+03  0.41800000000E+01 0.  1.
         -5    1    3    3    0  502 -0.41667216634E+02  0.37585291969E+02 -0.97628634840E+01  0.57110393256E+02  0.41800000000E+01 0.  1.
        -11    1    1    2    0    0 -0.13674395063E+02 -0.14039737648E+02 -0.25617992046E+01  0.19765275833E+02  0.00000000000E+00 0. -1.
         11    1    1    2    0    0  0.33579646293E+02 -0.12258328644E+03 -0.29415633570E+03  0.32044064129E+03  0.00000000000E+00 0.  1.
</event>
<event>
 7    1  0.2619826E-009  0.5788581E+02  0.7561462E-02  0.1406924E+00
          1   -1    0    0  501    0  0.00000000000E+00  0.00000000000E+00  0.81557259885E+03  0.81557259885E+03  0.00000000000E+00 0. -1.
         -1   -1    0    0    0  501 -0.00000000000E+00 -0.00000000000E+00 -0.37992864638E+02  0.37992864638E+02  0.00000000000E+00 0.  1.
         25    2    1    2    0    0 -0.65787102498E+01 -0.28489921067E+02  0.73881516028E+03  0.74990039390E+03  0.12509118547E+03 0.  0.
          5    1    3    3  502    0 -0.30890599595E+02 -0.24921724539E+01  0.68206218085E+03  0.68277868377E+03  0.41800000000E+01 0.  1.
         -5    1    3    3    0  502  0.24311889345E+02 -0.25997748613E+02  0.56752979430E+02  0.67121710129E+02  0.41800000000E+01 0.  1.
        -11    1    1    2    0    0  0.22824552644E+02  0.13281385223E+02  0.64467840378E+02  0.69666762806E+02  0.00000000000E+00 0. -1.
         11    1    1    2    0    0 -0.16245842394E+02  0.15208535844E+02 -0.25703266449E+02  0.33998306778E+02  0.00000000000E+00 0.  1.
</event>
<event>
 7    1  0.2619826E-009  0.1098368E+03  0.7561462E-02  0.1260872E+00
         -1   -1    0    0    0  501 -0.00000000000E+00  0.00000000000E+00  0.10868488511E+03  0.10868488511E+03  0.00000000000E+00 0.  1.
          1   -1    0    0  501    0  0.00000000000E+00 -0.00000000000E+00 -0.12375453518E+03  0.12375453518E+03  0.00000000000E+00 0. -1.
         25    2    1    2    0    0  0.20896072170E+01 -0.29401786430E+02 -0.34554356354E+02  0.13308183139E+03  0.12509172154E+03 0.  0.
          5    1    3    3  502    0 -0.48672870130E+02 -0.53232866599E+02 -0.17943155805E+02  0.74446058413E+02  0.41800000000E+01 0.  1.
         -5    1    3    3    0  502  0.50762477347E+02  0.23831080170E+02 -0.16611200549E+02  0.58635772973E+02  0.41800000000E+01 0.  1.
        -11    1    1    2    0    0  0.33491395558E+02 -0.12920019645E+02  0.25070007418E+02  0.43784766254E+02  0.00000000000E+00 0.  1.
         11    1    1    2    0    0 -0.35581002775E+02  0.42321806075E+02 -0.55853011364E+01  0.55572822644E+02  0.00000000000E+00 0. -1.
</event>
<event>
 7    1  0.2619826E-009  0.9587772E+02  0.7561462E-02  0.1289211E+00
          2   -1    0    0  501    0  0.00000000000E+00  0.00000000000E+00  0.57056086573E+02  0.57056086573E+02  0.00000000000E+00 0.  1.
         -2   -1    0    0    0  501 -0.00000000000E+00 -0.00000000000E+00 -0.23461724820E+03  0.23461724820E+03  0.00000000000E+00 0. -1.
         25    2    1    2    0    0  0.48245514706E+01 -0.42319619876E+02 -0.98274661385E+02  0.16467661536E+03  0.12508497932E+03 0.  0.
          5    1    3    3  502    0 -0.40804539784E+02 -0.20106371892E+02  0.84229568300E+01  0.46450998476E+02  0.41800000000E+01 0.  1.
         -5    1    3    3    0  502  0.45629091254E+02 -0.22213247984E+02 -0.10669761821E+03  0.11822561688E+03  0.41800000000E+01 0.  1.
        -11    1    1    2    0    0  0.17505330498E+02  0.62592342450E+02 -0.36175903801E+02  0.74383694081E+02  0.00000000000E+00 0. -1.
         11    1    1    2    0    0 -0.22329881968E+02 -0.20272722574E+02 -0.43110596442E+02  0.52613025334E+02  0.00000000000E+00 0.  1.
</event>
<event>
 7    1  0.2619826E-009  0.1002781E+03  0.7561462E-02  0.1279712E+00
         -1   -1    0    0    0  501 -0.00000000000E+00  0.00000000000E+00  0.20596220643E+03  0.20596220643E+03  0.00000000000E+00 0.  1.
          1   -1    0    0  501    0  0.00000000000E+00 -0.00000000000E+00 -0.65999845440E+02  0.65999845440E+02  0.00000000000E+00 0. -1.
         25    2    1    2    0    0  0.25874727045E+02 -0.22540087830E+02  0.10856404603E+03  0.16914677278E+03  0.12508765564E+03 0.  0.
          5    1    3    3  502    0 -0.17076286902E+02 -0.65445705163E+02  0.46225875144E+02  0.82030749305E+02  0.41800000000E+01 0. -1.
         -5    1    3    3    0  502  0.42951013947E+02  0.42905617333E+02  0.62338170883E+02  0.87116023479E+02  0.41800000000E+01 0. -1.
        -11    1    1    2    0    0 -0.38121155198E+02 -0.80715651430E+01  0.51210771423E+02  0.64349947531E+02  0.00000000000E+00 0.  1.
         11    1    1    2    0    0  0.12246428153E+02  0.30611652973E+02 -0.19812456464E+02  0.38465331552E+02  0.00000000000E+00 0. -1.
</event>
<event>
 7    1  0.2619826E-009  0.1282746E+03  0.7561462E-02  0.1230039E+00
          3   -1    0    0  501    0  0.00000000000E+00  0.00000000000E+00  0.23373821433E+03  0.23373821433E+03  0.00000000000E+00 0. -1.
         -3   -1    0    0    0  501 -0.00000000000E+00 -0.00000000000E+00 -0.11168060957E+03  0.11168060957E+03  0.00000000000E+00 0.  1.
         25    2    1    2    0    0 -0.84875651257E+02  0.16001672508E+02 -0.22908650451E+02  0.15372973251E+03  0.12509234466E+03 0.  0.
          5    1    3    3  502    0 -0.38627852982E+02 -0.51758908645E+02  0.95193826929E+01  0.65415492790E+02  0.41800000000E+01 0. -1.
         -5    1    3    3    0  502 -0.46247798275E+02  0.67760581153E+02 -0.32428033144E+02  0.88314239719E+02  0.41800000000E+01 0. -1.
        -11    1    1    2    0    0  0.88534638357E+02 -0.31338603849E+02  0.14833395718E+03  0.17556609334E+03  0.00000000000E+00 0. -1.
         11    1    1    2    0    0 -0.36589871004E+01  0.15336931340E+02 -0.33677019707E+01  0.16122998049E+02  0.00000000000E+00 0.  1.
</event>
<event>
 7    1  0.2619826E-009  0.2672532E+03  0.7561462E-02  0.1102862E+00
          1   -1    0    0  501    0  0.00000000000E+00  0.00000000000E+00  0.18424054548E+04  0.18424054548E+04  0.00000000000E+00 0. -1.
         -1   -1    0    0    0  501 -0.00000000000E+00 -0.00000000000E+00 -0.40377285601E+02  0.40377285601E+02  0.00000000000E+00 0.  1.
         25    2    1    2    0    0  0.16304660413E+03 -0.18751804388E+03  0.90177834722E+03  0.94371541032E+03  0.12508947299E+03 0.  0.
          5    1    3    3  502    0  0.10901727973E+03 -0.19503960677E+03  0.72123778845E+03  0.75506730520E+03  0.41800000000E+01 0. -1.
         -5    1    3    3    0  502  0.54029324404E+02  0.75215628903E+01  0.18054055877E+03  0.18864810512E+03  0.41800000000E+01 0. -1.
        -11    1    1    2    0    0 -0.63188008558E+02  0.12047612681E+03  0.34317540724E+03  0.36915658154E+03  0.00000000000E+00 0.  1.
         11    1    1    2    0    0 -0.99858595574E+02  0.67041917070E+02  0.55707441472E+03  0.56991074853E+03  0.00000000000E+00 0. -1.
</event>
<event>
 7    1  0.2619826E-009  0.1186517E+03  0.7561462E-02  0.1245338E+00
          1   -1    0    0  501    0  0.00000000000E+00  0.00000000000E+00  0.45068680783E+03  0.45068680783E+03  0.00000000000E+00 0. -1.
         -1   -1    0    0    0  501 -0.00000000000E+00 -0.00000000000E+00 -0.36998307312E+02  0.36998307312E+02  0.00000000000E+00 0.  1.
         25    2    1    2    0    0  0.71515943079E+02  0.30483302459E+02  0.31203514229E+03  0.34504734606E+03  0.12509188286E+03 0.  0.
          5    1    3    3  502    0 -0.38838198954E+00  0.65971546628E+02  0.15984434919E+03  0.17297422980E+03  0.41800000000E+01 0. -1.
         -5    1    3    3    0  502  0.71904325068E+02 -0.35488244169E+02  0.15219079310E+03  0.17207311627E+03  0.41800000000E+01 0. -1.
        -11    1    1    2    0    0 -0.19830000661E+02 -0.33718582917E+02  0.74543972329E+02  0.84184176486E+02  0.00000000000E+00 0. -1.
         11    1    1    2    0    0 -0.51685942417E+02  0.32352804582E+01  0.27109385898E+02  0.58453592593E+02  0.00000000000E+00 0.  1.
</event>
<event>
 7    1  0.2619826E-009  0.1091114E+03  0.7561462E-02  0.1262224E+00
         -1   -1    0    0    0  501 -0.00000000000E+00  0.00000000000E+00  0.41467181208E+02  0.41467181208E+02  0.00000000000E+00 0. -1.
          1   -1    0    0  501    0  0.00000000000E+00 -0.00000000000E+00 -0.38739134619E+03  0.38739134619E+03  0.00000000000E+00 0.  1.
         25    2    1    2    0    0 -0.52560647974E+02  0.15082552046E+02 -0.25222405499E+03  0.28680034045E+03  0.12508939315E+03 0.  0.
          5    1    3    3  502    0 -0.40991817620E+02 -0.45416227293E+02 -0.63678486884E+02  0.88404665630E+02  0.41800000000E+01 0.  1.
         -5    1    3    3    0  502 -0.11568830354E+02  0.60498779339E+02 -0.18854556810E+03  0.19839567482E+03  0.41800000000E+01 0.  1.
        -11    1    1    2    0    0 -0.17830750001E+02  0.99923048428E+01 -0.53359232692E+02  0.57140086761E+02  0.00000000000E+00 0.  1.
         11    1    1    2    0    0  0.70391397974E+02 -0.25074856889E+02 -0.40340877298E+02  0.84918100179E+02  0.00000000000E+00 0. -1.
</event>
<event>
 7    1  0.2619826E-009  0.2203091E+03  0.7561462E-02  0.1133653E+00
         -1   -1    0    0    0  501 -0.00000000000E+00  0.00000000000E+00  0.30736897230E+02  0.30736897230E+02  0.00000000000E+00 0.  1.
          1   -1    0    0  501    0  0.00000000000E+00 -0.00000000000E+00 -0.16612906740E+04  0.16612906740E+04  0.00000000000E+00 0. -1.
         25    2    1    2    0    0 -0.89400624326E+02  0.17648982331E+03 -0.90009200409E+03  0.93002957017E+03  0.12509299016E+03 0.  0.
          5    1    3    3  502    0 -0.81610019204E+01  0.13185236215E+03 -0.64946348984E+03  0.66277593830E+03  0.41800000000E+01 0. -1.
         -5    1    3    3    0  502 -0.81239622405E+02  0.44637461167E+02 -0.25062851425E+03  0.26725363187E+03  0.41800000000E+01 0. -1.
        -11    1    1    2    0    0  0.19748925285E+02 -0.13097090954E+03 -0.40723414630E+03  0.42823247087E+03  0.00000000000E+00 0.  1.
         11    1    1    2    0    0  0.69651699041E+02 -0.45518913774E+02 -0.32322762633E+03  0.33376553015E+03  0.00000000000E+00 0. -1.
</event>
<event>
 7    1  0.2619826E-009  0.1131377E+03  0.7561462E-02  0.1254867E+00
          1   -1    0    0  501    0  0.00000000000E+00  0.00000000000E+00  0.23053635602E+03  0.23053635602E+03  0.00000000000E+00 0. -1.
         -1   -1    0    0    0  501 -0.00000000000E+00 -0.00000000000E+00 -0.11517388991E+03  0.11517388991E+03  0.00000000000E+00 0.  1.
         25    2    1    2    0    0  0.29058950656E+02  0.65798876408E+02  0.16478720304E+03  0.21903418792E+03  0.12508892213E+03 0.  0.
          5    1    3    3  502    0  0.47727826999E+02  0.74543802342E+02  0.48812847293E+02  0.10116763513E+03  0.41800000000E+01 0. -1.
         -5    1    3    3    0  502 -0.18668876343E+02 -0.87449259347E+01  0.11597435575E+03  0.11786655279E+03  0.41800000000E+01 0. -1.
        -11    1    1    2    0    0 -0.44007781198E+02  0.49788030608E+01 -0.18021677793E+02  0.47814790143E+02  0.00000000000E+00 0. -1.
         11    1    1    2    0    0  0.14948830542E+02 -0.70777679468E+02 -0.31403059142E+02  0.78861267863E+02  0.00000000000E+00 0.  1.
</event>
<event>
 7    1  0.2619826E-009  0.1756513E+03  0.7561462E-02  0.1172079E+00
          3   -1    0    0  501    0  0.00000000000E+00  0.00000000000E+00  0.28986852670E+03  0.28986852670E+03  0.00000000000E+00 0. -1.
         -3   -1    0    0    0  501 -0.00000000000E+00 -0.00000000000E+00 -0.13363946342E+03  0.13363946342E+03  0.00000000000E+00 0.  1.
         25    2    1    2    0    0  0.13050431743E+03  0.75393865210E+02  0.15003455949E+03  0.24672480016E+03  0.12508855340E+03 0.  0.
          5    1    3    3  502    0  0.60244438714E+02 -0.25814553473E+02  0.84781686777E+02  0.10724360298E+03  0.41800000000E+01 0. -1.
         -5    1    3    3    0  502  0.70259878719E+02  0.10120841868E+03  0.65252872718E+02  0.13948119718E+03  0.41800000000E+01 0. -1.
        -11    1    1    2    0    0 -0.12740255278E+03 -0.50150721713E+02 -0.22153421305E+02  0.13869851989E+03  0.00000000000E+00 0.  1.
         11    1    1    2    0    0 -0.31017646488E+01 -0.25243143498E+02  0.28347925084E+02  0.38084670067E+02  0.00000000000E+00 0. -1.
</event>
<event>
 7    1  0.2619826E-009  0.3124577E+03  0.7561462E-02  0.1079174E+00
         -1   -1    0    0    0  501 -0.00000000000E+00  0.00000000000E+00  0.25257084939E+03  0.25257084939E+03  0.00000000000E+00 0.  1.
          1   -1    0    0  501    0  0.00000000000E+00 -0.00000000000E+00 -0.12116995521E+04  0.12116995521E+04  0.00000000000E+00 0. -1.
         25    2    1    2    0    0 -0.29729839584E+03  0.89089002878E+02 -0.10702201199E+04  0.11213123760E+04  0.12508857991E+03 0.  0.
          5    1    3    3  502    0 -0.13602684762E+03  0.29641285179E+02 -0.69157744624E+03  0.70546349701E+03  0.41800000000E+01 0. -1.
         -5    1    3    3    0  502 -0.16127154822E+03  0.59447717699E+02 -0.37864267368E+03  0.41584887896E+03  0.41800000000E+01 0. -1.
        -11    1    1    2    0    0  0.21502554332E+03 -0.85351265852E+02  0.11911583868E+03  0.26021031088E+03  0.00000000000E+00 0.  1.
         11    1    1    2    0    0  0.82272852525E+02 -0.37377370266E+01 -0.80244214891E+01  0.82747714657E+02  0.00000000000E+00 0. -1.
</event>
<event>
 7    1  0.2619826E-009  0.1174060E+03  0.7561462E-02  0.1247439E+00
         -1   -1    0    0    0  501 -0.00000000000E+00  0.00000000000E+00  0.11621115784E+03  0.11621115784E+03  0.00000000000E+00 0.  1.
          1   -1    0    0  501    0  0.00000000000E+00 -0.00000000000E+00 -0.14944658544E+03  0.14944658544E+03  0.00000000000E+00 0. -1.
         25    2    1    2    0    0  0.61448835386E+01 -0.72813038134E+02 -0.20546768685E+00  0.14486773193E+03  0.12508844640E+03 0.  0.
          5    1    3    3  502    0 -0.10075397406E+02 -0.93067581731E+02 -0.36066699290E+02  0.10040601376E+03  0.41800000000E+01 0.  1.
         -5    1    3    3    0  502  0.16220280944E+02  0.20254543598E+02  0.35861231603E+02  0.44461718167E+02  0.41800000000E+01 0.  1.
        -11    1    1    2    0    0 -0.30582156930E+02 -0.69835065073E+01 -0.17441199812E+02  0.35891964791E+02  0.00000000000E+00 0.  1.
         11    1    1    2    0    0  0.24437273392E+02  0.79796544641E+02 -0.15588760103E+02  0.84898046556E+02  0.00000000000E+00 0. -1.
</event>
<event>
 7    1  0.2619826E-009  0.1963978E+03  0.7561462E-02  0.1152814E+00
          1   -1    0    0  501    0  0.00000000000E+00  0.00000000000E+00  0.19900746137E+03  0.19900746137E+03  0.00000000000E+00 0. -1.
         -1   -1    0    0    0  501 -0.00000000000E+00 -0.00000000000E+00 -0.23537937913E+03  0.23537937913E+03  0.00000000000E+00 0.  1.
         25    2    1    2    0    0  0.86453001443E+02 -0.14866560259E+03  0.56287743259E+02  0.21998186560E+03  0.12509247900E+03 0.  0.
          5    1    3    3  502    0  0.11419411452E+03 -0.82952177075E+02  0.36882558767E+02  0.14594230029E+03  0.41800000000E+01 0. -1.
         -5    1    3    3    0  502 -0.27741113075E+02 -0.65713425510E+02  0.19405184492E+02  0.74039565315E+02  0.41800000000E+01 0. -1.
        -11    1    1    2    0    0 -0.44539618133E+02  0.28509029413E+02 -0.65673463267E+02  0.84318124498E+02  0.00000000000E+00 0.  1.
         11    1    1    2    0    0 -0.41913383311E+02  0.12015657317E+03 -0.26986197754E+02  0.13008685040E+03  0.00000000000E+00 0. -1.
</event>
<event>
 7    1  0.2619826E-009  0.1021447E+03  0.7561462E-02  0.1275850E+00
         -2   -1    0    0    0  501 -0.00000000000E+00  0.00000000000E+00  0.19574024301E+02  0.19574024301E+02  0.00000000000E+00 0.  1.
          2   -1    0    0  501    0  0.00000000000E+00 -0.00000000000E+00 -0.70315038688E+03  0.70315038688E+03  0.00000000000E+00 0. -1.
         25    2    1    2    0    0  0.24188420516E+02  0.20914396869E+02 -0.44874662567E+03  0.46695123427E+03  0.12508968564E+03 0.  0.
          5    1    3    3  502    0 -0.36832942819E+02  0.19630440175E+02 -0.58763078381E+02  0.72198280027E+02  0.41800000000E+01 0. -1.
         -5    1    3    3    0  502  0.61021363335E+02  0.12839566943E+01 -0.38998354728E+03  0.39475295424E+03  0.41800000000E+01 0. -1.
        -11    1    1    2    0    0 -0.22429849229E+01 -0.58015891579E+02 -0.14264453817E+03  0.15400759373E+03  0.00000000000E+00 0. -1.
         11    1    1    2    0    0 -0.21945435593E+02  0.37101494710E+02 -0.92185198746E+02  0.10176558319E+03  0.00000000000E+00 0.  1.
</event>
<event>
 7    1  0.2619826E-009  0.1566784E+03  0.7561462E-02  0.1192499E+00
         -2   -1    0    0    0  501 -0.00000000000E+00  0.00000000000E+00  0.99712239472E+02  0.99712239472E+02  0.00000000000E+00 0.  1.
          2   -1    0    0  501    0  0.00000000000E+00 -0.00000000000E+00 -0.33811264458E+03  0.33811264458E+03  0.00000000000E+00 0. -1.
         25    2    1    2    0    0 -0.14223704744E+03  0.43634213533E+02 -0.13457408753E+03  0.23640564305E+03  0.12506846435E+03 0.  0.
          5    1    3    3  502    0 -0.10828895827E+03  0.16418172787E+02 -0.15363014713E+03  0.18872135382E+03  0.41800000000E+01 0. -1.
         -5    1    3    3    0  502 -0.33948089170E+02  0.27216040745E+02  0.19056059596E+02  0.47684289231E+02  0.41800000000E+01 0. -1.
        -11    1    1    2    0    0  0.11217135461E+02 -0.25387429452E+02  0.72484865348E+01  0.28685994129E+02  0.00000000000E+00 0.  1.
         11    1    1    2    0    0  0.13101991198E+03 -0.18246784081E+02 -0.11107480411E+03  0.17273324687E+03  0.00000000000E+00 0. -1.
</event>
<event>
 7    1  0.2619826E-009  0.1180996E+03  0.7561462E-02  0.1246265E+00
          3   -1    0    0  501    0  0.00000000000E+00  0.00000000000E+00  0.42095289392E+02  0.42095289392E+02  0.00000000000E+00 0. -1.
         -3   -1    0    0    0  501 -0.00000000000E+00 -0.00000000000E+00 -0.42777518072E+03  0.42777518072E+03  0.00000000000E+00 0.  1.
         25    2    1    2    0    0 -0.20252224184E+02 -0.25811607265E+02 -0.10686511408E+03  0.16775953890E+03  0.12508684435E+03 0.  0.
          5    1    3    3  502    0  0.19338594514E+02  0.39775389034E+02 -0.69340663463E+02  0.82350851969E+02  0.41800000000E+01 0. -1.
         -5    1    3    3    0  502 -0.39590818698E+02 -0.65586996299E+02 -0.37524450620E+02  0.85408686929E+02  0.41800000000E+01 0. -1.
        -11    1    1    2    0    0  0.40722514386E+02 -0.33230777253E+02 -0.10535655043E+03  0.11773958745E+03  0.00000000000E+00 0.  1.
         11    1    1    2    0    0 -0.20470290202E+02  0.59042384518E+02 -0.17345822682E+03  0.18437134377E+03  0.00000000000E+00 0. -1.
</event>
<event>
 7    1  0.2619826E-009  0.2147592E+03  0.7561462E-02  0.1137852E+00
         -2   -1    0    0    0  501 -0.00000000000E+00  0.00000000000E+00  0.51777131451E+02  0.51777131451E+02  0.00000000000E+00 0.  1.
          2   -1    0    0  501    0  0.00000000000E+00 -0.00000000000E+00 -0.93229174650E+03  0.93229174650E+03  0.00000000000E+00 0. -1.
         25    2    1    2    0    0 -0.13042262607E+03  0.13768954838E+03 -0.51774924687E+03  0.56540125564E+03  0.12508326878E+03 0.  0.
          5    1    3    3  502    0 -0.14074896412E+03  0.68486680343E+02 -0.33967799516E+03  0.37403116058E+03  0.41800000000E+01 0. -1.
         -5    1    3    3    0  502  0.10326338050E+02  0.69202868036E+02 -0.17807125170E+03  0.19137009506E+03  0.41800000000E+01 0. -1.
        -11    1    1    2    0    0  0.81996483020E+02 -0.34702769809E+02 -0.21063628114E+03  0.22868176227E+03  0.00000000000E+00 0. -1.
         11    1    1    2    0    0  0.48426143053E+02 -0.10298677857E+03 -0.15212908704E+03  0.18998586004E+03  0.00000000000E+00 0.  1.
</event>
<event>
 7    1  0.2619826E-009  0.2074369E+03  0.7561462E-02  0.1143612E+00
         -2   -1    0    0    0  501 -0.00000000000E+00  0.00000000000E+00  0.28314386515E+03  0.28314386515E+03  0.00000000000E+00 0.  1.
          2   -1    0    0  501    0  0.00000000000E+00 -0.00000000000E+00 -0.17309162458E+03  0.17309162458E+03  0.00000000000E+00 0. -1.
         25    2    1    2    0    0 -0.95661915350E+02 -0.15415135799E+03  0.12346154281E+03  0.25259569161E+03  0.12509191679E+03 0.  0.
          5    1    3    3  502    0  0.11592770419E+01  0.16551068790E+02 -0.52132465412E+01  0.17886646998E+02  0.41800000000E+01 0.  1.
         -5    1    3    3    0  502 -0.96821192392E+02 -0.17070242678E+03  0.12867478935E+03  0.23470904461E+03  0.41800000000E+01 0.  1.
        -11    1    1    2    0    0 -0.12086656181E+02  0.50619794857E+02 -0.15147297035E+02  0.54202320028E+02  0.00000000000E+00 0.  1.
         11    1    1    2    0    0  0.10774857153E+03  0.10353156314E+03  0.17379947930E+01  0.14943747809E+03  0.00000000000E+00 0. -1.
</event>
<event>
 7    1  0.2619826E-009  0.8102605E+02  0.7561462E-02  0.1326165E+00
          1   -1    0    0  501    0  0.00000000000E+00  0.00000000000E+00  0.12676421950E+03  0.12676421950E+03  0.00000000000E+00 0.  1.
         -1   -1    0    0    0  501 -0.00000000000E+00 -0.00000000000E+00 -0.15401965395E+03  0.15401965395E+03  0.00000000000E+00 0. -1.
         25    2    1    2    0    0 -0.81015552716E+01 -0.76912074594E+02 -0.11879337608E+02  0.14754592398E+03  0.12509028181E+03 0.  0.
          5    1    3    3  502    0 -0.17641100887E+01 -0.76945176926E+02  0.45606740340E+02  0.89560702884E+02  0.41800000000E+01 0.  1.
         -5    1    3    3    0  502 -0.63374451828E+01  0.33102332009E-01 -0.57486077949E+02  0.57985221092E+02  0.41800000000E+01 0.  1.
        -11    1    1    2    0    0  0.33891642306E+01  0.44456479552E+02  0.45742132305E+02  0.63876503318E+02  0.00000000000E+00 0.  1.
         11    1    1    2    0    0  0.47123910410E+01  0.32455595042E+02 -0.61118229145E+02  0.69361446155E+02  0.00000000000E+00 0. -1.
</event>
<event>
 7    1  0.2619826E-009  0.6021389E+02  0.7561462E-02  0.1396936E+00
         -1   -1    0    0    0  501 -0.00000000000E+00  0.00000000000E+00  0.10192030274E+03  0.10192030274E+03  0.00000000000E+00 0.  1.
          1   -1    0    0  501    0  0.00000000000E+00 -0.00000000000E+00 -0.18339376636E+03  0.18339376636E+03  0.00000000000E+00 0. -1.
         25    2    1    2    0    0 -0.22090316695E+02  0.31510375161E+02 -0.10968866518E+03  0.17074957899E+03  0.12507169792E+03 0.  0.
          5    1    3    3  502    0 -0.17718478614E+02  0.15570715526E+02  0.25210765967E+02  0.34777101476E+02  0.41800000000E+01 0. -1.
         -5    1    3    3    0  502 -0.43718380807E+01  0.15939659635E+02 -0.13489943115E+03  0.13597247752E+03  0.41800000000E+01 0. -1.
        -11    1    1    2    0    0  0.38291015429E+02  0.58186960330E+01  0.53952945710E+02  0.66415204862E+02  0.00000000000E+00 0.  1.
         11    1    1    2    0    0 -0.16200698734E+02 -0.37329071194E+02 -0.25737744146E+02  0.48149285243E+02  0.00000000000E+00 0. -1.
</event>
<event>
 7    1  0.2619826E-009  0.1052711E+03  0.7561462E-02  0.1269586E+00
          1   -1    0    0  501    0  0.00000000000E+00  0.00000000000E+00  0.61184132687E+03  0.61184132687E+03  0.00000000000E+00 0. -1.
         -1   -1    0    0    0  501 -0.00000000000E+00 -0.00000000000E+00 -0.21246875901E+02  0.21246875901E+02  0.00000000000E+00 0.  1.
         25    2    1    2    0    0 -0.16916069611E+02  0.19250484482E+02  0.26222367298E+03  0.29165907398E+03  0.12508807375E+03 0.  0.
          5    1    3    3  502    0 -0.48186898125E+02  0.57640801294E+02  0.18628055995E+03  0.20090385397E+03  0.41800000000E+01 0.  1.
         -5    1    3    3    0  502  0.31270828514E+02 -0.38390316812E+02  0.75943113036E+02  0.90755220007E+02  0.41800000000E+01 0.  1.
        -11    1    1    2    0    0  0.48079256524E+02  0.16082165796E+01  0.24952601371E+03  0.25412090191E+03  0.00000000000E+00 0. -1.
         11    1    1    2    0    0 -0.31163186913E+02 -0.20858701062E+02  0.78844764269E+02  0.87308226882E+02  0.00000000000E+00 0.  1.
</event>
<event>
 7    1  0.2619826E-009  0.1193047E+03  0.7561462E-02  0.1244248E+00
         -1   -1    0    0    0  501 -0.00000000000E+00  0.00000000000E+00  0.12166164076E+03  0.12166164076E+03  0.00000000000E+00 0.  1.
          1   -1    0    0  501    0  0.00000000000E+00 -0.00000000000E+00 -0.18941758438E+03  0.18941758438E+03  0.00000000000E+00 0. -1.
         25    2    1    2    0    0 -0.65464375458E+02  0.27761641121E+02  0.42265843685E+02  0.14996655969E+03  0.12508906551E+03 0.  0.
          5    1    3    3  502    0  0.34480316882E+02 -0.10989302782E+02  0.74595242203E+01  0.37185668335E+02  0.41800000000E+01 0.  1.
         -5    1    3    3    0  502 -0.99944692340E+02  0.38750943903E+02  0.34806319464E+02  0.11278089136E+03  0.41800000000E+01 0.  1.
        -11    1    1    2    0    0  0.63034633018E+02  0.38945218218E+01 -0.20929904974E+02  0.66532647491E+02  0.00000000000E+00 0.  1.
         11    1    1    2    0    0  0.24297424405E+01 -0.31656162943E+02 -0.89091882329E+02  0.94580017962E+02  0.00000000000E+00 0. -1.
</event>
<event>
 7    1  0.2619826E-009  0.1231924E+03  0.7561462E-02  0.1237922E+00
          1   -1    0    0  501    0  0.00000000000E+00  0.00000000000E+00  0.53029464646E+02  0.53029464646E+02  0.00000000000E+00 0. -1.
         -1   -1    0    0    0  501 -0.00000000000E+00 -0.00000000000E+00 -0.41410149026E+03  0.41410149026E+03  0.00000000000E+00 0.  1.
         25    2    1    2    0    0  0.18929887677E+02  0.96643061864E+02 -0.21862675183E+03  0.27044975534E+03  0.12508873448E+03 0.  0.
          5    1    3    3  502    0  0.25543335663E+02  0.66702452320E+01 -0.16125499657E+03  0.16345519413E+03  0.41800000000E+01 0.  1.
         -5    1    3    3    0  502 -0.66134479853E+01  0.89972816632E+02 -0.57371755257E+02  0.10699456121E+03  0.41800000000E+01 0.  1.
        -11    1    1    2    0    0 -0.50405058154E+02 -0.39242444815E+02 -0.40860778397E+02  0.75830353908E+02  0.00000000000E+00 0. -1.
         11    1    1    2    0    0  0.31475170477E+02 -0.57400617048E+02 -0.10158449539E+03  0.12085084567E+03  0.00000000000E+00 0.  1.
</event>
<event>
 7    1  0.2619826E-009  0.1182025E+03  0.7561462E-02  0.1246092E+00
         -3   -1    0    0    0  501 -0.00000000000E+00  0.00000000000E+00  0.22573824023E+02  0.22573824023E+02  0.00000000000E+00 0.  1.
          3   -1    0    0  501    0  0.00000000000E+00 -0.00000000000E+00 -0.77830398182E+03  0.77830398182E+03  0.00000000000E+00 0. -1.
         25    2    1    2    0    0  0.34432254493E+02 -0.57681466960E+02 -0.30856204936E+03  0.33966160056E+03  0.12508690103E+03 0.  0.
          5    1    3    3  502    0 -0.21007686940E+02 -0.67789565067E+02 -0.94437219972E+02  0.11820579071E+03  0.41800000000E+01 0.  1.
         -5    1    3    3    0  502  0.55439941433E+02  0.10108098107E+02 -0.21412482938E+03  0.22145580984E+03  0.41800000000E+01 0.  1.
        -11    1    1    2    0    0 -0.34929250936E+02  0.79575265989E+02 -0.39822371779E+03  0.40759588435E+03  0.00000000000E+00 0. -1.
         11    1    1    2    0    0  0.49699644360E+00 -0.21893799029E+02 -0.48944390649E+02  0.53620320937E+02  0.00000000000E+00 0.  1.
</event>
<event>
 7    1  0.2619826E-009  0.8910097E+02  0.7561462E-02  0.1305044E+00
         -2   -1    0    0    0  501 -0.00000000000E+00  0.00000000000E+00  0.45339653989E+02  0.45339653989E+02  0.00000000000E+00 0. -1.
          2   -1    0    0  501    0  0.00000000000E+00 -0.00000000000E+00 -0.30984671610E+03  0.30984671610E+03  0.00000000000E+00 0.  1.
         25    2    1    2    0    0  0.85724389630E+01 -0.40446523179E+02 -0.18365504068E+03  0.22602385985E+03  0.12509277881E+03 0.  0.
          5    1    3    3  502    0  0.62359330662E+02 -0.22359047086E+02 -0.13777148535E+03  0.15292830897E+03  0.41800000000E+01 0.  1.
         -5    1    3    3    0  502 -0.53786891699E+02 -0.18087476094E+02 -0.45883555323E+02  0.73095550885E+02  0.41800000000E+01 0.  1.
        -11    1    1    2    0    0 -0.22864484547E+02  0.24775460598E+02 -0.96879639362E+02  0.10257812937E+03  0.00000000000E+00 0.  1.
         11    1    1    2    0    0  0.14292045584E+02  0.15671062581E+02  0.16027617932E+02  0.26584380865E+02  0.00000000000E+00 0. -1.
</event>
<event>
 7    1  0.2619826E-009  0.1002234E+03  0.7561462E-02  0.1279827E+00
          1   -1    0    0  501    0  0.00000000000E+00  0.00000000000E+00  0.51438203882E+02  0.51438203882E+02  0.00000000000E+00 0. -1.
         -1   -1    0    0    0  501 -0.00000000000E+00 -0.00000000000E+00 -0.27897133087E+03  0.27897133087E+03  0.00000000000E+00 0.  1.
         25    2    1    2    0    0  0.24698642210E+02  0.26776133609E+02 -0.16156626016E+03  0.20755540002E+03  0.12509437796E+03 0.  0.
          5    1    3    3  502    0 -0.44706261980E+02 -0.21584794290E+01 -0.10223262491E+03  0.11167941121E+03  0.41800000000E+01 0.  1.
         -5    1    3    3    0  502  0.69404904190E+02  0.28934613038E+02 -0.59333635249E+02  0.95875988804E+02  0.41800000000E+01 0.  1.
        -11    1    1    2    0    0  0.10312510859E+02  0.19556987234E+02 -0.60630518960E+02  0.64535908294E+02  0.00000000000E+00 0.  1.
         11    1    1    2    0    0 -0.35011153069E+02 -0.46333120843E+02 -0.53363478694E+01  0.58318226438E+02  0.00000000000E+00 0. -1.
</event>
<event>
 7    1  0.2619826E-009  0.2039324E+03  0.7561462E-02  0.1146463E+00
         -2   -1    0    0    0  501 -0.00000000000E+00  0.00000000000E+00  0.39475205229E+03  0.39475205229E+03  0.00000000000E+00 0. -1.
          2   -1    0    0  501    0  0.00000000000E+00 -0.00000000000E+00 -0.11884911632E+03  0.11884911632E+03  0.00000000000E+00 0.  1.
         25    2    1    2    0    0 -0.26475529105E+02 -0.18519598881E+03  0.16531765900E+03  0.27924155013E+03  0.12508959601E+03 0.  0.
          5    1    3    3  502    0 -0.70067079271E+02 -0.81251841070E+02  0.51794461076E+02  0.11921155931E+03  0.41800000000E+01 0.  1.
         -5    1    3    3    0  502  0.43591550166E+02 -0.10394414774E+03  0.11352319793E+03  0.16002999082E+03  0.41800000000E+01 0.  1.
        -11    1    1    2    0    0  0.13114041126E+02  0.13882797716E+03  0.33495231772E+02  0.14341239789E+03  0.00000000000E+00 0.  1.
         11    1    1    2    0    0  0.13361487979E+02  0.46368011645E+02  0.77090045195E+02  0.90947220590E+02  0.00000000000E+00 0. -1.
</event>
<event>
 7    1  0.2619826E-009  0.1813597E+03  0.7561462E-02  0.1166494E+00
          2   -1    0    0  501    0  0.00000000000E+00  0.00000000000E+00  0.13221540546E+04  0.13221540546E+04  0.00000000000E+00 0. -1.
         -2   -1    0    0    0  501 -0.00000000000E+00 -0.00000000000E+00 -0.39280133409E+02  0.39280133409E+02  0.00000000000E+00 0.  1.
         25    2    1    2    0    0 -0.13807030412E+03  0.64967133399E+02  0.10489154753E+04  0.10673120002E+04  0.12508834539E+03 0.  0.
          5    1    3    3  502    0 -0.12165882136E+03  0.98774102771E+02  0.90690160901E+03  0.92035058158E+03  0.41800000000E+01 0.  1.
         -5    1    3    3    0  502 -0.16411482753E+02 -0.33806969372E+02  0.14201386625E+03  0.14696141858E+03  0.41800000000E+01 0.  1.
        -11    1    1    2    0    0  0.57944168968E+02  0.95470562843E+01  0.38808757017E+02  0.70390287840E+02  0.00000000000E+00 0.  1.
         11    1    1    2    0    0  0.80126135150E+02 -0.74514189683E+02  0.19514968895E+03  0.22373190004E+03  0.00000000000E+00 0. -1.
</event>
<event>
 7    1  0.2619826E-009  0.1127219E+03  0.7561462E-02  0.1255611E+00
          1   -1    0    0  501    0  0.00000000000E+00  0.00000000000E+00  0.13798715793E+03  0.13798715793E+03  0.00000000000E+00 0. -1.
         -1   -1    0    0    0  501 -0.00000000000E+00 -0.00000000000E+00 -0.16964965917E+03  0.16964965917E+03  0.00000000000E+00 0.  1.
         25    2    1    2    0    0 -0.13352915870E+02  0.91895189025E+02  0.39374742495E+02  0.16067533096E+03  0.12507264091E+03 0.  0.
          5    1    3    3  502    0 -0.30839427153E+02  0.10098487360E+03  0.68008205297E+02  0.12566464638E+03  0.41800000000E+01 0. -1.
         -5    1    3    3    0  502  0.17486511283E+02 -0.90896845755E+01 -0.28633462802E+02  0.35010684577E+02  0.41800000000E+01 0. -1.
        -11    1    1    2    0    0 -0.12562762476E+02 -0.29847871282E+02  0.16687307153E+02  0.36430545441E+02  0.00000000000E+00 0. -1.
         11    1    1    2    0    0  0.25915678346E+02 -0.62047317743E+02 -0.87724550884E+02  0.11053094070E+03  0.00000000000E+00 0.  1.
</event>
<event>
 7    1  0.2619826E-009  0.1337888E+03  0.7561462E-02  0.1221940E+00
          1   -1    0    0  501    0  0.00000000000E+00  0.00000000000E+00  0.10824154400E+03  0.10824154400E+03  0.00000000000E+00 0. -1.
         -1   -1    0    0    0  501 -0.00000000000E+00 -0.00000000000E+00 -0.17271425212E+03  0.17271425212E+03  0.00000000000E+00 0.  1.
         25    2    1    2    0    0  0.25064289334E+02 -0.78629604648E+02 -0.38010014661E+02  0.15460912497E+03  0.12509351296E+03 0.  0.
          5    1    3    3  502    0  0.75605595434E+02 -0.51020192108E+02 -0.31089363437E+02  0.96453548315E+02  0.41800000000E+01 0.  1.
         -5    1    3    3    0  502 -0.50541306100E+02 -0.27609412541E+02 -0.69206512235E+01  0.58155576659E+02  0.41800000000E+01 0.  1.
        -11    1    1    2    0    0 -0.47392740628E+02  0.12908887725E+02  0.64277146224E+01  0.49538134420E+02  0.00000000000E+00 0.  1.
         11    1    1    2    0    0  0.22328451294E+02  0.65720716923E+02 -0.32890408085E+02  0.76808536727E+02  0.00000000000E+00 0. -1.
</event>
<event>
 7    1  0.2619826E-009  0.9666963E+02  0.7561462E-02  0.1287459E+00
         -1   -1    0    0    0  501 -0.00000000000E+00  0.00000000000E+00  0.37676606735E+02  0.37676606735E+02  0.00000000000E+00 0.  1.
          1   -1    0    0  501    0  0.00000000000E+00 -0.00000000000E+00 -0.33584878380E+03  0.33584878380E+03  0.00000000000E+00 0. -1.
         25    2    1    2    0    0 -0.28413112464E+02 -0.12286274521E+02 -0.18553229450E+03  0.22589433158E+03  0.12509100383E+03 0.  0.
          5    1    3    3  502    0 -0.38912453993E+02  0.37940767162E+02 -0.15878026950E+03  0.16787592821E+03  0.41800000000E+01 0.  1.
         -5    1    3    3    0  502  0.10499341529E+02 -0.50227041683E+02 -0.26752024993E+02  0.58018403374E+02  0.41800000000E+01 0.  1.
        -11    1    1    2    0    0  0.34986525452E+02 -0.29060950166E+02 -0.28562914579E+02  0.53706944402E+02  0.00000000000E+00 0.  1.
         11    1    1    2    0    0 -0.65734129882E+01  0.41347224687E+02 -0.84076967993E+02  0.93924114553E+02  0.00000000000E+00 0. -1.
</event>
<event>
 7    1  0.2619826E-009  0.1956054E+03  0.7561462E-02  0.1153501E+00
         -1   -1    0    0    0  501 -0.00000000000E+00  0.00000000000E+00  0.13332506974E+03  0.13332506974E+03  0.00000000000E+00 0.  1.
          1   -1    0    0  501    0  0.00000000000E+00 -0.00000000000E+00 -0.38997401811E+03  0.38997401811E+03  0.00000000000E+00 0. -1.
         25    2    1    2    0    0 -0.16253748507E+03 -0.26562334314E+02 -0.20932124854E+01  0.20681435542E+03  0.12507519503E+03 0.  0.
          5    1    3    3  502    0 -0.61251012596E+02 -0.69823880782E+02 -0.20130566010E+02  0.95130294646E+02  0.41800000000E+01 0.  1.
         -5    1    3    3    0  502 -0.10128647248E+03  0.43261546468E+02  0.18037353525E+02  0.11168406078E+03  0.41800000000E+01 0.  1.
        -11    1    1    2    0    0  0.11157400198E+03  0.60370020180E+02 -0.16882623253E+03  0.21117668916E+03  0.00000000000E+00 0.  1.
         11    1    1    2    0    0  0.50963483091E+02 -0.33807685867E+02 -0.85729503356E+02  0.10530804327E+03  0.00000000000E+00 0. -1.
</event>
<event>
 7    1  0.2619826E-009  0.1535860E+03  0.7561462E-02  0.1196135E+00
          2   -1    0    0  501    0  0.00000000000E+00  0.00000000000E+00  0.45603752049E+03  0.45603752049E+03  0.00000000000E+00 0. -1.
         -2   -1    0    0    0  501 -0.00000000000E+00 -0.00000000000E+00 -0.74214655058E+02  0.74214655058E+02  0.00000000000E+00 0.  1.
         25    2    1    2    0    0 -0.13546222228E+03  0.19324886626E+02  0.28680231356E+03  0.34150558835E+03  0.12508810854E+03 0.  0.
          5    1    3    3  502    0 -0.94777213965E+02  0.53157315642E+02  0.26045789872E+03  0.28224848963E+03  0.41800000000E+01 0.  1.
         -5    1    3    3    0  502 -0.40685008315E+02 -0.33832429016E+02  0.26344414843E+02  0.59257098715E+02  0.41800000000E+01 0.  1.
        -11    1    1    2    0    0  0.19014035964E+02  0.14694466718E+02 -0.12101220049E+02  0.26905398016E+02  0.00000000000E+00 0.  1.
         11    1    1    2    0    0  0.11644818632E+03 -0.34019353344E+02  0.10712177192E+03  0.16184118919E+03  0.00000000000E+00 0. -1.
</event>
<event>
 7    1  0.2619826E-009  0.7611152E+02  0.7561462E-02  0.1340463E+00
          2   -1    0    0  501    0  0.00000000000E+00  0.00000000000E+00  0.19261113437E+03  0.19261113437E+03  0.00000000000E+00 0. -1.
         -2   -1    0    0    0  501 -0.00000000000E+00 -0.00000000000E+00 -0.73578612545E+02  0.73578612545E+02  0.00000000000E+00 0.  1.
         25    2    1    2    0    0 -0.36151257443E+02  0.25345668132E+01  0.91374436977E+02  0.15910210544E+03  0.12510337637E+03 0.  0.
          5    1    3    3  502    0 -0.62973607802E+02 -0.22603359466E+02  0.75321497563E+01  0.67459564323E+02  0.41800000000E+01 0.  1.
         -5    1    3    3    0  502  0.26822350359E+02  0.25137926279E+02  0.83842287221E+02  0.91642541119E+02  0.41800000000E+01 0.  1.
        -11    1    1    2    0    0  0.18398879418E+01  0.11111082894E+02 -0.33668675919E+02  0.35502409621E+02  0.00000000000E+00 0.  1.
         11    1    1    2    0    0  0.34311369501E+02 -0.13645649707E+02  0.61326760765E+02  0.71585231849E+02  0.00000000000E+00 0. -1.
</event>
<event>
 7    1  0.2619826E-009  0.6254985E+02  0.7561462E-02  0.1387432E+00
          1   -1    0    0  501    0  0.00000000000E+00  0.00000000000E+00  0.33569109341E+02  0.33569109341E+02  0.00000000000E+00 0. -1.
         -1   -1    0    0    0  501 -0.00000000000E+00 -0.00000000000E+00 -0.44430647344E+03  0.44430647344E+03  0.00000000000E+00 0.  1.
         25    2    1    2    0    0 -0.31389693742E+02  0.20872550222E+02 -0.15231932843E+03  0.20067247654E+03  0.12508912344E+03 0.  0.
          5    1    3    3  502    0 -0.32924467078E+02  0.22251789266E+02  0.76092419057E+01  0.40675983335E+02  0.41800000000E+01 0.  1.
         -5    1    3    3    0  502  0.15347733355E+01 -0.13792390446E+01 -0.15992857033E+03  0.15999649320E+03  0.41800000000E+01 0.  1.
        -11    1    1    2    0    0  0.14467773526E+02 -0.47097544692E+02 -0.22924957438E+03  0.23448424796E+03  0.00000000000E+00 0.  1.
         11    1    1    2    0    0  0.16921920216E+02  0.26224994470E+02 -0.29168461289E+02  0.42718858280E+02  0.00000000000E+00 0. -1.
</event>
<event>
 7    1  0.2619826E-009  0.1812304E+03  0.7561462E-02  0.1166618E+00
          1   -1    0    0  501    0  0.00000000000E+00  0.00000000000E+00  0.27639528644E+03  0.27639528644E+03  0.00000000000E+00 0. -1.
         -1   -1    0    0    0  501 -0.00000000000E+00 -0.00000000000E+00 -0.13543999125E+03  0.13543999125E+03  0.00000000000E+00 0.  1.
         25    2    1    2    0    0  0.15901943253E+03 -0.12274744713E+02  0.59136935306E+02  0.21114384903E+03  0.12508676424E+03 0.  0.
          5    1    3    3  502    0  0.14138493330E+03  0.26016037761E+02  0.79293477562E+02  0.16422990461E+03  0.41800000000E+01 0.  1.
         -5    1    3    3    0  502  0.17634499228E+02 -0.38290782474E+02 -0.20156542256E+02  0.46913944421E+02  0.41800000000E+01 0.  1.
        -11    1    1    2    0    0 -0.54026908484E+02 -0.31484756855E+02  0.56245105952E+02  0.84105342863E+02  0.00000000000E+00 0.  1.
         11    1    1    2    0    0 -0.10499252404E+03  0.43759501569E+02  0.25573253933E+02  0.11658608579E+03  0.00000000000E+00 0. -1.
</event>
<event>
 7    1  0.3380892E-009  0.1043712E+03  0.7561462E-02  0.1271364E+00
         -4   -1    0    0    0  501 -0.00000000000E+00  0.00000000000E+00  0.69500468456E+02  0.69500468456E+02  0.00000000000E+00 0.  1.
          4   -1    0    0  501    0  0.00000000000E+00 -0.00000000000E+00 -0.22898014544E+03  0.22898014544E+03  0.00000000000E+00 0. -1.
         25    2    1    2    0    0 -0.54568606122E+02  0.14404305245E+02 -0.12586291725E+03  0.18620848325E+03  0.12508760335E+03 0.  0.
          5    1    3    3  502    0 -0.44547201018E+01  0.57372861017E+02 -0.19400964500E+02  0.60871664475E+02  0.41800000000E+01 0. -1.
         -5    1    3    3    0  502 -0.50113886020E+02 -0.42968555771E+02 -0.10646195275E+03  0.12533681877E+03  0.41800000000E+01 0. -1.
        -11    1    1    2    0    0  0.46048001224E+02  0.19452037239E+02  0.15207414148E+02  0.52250029804E+02  0.00000000000E+00 0.  1.
         11    1    1    2    0    0  0.85206048981E+01 -0.33856342484E+02 -0.48824173881E+02  0.60022100841E+02  0.00000000000E+00 0. -1.
</event>
<event>
 7    1  0.2619826E-009  0.9116654E+02  0.7561462E-02  0.1300051E+00
          2   -1    0    0  501    0  0.00000000000E+00  0.00000000000E+00  0.20116963058E+03  0.20116963058E+03  0.00000000000E+00 0. -1.
         -2   -1    0    0    0  501 -0.00000000000E+00 -0.00000000000E+00 -0.93982975051E+02  0.93982975051E+02  0.00000000000E+00 0.  1.
         25    2    1    2    0    0 -0.43389710036E+02  0.34367604238E+02  0.12792032455E+03  0.18728321286E+03  0.12509034027E+03 0.  0.
          5    1    3    3  502    0 -0.58168204183E+02  0.24931550993E+02  0.56319438748E+01  0.63673490596E+02  0.41800000000E+01 0.  1.
         -5    1    3    3    0  502  0.14778494147E+02  0.94360532455E+01  0.12228838067E+03  0.12360972226E+03  0.41800000000E+01 0.  1.
        -11    1    1    2    0    0  0.27572024598E+02  0.26350716917E+02  0.78210349952E+01  0.38932575189E+02  0.00000000000E+00 0. -1.
         11    1    1    2    0    0  0.15817685438E+02 -0.60718321155E+02 -0.28554704017E+02  0.68936817580E+02  0.00000000000E+00 0.  1.
</event>
<event>
 7    1  0.2619826E-009  0.1224613E+03  0.7561462E-02  0.1239091E+00
         -2   -1    0    0    0  501 -0.00000000000E+00  0.00000000000E+00  0.48294558183E+03  0.48294558183E+03  0.00000000000E+00 0.  1.
          2   -1    0    0  501    0  0.00000000000E+00 -0.00000000000E+00 -0.43704013623E+02  0.43704013623E+02  0.00000000000E+00 0. -1.
         25    2    1    2    0    0 -0.78079694226E+02 -0.46459544699E+02  0.28454981894E+03  0.32383820266E+03  0.12509058358E+03 0.  0.
          5    1    3    3  502    0 -0.13302316684E+02  0.24190673020E+02  0.17914056211E+03  0.18130348503E+03  0.41800000000E+01 0.  1.
         -5    1    3    3    0  502 -0.64777377542E+02 -0.70650217719E+02  0.10540925683E+03  0.14253471763E+03  0.41800000000E+01 0.  1.
        -11    1    1    2    0    0  0.69254492225E+02  0.68443536952E+02  0.14973477490E+03  0.17860908504E+03  0.00000000000E+00 0.  1.
         11    1    1    2    0    0  0.88252020007E+01 -0.21983992253E+02  0.49569743670E+01  0.24202307754E+02  0.00000000000E+00 0. -1.
</event>
<event>
 7    1  0.2619826E-009  0.9810786E+02  0.7561462E-02  0.1284326E+00
         -2   -1    0    0    0  501 -0.00000000000E+00  0.00000000000E+00  0.37351897584E+03  0.37351897584E+03  0.00000000000E+00 0. -1.
          2   -1    0    0  501    0  0.00000000000E+00 -0.00000000000E+00 -0.39627769361E+02  0.39627769361E+02  0.00000000000E+00 0.  1.
         25    2    1    2    0    0  0.37183339165E+02 -0.40929496659E+02  0.16760822338E+03  0.21632613897E+03  0.12508659981E+03 0.  0.
          5    1    3    3  502    0 -0.32281203375E+02  0.17821610487E+02  0.18162913103E+02  0.41316458029E+02  0.41800000000E+01 0.  1.
         -5    1    3    3    0  502  0.69464542540E+02 -0.58751107146E+02  0.14944531028E+03  0.17500968095E+03  0.41800000000E+01 0.  1.
        -11    1    1    2    0    0 -0.21956684717E+01  0.31795561862E+02  0.59012873352E+01  0.32413020630E+02  0.00000000000E+00 0.  1.
         11    1    1    2    0    0 -0.34987670693E+02  0.91339347976E+01  0.16038169576E+03  0.16440758559E+03  0.00000000000E+00 0. -1.
</event>
<event>
 7    1  0.2619826E-009  0.1092548E+03  0.7561462E-02  0.1261956E+00
          1   -1    0    0  501    0  0.00000000000E+00  0.00000000000E+00  0.95667094462E+03  0.95667094462E+03  0.00000000000E+00 0. -1.
         -1   -1    0    0    0  501 -0.00000000000E+00 -0.00000000000E+00 -0.28768455409E+02  0.28768455409E+02  0.00000000000E+00 0.  1.
         25    2    1    2    0    0  0.11067273418E+02 -0.26769539530E+02  0.85977747384E+03  0.86931236478E+03  0.12509032834E+03 0.  0.
          5    1    3    3  502    0 -0.54281793258E+02  0.56965111633E+01  0.32817858389E+03  0.33271251651E+03  0.41800000000E+01 0.  1.
         -5    1    3    3    0  502  0.65349066676E+02 -0.32466050693E+02  0.53159888995E+03  0.53659984827E+03  0.41800000000E+01 0.  1.
        -11    1    1    2    0    0 -0.80811992786E+01 -0.31405843050E+02  0.10244542121E+02  0.34008578369E+02  0.00000000000E+00 0.  1.
         11    1    1    2    0    0 -0.29860741390E+01  0.58175382579E+02  0.57880473244E+02  0.82118456877E+02  0.00000000000E+00 0. -1.
</event>
<event>
 7    1  0.2619826E-009  0.1150750E+03  0.7561462E-02  0.1251450E+00
         -2   -1    0    0    0  501 -0.00000000000E+00  0.00000000000E+00  0.26351623456E+03  0.26351623456E+03  0.00000000000E+00 0.  1.
          2   -1    0    0  501    0  0.00000000000E+00 -0.00000000000E+00 -0.67960914760E+02  0.67960914760E+02  0.00000000000E+00 0. -1.
         25    2    1    2    0    0 -0.71878174456E+02 -0.23196257256E+02  0.11647386729E+03  0.18686024525E+03  0.12508417638E+03 0.  0.
          5    1    3    3  502    0 -0.16212257377E+02 -0.46195670238E+02 -0.67915535638E+01  0.49603173666E+02  0.41800000000E+01 0. -1.
         -5    1    3    3    0  502 -0.55665917080E+02  0.22999412982E+02  0.12326542085E+03  0.13725707158E+03  0.41800000000E+01 0. -1.
        -11    1    1    2    0    0  0.83170852519E+02 -0.11673578054E+02  0.60612654818E+02  0.10357392074E+03  0.00000000000E+00 0.  1.
         11    1    1    2    0    0 -0.11292678063E+02  0.34869835310E+02  0.18468797695E+02  0.41042983331E+02  0.00000000000E+00 0. -1.
</event>
<event>
 7    1  0.2619826E-009  0.8349383E+02  0.7561462E-02  0.1319419E+00
          2   -1    0    0  501    0  0.00000000000E+00  0.00000000000E+00  0.13742517781E+03  0.13742517781E+03  0.00000000000E+00 0. -1.
         -2   -1    0    0    0  501 -0.00000000000E+00 -0.00000000000E+00 -0.11090318445E+03  0.11090318445E+03  0.00000000000E+00 0.  1.
         25    2    1    2    0    0 -0.42087599528E+02  0.30453674630E+02  0.43054656949E+02  0.14213180937E+03  0.12509578497E+03 0.  0.
          5    1    3    3  502    0  0.18044367989E+01 -0.29709130055E+02  0.58674543845E+02  0.65924675928E+02  0.41800000000E+01 0. -1.
         -5    1    3    3    0  502 -0.43892036327E+02  0.60162804686E+02 -0.15619886896E+02  0.76207133440E+02  0.41800000000E+01 0. -1.
        -11    1    1    2    0    0  0.45374198101E+02 -0.16937353937E+02 -0.50208509047E+02  0.69760921671E+02  0.00000000000E+00 0.  1.
         11    1    1    2    0    0 -0.32865985735E+01 -0.13516320693E+02  0.33675845459E+02  0.36435631223E+02  0.00000000000E+00 0. -1.
</event>
<event>
 7    1  0.2619826E-009  0.1999800E+03  0.7561462E-02  0.1149756E+00
         -1   -1    0    0    0  501 -0.00000000000E+00  0.00000000000E+00  0.23393873090E+03  0.23393873090E+03  0.00000000000E+00 0.  1.
          1   -1    0    0  501    0  0.00000000000E+00 -0.00000000000E+00 -0.23438683591E+03  0.23438683591E+03  0.00000000000E+00 0. -1.
         25    2    1    2    0    0 -0.17248831972E+03 -0.94920096864E+02  0.63819224154E+02  0.24183430324E+03  0.12509552998E+03 0.  0.
          5    1    3    3  502    0 -0.12881801733E+03 -0.93025044160E+02 -0.63286928842E+01  0.15907628730E+03  0.41800000000E+01 0.  1.
         -5    1    3    3    0  502 -0.43670302397E+02 -0.18950527040E+01  0.70147917038E+02  0.82758015932E+02  0.41800000000E+01 0.  1.
        -11    1    1    2    0    0  0.14428864230E+03  0.75394743089E+02 -0.87731731540E+02  0.18493359971E+03  0.00000000000E+00 0. -1.
         11    1    1    2    0    0  0.28199677421E+02  0.19525353775E+02  0.23464402376E+02  0.41557663861E+02  0.00000000000E+00 0.  1.
</event>
<event>
 7    1  0.2619826E-009  0.1330900E+03  0.7561462E-02  0.1222942E+00
         -1   -1    0    0    0  501 -0.00000000000E+00  0.00000000000E+00  0.19047694671E+03  0.19047694671E+03  0.00000000000E+00 0.  1.
          1   -1    0    0  501    0  0.00000000000E+00 -0.00000000000E+00 -0.97156299339E+02  0.97156299339E+02  0.00000000000E+00 0. -1.
         25    2    1    2    0    0 -0.78530567968E+02 -0.23195291834E+02  0.62058025815E+02  0.16189269915E+03  0.12511185316E+03 0.  0.
          5    1    3    3  502    0  0.27225711862E+02  0.15802158605E+02 -0.26311019004E+01  0.31864442568E+02  0.41800000000E+01 0. -1.
         -5    1    3    3    0  502 -0.10575627983E+03 -0.38997450439E+02  0.64689127715E+02  0.13002825658E+03  0.41800000000E+01 0. -1.
        -11    1    1    2    0    0  0.24604579331E+02 -0.34682022858E+02  0.14040773874E+02  0.44781372965E+02  0.00000000000E+00 0.  1.
         11    1    1    2    0    0  0.53925988637E+02  0.57877314693E+02  0.17221847678E+02  0.80959173933E+02  0.00000000000E+00 0. -1.
</event>
<event>
 7    1  0.2619826E-009  0.1215765E+03  0.7561462E-02  0.1240519E+00
         -2   -1    0    0    0  501 -0.00000000000E+00  0.00000000000E+00  0.27261721014E+02  0.27261721014E+02  0.00000000000E+00 0. -1.
          2   -1    0    0  501    0  0.00000000000E+00 -0.00000000000E+00 -0.13736941326E+04  0.13736941326E+04  0.00000000000E+00 0.  1.
         25    2    1    2    0    0 -0.77029651960E+02  0.63029626318E+02 -0.11627409022E+04  0.11736780640E+04  0.12508993303E+03 0.  0.
          5    1    3    3  502    0 -0.44299598469E+01  0.27925841878E+02 -0.85629339141E+03  0.85677028529E+03  0.41800000000E+01 0. -1.
         -5    1    3    3    0  502 -0.72599692113E+02  0.35103784440E+02 -0.30644751076E+03  0.31690777874E+03  0.41800000000E+01 0. -1.
        -11    1    1    2    0    0  0.60201120084E+02  0.80859141012E+01 -0.81588156638E+02  0.10171619424E+03  0.00000000000E+00 0.  1.
         11    1    1    2    0    0  0.16828531877E+02 -0.71115540419E+02 -0.10210335273E+03  0.12556159530E+03  0.00000000000E+00 0. -1.
</event>
<event>
 7    1  0.2619826E-009  0.9624698E+02  0.7561462E-02  0.1288392E+00
          1   -1    0    0  501    0  0.00000000000E+00  0.00000000000E+00  0.76395814875E+02  0.76395814875E+02  0.00000000000E+00 0. -1.
         -1   -1    0    0    0  501 -0.00000000000E+00 -0.00000000000E+00 -0.19812471424E+03  0.19812471424E+03  0.00000000000E+00 0.  1.
         25    2    1    2    0    0 -0.33070707781E+02  0.25447006323E+02 -0.35069444204E+02  0.13645179887E+03  0.12509198877E+03 0.  0.
          5    1    3    3  502    0 -0.40318813861E+02 -0.37888010786E+02 -0.45456269719E+02  0.71727630445E+02  0.41800000000E+01 0.  1.
         -5    1    3    3    0  502  0.72481060807E+01  0.63335017109E+02  0.10386825515E+02  0.64724168424E+02  0.41800000000E+01 0.  1.
        -11    1    1    2    0    0  0.37297290816E+02  0.90411944472E+01 -0.94893508749E+02  0.10236019296E+03  0.00000000000E+00 0.  1.
         11    1    1    2    0    0 -0.42265830358E+01 -0.34488200770E+02  0.82340535923E+01  0.35708537285E+02  0.00000000000E+00 0. -1.
</event>
<event>
 7    1  0.2619826E-009  0.4023748E+03  0.7561462E-02  0.1042960E+00
         -2   -1    0    0    0  501 -0.00000000000E+00  0.00000000000E+00  0.10744748467E+03  0.10744748467E+03  0.00000000000E+00 0. -1.
          2   -1    0    0  501    0  0.00000000000E+00 -0.00000000000E+00 -0.15511660065E+04  0.15511660065E+04  0.00000000000E+00 0.  1.
         25    2    1    2    0    0 -0.14387727236E+03  0.36107035452E+03 -0.60819636657E+03  0.73254546866E+03  0.12509025915E+03 0.  0.
          5    1    3    3  502    0 -0.31849448825E+02  0.20811742944E+01 -0.45326922959E+02  0.55594253497E+02  0.41800000000E+01 0. -1.
         -5    1    3    3    0  502 -0.11202782354E+03  0.35898918022E+03 -0.56286944361E+03  0.67695121516E+03  0.41800000000E+01 0. -1.
        -11    1    1    2    0    0  0.95259273847E+02 -0.13494260541E+03 -0.40410070555E+03  0.43655608602E+03  0.00000000000E+00 0.  1.
         11    1    1    2    0    0  0.48617998518E+02 -0.22612774911E+03 -0.43142144972E+03  0.48951193650E+03  0.00000000000E+00 0. -1.
</event>
<event>
 7    1  0.2619826E-009  0.1843264E+03  0.7561462E-02  0.1163680E+00
         -2   -1    0    0    0  501 -0.00000000000E+00  0.00000000000E+00  0.47202080187E+02  0.47202080187E+02  0.00000000000E+00 0.  1.
          2   -1    0    0  501    0  0.00000000000E+00 -0.00000000000E+00 -0.80914633912E+03  0.80914633912E+03  0.00000000000E+00 0. -1.
         25    2    1    2    0    0  0.24417458111E+02  0.15702428699E+03 -0.32817165973E+03  0.38548238735E+03  0.12508874347E+03 0.  0.
          5    1    3    3  502    0  0.45510824711E+02  0.16282818703E+03 -0.31965497401E+03  0.36163659724E+03  0.41800000000E+01 0.  1.
         -5    1    3    3    0  502 -0.21093366600E+02 -0.58039000375E+01 -0.85166857200E+01  0.23845790107E+02  0.41800000000E+01 0.  1.
        -11    1    1    2    0    0  0.28894759253E+02 -0.52645320689E+02 -0.94982245682E+02  0.11237465861E+03  0.00000000000E+00 0.  1.
         11    1    1    2    0    0 -0.53312217363E+02 -0.10437896630E+03 -0.33879035352E+03  0.35849137335E+03  0.00000000000E+00 0. -1.
</event>
<event>
 7    1  0.2717103E-009  0.1517875E+03  0.7561462E-02  0.1198294E+00
          1   -1    0    0  501    0  0.00000000000E+00  0.00000000000E+00  0.71157624609E+03  0.71157624609E+03  0.00000000000E+00 0. -1.
         -1   -1    0    0    0  501 -0.00000000000E+00 -0.00000000000E+00 -0.39105107290E+02  0.39105107290E+02  0.00000000000E+00 0.  1.
         25    2    1    2    0    0  0.11541044374E+03 -0.51280285156E+02  0.37080087361E+03  0.41120477148E+03  0.12508732169E+03 0.  0.
          5    1    3    3  502    0  0.12559247334E+03 -0.18477417304E+02  0.34616234766E+03  0.36872852839E+03  0.41800000000E+01 0. -1.
         -5    1    3    3    0  502 -0.10182029603E+02 -0.32802867851E+02  0.24638525947E+02  0.42476243089E+02  0.41800000000E+01 0. -1.
        -11    1    1    2    0    0 -0.96353986915E+02  0.66916603002E+02  0.17668560281E+03  0.21208423985E+03  0.00000000000E+00 0. -1.
         11    1    1    2    0    0 -0.19056456826E+02 -0.15636317847E+02  0.12498466238E+03  0.12739234205E+03  0.00000000000E+00 0.  1.
</event>
<event>
 7    1  0.2619826E-009  0.1503256E+03  0.7561462E-02  0.1200073E+00
          1   -1    0    0  501    0  0.00000000000E+00  0.00000000000E+00  0.51423907332E+02  0.51423907332E+02  0.00000000000E+00 0. -1.
         -1   -1    0    0    0  501 -0.00000000000E+00 -0.00000000000E+00 -0.54597483465E+03  0.54597483465E+03  0.00000000000E+00 0.  1.
         25    2    1    2    0    0  0.11725034379E+03  0.37790832072E+02 -0.20506091981E+03  0.26995165031E+03  0.12509245605E+03 0.  0.
          5    1    3    3  502    0  0.13237296261E+03  0.16318962296E+02 -0.11536256699E+03  0.17639417230E+03  0.41800000000E+01 0. -1.
         -5    1    3    3    0  502 -0.15122618813E+02  0.21471869775E+02 -0.89698352829E+02  0.93557478010E+02  0.41800000000E+01 0. -1.
        -11    1    1    2    0    0 -0.14397101839E+02 -0.34867040890E+02 -0.14653315773E+03  0.15131078413E+03  0.00000000000E+00 0.  1.
         11    1    1    2    0    0 -0.10285324195E+03 -0.29237911823E+01 -0.14295684978E+03  0.17613630754E+03  0.00000000000E+00 0. -1.
</event>
<event>
 7    1  0.2619826E-009  0.9258667E+02  0.7561462E-02  0.1296706E+00
          1   -1    0    0  501    0  0.00000000000E+00  0.00000000000E+00  0.16213714070E+02  0.16213714070E+02  0.00000000000E+00 0. -1.
         -1   -1    0    0    0  501 -0.00000000000E+00 -0.00000000000E+00 -0.93179269715E+03  0.93179269715E+03  0.00000000000E+00 0.  1.
         25    2    1    2    0    0  0.57345343620E+01  0.54672643070E+02 -0.65006006597E+03  0.66426555632E+03  0.12509459288E+03 0.  0.
          5    1    3    3  502    0  0.64797543675E+01 -0.24971216383E+02 -0.33110760040E+02  0.42182267539E+02  0.41800000000E+01 0.  1.
         -5    1    3    3    0  502 -0.74522000551E+00  0.79643859453E+02 -0.61694930593E+03  0.62208328878E+03  0.41800000000E+01 0.  1.
        -11    1    1    2    0    0  0.25787166528E+02 -0.27009230638E+02 -0.41490186940E+02  0.55820355692E+02  0.00000000000E+00 0. -1.
         11    1    1    2    0    0 -0.31521700890E+02 -0.27663412431E+02 -0.22402873017E+03  0.22792049920E+03  0.00000000000E+00 0.  1.
</event>
<event>
 7    1  0.2619826E-009  0.1268793E+03  0.7561462E-02  0.1232161E+00
         -1   -1    0    0    0  501 -0.00000000000E+00  0.00000000000E+00  0.47672025688E+02  0.47672025688E+02  0.00000000000E+00 0.  1.
          1   -1    0    0  501    0  0.00000000000E+00 -0.00000000000E+00 -0.36991328003E+03  0.36991328003E+03  0.00000000000E+00 0. -1.
         25    2    1    2    0    0 -0.43109195795E+02  0.63455046286E+02 -0.20487291439E+03  0.25200283082E+03  0.12509024754E+03 0.  0.
          5    1    3    3  502    0  0.38018440517E+02  0.39923095870E+02 -0.45595385144E+02  0.71663567799E+02  0.41800000000E+01 0. -1.
         -5    1    3    3    0  502 -0.81127636312E+02  0.23531950416E+02 -0.15927752924E+03  0.18033926302E+03  0.41800000000E+01 0. -1.
        -11    1    1    2    0    0  0.35476799843E+02  0.12457691229E+02 -0.22415223619E+02  0.43774874617E+02  0.00000000000E+00 0.  1.
         11    1    1    2    0    0  0.76323959520E+01 -0.75912737515E+02 -0.94953116330E+02  0.12180760028E+03  0.00000000000E+00 0. -1.
</event>
<event>
 7    1  0.3042927E-009  0.2430682E+03  0.7561462E-02  0.1117766E+00
          2   -1    0    0  501    0  0.00000000000E+00  0.00000000000E+00  0.70618638393E+03  0.70618638393E+03  0.00000000000E+00 0. -1.
         -2   -1    0    0    0  501 -0.00000000000E+00 -0.00000000000E+00 -0.86970613399E+02  0.86970613399E+02  0.00000000000E+00 0.  1.
         25    2    1    2    0    0 -0.21506223937E+03  0.32686181603E+02  0.24517365835E+03  0.35082320880E+03  0.12508656129E+03 0.  0.
          5    1    3    3  502    0 -0.16312984859E+03 -0.33516661211E+02  0.15819820194E+03  0.22973649596E+03  0.41800000000E+01 0.  1.
         -5    1    3    3    0  502 -0.51932390785E+02  0.66202842814E+02  0.86975456410E+02  0.12108671284E+03  0.41800000000E+01 0.  1.
        -11    1    1    2    0    0  0.83007095606E+02  0.31107618501E+02  0.15904493557E+03  0.18208007409E+03  0.00000000000E+00 0. -1.
         11    1    1    2    0    0  0.13205514377E+03 -0.63793800105E+02  0.21499717661E+03  0.26025371443E+03  0.00000000000E+00 0.  1.
</event>
<event>
 7    1  0.2619826E-009  0.1021077E+03  0.7561462E-02  0.1275925E+00
         -1   -1    0    0    0  501 -0.00000000000E+00  0.00000000000E+00  0.40705920583E+03  0.40705920583E+03  0.00000000000E+00 0.  1.
          1   -1    0    0  501    0  0.00000000000E+00 -0.00000000000E+00 -0.35207302334E+02  0.35207302334E+02  0.00000000000E+00 0. -1.
         25    2    1    2    0    0  0.17061238914E+01  0.37710587466E+02  0.25186168776E+03  0.28373536298E+03  0.12508575931E+03 0.  0.
          5    1    3    3  502    0  0.62205415333E+02  0.27795586008E+02  0.14948389001E+03  0.16433202387E+03  0.41800000000E+01 0.  1.
         -5    1    3    3    0  502 -0.60499291442E+02  0.99150014581E+01  0.10237779775E+03  0.11940333911E+03  0.41800000000E+01 0.  1.
        -11    1    1    2    0    0 -0.32974173704E+02 -0.20157822674E+02  0.11621778135E+03  0.12247533078E+03  0.00000000000E+00 0.  1.
         11    1    1    2    0    0  0.31268049813E+02 -0.17552764793E+02  0.37724343831E+01  0.36055814401E+02  0.00000000000E+00 0. -1.
</event>
<event>
 7    1  0.2619826E-009  0.1416929E+03  0.7561462E-02  0.1211069E+00
         -3   -1    0    0    0  501 -0.00000000000E+00  0.00000000000E+00  0.25025824525E+03  0.25025824525E+03  0.00000000000E+00 0.  1.
          3   -1    0    0  501    0  0.00000000000E+00 -0.00000000000E+00 -0.87011111747E+02  0.87011111747E+02  0.00000000000E+00 0. -1.
         25    2    1    2    0    0  0.89725701118E+02 -0.34603161181E+02  0.57944801443E+02  0.16808755921E+03  0.12509095628E+03 0.  0.
          5    1    3    3  502    0  0.85289134092E+02 -0.73181072843E+02  0.21154909534E+02  0.11443211269E+03  0.41800000000E+01 0.  1.
         -5    1    3    3    0  502  0.44365670265E+01  0.38577911662E+02  0.36789891909E+02  0.53655446525E+02  0.41800000000E+01 0.  1.
        -11    1    1    2    0    0 -0.10441999791E+03  0.12273477748E+02  0.89883025514E+02  0.13832256684E+03  0.00000000000E+00 0. -1.
         11    1    1    2    0    0  0.14694296795E+02  0.22329683433E+02  0.15419306548E+02  0.30859230952E+02  0.00000000000E+00 0.  1.
</event>
<event>
 7    1  0.2619826E-009  0.1113247E+03  0.7561462E-02  0.1258136E+00
          1   -1    0    0  501    0  0.00000000000E+00  0.00000000000E+00  0.53611992517E+03  0.53611992517E+03  0.00000000000E+00 0. -1.
         -1   -1    0    0    0  501 -0.00000000000E+00 -0.00000000000E+00 -0.23788323465E+02  0.23788323465E+02  0.00000000000E+00 0.  1.
         25    2    1    2    0    0  0.22952331384E+02  0.21765836036E+02  0.32997203093E+03  0.35430171978E+03  0.12509039253E+03 0.  0.
          5    1    3    3  502    0 -0.49641876727E+02 -0.53236250993E+01  0.15497771439E+03  0.16287486383E+03  0.41800000000E+01 0. -1.
         -5    1    3    3    0  502  0.72594208111E+02  0.27089461136E+02  0.17499431654E+03  0.19142685595E+03  0.41800000000E+01 0. -1.
        -11    1    1    2    0    0 -0.57039315728E+02 -0.58704886986E+01  0.11202177032E+03  0.12584444049E+03  0.00000000000E+00 0.  1.
         11    1    1    2    0    0  0.34086984345E+02 -0.15895347338E+02  0.70337800450E+02  0.79762088368E+02  0.00000000000E+00 0. -1.
</event>
<event>
 7    1  0.2619826E-009  0.9279954E+02  0.7561462E-02  0.1296210E+00
         -2   -1    0    0    0  501 -0.00000000000E+00  0.00000000000E+00  0.23230197152E+03  0.23230197152E+03  0.00000000000E+00 0.  1.
          2   -1    0    0  501    0  0.00000000000E+00 -0.00000000000E+00 -0.62855574558E+02  0.62855574558E+02  0.00000000000E+00 0. -1.
         25    2    1    2    0    0 -0.49767171629E+02  0.16957044470E+02  0.10518305751E+03  0.17168552635E+03  0.12509249235E+03 0.  0.
          5    1    3    3  502    0 -0.65125973897E+01  0.33018601450E+02 -0.19188256616E+02  0.38965414902E+02  0.41800000000E+01 0. -1.
         -5    1    3    3    0  502 -0.43254574239E+02 -0.16061556980E+02  0.12437131412E+03  0.13272011144E+03  0.41800000000E+01 0. -1.
        -11    1    1    2    0    0  0.64234431551E+02  0.18679404771E+02  0.43017380030E+02  0.79532869581E+02  0.00000000000E+00 0.  1.
         11    1    1    2    0    0 -0.14467259922E+02 -0.35636449241E+02  0.21245959427E+02  0.43939150152E+02  0.00000000000E+00 0. -1.
</event>
<event>
 7    1  0.2619826E-009  0.1156111E+03  0.7561462E-02  0.1250518E+00
          1   -1    0    0  501    0  0.00000000000E+00  0.00000000000E+00  0.24930410370E+02  0.24930410370E+02  0.00000000000E+00 0. -1.
         -1   -1    0    0    0  501 -0.00000000000E+00 -0.00000000000E+00 -0.71732088163E+03  0.71732088163E+03  0.00000000000E+00 0.  1.
         25    2    1    2    0    0  0.61539782919E+01 -0.43004119300E+02 -0.20213750876E+03  0.24165030620E+03  0.12509225520E+03 0.  0.
          5    1    3    3  502    0  0.65167075351E+02 -0.24345501330E+02 -0.11923148331E+03  0.13810528649E+03  0.41800000000E+01 0.  1.
         -5    1    3    3    0  502 -0.59013097059E+02 -0.18658617969E+02 -0.82906025457E+02  0.10354501971E+03  0.41800000000E+01 0.  1.
        -11    1    1    2    0    0  0.41443894046E+02  0.13931563777E+02 -0.17030156338E+03  0.17582464933E+03  0.00000000000E+00 0. -1.
         11    1    1    2    0    0 -0.47597872338E+02  0.29072555522E+02 -0.31995139911E+03  0.32477633647E+03  0.00000000000E+00 0.  1.
</event>
<event>
 6    1  0.2619826E-009  0.1122385E+03  0.7561462E-02  0.1256480E+00
         -2   -1    0    0    0  501 -0.00000000000E+00  0.00000000000E+00  0.18277881963E+03  0.18277881963E+03  0.00000000000E+00 0. -1.
          2   -1    0    0  501    0  0.00000000000E+00 -0.00000000000E+00 -0.12375838137E+03  0.12375838137E+03  0.00000000000E+00 0.  1.
          5    1    1    2  502    0  0.22180692225E+02  0.11141482002E+02 -0.55433587532E+02  0.60880791350E+02  0.41800000000E+01 0.  1.
         -5    1    1    2    0  502 -0.67760156615E+01 -0.89432414125E+02  0.19392457752E+02  0.91856469027E+02  0.41800000000E+01 0.  1.
        -11    1    1    2    0    0  0.21038529446E+02  0.68680709490E+02  0.28439034089E+02  0.77255667994E+02  0.00000000000E+00 0.  1.
         11    1    1    2    0    0 -0.36443206009E+02  0.96102226332E+01  0.66622533948E+02  0.76544272633E+02  0.00000000000E+00 0. -1.
</event>
<event>
 7    1  0.2619826E-009  0.1394770E+03  0.7561462E-02  0.1214034E+00
          2   -1    0    0  501    0  0.00000000000E+00  0.00000000000E+00  0.58610244834E+03  0.58610244834E+03  0.00000000000E+00 0. -1.
         -2   -1    0    0    0  501 -0.00000000000E+00 -0.00000000000E+00 -0.69866488502E+02  0.69866488502E+02  0.00000000000E+00 0.  1.
         25    2    1    2    0    0 -0.12410704530E+03  0.44116069348E+02  0.44533283085E+03  0.48095416376E+03  0.12508713417E+03 0.  0.
          5    1    3    3  502    0  0.18123926318E+01  0.12188911979E+02  0.22329283679E+03  0.22367167390E+03  0.41800000000E+01 0.  1.
         -5    1    3    3    0  502 -0.12591943793E+03  0.31927157368E+02  0.22203999406E+03  0.25728248986E+03  0.41800000000E+01 0.  1.
        -11    1    1    2    0    0  0.59281687434E+02 -0.38964602319E+02 -0.95345494267E+01  0.71578392911E+02  0.00000000000E+00 0.  1.
         11    1    1    2    0    0  0.64825357864E+02 -0.51514670281E+01  0.80437678409E+02  0.10343638017E+03  0.00000000000E+00 0. -1.
</event>
<event>
 7    1  0.2619826E-009  0.8286955E+02  0.7561462E-02  0.1321100E+00
         -3   -1    0    0    0  501 -0.00000000000E+00  0.00000000000E+00  0.26664765501E+03  0.26664765501E+03  0.00000000000E+00 0.  1.
          3   -1    0    0  501    0  0.00000000000E+00 -0.00000000000E+00 -0.60234678960E+02  0.60234678960E+02  0.00000000000E+00 0. -1.
         25    2    1    2    0    0  0.43124454440E+02 -0.41306352065E+02  0.81980109849E+02  0.16101895136E+03  0.12506170874E+03 0.  0.
          5    1    3    3  502    0  0.50219070668E+02 -0.10867526835E+02 -0.19221776039E+02  0.55018244905E+02  0.41800000000E+01 0.  1.
         -5    1    3    3    0  502 -0.70946162280E+01 -0.30438825230E+02  0.10120188589E+03  0.10600070645E+03  0.41800000000E+01 0.  1.
        -11    1    1    2    0    0 -0.18254352837E+02  0.52351257196E+02  0.12695619394E+03  0.13853429434E+03  0.00000000000E+00 0.  1.
         11    1    1    2    0    0 -0.24870101603E+02 -0.11044905131E+02 -0.25233277408E+01  0.27329088275E+02  0.00000000000E+00 0. -1.
</event>
<event>
 7    1  0.2619826E-009  0.1114287E+03  0.7561462E-02  0.1257947E+00
          1   -1    0    0  501    0  0.00000000000E+00  0.00000000000E+00  0.33407424083E+03  0.33407424083E+03  0.00000000000E+00 0.  1.
         -1   -1    0    0    0  501 -0.00000000000E+00 -0.00000000000E+00 -0.68157019124E+02  0.68157019124E+02  0.00000000000E+00 0. -1.
         25    2    1    2    0    0 -0.34813766955E+02  0.46095541357E+02  0.25952756079E+03  0.29383502318E+03  0.12509064208E+03 0.  0.
          5    1    3    3  502    0  0.37391342942E+02  0.39935088830E+02  0.58977390665E+02  0.80552646490E+02  0.41800000000E+01 0. -1.
         -5    1    3    3    0  502 -0.72205109898E+02  0.61604525269E+01  0.20055017012E+03  0.21328237669E+03  0.41800000000E+01 0. -1.
        -11    1    1    2    0    0 -0.20623870121E+02  0.36186034709E+01  0.24028790808E+02  0.31871948443E+02  0.00000000000E+00 0.  1.
         11    1    1    2    0    0  0.55437637076E+02 -0.49714144828E+02 -0.17639129894E+02  0.76524288327E+02  0.00000000000E+00 0. -1.
</event>
<event>
 7    1  0.2619826E-009  0.1139290E+03  0.7561462E-02  0.1253462E+00
          2   -1    0    0  501    0  0.00000000000E+00  0.00000000000E+00  0.73186605543E+02  0.73186605543E+02  0.00000000000E+00 0. -1.
         -2   -1    0    0    0  501 -0.00000000000E+00 -0.00000000000E+00 -0.19815060904E+03  0.19815060904E+03  0.00000000000E+00 0.  1.
         25    2    1    2    0    0  0.69814130333E+01 -0.50085798186E+02 -0.46327632664E+02  0.14265099294E+03  0.12508288824E+03 0.  0.
          5    1    3    3  502    0 -0.35576148919E+02  0.26595155175E+02 -0.28850263027E+02  0.53129791336E+02  0.41800000000E+01 0.  1.
         -5    1    3    3    0  502  0.42557561952E+02 -0.76680953360E+02 -0.17477369637E+02  0.89521201606E+02  0.41800000000E+01 0.  1.
        -11    1    1    2    0    0  0.10564190808E+02 -0.20311370842E+02 -0.40988460653E+02  0.46948991679E+02  0.00000000000E+00 0.  1.
         11    1    1    2    0    0 -0.17545603842E+02  0.70397169028E+02 -0.37647910183E+02  0.81737229966E+02  0.00000000000E+00 0. -1.
</event>
<event>
 7    1  0.2619826E-009  0.1562371E+03  0.7561462E-02  0.1193012E+00
         -1   -1    0    0    0  501 -0.00000000000E+00  0.00000000000E+00  0.67814856338E+02  0.67814856338E+02  0.00000000000E+00 0.  1.
          1   -1    0    0  501    0  0.00000000000E+00 -0.00000000000E+00 -0.85578236482E+03  0.85578236482E+03  0.00000000000E+00 0. -1.
         25    2    1    2    0    0  0.82420360313E+02  0.11991004164E+03 -0.10386614320E+03  0.21819217703E+03  0.12509243196E+03 0.  0.
          5    1    3    3  502    0  0.34430486034E+02  0.44886554115E+02  0.24591336699E+02  0.61826105728E+02  0.41800000000E+01 0. -1.
         -5    1    3    3    0  502  0.47989874279E+02  0.75023487527E+02 -0.12845747990E+03  0.15636607130E+03  0.41800000000E+01 0. -1.
        -11    1    1    2    0    0 -0.54855391028E+02 -0.13257481603E+02 -0.32237192995E+03  0.32727440468E+03  0.00000000000E+00 0. -1.
         11    1    1    2    0    0 -0.27564969285E+02 -0.10665256004E+03 -0.36172943533E+03  0.37813063944E+03  0.00000000000E+00 0.  1.
</event>
<event>
 7    1  0.3126798E-009  0.1339182E+03  0.7561462E-02  0.1221755E+00
          2   -1    0    0  501    0  0.00000000000E+00  0.00000000000E+00  0.78144702837E+03  0.78144702837E+03  0.00000000000E+00 0. -1.
         -2   -1    0    0    0  501 -0.00000000000E+00 -0.00000000000E+00 -0.31190031705E+02  0.31190031705E+02  0.00000000000E+00 0.  1.
         25    2    1    2    0    0  0.79132658686E+02 -0.68820001612E+02  0.50781222337E+03  0.53340330904E+03  0.12509062954E+03 0.  0.
          5    1    3    3  502    0  0.96916455762E+02 -0.61013144818E+01  0.27886028750E+03  0.29531433724E+03  0.41800000000E+01 0.  1.
         -5    1    3    3    0  502 -0.17783797077E+02 -0.62718687130E+02  0.22895193587E+03  0.23808897180E+03  0.41800000000E+01 0.  1.
        -11    1    1    2    0    0 -0.34598707445E+02  0.36461546437E+02  0.27384820403E+02  0.57240224615E+02  0.00000000000E+00 0.  1.
         11    1    1    2    0    0 -0.44533951240E+02  0.32358455176E+02  0.21505995289E+03  0.22199352642E+03  0.00000000000E+00 0. -1.
</event>
<event>
 7    1  0.2619826E-009  0.1233283E+03  0.7561462E-02  0.1237705E+00
         -1   -1    0    0    0  501 -0.00000000000E+00  0.00000000000E+00  0.96220675786E+02  0.96220675786E+02  0.00000000000E+00 0.  1.
          1   -1    0    0  501    0  0.00000000000E+00 -0.00000000000E+00 -0.17856200315E+03  0.17856200315E+03  0.00000000000E+00 0. -1.
         25    2    1    2    0    0 -0.53908662126E+02  0.51691575494E+02 -0.48988062568E+02  0.15370564309E+03  0.12508969428E+03 0.  0.
          5    1    3    3  502    0 -0.48186856717E+02  0.91889536430E+02 -0.43241496382E+02  0.11248537449E+03  0.41800000000E+01 0.  1.
         -5    1    3    3    0  502 -0.57218054086E+01 -0.40197960937E+02 -0.57465661851E+01  0.41220268601E+02  0.41800000000E+01 0.  1.
        -11    1    1    2    0    0 -0.15069516206E+02 -0.22536205559E+02 -0.37270930218E+02  0.46087884731E+02  0.00000000000E+00 0. -1.
         11    1    1    2    0    0  0.68978178331E+02 -0.29155369935E+02  0.39176654209E+01  0.74989151111E+02  0.00000000000E+00 0.  1.
</event>
<event>
 7    1  0.2619826E-009  0.7160748E+02  0.7561462E-02  0.1354711E+00
         -1   -1    0    0    0  501 -0.00000000000E+00  0.00000000000E+00  0.17769288068E+03  0.17769288068E+03  0.00000000000E+00 0.  1.
          1   -1    0    0  501    0  0.00000000000E+00 -0.00000000000E+00 -0.77237003920E+02  0.77237003920E+02  0.00000000000E+00 0. -1.
         25    2    1    2    0    0 -0.27264987556E+02  0.10108125303E+02  0.77223841659E+02  0.14985766051E+03  0.12509293724E+03 0.  0.
          5    1    3    3  502    0 -0.33941362408E+02  0.72750838609E+01  0.11031558848E+03  0.11572356886E+03  0.41800000000E+01 0. -1.
         -5    1    3    3    0  502  0.66763748516E+01  0.28330414423E+01 -0.33091746822E+02  0.34134091649E+02  0.41800000000E+01 0. -1.
        -11    1    1    2    0    0  0.53582965256E+02  0.22381376903E+02  0.18224368623E+01  0.58098033304E+02  0.00000000000E+00 0. -1.
         11    1    1    2    0    0 -0.26317977699E+02 -0.32489502206E+02  0.21409598242E+02  0.46974190793E+02  0.00000000000E+00 0.  1.
</event>
<event>
 7    1  0.2619826E-009  0.8091134E+02  0.7561462E-02  0.1326485E+00
          2   -1    0    0  501    0  0.00000000000E+00  0.00000000000E+00  0.13640645703E+03  0.13640645703E+03  0.00000000000E+00 0. -1.
         -2   -1    0    0    0  501 -0.00000000000E+00 -0.00000000000E+00 -0.10776448779E+03  0.10776448779E+03  0.00000000000E+00 0.  1.
         25    2    1    2    0    0  0.27081600476E+02  0.44306418477E+02  0.37805631452E+01  0.13549529316E+03  0.12509280558E+03 0.  0.
          5    1    3    3  502    0  0.29086800849E+02  0.40467545834E+02 -0.56190420739E+02  0.75223002016E+02  0.41800000000E+01 0. -1.
         -5    1    3    3    0  502 -0.20052003726E+01  0.38388726431E+01  0.59970983884E+02  0.60272291144E+02  0.41800000000E+01 0. -1.
        -11    1    1    2    0    0 -0.61551524123E+02 -0.29963002110E+02  0.16366887246E+02  0.70386409309E+02  0.00000000000E+00 0. -1.
         11    1    1    2    0    0  0.34469923647E+02 -0.14343416367E+02  0.84945188501E+01  0.38289242351E+02  0.00000000000E+00 0.  1.
</event>
<event>
 7    1  0.2619826E-009  0.2492465E+03  0.7561462E-02  0.1113782E+00
          2   -1    0    0  501    0  0.00000000000E+00  0.00000000000E+00  0.11592573500E+04  0.11592573500E+04  0.00000000000E+00 0. -1.
         -2   -1    0    0    0  501 -0.00000000000E+00 -0.00000000000E+00 -0.61775655457E+02  0.61775655457E+02  0.00000000000E+00 0.  1.
         25    2    1    2    0    0 -0.13401742825E+03  0.19426370927E+03  0.70840043056E+03  0.75708676301E+03  0.12510050721E+03 0.  0.
          5    1    3    3  502    0 -0.68500060936E+02  0.16691794544E+03  0.37478023008E+03  0.41597061449E+03  0.41800000000E+01 0.  1.
         -5    1    3    3    0  502 -0.65517367318E+02  0.27345763829E+02  0.33362020047E+03  0.34111614852E+03  0.41800000000E+01 0.  1.
        -11    1    1    2    0    0  0.24140606880E+02 -0.49472872620E+00  0.14583856410E+02  0.28208199603E+02  0.00000000000E+00 0. -1.
         11    1    1    2    0    0  0.10987682137E+03 -0.19376898055E+03  0.37449740759E+03  0.43573804285E+03  0.00000000000E+00 0.  1.
</event>
<event>
 7    1  0.2619826E-009  0.1161782E+03  0.7561462E-02  0.1249538E+00
         -1   -1    0    0    0  501 -0.00000000000E+00  0.00000000000E+00  0.76323862864E+02  0.76323862864E+02  0.00000000000E+00 0.  1.
          1   -1    0    0  501    0  0.00000000000E+00 -0.00000000000E+00 -0.37384928523E+03  0.37384928523E+03  0.00000000000E+00 0. -1.
         25    2    1    2    0    0 -0.71677277156E+02  0.85517360052E+02 -0.11504730826E+03  0.20330776840E+03  0.12508922664E+03 0.  0.
          5    1    3    3  502    0 -0.55556423952E+02  0.36591430043E+02  0.10556954174E+02  0.67486077648E+02  0.41800000000E+01 0.  1.
         -5    1    3    3    0  502 -0.16120853204E+02  0.48925930008E+02 -0.12560426244E+03  0.13582169075E+03  0.41800000000E+01 0.  1.
        -11    1    1    2    0    0  0.53519976829E+02 -0.77466207143E+02 -0.19956698602E+03  0.22066350645E+03  0.00000000000E+00 0. -1.
         11    1    1    2    0    0  0.18157300327E+02 -0.80511529082E+01  0.17088871918E+02  0.26201873248E+02  0.00000000000E+00 0.  1.
</event>
<event>
 7    1  0.2619826E-009  0.1109152E+03  0.7561462E-02  0.1258884E+00
         -2   -1    0    0    0  501 -0.00000000000E+00  0.00000000000E+00  0.16148090325E+02  0.16148090325E+02  0.00000000000E+00 0.  1.
          2   -1    0    0  501    0  0.00000000000E+00 -0.00000000000E+00 -0.10396922944E+04  0.10396922944E+04  0.00000000000E+00 0. -1.
         25    2    1    2    0    0  0.12912612904E+02  0.49723212848E+02 -0.76587341622E+03  0.77772026651E+03  0.12509032657E+03 0.  0.
          5    1    3    3  502    0  0.13410104924E+02 -0.41526298541E+02 -0.25775767570E+03  0.26145889957E+03  0.41800000000E+01 0.  1.
         -5    1    3    3    0  502 -0.49749201913E+00  0.91249511389E+02 -0.50811574052E+03  0.51626136694E+03  0.41800000000E+01 0.  1.
        -11    1    1    2    0    0  0.28193453640E+02 -0.29601993659E+02 -0.45920446730E+02  0.61480373166E+02  0.00000000000E+00 0.  1.
         11    1    1    2    0    0 -0.41106066544E+02 -0.20121219189E+02 -0.21175034116E+03  0.21663974508E+03  0.00000000000E+00 0. -1.
</event>
<event>
 7    1  0.2619826E-009  0.1644105E+03  0.7561462E-02  0.1183805E+00
         -2   -1    0    0    0  501 -0.00000000000E+00  0.00000000000E+00  0.22859289534E+03  0.22859289534E+03  0.00000000000E+00 0.  1.
          2   -1    0    0  501    0  0.00000000000E+00 -0.00000000000E+00 -0.12419065276E+03  0.12419065276E+03  0.00000000000E+00 0. -1.
         25    2    1    2    0    0 -0.12286304606E+03 -0.23012999226E+02  0.89396963652E+02  0.19814886239E+03  0.12508488452E+03 0.  0.
          5    1    3    3  502    0 -0.12146677864E+03 -0.61497333866E+02  0.57023087075E+02  0.14766585674E+03  0.41800000000E+01 0.  1.
         -5    1    3    3    0  502 -0.13962674207E+01  0.38484334640E+02  0.32373876577E+02  0.50483005655E+02  0.41800000000E+01 0.  1.
        -11    1    1    2    0    0  0.13571269500E+03  0.10793208445E+02  0.12276762852E+02  0.13669362765E+03  0.00000000000E+00 0. -1.
         11    1    1    2    0    0 -0.12849648937E+02  0.12219790781E+02  0.27285160718E+01  0.17941058066E+02  0.00000000000E+00 0.  1.
</event>
<event>
 7    1  0.2619826E-009  0.9592733E+02  0.7561462E-02  0.1289101E+00
         -2   -1    0    0    0  501 -0.00000000000E+00  0.00000000000E+00  0.31176889916E+02  0.31176889916E+02  0.00000000000E+00 0.  1.
          2   -1    0    0  501    0  0.00000000000E+00 -0.00000000000E+00 -0.51464864596E+03  0.51464864596E+03  0.00000000000E+00 0. -1.
         25    2    1    2    0    0 -0.53970646353E+02 -0.15494854012E+02 -0.26854092067E+03  0.30152026080E+03  0.12508924986E+03 0.  0.
          5    1    3    3  502    0 -0.63148994203E+02 -0.44623909918E+01 -0.27711722931E+03  0.28428707249E+03  0.41800000000E+01 0. -1.
         -5    1    3    3    0  502  0.91783478500E+01 -0.11032463020E+02  0.85763086418E+01  0.17233188314E+02  0.41800000000E+01 0. -1.
        -11    1    1    2    0    0  0.37300466381E+01 -0.39095088162E+02 -0.51008293563E+02  0.64375346046E+02  0.00000000000E+00 0.  1.
         11    1    1    2    0    0  0.50240599715E+02  0.54589942174E+02 -0.16392254181E+03  0.17992992902E+03  0.00000000000E+00 0. -1.
</event>
<event>
 7    1  0.2619826E-009  0.8826677E+02  0.7561462E-02  0.1307104E+00
          1   -1    0    0  501    0  0.00000000000E+00  0.00000000000E+00  0.58801316919E+02  0.58801316919E+02  0.00000000000E+00 0.  1.
         -1   -1    0    0    0  501 -0.00000000000E+00 -0.00000000000E+00 -0.21947504642E+03  0.21947504642E+03  0.00000000000E+00 0. -1.
         25    2    1    2    0    0 -0.16099822805E+01  0.85719776821E+01 -0.50150048396E+02  0.13504867305E+03  0.12508815249E+03 0.  0.
          5    1    3    3  502    0  0.14375090595E+02 -0.36901218423E+02  0.24011089702E+02  0.46501053530E+02  0.41800000000E+01 0. -1.
         -5    1    3    3    0  502 -0.15985072876E+02  0.45473196105E+02 -0.74161138098E+02  0.88547619521E+02  0.41800000000E+01 0. -1.
        -11    1    1    2    0    0  0.37198489101E+02  0.20412581126E+02 -0.70728502210E+02  0.82479828350E+02  0.00000000000E+00 0. -1.
         11    1    1    2    0    0 -0.35588506821E+02 -0.28984558808E+02 -0.39795178899E+02  0.60747861943E+02  0.00000000000E+00 0.  1.
</event>
<event>
 7    1  0.2619826E-009  0.3807576E+03  0.7561462E-02  0.1050654E+00
         -2   -1    0    0    0  501 -0.00000000000E+00  0.00000000000E+00  0.10022357876E+03  0.10022357876E+03  0.00000000000E+00 0.  1.
          2   -1    0    0  501    0  0.00000000000E+00 -0.00000000000E+00 -0.18430183961E+04  0.18430183961E+04  0.00000000000E+00 0. -1.
         25    2    1    2    0    0  0.14704153858E+03 -0.33642080871E+03 -0.43714790159E+03  0.58441972063E+03  0.12509175591E+03 0.  0.
          5    1    3    3  502    0 -0.17678792059E+02 -0.85076213628E+02 -0.88099380596E+02  0.12381225737E+03  0.41800000000E+01 0.  1.
         -5    1    3    3    0  502  0.16472033064E+03 -0.25134459508E+03 -0.34904852100E+03  0.46060746326E+03  0.41800000000E+01 0.  1.
        -11    1    1    2    0    0 -0.14130690538E+02  0.11401274422E+03 -0.47549931925E+03  0.48918113707E+03  0.00000000000E+00 0. -1.
         11    1    1    2    0    0 -0.13291084804E+03  0.22240806449E+03 -0.83014759648E+03  0.86964111714E+03  0.00000000000E+00 0.  1.
</event>
<event>
 7    1  0.2619826E-009  0.1059104E+03  0.7561462E-02  0.1268336E+00
          2   -1    0    0  501    0  0.00000000000E+00  0.00000000000E+00  0.14554988568E+03  0.14554988568E+03  0.00000000000E+00 0. -1.
         -2   -1    0    0    0  501 -0.00000000000E+00 -0.00000000000E+00 -0.10941587458E+03  0.10941587458E+03  0.00000000000E+00 0.  1.
         25    2    1    2    0    0 -0.64138080301E+01  0.21620817582E+02 -0.40359928141E+02  0.13336008241E+03  0.12508953232E+03 0.  0.
          5    1    3    3  502    0  0.51883478445E+02  0.35711117082E+02 -0.36947056833E+02  0.73141893792E+02  0.41800000000E+01 0. -1.
         -5    1    3    3    0  502 -0.58297286475E+02 -0.14090299500E+02 -0.34128713081E+01  0.60218188622E+02  0.41800000000E+01 0. -1.
        -11    1    1    2    0    0 -0.44568268149E+01 -0.54121577272E+02  0.25079253714E+02  0.59816196790E+02  0.00000000000E+00 0.  1.
         11    1    1    2    0    0  0.10870634845E+02  0.32500759689E+02  0.51414685528E+02  0.61789481065E+02  0.00000000000E+00 0. -1.
</event>
<event>
 7    1  0.2619826E-009  0.8645211E+02  0.7561462E-02  0.1311678E+00
         -1   -1    0    0    0  501 -0.00000000000E+00  0.00000000000E+00  0.58102846351E+03  0.58102846351E+03  0.00000000000E+00 0.  1.
          1   -1    0    0  501    0  0.00000000000E+00 -0.00000000000E+00 -0.29255864510E+02  0.29255864510E+02  0.00000000000E+00 0. -1.
         25    2    1    2    0    0  0.21947432727E+02  0.29755904953E+02  0.45205842452E+03  0.47050123024E+03  0.12508990687E+03 0.  0.
          5    1    3    3  502    0  0.49575319575E+02  0.11527830161E+02  0.68230057660E+02  0.85225678920E+02  0.41800000000E+01 0. -1.
         -5    1    3    3    0  502 -0.27627886847E+02  0.18228074792E+02  0.38382836686E+03  0.38527555132E+03  0.41800000000E+01 0. -1.
        -11    1    1    2    0    0 -0.42707614710E+02  0.97841170543E+01  0.79475338689E+02  0.90752403607E+02  0.00000000000E+00 0. -1.
         11    1    1    2    0    0  0.20760181983E+02 -0.39540022007E+02  0.20238835789E+02  0.49030694166E+02  0.00000000000E+00 0.  1.
</event>
<event>
 7    1  0.2619826E-009  0.1326654E+03  0.7561462E-02  0.1223554E+00
          1   -1    0    0  501    0  0.00000000000E+00  0.00000000000E+00  0.41781716675E+03  0.41781716675E+03  0.00000000000E+00 0. -1.
         -1   -1    0    0    0  501 -0.00000000000E+00 -0.00000000000E+00 -0.59269478190E+02  0.59269478190E+02  0.00000000000E+00 0.  1.
         25    2    1    2    0    0 -0.58117031716E+02 -0.62884406990E+02  0.81235737891E+02  0.17198687630E+03  0.12509277553E+03 0.  0.
          5    1    3    3  502    0 -0.78462013814E+02 -0.53256455361E+01  0.12128718493E+02  0.79682045183E+02  0.41800000000E+01 0.  1.
         -5    1    3    3    0  502  0.20344982099E+02 -0.57558761454E+02  0.69107019398E+02  0.92304831113E+02  0.41800000000E+01 0.  1.
        -11    1    1    2    0    0  0.25788436968E+02  0.83266328471E+02  0.16744123774E+03  0.18877206635E+03  0.00000000000E+00 0.  1.
         11    1    1    2    0    0  0.32328594748E+02 -0.20381921480E+02  0.10987071292E+03  0.11632770229E+03  0.00000000000E+00 0. -1.
</event>
<event>
 7    1  0.2619826E-009  0.1014742E+03  0.7561462E-02  0.1277226E+00
         -2   -1    0    0    0  501 -0.00000000000E+00  0.00000000000E+00  0.18283668836E+02  0.18283668836E+02  0.00000000000E+00 0. -1.
          2   -1    0    0  501    0  0.00000000000E+00 -0.00000000000E+00 -0.11465868800E+04  0.11465868800E+04  0.00000000000E+00 0.  1.
         25    2    1    2    0    0 -0.32477273613E+02  0.11427604268E+02 -0.97522277311E+03  0.98381571133E+03  0.12509409748E+03 0.  0.
          5    1    3    3  502    0 -0.68622663043E+02  0.20220004771E+01 -0.85717176898E+03  0.85992678310E+03  0.41800000000E+01 0. -1.
         -5    1    3    3    0  502  0.36145389430E+02  0.94056037907E+01 -0.11805100414E+03  0.12388892823E+03  0.41800000000E+01 0. -1.
        -11    1    1    2    0    0  0.55729123510E+02 -0.33085631807E+02 -0.10642942385E+03  0.12460985715E+03  0.00000000000E+00 0.  1.
         11    1    1    2    0    0 -0.23251849897E+02  0.21658027539E+02 -0.46651014202E+02  0.56444980349E+02  0.00000000000E+00 0. -1.
</event>
<event>
 7    1  0.2619826E-009  0.1143421E+03  0.7561462E-02  0.1252734E+00
         -2   -1    0    0    0  501 -0.00000000000E+00  0.00000000000E+00  0.60028913269E+02  0.60028913269E+02  0.00000000000E+00 0.  1.
          2   -1    0    0  501    0  0.00000000000E+00 -0.00000000000E+00 -0.30453652696E+03  0.30453652696E+03  0.00000000000E+00 0. -1.
         25    2    1    2    0    0 -0.72574294124E+02 -0.27618297190E+02 -0.15166267048E+03  0.21137368023E+03  0.12508984200E+03 0.  0.
          5    1    3    3  502    0 -0.92655841140E+02  0.18030671718E+02 -0.11750797761E+03  0.15078397535E+03  0.41800000000E+01 0. -1.
         -5    1    3    3    0  502  0.20081547016E+02 -0.45648968908E+02 -0.34154692871E+02  0.60589704885E+02  0.41800000000E+01 0. -1.
        -11    1    1    2    0    0  0.35540625314E+02  0.30735803356E+02 -0.10422230688E+03  0.11432460324E+03  0.00000000000E+00 0. -1.
         11    1    1    2    0    0  0.37033668810E+02 -0.31175061659E+01  0.11377363665E+02  0.38867156755E+02  0.00000000000E+00 0.  1.
</event>
<event>
 7    1  0.2619826E-009  0.1327506E+03  0.7561462E-02  0.1223431E+00
         -2   -1    0    0    0  501 -0.00000000000E+00  0.00000000000E+00  0.52048707832E+02  0.52048707832E+02  0.00000000000E+00 0.  1.
          2   -1    0    0  501    0  0.00000000000E+00 -0.00000000000E+00 -0.60117973215E+03  0.60117973215E+03  0.00000000000E+00 0. -1.
         25    2    1    2    0    0  0.10464436181E+03 -0.30689995326E+02 -0.13061788559E+03  0.21119143662E+03  0.12509385514E+03 0.  0.
          5    1    3    3  502    0  0.61486526122E+02  0.17765464905E+02 -0.13134052453E+03  0.14616432678E+03  0.41800000000E+01 0. -1.
         -5    1    3    3    0  502  0.43157835690E+02 -0.48455460231E+02  0.72263893963E+00  0.65027109844E+02  0.41800000000E+01 0. -1.
        -11    1    1    2    0    0 -0.10701047423E+03  0.14660427768E+01 -0.26582722752E+03  0.28656152179E+03  0.00000000000E+00 0. -1.
         11    1    1    2    0    0  0.23661124201E+01  0.29223952549E+02 -0.15268591121E+03  0.15547548158E+03  0.00000000000E+00 0.  1.
</event>
<event>
 7    1  0.2619826E-009  0.1747917E+03  0.7561462E-02  0.1172941E+00
          2   -1    0    0  501    0  0.00000000000E+00  0.00000000000E+00  0.59992540927E+03  0.59992540927E+03  0.00000000000E+00 0. -1.
         -2   -1    0    0    0  501 -0.00000000000E+00 -0.00000000000E+00 -0.59267634131E+02  0.59267634131E+02  0.00000000000E+00 0.  1.
         25    2    1    2    0    0  0.27637268467E+02  0.14976909690E+03  0.25879809163E+03  0.32529652284E+03  0.12508706785E+03 0.  0.
          5    1    3    3  502    0 -0.24861299565E+02  0.84279661259E+02  0.21102919600E+03  0.22863057425E+03  0.41800000000E+01 0.  1.
         -5    1    3    3    0  502  0.52498568031E+02  0.65489435645E+02  0.47768895624E+02  0.96665948584E+02  0.41800000000E+01 0.  1.
        -11    1    1    2    0    0  0.25420142712E+02 -0.10536738876E+03  0.15102124948E+03  0.18589214094E+03  0.00000000000E+00 0.  1.
         11    1    1    2    0    0 -0.53057411179E+02 -0.44401708147E+02  0.13083843404E+03  0.14800437963E+03  0.00000000000E+00 0. -1.
</event>
<event>
 6    1  0.2619826E-009  0.1164068E+03  0.7561462E-02  0.1249145E+00
         -2   -1    0    0    0  501 -0.00000000000E+00  0.00000000000E+00  0.18649025342E+03  0.18649025342E+03  0.00000000000E+00 0. -1.
          2   -1    0    0  501    0  0.00000000000E+00 -0.00000000000E+00 -0.10601409027E+03  0.10601409027E+03  0.00000000000E+00 0.  1.
          5    1    1    2  502    0 -0.24290084765E+02  0.27787181108E+02 -0.21791078347E+01  0.37206942400E+02  0.41800000000E+01 0.  1.
         -5    1    1    2    0  502  0.62637011932E+02 -0.84826160025E+02 -0.76235165195E+01  0.10580388978E+03  0.41800000000E+01 0.  1.
        -11    1    1    2    0    0  0.63139197459E+01  0.42803784704E+02 -0.47557116791E+01  0.43527535665E+02  0.00000000000E+00 0.  1.
         11    1    1    2    0    0 -0.44660846913E+02  0.14235194213E+02  0.95034499189E+02  0.10596597585E+03  0.00000000000E+00 0. -1.
</event>
<event>
 7    1  0.2619826E-009  0.1552796E+03  0.7561462E-02  0.1194132E+00
          2   -1    0    0  501    0  0.00000000000E+00  0.00000000000E+00  0.97292507091E+03  0.97292507091E+03  0.00000000000E+00 0. -1.
         -2   -1    0    0    0  501 -0.00000000000E+00 -0.00000000000E+00 -0.36734433553E+02  0.36734433553E+02  0.00000000000E+00 0.  1.
         25    2    1    2    0    0 -0.13223286984E+03  0.15145208255E+02  0.70555565401E+03  0.72881456935E+03  0.12508791461E+03 0.  0.
          5    1    3    3  502    0 -0.11668681110E+01  0.19513891845E+02  0.12786391936E+02  0.23730102715E+02  0.41800000000E+01 0. -1.
         -5    1    3    3    0  502 -0.13106600173E+03 -0.43686835901E+01  0.69276926208E+03  0.70508446663E+03  0.41800000000E+01 0. -1.
        -11    1    1    2    0    0  0.14141055661E+02 -0.36691185890E+02  0.44781637580E+02  0.59595365940E+02  0.00000000000E+00 0.  1.
         11    1    1    2    0    0  0.11809181418E+03  0.21545977635E+02  0.18585334577E+03  0.22124956918E+03  0.00000000000E+00 0. -1.
</event>
<event>
 7    1  0.2619826E-009  0.1340534E+03  0.7561462E-02  0.1221562E+00
         -2   -1    0    0    0  501 -0.00000000000E+00  0.00000000000E+00  0.29871216674E+03  0.29871216674E+03  0.00000000000E+00 0.  1.
          2   -1    0    0  501    0  0.00000000000E+00 -0.00000000000E+00 -0.75640401309E+02  0.75640401309E+02  0.00000000000E+00 0. -1.
         25    2    1    2    0    0 -0.16961013065E+02  0.95172942498E+02  0.16493260940E+03  0.22846377988E+03  0.12508944050E+03 0.  0.
          5    1    3    3  502    0  0.26227567467E+02  0.86009520898E+02  0.16033873794E+03  0.18387905336E+03  0.41800000000E+01 0.  1.
         -5    1    3    3    0  502 -0.43188580531E+02  0.91634215992E+01  0.45938714619E+01  0.44584726518E+02  0.41800000000E+01 0.  1.
        -11    1    1    2    0    0 -0.33505490825E+02 -0.69425440612E+02  0.35678057128E+02  0.84943707713E+02  0.00000000000E+00 0. -1.
         11    1    1    2    0    0  0.50466503890E+02 -0.25747501886E+02  0.22461098901E+02  0.60945080458E+02  0.00000000000E+00 0.  1.
</event>
<event>
 7    1  0.2619826E-009  0.1672752E+03  0.7561462E-02  0.1180720E+00
          2   -1    0    0  501    0  0.00000000000E+00  0.00000000000E+00  0.11496289594E+03  0.11496289594E+03  0.00000000000E+00 0. -1.
         -2   -1    0    0    0  501 -0.00000000000E+00 -0.00000000000E+00 -0.27150105396E+03  0.27150105396E+03  0.00000000000E+00 0.  1.
         25    2    1    2    0    0  0.94382814609E+01  0.12754845265E+03 -0.14254443203E+03  0.22872462641E+03  0.12505339137E+03 0.  0.
          5    1    3    3  502    0  0.25847717344E+01 -0.25135465166E+02 -0.25813213712E+02  0.36362990199E+02  0.41800000000E+01 0. -1.
         -5    1    3    3    0  502  0.68535097265E+01  0.15268391781E+03 -0.11673121832E+03  0.19236163621E+03  0.41800000000E+01 0. -1.
        -11    1    1    2    0    0 -0.47314406995E+02 -0.45346953433E+02 -0.14977982090E+02  0.67226030988E+02  0.00000000000E+00 0.  1.
         11    1    1    2    0    0  0.37876125534E+02 -0.82201499215E+02  0.98425609748E+00  0.90513292498E+02  0.00000000000E+00 0. -1.
</event>
<event>
 7    1  0.2619826E-009  0.7712575E+02  0.7561462E-02  0.1337412E+00
         -2   -1    0    0    0  501 -0.00000000000E+00  0.00000000000E+00  0.24532599706E+03  0.24532599706E+03  0.00000000000E+00 0. -1.
          2   -1    0    0  501    0  0.00000000000E+00 -0.00000000000E+00 -0.55268344966E+02  0.55268344966E+02  0.00000000000E+00 0.  1.
         25    2    1    2    0    0  0.11923981908E+02  0.22343051722E+02  0.63401467497E+02  0.14250851633E+03  0.12509011887E+03 0.  0.
          5    1    3    3  502    0 -0.98375193633E+01  0.33446967039E+02 -0.29808322991E+02  0.46059580012E+02  0.41800000000E+01 0. -1.
         -5    1    3    3    0  502  0.21761501272E+02 -0.11103915317E+02  0.93209790488E+02  0.96448936313E+02  0.41800000000E+01 0. -1.
        -11    1    1    2    0    0 -0.46689778972E+02  0.89935639207E+01  0.69550529325E+02  0.84250197518E+02  0.00000000000E+00 0.  1.
         11    1    1    2    0    0  0.34765797063E+02 -0.31336615643E+02  0.57105655277E+02  0.73835628188E+02  0.00000000000E+00 0. -1.
</event>
<event>
 7    1  0.2619826E-009  0.8467426E+02  0.7561462E-02  0.1316287E+00
         -2   -1    0    0    0  501 -0.00000000000E+00  0.00000000000E+00  0.34402813277E+03  0.34402813277E+03  0.00000000000E+00 0.  1.
          2   -1    0    0  501    0  0.00000000000E+00 -0.00000000000E+00 -0.47675974709E+02  0.47675974709E+02  0.00000000000E+00 0. -1.
         25    2    1    2    0    0 -0.16339579503E+01  0.10575330975E+02  0.60891145983E+02  0.13954374900E+03  0.12510083446E+03 0.  0.
          5    1    3    3  502    0 -0.92893492925E+01  0.46018410456E+02  0.84016623709E+02  0.96334062359E+02  0.41800000000E+01 0.  1.
         -5    1    3    3    0  502  0.76553913422E+01 -0.35443079481E+02 -0.23125477726E+02  0.43209686643E+02  0.41800000000E+01 0.  1.
        -11    1    1    2    0    0 -0.19821498874E+02  0.32228189332E+02  0.66113762802E+02  0.76174652195E+02  0.00000000000E+00 0. -1.
         11    1    1    2    0    0  0.21455456824E+02 -0.42803520307E+02  0.16934724928E+03  0.17598570628E+03  0.00000000000E+00 0.  1.
</event>
<event>
 7    1  0.2619826E-009  0.1407506E+03  0.7561462E-02  0.1212323E+00
          2   -1    0    0  501    0  0.00000000000E+00  0.00000000000E+00  0.41481987766E+03  0.41481987766E+03  0.00000000000E+00 0.  1.
         -2   -1    0    0    0  501 -0.00000000000E+00 -0.00000000000E+00 -0.61804938041E+02  0.61804938041E+02  0.00000000000E+00 0. -1.
         25    2    1    2    0    0 -0.60922351710E+02 -0.67450602389E+02  0.77806791959E+02  0.17309755935E+03  0.12509097280E+03 0.  0.
          5    1    3    3  502    0 -0.62176722007E+02  0.21154864272E+02  0.36255327719E+02  0.75135838519E+02  0.41800000000E+01 0.  1.
         -5    1    3    3    0  502  0.12543702968E+01 -0.88605466661E+02  0.41551464240E+02  0.97961720828E+02  0.41800000000E+01 0.  1.
        -11    1    1    2    0    0  0.35779087517E+02  0.87685369794E+02  0.18728911454E+03  0.20987157884E+03  0.00000000000E+00 0. -1.
         11    1    1    2    0    0  0.25143264193E+02 -0.20234767405E+02  0.87919033120E+02  0.93655677516E+02  0.00000000000E+00 0.  1.
</event>
<event>
 7    1  0.2619826E-009  0.9095631E+02  0.7561462E-02  0.1300552E+00
          2   -1    0    0  501    0  0.00000000000E+00  0.00000000000E+00  0.38354329489E+03  0.38354329489E+03  0.00000000000E+00 0. -1.
         -2   -1    0    0    0  501 -0.00000000000E+00 -0.00000000000E+00 -0.35314399974E+02  0.35314399974E+02  0.00000000000E+00 0.  1.
         25    2    1    2    0    0  0.10910735910E+01  0.40463933371E+02  0.22685582029E+03  0.26220437603E+03  0.12509616807E+03 0.  0.
          5    1    3    3  502    0 -0.18957984398E+02  0.76010236353E+02  0.19523825204E+03  0.21041009639E+03  0.41800000000E+01 0.  1.
         -5    1    3    3    0  502  0.20049057989E+02 -0.35546302982E+02  0.31617568249E+02  0.51794279645E+02  0.41800000000E+01 0.  1.
        -11    1    1    2    0    0 -0.22365866575E+02 -0.82617031653E+01 -0.51342863265E+01  0.24389518710E+02  0.00000000000E+00 0.  1.
         11    1    1    2    0    0  0.21274792984E+02 -0.32202230205E+02  0.12650736095E+03  0.13226380011E+03  0.00000000000E+00 0. -1.
</event>
<event>
 7    1  0.2619826E-009  0.7223366E+02  0.7561462E-02  0.1352658E+00
          1   -1    0    0  501    0  0.00000000000E+00  0.00000000000E+00  0.35227969046E+02  0.35227969046E+02  0.00000000000E+00 0. -1.
         -1   -1    0    0    0  501 -0.00000000000E+00 -0.00000000000E+00 -0.43818189085E+03  0.43818189085E+03  0.00000000000E+00 0.  1.
         25    2    1    2    0    0  0.20032025048E+02  0.22891308277E+02 -0.31489488255E+03  0.34019965748E+03  0.12510685780E+03 0.  0.
          5    1    3    3  502    0  0.32592379364E+02  0.26078066071E+02 -0.22719519697E+02  0.47707208028E+02  0.41800000000E+01 0.  1.
         -5    1    3    3    0  502 -0.12560354315E+02 -0.31867577940E+01 -0.29217536286E+03  0.29249244945E+03  0.41800000000E+01 0.  1.
        -11    1    1    2    0    0 -0.52596092800E+02 -0.19766980511E+02 -0.82817907818E+02  0.10007941023E+03  0.00000000000E+00 0.  1.
         11    1    1    2    0    0  0.32564067751E+02 -0.31243277664E+01 -0.52411314358E+01  0.33130792191E+02  0.00000000000E+00 0. -1.
</event>
<event>
 7    1  0.2619826E-009  0.1311397E+03  0.7561462E-02  0.1225774E+00
         -2   -1    0    0    0  501 -0.00000000000E+00  0.00000000000E+00  0.60727461330E+02  0.60727461330E+02  0.00000000000E+00 0.  1.
          2   -1    0    0  501    0  0.00000000000E+00 -0.00000000000E+00 -0.29817159274E+03  0.29817159274E+03  0.00000000000E+00 0. -1.
         25    2    1    2    0    0  0.76259454401E+02 -0.97898031786E+01 -0.13976465845E+03  0.20271355323E+03  0.12508908938E+03 0.  0.
          5    1    3    3  502    0  0.59286580120E+02 -0.61874961677E+02 -0.55708796198E+02  0.10229541455E+03  0.41800000000E+01 0. -1.
         -5    1    3    3    0  502  0.16972874280E+02  0.52085158498E+02 -0.84055862250E+02  0.10041813868E+03  0.41800000000E+01 0. -1.
        -11    1    1    2    0    0 -0.28099374344E+01 -0.35264967344E+02 -0.33741507203E+02  0.48887656709E+02  0.00000000000E+00 0.  1.
         11    1    1    2    0    0 -0.73449516967E+02  0.45054770523E+02 -0.63937965759E+02  0.10729784413E+03  0.00000000000E+00 0. -1.
</event>
<event>
 7    1  0.2619826E-009  0.8024974E+02  0.7561462E-02  0.1328344E+00
          1   -1    0    0  501    0  0.00000000000E+00  0.00000000000E+00  0.43389288555E+02  0.43389288555E+02  0.00000000000E+00 0. -1.
         -1   -1    0    0    0  501 -0.00000000000E+00 -0.00000000000E+00 -0.38104637362E+03  0.38104637362E+03  0.00000000000E+00 0.  1.
         25    2    1    2    0    0 -0.40323705959E+02 -0.21720821661E+02 -0.27055536401E+03  0.30157184464E+03  0.12509027591E+03 0.  0.
          5    1    3    3  502    0  0.16532528614E+02  0.16865342502E+02 -0.20537118781E+03  0.20676692545E+03  0.41800000000E+01 0. -1.
         -5    1    3    3    0  502 -0.56856234573E+02 -0.38586164162E+02 -0.65184176206E+02  0.94804919188E+02  0.41800000000E+01 0. -1.
        -11    1    1    2    0    0  0.22621207867E+02  0.37609145475E+02  0.75332394113E+01  0.44529951322E+02  0.00000000000E+00 0. -1.
         11    1    1    2    0    0  0.17702498092E+02 -0.15888323814E+02 -0.74634960461E+02  0.78333866210E+02  0.00000000000E+00 0.  1.
</event>
<event>
 7    1  0.2619826E-009  0.1089928E+03  0.7561462E-02  0.1262446E+00
          1   -1    0    0  501    0  0.00000000000E+00  0.00000000000E+00  0.69800961523E+03  0.69800961523E+03  0.00000000000E+00 0. -1.
         -1   -1    0    0    0  501 -0.00000000000E+00 -0.00000000000E+00 -0.20466805500E+02  0.20466805500E+02  0.00000000000E+00 0.  1.
         25    2    1    2    0    0 -0.32285181932E+02 -0.48685636934E+01  0.26456365136E+03  0.29445076354E+03  0.12506514559E+03 0.  0.
          5    1    3    3  502    0 -0.17984917813E+02  0.57649977002E+02  0.16688603627E+03  0.17752576888E+03  0.41800000000E+01 0. -1.
         -5    1    3    3    0  502 -0.14300264119E+02 -0.62518540696E+02  0.97677615097E+02  0.11692499466E+03  0.41800000000E+01 0. -1.
        -11    1    1    2    0    0  0.54533058810E+02 -0.21555731953E+02  0.30728777273E+03  0.31283266989E+03  0.00000000000E+00 0. -1.
         11    1    1    2    0    0 -0.22247876877E+02  0.26424295647E+02  0.10569138563E+03  0.11119298729E+03  0.00000000000E+00 0.  1.
</event>
<event>
 7    1  0.2619826E-009  0.1280597E+03  0.7561462E-02  0.1230363E+00
         -1   -1    0    0    0  501 -0.00000000000E+00  0.00000000000E+00  0.97250975500E+02  0.97250975500E+02  0.00000000000E+00 0.  1.
          1   -1    0    0  501    0  0.00000000000E+00 -0.00000000000E+00 -0.20537131897E+03  0.20537131897E+03  0.00000000000E+00 0. -1.
         25    2    1    2    0    0 -0.78944369162E+02  0.18260213743E+02 -0.14720417069E+02  0.14976913405E+03  0.12509378085E+03 0.  0.
          5    1    3    3  502    0  0.21804770441E+02 -0.28043025101E+02 -0.15062232065E+02  0.38809824859E+02  0.41800000000E+01 0.  1.
         -5    1    3    3    0  502 -0.10074913960E+03  0.46303238844E+02  0.34181499647E+00  0.11095930919E+03  0.41800000000E+01 0.  1.
        -11    1    1    2    0    0  0.53300676097E+02 -0.46866751756E+02 -0.89516547045E+02  0.11423951456E+03  0.00000000000E+00 0. -1.
         11    1    1    2    0    0  0.25643693065E+02  0.28606538013E+02 -0.38833793529E+01  0.38613645856E+02  0.00000000000E+00 0.  1.
</event>
<event>
 7    1  0.2741225E-009  0.9096082E+02  0.7561462E-02  0.1300541E+00
          2   -1    0    0  501    0  0.00000000000E+00  0.00000000000E+00  0.11417447632E+03  0.11417447632E+03  0.00000000000E+00 0. -1.
         -2   -1    0    0    0  501 -0.00000000000E+00 -0.00000000000E+00 -0.17772860163E+03  0.17772860163E+03  0.00000000000E+00 0.  1.
         25    2    1    2    0    0  0.77246763571E+01 -0.39627486431E+02 -0.11907648609E+03  0.17735692496E+03  0.12508501503E+03 0.  0.
          5    1    3    3  502    0 -0.30613294265E+02 -0.64767533765E+02 -0.10856262822E+03  0.13013579009E+03  0.41800000000E+01 0. -1.
         -5    1    3    3    0  502  0.38337970622E+02  0.25140047334E+02 -0.10513857877E+02  0.47221134874E+02  0.41800000000E+01 0. -1.
        -11    1    1    2    0    0  0.21345119125E+02  0.16544254318E+02  0.69747936646E+02  0.74793723852E+02  0.00000000000E+00 0. -1.
         11    1    1    2    0    0 -0.29069795482E+02  0.23083232113E+02 -0.14225575858E+02  0.39752429141E+02  0.00000000000E+00 0.  1.
</event>
<event>
 7    1  0.2619826E-009  0.8519158E+02  0.7561462E-02  0.1314932E+00
         -1   -1    0    0    0  501 -0.00000000000E+00  0.00000000000E+00  0.29583971865E+02  0.29583971865E+02  0.00000000000E+00 0.  1.
          1   -1    0    0  501    0  0.00000000000E+00 -0.00000000000E+00 -0.45476925966E+03  0.45476925966E+03  0.00000000000E+00 0. -1.
         25    2    1    2    0    0 -0.36474606681E+01  0.40448747745E+02 -0.23868537764E+03  0.27251867633E+03  0.12508522809E+03 0.  0.
          5    1    3    3  502    0  0.38554664622E+02  0.14889762218E+02 -0.16196605224E+02  0.44586652754E+02  0.41800000000E+01 0. -1.
         -5    1    3    3    0  502 -0.42202125290E+02  0.25558985527E+02 -0.22248877242E+03  0.22793202358E+03  0.41800000000E+01 0. -1.
        -11    1    1    2    0    0  0.60132268478E+01  0.18950069610E+02 -0.45162197964E+01  0.20387748199E+02  0.00000000000E+00 0.  1.
         11    1    1    2    0    0 -0.23657661796E+01 -0.59398817355E+02 -0.18198369036E+03  0.19144680700E+03  0.00000000000E+00 0. -1.
</event>
<event>
 7    1  0.2991352E-009  0.1036586E+03  0.7561462E-02  0.1272785E+00
         -1   -1    0    0    0  501 -0.00000000000E+00  0.00000000000E+00  0.33921024534E+02  0.33921024534E+02  0.00000000000E+00 0.  1.
          1   -1    0    0  501    0  0.00000000000E+00 -0.00000000000E+00 -0.44040273940E+03  0.44040273940E+03  0.00000000000E+00 0. -1.
         25    2    1    2    0    0 -0.11343810232E+02 -0.31398030453E+02 -0.14027363532E+03  0.19088834140E+03  0.12508855971E+03 0.  0.
          5    1    3    3  502    0  0.19724733648E+02 -0.67660858479E+02 -0.43588152885E+02  0.82972624157E+02  0.41800000000E+01 0.  1.
         -5    1    3    3    0  502 -0.31068543880E+02  0.36262828026E+02 -0.96685482434E+02  0.10791571725E+03  0.41800000000E+01 0.  1.
        -11    1    1    2    0    0 -0.35640491312E+02  0.91525539633E+01 -0.17145267122E+03  0.17535687136E+03  0.00000000000E+00 0. -1.
         11    1    1    2    0    0  0.46984301544E+02  0.22245476490E+02 -0.94755408327E+02  0.10807855117E+03  0.00000000000E+00 0.  1.
</event>
<event>
 7    1  0.2619826E-009  0.1014665E+03  0.7561462E-02  0.1277242E+00
          1   -1    0    0  501    0  0.00000000000E+00  0.00000000000E+00  0.46168292585E+02  0.46168292585E+02  0.00000000000E+00 0. -1.
         -1   -1    0    0    0  501 -0.00000000000E+00 -0.00000000000E+00 -0.30544504913E+03  0.30544504913E+03  0.00000000000E+00 0.  1.
         25    2    1    2    0    0 -0.10409142787E+02  0.24073215287E+02 -0.87359722240E+02  0.15481149314E+03  0.12508799859E+03 0.  0.
          5    1    3    3  502    0 -0.15539585570E+02 -0.49693138716E+02 -0.24612244468E+02  0.57741854256E+02  0.41800000000E+01 0. -1.
         -5    1    3    3    0  502  0.51304427831E+01  0.73766354003E+02 -0.62747477773E+02  0.97069638883E+02  0.41800000000E+01 0. -1.
        -11    1    1    2    0    0 -0.23932747844E+02  0.12049389244E+02 -0.12671058400E+03  0.12951268779E+03  0.00000000000E+00 0.  1.
         11    1    1    2    0    0  0.34341890631E+02 -0.36122604531E+02 -0.45206450302E+02  0.67289160785E+02  0.00000000000E+00 0. -1.
</event>
<event>
 6    1  0.2619826E-009  0.1073566E+03  0.7561462E-02  0.1265545E+00
          1   -1    0    0  501    0  0.00000000000E+00  0.00000000000E+00  0.26011810811E+03  0.26011810811E+03  0.00000000000E+00 0. -1.
         -1   -1    0    0    0  501 -0.00000000000E+00 -0.00000000000E+00 -0.50884259348E+02  0.50884259348E+02  0.00000000000E+00 0.  1.
          5    1    1    2  502    0 -0.47464044637E+02 -0.57050072269E+02  0.26983140032E+02  0.79076599100E+02  0.41800000000E+01 0. -1.
         -5    1    1    2    0  502  0.30703807344E+02  0.35884412848E+02  0.55960774380E+02  0.73345044414E+02  0.41800000000E+01 0. -1.
        -11    1    1    2    0    0  0.53223365278E+02  0.18743479787E+02  0.94890052244E+02  0.11040003017E+03  0.00000000000E+00 0. -1.
         11    1    1    2    0    0 -0.36463127985E+02  0.24221796339E+01  0.31399882110E+02  0.48180693780E+02  0.00000000000E+00 0.  1.
</event>
<event>
 7    1  0.2619826E-009  0.1193147E+03  0.7561462E-02  0.1244232E+00
         -2   -1    0    0    0  501 -0.00000000000E+00  0.00000000000E+00  0.14403654029E+03  0.14403654029E+03  0.00000000000E+00 0. -1.
          2   -1    0    0  501    0  0.00000000000E+00 -0.00000000000E+00 -0.31248297201E+03  0.31248297201E+03  0.00000000000E+00 0.  1.
         25    2    1    2    0    0 -0.70502897456E+02  0.39552926915E+02 -0.26369099086E+03  0.30284669853E+03  0.12509233217E+03 0.  0.
          5    1    3    3  502    0 -0.40898834406E+02  0.71848773934E+02 -0.23777594232E+03  0.25177337452E+03  0.41800000000E+01 0. -1.
         -5    1    3    3    0  502 -0.29604063049E+02 -0.32295847019E+02 -0.25915048542E+02  0.51073324002E+02  0.41800000000E+01 0. -1.
        -11    1    1    2    0    0  0.33757923706E+02 -0.60691553286E+02  0.29517141441E+02  0.75460742721E+02  0.00000000000E+00 0.  1.
         11    1    1    2    0    0  0.36744973749E+02  0.21138626370E+02  0.65727417704E+02  0.78212071054E+02  0.00000000000E+00 0. -1.
</event>
<event>
 7    1  0.2619826E-009  0.1092578E+03  0.7561462E-02  0.1261950E+00
          1   -1    0    0  501    0  0.00000000000E+00  0.00000000000E+00  0.14622407644E+03  0.14622407644E+03  0.00000000000E+00 0. -1.
         -1   -1    0    0    0  501 -0.00000000000E+00 -0.00000000000E+00 -0.94842636131E+02  0.94842636131E+02  0.00000000000E+00 0.  1.
         25    2    1    2    0    0 -0.29995245075E+01  0.40032865885E+02  0.73543040745E+02  0.15055851476E+03  0.12509060727E+03 0.  0.
          5    1    3    3  502    0  0.60794947531E+02  0.16843080966E+02  0.38957036127E+02  0.74261955843E+02  0.41800000000E+01 0.  1.
         -5    1    3    3    0  502 -0.63794472039E+02  0.23189784919E+02  0.34586004617E+02  0.76296558918E+02  0.41800000000E+01 0.  1.
        -11    1    1    2    0    0  0.35834724904E+02 -0.42558738156E+00 -0.13712637946E+02  0.38371148966E+02  0.00000000000E+00 0. -1.
         11    1    1    2    0    0 -0.32835200396E+02 -0.39607278504E+02 -0.84489624865E+01  0.52137048849E+02  0.00000000000E+00 0.  1.
</event>
<event>
 7    1  0.2619826E-009  0.1207944E+03  0.7561462E-02  0.1241792E+00
         -2   -1    0    0    0  501 -0.00000000000E+00  0.00000000000E+00  0.16536158781E+03  0.16536158781E+03  0.00000000000E+00 0.  1.
          2   -1    0    0  501    0  0.00000000000E+00 -0.00000000000E+00 -0.13426014060E+03  0.13426014060E+03  0.00000000000E+00 0. -1.
         25    2    1    2    0    0  0.10092395442E+03  0.82680758094E+01  0.32516424674E+02  0.16419564392E+03  0.12509550734E+03 0.  0.
          5    1    3    3  502    0  0.85131797818E+02  0.40496812333E+02 -0.23766662847E+02  0.97312596676E+02  0.41800000000E+01 0. -1.
         -5    1    3    3    0  502  0.15792156599E+02 -0.32228736523E+02  0.56283087521E+02  0.66883047245E+02  0.41800000000E+01 0. -1.
        -11    1    1    2    0    0 -0.12412929878E+01 -0.11293991582E+02  0.29013344690E+02  0.31158774435E+02  0.00000000000E+00 0.  1.
         11    1    1    2    0    0 -0.99682661429E+02  0.30259157729E+01 -0.30428322153E+02  0.10426731005E+03  0.00000000000E+00 0. -1.
</event>
<event>
 7    1  0.2619826E-009  0.1730739E+03  0.7561462E-02  0.1174680E+00
          1   -1    0    0  501    0  0.00000000000E+00  0.00000000000E+00  0.51234328349E+03  0.51234328349E+03  0.00000000000E+00 0. -1.
         -1   -1    0    0    0  501 -0.00000000000E+00 -0.00000000000E+00 -0.69708203188E+02  0.69708203188E+02  0.00000000000E+00 0.  1.
         25    2    1    2    0    0  0.14248442406E+03 -0.57605783300E+02  0.26215070320E+03  0.32861911561E+03  0.12508914657E+03 0.  0.
          5    1    3    3  502    0  0.12112322297E+03 -0.82252967770E+02  0.14183064742E+03  0.20388671069E+03  0.41800000000E+01 0.  1.
         -5    1    3    3    0  502  0.21361201089E+02  0.24647184470E+02  0.12032005578E+03  0.12473240492E+03  0.41800000000E+01 0.  1.
        -11    1    1    2    0    0 -0.11159135703E+03  0.71905560762E+02  0.17386747346E+03  0.21875314617E+03  0.00000000000E+00 0. -1.
         11    1    1    2    0    0 -0.30893067025E+02 -0.14299777462E+02  0.66169036446E+01  0.34679224898E+02  0.00000000000E+00 0.  1.
</event>
<event>
 7    1  0.2619826E-009  0.1980221E+03  0.7561462E-02  0.1151419E+00
          2   -1    0    0  501    0  0.00000000000E+00  0.00000000000E+00  0.13856372674E+04  0.13856372674E+04  0.00000000000E+00 0. -1.
         -2   -1    0    0    0  501 -0.00000000000E+00 -0.00000000000E+00 -0.44689189011E+02  0.44689189011E+02  0.00000000000E+00 0.  1.
         25    2    1    2    0    0  0.18248896589E+03 -0.52204404767E+02  0.10287658649E+04  0.10535825758E+04  0.12509802790E+03 0.  0.
          5    1    3    3  502    0  0.70403883570E+02 -0.35360245196E+02  0.17066986520E+03  0.18802321413E+03  0.41800000000E+01 0. -1.
         -5    1    3    3    0  502  0.11208508232E+03 -0.16844159570E+02  0.85809599971E+03  0.86555936163E+03  0.41800000000E+01 0. -1.
        -11    1    1    2    0    0 -0.61115357044E+02  0.55147633488E+02  0.80284112012E+02  0.11498646437E+03  0.00000000000E+00 0.  1.
         11    1    1    2    0    0 -0.12137360884E+03 -0.29432287218E+01  0.23189810147E+03  0.26175741629E+03  0.00000000000E+00 0. -1.
</event>
<event>
 7    1  0.2619826E-009  0.1064594E+03  0.7561462E-02  0.1267271E+00
          1   -1    0    0  501    0  0.00000000000E+00  0.00000000000E+00  0.59751451856E+03  0.59751451856E+03  0.00000000000E+00 0. -1.
         -1   -1    0    0    0  501 -0.00000000000E+00 -0.00000000000E+00 -0.52404571754E+02  0.52404571754E+02  0.00000000000E+00 0.  1.
         25    2    1    2    0    0 -0.95409855017E+01 -0.67825109012E+02  0.51060015799E+03  0.53014191518E+03  0.12508658233E+03 0.  0.
          5    1    3    3  502    0  0.30249179671E+02 -0.44071624386E+02  0.75727242600E+02  0.92786898960E+02  0.41800000000E+01 0.  1.
         -5    1    3    3    0  502 -0.39790165173E+02 -0.23753484626E+02  0.43487291539E+03  0.43735501622E+03  0.41800000000E+01 0.  1.
        -11    1    1    2    0    0 -0.12036411063E+02 -0.19448151671E+02 -0.15268421788E+01  0.22922413523E+02  0.00000000000E+00 0.  1.
         11    1    1    2    0    0  0.21577396564E+02  0.87273260683E+02  0.36036630996E+02  0.96854761608E+02  0.00000000000E+00 0. -1.
</event>
<event>
 7    1  0.2619826E-009  0.1039158E+03  0.7561462E-02  0.1272271E+00
          2   -1    0    0  501    0  0.00000000000E+00  0.00000000000E+00  0.35753726814E+02  0.35753726814E+02  0.00000000000E+00 0. -1.
         -2   -1    0    0    0  501 -0.00000000000E+00 -0.00000000000E+00 -0.35270122579E+03  0.35270122579E+03  0.00000000000E+00 0.  1.
         25    2    1    2    0    0  0.17566090262E+02 -0.38014774585E+01 -0.14806792999E+03  0.19466236164E+03  0.12508518854E+03 0.  0.
          5    1    3    3  502    0 -0.50102982554E+02  0.32579450234E+00 -0.30276872612E+02  0.58690513867E+02  0.41800000000E+01 0. -1.
         -5    1    3    3    0  502  0.67669072815E+02 -0.41272719609E+01 -0.11779105738E+03  0.13597184778E+03  0.41800000000E+01 0. -1.
        -11    1    1    2    0    0 -0.12978224157E+02  0.45686616507E+02 -0.12114083413E+03  0.13011841885E+03  0.00000000000E+00 0.  1.
         11    1    1    2    0    0 -0.45878661051E+01 -0.41885139048E+02 -0.47738734857E+02  0.63674172113E+02  0.00000000000E+00 0. -1.
</event>
<event>
 7    1  0.2619826E-009  0.9437801E+02  0.7561462E-02  0.1292583E+00
         -1   -1    0    0    0  501 -0.00000000000E+00  0.00000000000E+00  0.28480523851E+02  0.28480523851E+02  0.00000000000E+00 0.  1.
          1   -1    0    0  501    0  0.00000000000E+00 -0.00000000000E+00 -0.54495540722E+03  0.54495540722E+03  0.00000000000E+00 0. -1.
         25    2    1    2    0    0  0.31090478046E+02  0.42837519729E+02 -0.36388472147E+03  0.38840810916E+03  0.12508836006E+03 0.  0.
          5    1    3    3  502    0  0.68824302834E+02  0.47995666585E+02 -0.31656213972E+03  0.32752012056E+03  0.41800000000E+01 0. -1.
         -5    1    3    3    0  502 -0.37733824788E+02 -0.51581468558E+01 -0.47322581755E+02  0.60887988602E+02  0.41800000000E+01 0. -1.
        -11    1    1    2    0    0 -0.34952447421E+02 -0.14514196928E+02 -0.93781691576E+01  0.38990839308E+02  0.00000000000E+00 0.  1.
         11    1    1    2    0    0  0.38619693748E+01 -0.28323322801E+02 -0.14321199275E+03  0.14603698260E+03  0.00000000000E+00 0. -1.
</event>
<event>
 7    1  0.2619826E-009  0.1015640E+03  0.7561462E-02  0.1277041E+00
         -2   -1    0    0    0  501 -0.00000000000E+00  0.00000000000E+00  0.41022921691E+03  0.41022921691E+03  0.00000000000E+00 0.  1.
          2   -1    0    0  501    0  0.00000000000E+00 -0.00000000000E+00 -0.29417281111E+02  0.29417281111E+02  0.00000000000E+00 0. -1.
         25    2    1    2    0    0 -0.10410646683E+02  0.19746316183E+02  0.20836248215E+03  0.24404918988E+03  0.12508710784E+03 0.  0.
          5    1    3    3  502    0  0.53100294291E+02  0.28242843262E+02  0.76663396491E+02  0.97529729882E+02  0.41800000000E+01 0.  1.
         -5    1    3    3    0  502 -0.63510940973E+02 -0.84965270798E+01  0.13169908566E+03  0.14651946000E+03  0.41800000000E+01 0.  1.
        -11    1    1    2    0    0 -0.26344047601E+02  0.13020510162E+02  0.12045330497E+03  0.12398605247E+03  0.00000000000E+00 0.  1.
         11    1    1    2    0    0  0.36754694284E+02 -0.32766826345E+02  0.51996148674E+02  0.71611255662E+02  0.00000000000E+00 0. -1.
</event>
<event>
 7    1  0.2619826E-009  0.1357854E+03  0.7561462E-02  0.1219115E+00
         -2   -1    0    0    0  501 -0.00000000000E+00  0.00000000000E+00  0.64588051017E+02  0.64588051017E+02  0.00000000000E+00 0.  1.
          2   -1    0    0  501    0  0.00000000000E+00 -0.00000000000E+00 -0.32212908076E+03  0.32212908076E+03  0.00000000000E+00 0. -1.
         25    2    1    2    0    0 -0.12983056495E+02 -0.92395578380E+02 -0.17560222700E+03  0.23492359215E+03  0.12508976522E+03 0.  0.
          5    1    3    3  502    0 -0.81827589639E+01  0.27791162942E+02 -0.11572256739E+02  0.31475320618E+02  0.41800000000E+01 0.  1.
         -5    1    3    3    0  502 -0.48002975313E+01 -0.12018674132E+03 -0.16402997026E+03  0.20344827153E+03  0.41800000000E+01 0.  1.
        -11    1    1    2    0    0 -0.32659197486E+02  0.28027211714E+02 -0.82340825096E+01  0.43817209994E+02  0.00000000000E+00 0.  1.
         11    1    1    2    0    0  0.45642253981E+02  0.64368366666E+02 -0.73704720230E+02  0.10797632963E+03  0.00000000000E+00 0. -1.
</event>
<event>
 7    1  0.2619826E-009  0.1125559E+03  0.7561462E-02  0.1255909E+00
          1   -1    0    0  501    0  0.00000000000E+00  0.00000000000E+00  0.46844943595E+03  0.46844943595E+03  0.00000000000E+00 0. -1.
         -1   -1    0    0    0  501 -0.00000000000E+00 -0.00000000000E+00 -0.40006923158E+02  0.40006923158E+02  0.00000000000E+00 0.  1.
         25    2    1    2    0    0  0.76593177643E+02 -0.14647523365E+02  0.28613080349E+03  0.32186956331E+03  0.12509242294E+03 0.  0.
          5    1    3    3  502    0 -0.18956260322E+01  0.32210717558E+02  0.15217179460E+02  0.35918778854E+02  0.41800000000E+01 0. -1.
         -5    1    3    3    0  502  0.78488803675E+02 -0.46858240923E+02  0.27091362403E+03  0.28595078446E+03  0.41800000000E+01 0. -1.
        -11    1    1    2    0    0 -0.88164334694E+02  0.15284406563E+02  0.14855610838E+03  0.17342283683E+03  0.00000000000E+00 0. -1.
         11    1    1    2    0    0  0.11571157051E+02 -0.63688319814E+00 -0.62443990865E+01  0.13163958966E+02  0.00000000000E+00 0.  1.
</event>
<event>
 7    1  0.2619826E-009  0.1091941E+03  0.7561462E-02  0.1262070E+00
          1   -1    0    0  501    0  0.00000000000E+00  0.00000000000E+00  0.15624019919E+03  0.15624019919E+03  0.00000000000E+00 0. -1.
         -1   -1    0    0    0  501 -0.00000000000E+00 -0.00000000000E+00 -0.14645633872E+03  0.14645633872E+03  0.00000000000E+00 0.  1.
         25    2    1    2    0    0 -0.50492878644E+02 -0.43446420879E+02  0.86034496218E+02  0.16579099159E+03  0.12509035163E+03 0.  0.
          5    1    3    3  502    0 -0.38689380370E+02  0.40894376678E+02  0.33623015074E+02  0.65705385928E+02  0.41800000000E+01 0.  1.
         -5    1    3    3    0  502 -0.11803498274E+02 -0.84340797557E+02  0.52411481144E+02  0.10008560566E+03  0.41800000000E+01 0.  1.
        -11    1    1    2    0    0 -0.53515589232E+01  0.10625492263E+02 -0.70920557782E+02  0.71911513577E+02  0.00000000000E+00 0.  1.
         11    1    1    2    0    0  0.55844437567E+02  0.32820928616E+02 -0.53300779689E+01  0.64994032753E+02  0.00000000000E+00 0. -1.
</event>
<event>
 7    1  0.2619826E-009  0.8453981E+02  0.7561462E-02  0.1316640E+00
          1   -1    0    0  501    0  0.00000000000E+00  0.00000000000E+00  0.96036379012E+02  0.96036379012E+02  0.00000000000E+00 0. -1.
         -1   -1    0    0    0  501 -0.00000000000E+00 -0.00000000000E+00 -0.13169166300E+03  0.13169166300E+03  0.00000000000E+00 0.  1.
         25    2    1    2    0    0 -0.75646039333E+01  0.25766345189E+02 -0.18634700623E+02  0.12928976875E+03  0.12508982556E+03 0.  0.
          5    1    3    3  502    0 -0.13751925133E+02 -0.23640806654E+02  0.42264232584E+02  0.50514759625E+02  0.41800000000E+01 0. -1.
         -5    1    3    3    0  502  0.61873211996E+01  0.49407151843E+02 -0.60898933207E+02  0.78775009125E+02  0.41800000000E+01 0. -1.
        -11    1    1    2    0    0 -0.16051135985E+02  0.28249723058E+02  0.94174664216E+01  0.33828604657E+02  0.00000000000E+00 0. -1.
         11    1    1    2    0    0  0.23615739918E+02 -0.54016068246E+02 -0.26438049785E+02  0.64609668604E+02  0.00000000000E+00 0.  1.
</event>
<event>
 7    1  0.2619826E-009  0.8364046E+02  0.7561462E-02  0.1319027E+00
         -2   -1    0    0    0  501 -0.00000000000E+00  0.00000000000E+00  0.48692168458E+02  0.48692168458E+02  0.00000000000E+00 0.  1.
          2   -1    0    0  501    0  0.00000000000E+00 -0.00000000000E+00 -0.37232475308E+03  0.37232475308E+03  0.00000000000E+00 0. -1.
         25    2    1    2    0    0 -0.12378850510E+01  0.78455587262E+02 -0.18666476560E+03  0.23800851477E+03  0.12508999502E+03 0.  0.
          5    1    3    3  502    0 -0.10988872745E+02  0.67758547814E+02 -0.20385973719E+03  0.21514702177E+03  0.41800000000E+01 0.  1.
         -5    1    3    3    0  502  0.97509876941E+01  0.10697039448E+02  0.17194971598E+02  0.22861493000E+02  0.41800000000E+01 0.  1.
        -11    1    1    2    0    0  0.14523496586E+02 -0.32311657430E+02  0.24921138058E+01  0.35513177697E+02  0.00000000000E+00 0.  1.
         11    1    1    2    0    0 -0.13285611535E+02 -0.46143929833E+02 -0.13945993283E+03  0.14749522907E+03  0.00000000000E+00 0. -1.
</event>
<event>
 7    1  0.2619826E-009  0.1086426E+03  0.7561462E-02  0.1263104E+00
          1   -1    0    0  501    0  0.00000000000E+00  0.00000000000E+00  0.12450845950E+03  0.12450845950E+03  0.00000000000E+00 0. -1.
         -1   -1    0    0    0  501 -0.00000000000E+00 -0.00000000000E+00 -0.19139889531E+03  0.19139889531E+03  0.00000000000E+00 0.  1.
         25    2    1    2    0    0 -0.55333951827E+02 -0.79234332471E+02  0.25694776295E+02  0.16015321841E+03  0.12509558813E+03 0.  0.
          5    1    3    3  502    0 -0.61633187599E+02 -0.59848083771E+02  0.70200998505E+02  0.11102295049E+03  0.41800000000E+01 0.  1.
         -5    1    3    3    0  502  0.62992357722E+01 -0.19386248700E+02 -0.44506222210E+02  0.49130267915E+02  0.41800000000E+01 0.  1.
        -11    1    1    2    0    0  0.26794613553E+02  0.77355643074E+02 -0.30435897967E+02  0.87339514058E+02  0.00000000000E+00 0. -1.
         11    1    1    2    0    0  0.28539338274E+02  0.18786893975E+01 -0.62149314141E+02  0.68414622349E+02  0.00000000000E+00 0.  1.
</event>
<event>
 7    1  0.2619826E-009  0.1090120E+03  0.7561462E-02  0.1262411E+00
         -2   -1    0    0    0  501 -0.00000000000E+00  0.00000000000E+00  0.65326883150E+03  0.65326883150E+03  0.00000000000E+00 0.  1.
          2   -1    0    0  501    0  0.00000000000E+00 -0.00000000000E+00 -0.22156831364E+02  0.22156831364E+02  0.00000000000E+00 0. -1.
         25    2    1    2    0    0  0.23328440844E+01  0.11661651496E+02  0.42204133255E+03  0.44034904429E+03  0.12508780176E+03 0.  0.
          5    1    3    3  502    0  0.13769519164E+02 -0.54032005628E+02  0.14610247149E+03  0.15643676635E+03  0.41800000000E+01 0.  1.
         -5    1    3    3    0  502 -0.11436675079E+02  0.65693657124E+02  0.27593886106E+03  0.28391227794E+03  0.41800000000E+01 0.  1.
        -11    1    1    2    0    0  0.32539969982E+02 -0.39138713961E+02  0.55897957444E+02  0.75599406237E+02  0.00000000000E+00 0.  1.
         11    1    1    2    0    0 -0.34872814066E+02  0.27477062466E+02  0.15317271015E+03  0.15947721234E+03  0.00000000000E+00 0. -1.
</event>
<event>
 7    1  0.2619826E-009  0.9308997E+02  0.7561462E-02  0.1295537E+00
         -1   -1    0    0    0  501 -0.00000000000E+00  0.00000000000E+00  0.34539216858E+03  0.34539216858E+03  0.00000000000E+00 0.  1.
          1   -1    0    0  501    0  0.00000000000E+00 -0.00000000000E+00 -0.36008993360E+02  0.36008993360E+02  0.00000000000E+00 0. -1.
         25    2    1    2    0    0  0.39719544614E+02  0.60881374850E+01  0.18645862749E+03  0.22809794283E+03  0.12508854511E+03 0.  0.
          5    1    3    3  502    0  0.27136713434E+02 -0.40327840683E+02  0.17036547457E+03  0.17721343988E+03  0.41800000000E+01 0.  1.
         -5    1    3    3    0  502  0.12582831180E+02  0.46415978168E+02  0.16093152923E+02  0.50884502954E+02  0.41800000000E+01 0.  1.
        -11    1    1    2    0    0  0.81152887389E+01  0.28795118411E+02  0.59146928724E+02  0.66282546217E+02  0.00000000000E+00 0.  1.
         11    1    1    2    0    0 -0.47834833353E+02 -0.34883255896E+02  0.63777619005E+02  0.87020672887E+02  0.00000000000E+00 0. -1.
</event>
<event>
 7    1  0.2619826E-009  0.6816140E+02  0.7561462E-02  0.1366459E+00
         -1   -1    0    0    0  501 -0.00000000000E+00  0.00000000000E+00  0.34995528424E+03  0.34995528424E+03  0.00000000000E+00 0.  1.
          1   -1    0    0  501    0  0.00000000000E+00 -0.00000000000E+00 -0.33964739068E+02  0.33964739068E+02  0.00000000000E+00 0. -1.
         25    2    1    2    0    0 -0.66451200121E+01 -0.94531846804E+01  0.19693605251E+03  0.23359035110E+03  0.12508846081E+03 0.  0.
          5    1    3    3  502    0 -0.28657353447E+02  0.28782944685E+01 -0.54377624303E+01  0.29606927329E+02  0.41800000000E+01 0.  1.
         -5    1    3    3    0  502  0.22012233435E+02 -0.12331479149E+02  0.20237381494E+03  0.20398342377E+03  0.41800000000E+01 0.  1.
        -11    1    1    2    0    0  0.29198982349E+02  0.36296922262E+02  0.32099332735E+02  0.56572204287E+02  0.00000000000E+00 0. -1.
         11    1    1    2    0    0 -0.22553862336E+02 -0.26843737581E+02  0.86955159925E+02  0.93757467923E+02  0.00000000000E+00 0.  1.
</event>
<event>
 7    1  0.2619826E-009  0.9643302E+02  0.7561462E-02  0.1287981E+00
          1   -1    0    0  501    0  0.00000000000E+00  0.00000000000E+00  0.14285881332E+03  0.14285881332E+03  0.00000000000E+00 0. -1.
         -1   -1    0    0    0  501 -0.00000000000E+00 -0.00000000000E+00 -0.13696643725E+03  0.13696643725E+03  0.00000000000E+00 0.  1.
         25    2    1    2    0    0 -0.32928046738E+02  0.49926512158E+02 -0.62079458680E+02  0.15191509423E+03  0.12508966299E+03 0.  0.
          5    1    3    3  502    0  0.21528541776E+02  0.63569434929E+02  0.11508160206E+01  0.67255839491E+02  0.41800000000E+01 0. -1.
         -5    1    3    3    0  502 -0.54456588514E+02 -0.13642922771E+02 -0.63230274700E+02  0.84659254739E+02  0.41800000000E+01 0. -1.
        -11    1    1    2    0    0  0.72734252976E+01 -0.41779563701E+02  0.85742010184E+02  0.95656296023E+02  0.00000000000E+00 0. -1.
         11    1    1    2    0    0  0.25654621440E+02 -0.81469484574E+01 -0.17770175430E+02  0.32253860315E+02  0.00000000000E+00 0.  1.
</event>
<event>
 7    1  0.2619826E-009  0.1148149E+03  0.7561462E-02  0.1251905E+00
         -1   -1    0    0    0  501 -0.00000000000E+00  0.00000000000E+00  0.58930547141E+02  0.58930547141E+02  0.00000000000E+00 0.  1.
          1   -1    0    0  501    0  0.00000000000E+00 -0.00000000000E+00 -0.32344400395E+03  0.32344400395E+03  0.00000000000E+00 0. -1.
         25    2    1    2    0    0 -0.29492836048E+02  0.55129932430E+02 -0.65852585149E+02  0.15457151566E+03  0.12508658463E+03 0.  0.
          5    1    3    3  502    0 -0.65465337413E+02  0.21894773669E+02  0.38701082970E+01  0.69264288452E+02  0.41800000000E+01 0. -1.
         -5    1    3    3    0  502  0.35972501365E+02  0.33235158761E+02 -0.69722693446E+02  0.85307227206E+02  0.41800000000E+01 0. -1.
        -11    1    1    2    0    0  0.49752912099E+02 -0.70219008267E+02 -0.14829037213E+03  0.17145289689E+03  0.00000000000E+00 0. -1.
         11    1    1    2    0    0 -0.20260076051E+02  0.15089075837E+02 -0.50370499525E+02  0.56350138541E+02  0.00000000000E+00 0.  1.
</event>
<event>
 7    1  0.2619826E-009  0.1043772E+03  0.7561462E-02  0.1271352E+00
          4   -1    0    0  501    0  0.00000000000E+00  0.00000000000E+00  0.45519367605E+02  0.45519367605E+02  0.00000000000E+00 0. -1.
         -4   -1    0    0    0  501 -0.00000000000E+00 -0.00000000000E+00 -0.35658917755E+03  0.35658917755E+03  0.00000000000E+00 0.  1.
         25    2    1    2    0    0  0.34084554911E+02 -0.17062599043E+02 -0.84587222267E+02  0.15576088485E+03  0.12511421146E+03 0.  0.
          5    1    3    3  502    0 -0.32614980492E+02 -0.47137227082E+02 -0.35440439913E+02  0.67521495175E+02  0.41800000000E+01 0.  1.
         -5    1    3    3    0  502  0.66699535403E+02  0.30074628038E+02 -0.49146782354E+02  0.88239389676E+02  0.41800000000E+01 0.  1.
        -11    1    1    2    0    0 -0.17450198675E+02  0.43438658307E+02 -0.20009463269E+03  0.20549766057E+03  0.00000000000E+00 0.  1.
         11    1    1    2    0    0 -0.16634356236E+02 -0.26376059264E+02 -0.26387954991E+02  0.40849999735E+02  0.00000000000E+00 0. -1.
</event>
<event>
 7    1  0.2619826E-009  0.1023762E+03  0.7561462E-02  0.1275377E+00
         -2   -1    0    0    0  501 -0.00000000000E+00  0.00000000000E+00  0.46921169134E+02  0.46921169134E+02  0.00000000000E+00 0.  1.
          2   -1    0    0  501    0  0.00000000000E+00 -0.00000000000E+00 -0.34092783684E+03  0.34092783684E+03  0.00000000000E+00 0. -1.
         25    2    1    2    0    0 -0.36485570402E+02  0.93028983344E+01 -0.86520404803E+02  0.15669093133E+03  0.12509407160E+03 0.  0.
          5    1    3    3  502    0  0.38163211710E+02  0.28680353361E+02 -0.55841759594E+02  0.73585106588E+02  0.41800000000E+01 0. -1.
         -5    1    3    3    0  502 -0.74648782113E+02 -0.19377455026E+02 -0.30678645208E+02  0.83105824742E+02  0.41800000000E+01 0. -1.
        -11    1    1    2    0    0  0.26136652113E+01  0.28624863797E+02 -0.15661035128E+03  0.15922630500E+03  0.00000000000E+00 0. -1.
         11    1    1    2    0    0  0.33871905191E+02 -0.37927762132E+02 -0.50875911615E+02  0.71931769645E+02  0.00000000000E+00 0.  1.
</event>
<event>
 7    1  0.2619826E-009  0.8920268E+02  0.7561462E-02  0.1304794E+00
          4   -1    0    0  501    0  0.00000000000E+00  0.00000000000E+00  0.16598601621E+02  0.16598601621E+02  0.00000000000E+00 0. -1.
         -4   -1    0    0    0  501 -0.00000000000E+00 -0.00000000000E+00 -0.78580010698E+03  0.78580010698E+03  0.00000000000E+00 0.  1.
         25    2    1    2    0    0  0.18668445648E+02  0.86909846449E+01 -0.51785169686E+03  0.53314659786E+03  0.12510344038E+03 0.  0.
          5    1    3    3  502    0  0.52468119911E+02 -0.74817732940E+01 -0.46607669640E+03  0.46909896596E+03  0.41800000000E+01 0.  1.
         -5    1    3    3    0  502 -0.33799674264E+02  0.16172757939E+02 -0.51775000460E+02  0.64047631903E+02  0.41800000000E+01 0.  1.
        -11    1    1    2    0    0  0.27256748218E+02  0.19625097208E+02 -0.46150431155E+02  0.57078341423E+02  0.00000000000E+00 0. -1.
         11    1    1    2    0    0 -0.45925193865E+02 -0.28316081853E+02 -0.20519937734E+03  0.21217376931E+03  0.00000000000E+00 0.  1.
</event>
<event>
 7    1  0.2619826E-009  0.1089121E+03  0.7561462E-02  0.1262598E+00
         -1   -1    0    0    0  501 -0.00000000000E+00  0.00000000000E+00  0.15254859069E+02  0.15254859069E+02  0.00000000000E+00 0.  1.
          1   -1    0    0  501    0  0.00000000000E+00 -0.00000000000E+00 -0.11488332668E+04  0.11488332668E+04  0.00000000000E+00 0. -1.
         25    2    1    2    0    0 -0.29483168281E+02 -0.15492330929E+02 -0.91973783192E+03  0.92880287305E+03  0.12509127862E+03 0.  0.
          5    1    3    3  502    0  0.42184989547E+02  0.12839517761E+02 -0.19500152739E+03  0.19996873417E+03  0.41800000000E+01 0.  1.
         -5    1    3    3    0  502 -0.71668157828E+02 -0.28331848690E+02 -0.72473630453E+03  0.72883413888E+03  0.41800000000E+01 0.  1.
        -11    1    1    2    0    0 -0.32175884309E+02 -0.20662090032E+01 -0.93969293581E+02  0.99346791024E+02  0.00000000000E+00 0.  1.
         11    1    1    2    0    0  0.61659052590E+02  0.17558539932E+02 -0.11987128219E+03  0.13593846176E+03  0.00000000000E+00 0. -1.
</event>
<event>
 7    1  0.2619826E-009  0.9423997E+02  0.7561462E-02  0.1292897E+00
          2   -1    0    0  501    0  0.00000000000E+00  0.00000000000E+00  0.21343855600E+03  0.21343855600E+03  0.00000000000E+00 0. -1.
         -2   -1    0    0    0  501 -0.00000000000E+00 -0.00000000000E+00 -0.65798248610E+02  0.65798248610E+02  0.00000000000E+00 0.  1.
         25    2    1    2    0    0 -0.12883276351E+02  0.40929645611E+02  0.11127264204E+03  0.17283002786E+03  0.12508957976E+03 0.  0.
          5    1    3    3  502    0  0.12511472692E+02  0.72939806003E+02  0.26653801610E+02  0.78769599395E+02  0.41800000000E+01 0.  1.
         -5    1    3    3    0  502 -0.25394749043E+02 -0.32010160392E+02  0.84618840430E+02  0.94060428465E+02  0.41800000000E+01 0.  1.
        -11    1    1    2    0    0  0.34807860029E+02 -0.11651211937E+02  0.54400372377E+02  0.65625744752E+02  0.00000000000E+00 0. -1.
         11    1    1    2    0    0 -0.21924583678E+02 -0.29278433674E+02 -0.18032707029E+02  0.40781031996E+02  0.00000000000E+00 0.  1.
</event>
<event>
 7    1  0.2619826E-009  0.1150797E+03  0.7561462E-02  0.1251442E+00
          2   -1    0    0  501    0  0.00000000000E+00  0.00000000000E+00  0.35109422654E+03  0.35109422654E+03  0.00000000000E+00 0.  1.
         -2   -1    0    0    0  501 -0.00000000000E+00 -0.00000000000E+00 -0.91028993621E+02  0.91028993621E+02  0.00000000000E+00 0. -1.
         25    2    1    2    0    0 -0.84364447685E+01 -0.86994712415E+02  0.27377405408E+03  0.31343309595E+03  0.12509524115E+03 0.  0.
          5    1    3    3  502    0  0.32740543399E+02 -0.95026554454E+02  0.13475629434E+03  0.16816277976E+03  0.41800000000E+01 0.  1.
         -5    1    3    3    0  502 -0.41176988168E+02  0.80318420381E+01  0.13901775974E+03  0.14527031619E+03  0.41800000000E+01 0.  1.
        -11    1    1    2    0    0  0.53469359633E+01  0.54024213244E+02 -0.53976411896E+02  0.76554937019E+02  0.00000000000E+00 0. -1.
         11    1    1    2    0    0  0.30895088052E+01  0.32970499172E+02  0.40267590737E+02  0.52135187197E+02  0.00000000000E+00 0.  1.
</event>
<event>
 7    1  0.2619826E-009  0.9836403E+02  0.7561462E-02  0.1283774E+00
          2   -1    0    0  501    0  0.00000000000E+00  0.00000000000E+00  0.18158139100E+03  0.18158139100E+03  0.00000000000E+00 0. -1.
         -2   -1    0    0    0  501 -0.00000000000E+00 -0.00000000000E+00 -0.97027119221E+02  0.97027119221E+02  0.00000000000E+00 0.  1.
         25    2    1    2    0    0 -0.45570668253E+02  0.32061629372E+02 -0.13021519983E+02  0.13755234120E+03  0.12508578138E+03 0.  0.
          5    1    3    3  502    0  0.22921488614E+02 -0.32334530913E+02  0.91069697688E+01  0.40881852062E+02  0.41800000000E+01 0.  1.
         -5    1    3    3    0  502 -0.68492156867E+02  0.64396160285E+02 -0.22128489752E+02  0.96670489139E+02  0.41800000000E+01 0.  1.
        -11    1    1    2    0    0  0.30155687467E+01 -0.17551754074E+02 -0.12762073706E+02  0.21909547033E+02  0.00000000000E+00 0.  1.
         11    1    1    2    0    0  0.42555099506E+02 -0.14509875299E+02  0.11033786547E+03  0.11914662199E+03  0.00000000000E+00 0. -1.
</event>
<event>
 7    1  0.2622883E-009  0.1455597E+03  0.7561462E-02  0.1206038E+00
          1   -1    0    0  501    0  0.00000000000E+00  0.00000000000E+00  0.15840274500E+03  0.15840274500E+03  0.00000000000E+00 0. -1.
         -1   -1    0    0    0  501 -0.00000000000E+00 -0.00000000000E+00 -0.19503731886E+03  0.19503731886E+03  0.00000000000E+00 0.  1.
         25    2    1    2    0    0  0.11988862765E+03  0.68222503608E+02 -0.25364769297E+02  0.18793167898E+03  0.12508937367E+03 0.  0.
          5    1    3    3  502    0  0.92671861918E+02  0.75018896724E+02  0.32360882315E+02  0.12361475624E+03  0.41800000000E+01 0. -1.
         -5    1    3    3    0  502  0.27216765736E+02 -0.67963931158E+01 -0.57725651611E+02  0.64316922738E+02  0.41800000000E+01 0. -1.
        -11    1    1    2    0    0 -0.96769871449E+02 -0.34846915491E+02 -0.45438991900E+02  0.11244295231E+03  0.00000000000E+00 0.  1.
         11    1    1    2    0    0 -0.23118756205E+02 -0.33375588118E+02  0.34169187338E+02  0.53065432571E+02  0.00000000000E+00 0. -1.
</event>
<event>
 7    1  0.2619826E-009  0.1212863E+03  0.7561462E-02  0.1240990E+00
          4   -1    0    0  501    0  0.00000000000E+00  0.00000000000E+00  0.13759807298E+03  0.13759807298E+03  0.00000000000E+00 0. -1.
         -4   -1    0    0    0  501 -0.00000000000E+00 -0.00000000000E+00 -0.15150619839E+03  0.15150619839E+03  0.00000000000E+00 0.  1.
         25    2    1    2    0    0 -0.37386160537E+02  0.74693316960E+02 -0.48723707265E+02  0.15810880543E+03  0.12509027982E+03 0.  0.
          5    1    3    3  502    0  0.13877198962E+02 -0.27006166146E+02 -0.29487371514E+02  0.42531013858E+02  0.41800000000E+01 0.  1.
         -5    1    3    3    0  502 -0.51263359499E+02  0.10169948311E+03 -0.19236335751E+02  0.11557779157E+03  0.41800000000E+01 0.  1.
        -11    1    1    2    0    0  0.41090595757E+02 -0.24941142359E+02  0.58545070680E+02  0.75749738896E+02  0.00000000000E+00 0. -1.
         11    1    1    2    0    0 -0.37044352203E+01 -0.49752174601E+02 -0.23729488823E+02  0.55245727053E+02  0.00000000000E+00 0.  1.
</event>
<event>
 7    1  0.2619826E-009  0.1155541E+03  0.7561462E-02  0.1250617E+00
         -2   -1    0    0    0  501 -0.00000000000E+00  0.00000000000E+00  0.14730755079E+03  0.14730755079E+03  0.00000000000E+00 0.  1.
          2   -1    0    0  501    0  0.00000000000E+00 -0.00000000000E+00 -0.16069638246E+03  0.16069638246E+03  0.00000000000E+00 0. -1.
         25    2    1    2    0    0 -0.67878469574E+02  0.13361878586E+02  0.76696122798E+02  0.16222221071E+03  0.12509086283E+03 0.  0.
          5    1    3    3  502    0  0.11226670654E+02 -0.42380657984E+02  0.11683134873E+02  0.45564529467E+02  0.41800000000E+01 0.  1.
         -5    1    3    3    0  502 -0.79105140228E+02  0.55742536569E+02  0.65012987924E+02  0.11665768124E+03  0.41800000000E+01 0.  1.
        -11    1    1    2    0    0 -0.10615801683E+02 -0.29835563569E+01 -0.60121447251E+02  0.61124342724E+02  0.00000000000E+00 0. -1.
         11    1    1    2    0    0  0.78494271257E+02 -0.10378322229E+02 -0.29963507219E+02  0.84657379816E+02  0.00000000000E+00 0.  1.
</event>
<event>
 7    1  0.2619826E-009  0.1185991E+03  0.7561462E-02  0.1245426E+00
         -1   -1    0    0    0  501 -0.00000000000E+00  0.00000000000E+00  0.50787519095E+02  0.50787519095E+02  0.00000000000E+00 0.  1.
          1   -1    0    0  501    0  0.00000000000E+00 -0.00000000000E+00 -0.31388427144E+03  0.31388427144E+03  0.00000000000E+00 0. -1.
         25    2    1    2    0    0  0.54848501866E+02 -0.33731402226E+02 -0.16835520234E+03  0.21940284218E+03  0.12509183566E+03 0.  0.
          5    1    3    3  502    0 -0.29726446350E+02 -0.31284667926E+02 -0.10505904668E+03  0.11365415852E+03  0.41800000000E+01 0. -1.
         -5    1    3    3    0  502  0.84574948216E+02 -0.24467343006E+01 -0.63296155665E+02  0.10574868366E+03  0.41800000000E+01 0. -1.
        -11    1    1    2    0    0  0.55559592152E+01  0.46963038999E+02 -0.50831191536E+02  0.69427701588E+02  0.00000000000E+00 0. -1.
         11    1    1    2    0    0 -0.60404461082E+02 -0.13231636772E+02 -0.43910358465E+02  0.75841246764E+02  0.00000000000E+00 0.  1.
</event>
<event>
 7    1  0.2619826E-009  0.2416548E+03  0.7561462E-02  0.1118695E+00
         -2   -1    0    0    0  501 -0.00000000000E+00  0.00000000000E+00  0.53369056038E+03  0.53369056038E+03  0.00000000000E+00 0. -1.
          2   -1    0    0  501    0  0.00000000000E+00 -0.00000000000E+00 -0.11259549166E+03  0.11259549166E+03  0.00000000000E+00 0.  1.
         25    2    1    2    0    0  0.12542662936E+03 -0.17931419877E+03  0.19705024569E+03  0.31993919382E+03  0.12508743815E+03 0.  0.
          5    1    3    3  502    0  0.56219685177E+02 -0.17141910272E+03  0.15872984844E+03  0.24032852299E+03  0.41800000000E+01 0. -1.
         -5    1    3    3    0  502  0.69206944180E+02 -0.78950960502E+01  0.38320397256E+02  0.79610670831E+02  0.41800000000E+01 0. -1.
        -11    1    1    2    0    0 -0.25846137925E+02  0.10682373906E+03  0.75310989934E+02  0.13323317634E+03  0.00000000000E+00 0. -1.
         11    1    1    2    0    0 -0.99580491431E+02  0.72490459707E+02  0.14873383309E+03  0.19311368188E+03  0.00000000000E+00 0.  1.
</event>
<event>
 7    1  0.2619826E-009  0.3088707E+03  0.7561462E-02  0.1080888E+00
          2   -1    0    0  501    0  0.00000000000E+00  0.00000000000E+00  0.37310692098E+03  0.37310692098E+03  0.00000000000E+00 0. -1.
         -2   -1    0    0    0  501 -0.00000000000E+00 -0.00000000000E+00 -0.27934579291E+03  0.27934579291E+03  0.00000000000E+00 0.  1.
         25    2    1    2    0    0  0.22820211285E+03 -0.18229644447E+03  0.13308557933E+03  0.34448260854E+03  0.12509315804E+03 0.  0.
          5    1    3    3  502    0  0.31763255409E+02 -0.90247188454E+02  0.13436108930E+02  0.96702951564E+02  0.41800000000E+01 0. -1.
         -5    1    3    3    0  502  0.19643885744E+03 -0.92049256012E+02  0.11964947040E+03  0.24777965698E+03  0.41800000000E+01 0. -1.
        -11    1    1    2    0    0 -0.17175188396E+03  0.82945820697E+02 -0.32658232206E+02  0.19350782657E+03  0.00000000000E+00 0. -1.
         11    1    1    2    0    0 -0.56450228897E+02  0.99350623769E+02 -0.66662190612E+01  0.11446227878E+03  0.00000000000E+00 0.  1.
</event>
<event>
 7    1  0.2619826E-009  0.1213779E+03  0.7561462E-02  0.1240841E+00
          2   -1    0    0  501    0  0.00000000000E+00  0.00000000000E+00  0.32141011438E+03  0.32141011438E+03  0.00000000000E+00 0. -1.
         -2   -1    0    0    0  501 -0.00000000000E+00 -0.00000000000E+00 -0.81863848315E+02  0.81863848315E+02  0.00000000000E+00 0.  1.
         25    2    1    2    0    0 -0.32107968281E+02 -0.62465564617E+02  0.68917347297E+01  0.14362050012E+03  0.12508590511E+03 0.  0.
          5    1    3    3  502    0  0.27699125026E+02  0.13555276840E+02  0.30917016595E+02  0.43867087577E+02  0.41800000000E+01 0. -1.
         -5    1    3    3    0  502 -0.59807093307E+02 -0.76020841457E+02 -0.24025281865E+02  0.99753412545E+02  0.41800000000E+01 0. -1.
        -11    1    1    2    0    0  0.56913745484E+02  0.11395957345E+02  0.10587529117E+03  0.12074195438E+03  0.00000000000E+00 0.  1.
         11    1    1    2    0    0 -0.24805777203E+02  0.51069607272E+02  0.12677924017E+03  0.13891150819E+03  0.00000000000E+00 0. -1.
</event>
<event>
 7    1  0.2619826E-009  0.1083607E+03  0.7561462E-02  0.1263636E+00
          1   -1    0    0  501    0  0.00000000000E+00  0.00000000000E+00  0.38016485226E+03  0.38016485226E+03  0.00000000000E+00 0. -1.
         -1   -1    0    0    0  501 -0.00000000000E+00 -0.00000000000E+00 -0.36632442217E+02  0.36632442217E+02  0.00000000000E+00 0.  1.
         25    2    1    2    0    0 -0.10615349438E+02  0.28709552496E+02  0.14619698861E+03  0.19482755874E+03  0.12508914468E+03 0.  0.
          5    1    3    3  502    0 -0.17987954777E+02 -0.43916681987E+02  0.92706737490E+02  0.10423172765E+03  0.41800000000E+01 0.  1.
         -5    1    3    3    0  502  0.73726053384E+01  0.72626234483E+02  0.53490251122E+02  0.90595831084E+02  0.41800000000E+01 0.  1.
        -11    1    1    2    0    0 -0.39577551393E+02 -0.22113329462E+02  0.57310717742E+02  0.73074621329E+02  0.00000000000E+00 0.  1.
         11    1    1    2    0    0  0.50192900831E+02 -0.65962230342E+01  0.14002470369E+03  0.14889511441E+03  0.00000000000E+00 0. -1.
</event>
<event>
 7    1  0.2619826E-009  0.2219059E+03  0.7561462E-02  0.1132470E+00
          2   -1    0    0  501    0  0.00000000000E+00  0.00000000000E+00  0.20603099336E+03  0.20603099336E+03  0.00000000000E+00 0.  1.
         -2   -1    0    0    0  501 -0.00000000000E+00 -0.00000000000E+00 -0.27534298812E+03  0.27534298812E+03  0.00000000000E+00 0. -1.
         25    2    1    2    0    0 -0.19078845505E+03 -0.91184563817E+02 -0.34396507039E+02  0.24808295217E+03  0.12508865737E+03 0.  0.
          5    1    3    3  502    0 -0.93985309778E+02 -0.59024778059E+02 -0.79387962879E+02  0.13651770555E+03  0.41800000000E+01 0. -1.
         -5    1    3    3    0  502 -0.96803145276E+02 -0.32159785758E+02  0.44991455840E+02  0.11156524662E+03  0.41800000000E+01 0. -1.
        -11    1    1    2    0    0  0.61750893847E+02 -0.15002850489E+02 -0.10234252595E+02  0.64366127271E+02  0.00000000000E+00 0.  1.
         11    1    1    2    0    0  0.12903756121E+03  0.10618741431E+03 -0.24681235123E+02  0.16892490203E+03  0.00000000000E+00 0. -1.
</event>
<event>
 7    1  0.2619826E-009  0.2365417E+03  0.7561462E-02  0.1122118E+00
         -1   -1    0    0    0  501 -0.00000000000E+00  0.00000000000E+00  0.52962961452E+03  0.52962961452E+03  0.00000000000E+00 0.  1.
          1   -1    0    0  501    0  0.00000000000E+00 -0.00000000000E+00 -0.11134479870E+03  0.11134479870E+03  0.00000000000E+00 0. -1.
         25    2    1    2    0    0  0.21163589436E+03 -0.28074530036E+02  0.26712814148E+03  0.36412008442E+03  0.12509220954E+03 0.  0.
          5    1    3    3  502    0 -0.47010961183E+01 -0.29962364379E+02  0.40614898412E+02  0.50861438801E+02  0.41800000000E+01 0.  1.
         -5    1    3    3    0  502  0.21633699048E+03  0.18878343433E+01  0.22651324307E+03  0.31325864561E+03  0.41800000000E+01 0.  1.
        -11    1    1    2    0    0 -0.18445184607E+02  0.27230610888E+02  0.47024023642E+02  0.57384578102E+02  0.00000000000E+00 0.  1.
         11    1    1    2    0    0 -0.19319070975E+03  0.84391914832E+00  0.10413265069E+03  0.21946975071E+03  0.00000000000E+00 0. -1.
</event>
<event>
 7    1  0.2619826E-009  0.1061323E+03  0.7561462E-02  0.1267905E+00
         -2   -1    0    0    0  501 -0.00000000000E+00  0.00000000000E+00  0.42255499073E+02  0.42255499073E+02  0.00000000000E+00 0.  1.
          2   -1    0    0  501    0  0.00000000000E+00 -0.00000000000E+00 -0.33595926905E+03  0.33595926905E+03  0.00000000000E+00 0. -1.
         25    2    1    2    0    0 -0.23387744622E+01  0.31015722768E+02 -0.22608196208E+03  0.26024578606E+03  0.12508945063E+03 0.  0.
          5    1    3    3  502    0  0.32442157275E+02 -0.32745089914E+02 -0.42747411881E+02  0.63004349887E+02  0.41800000000E+01 0. -1.
         -5    1    3    3    0  502 -0.34780931738E+02  0.63760812682E+02 -0.18333455020E+03  0.19724143617E+03  0.41800000000E+01 0. -1.
        -11    1    1    2    0    0  0.45104805689E+02 -0.14363657719E+02 -0.18717369729E+02  0.50902829871E+02  0.00000000000E+00 0.  1.
         11    1    1    2    0    0 -0.42766031226E+02 -0.16652065049E+02 -0.48904438162E+02  0.67066152187E+02  0.00000000000E+00 0. -1.
</event>
<event>
 7    1  0.2619826E-009  0.1787503E+03  0.7561462E-02  0.1169018E+00
         -2   -1    0    0    0  501 -0.00000000000E+00  0.00000000000E+00  0.22532383775E+03  0.22532383775E+03  0.00000000000E+00 0.  1.
          2   -1    0    0  501    0  0.00000000000E+00 -0.00000000000E+00 -0.21112573970E+03  0.21112573970E+03  0.00000000000E+00 0. -1.
         25    2    1    2    0    0  0.16085915738E+03 -0.20342032836E+02  0.10489014273E+03  0.23008394037E+03  0.12508881149E+03 0.  0.
          5    1    3    3  502    0  0.95342829757E+02  0.22037473914E+02  0.11526351297E+03  0.15125824032E+03  0.41800000000E+01 0. -1.
         -5    1    3    3    0  502  0.65516327626E+02 -0.42379506750E+02 -0.10373370241E+02  0.78825700048E+02  0.41800000000E+01 0. -1.
        -11    1    1    2    0    0 -0.87848128189E+02  0.51724468711E+02 -0.71769738841E+02  0.12467401374E+03  0.00000000000E+00 0. -1.
         11    1    1    2    0    0 -0.73011029193E+02 -0.31382435875E+02 -0.18922305843E+02  0.81691623339E+02  0.00000000000E+00 0.  1.
</event>
<event>
 7    1  0.2619826E-009  0.1673086E+03  0.7561462E-02  0.1180684E+00
          2   -1    0    0  501    0  0.00000000000E+00  0.00000000000E+00  0.17041960616E+03  0.17041960616E+03  0.00000000000E+00 0. -1.
         -2   -1    0    0    0  501 -0.00000000000E+00 -0.00000000000E+00 -0.17008932979E+03  0.17008932979E+03  0.00000000000E+00 0.  1.
         25    2    1    2    0    0  0.11853978813E+03  0.54453334783E+02  0.10243178375E+02  0.18102364369E+03  0.12509112612E+03 0.  0.
          5    1    3    3  502    0  0.14246028973E+03  0.46524733597E+02  0.24279926199E+02  0.15187650313E+03  0.41800000000E+01 0. -1.
         -5    1    3    3    0  502 -0.23920501603E+02  0.79286011861E+01 -0.14036747825E+02  0.29147140567E+02  0.41800000000E+01 0. -1.
        -11    1    1    2    0    0 -0.71678650050E+02  0.17031310318E+02 -0.31132277326E+01  0.73739993159E+02  0.00000000000E+00 0.  1.
         11    1    1    2    0    0 -0.46861138076E+02 -0.71484645101E+02 -0.67996742646E+01  0.85745299097E+02  0.00000000000E+00 0. -1.
</event>
<event>
 7    1  0.2619826E-009  0.8912638E+02  0.7561462E-02  0.1304981E+00
          2   -1    0    0  501    0  0.00000000000E+00  0.00000000000E+00  0.40607212782E+03  0.40607212782E+03  0.00000000000E+00 0. -1.
         -2   -1    0    0    0  501 -0.00000000000E+00 -0.00000000000E+00 -0.35714188840E+02  0.35714188840E+02  0.00000000000E+00 0.  1.
         25    2    1    2    0    0  0.86598533064E+01 -0.17898367353E+02  0.11796940343E+03  0.17307130236E+03  0.12506618624E+03 0.  0.
          5    1    3    3  502    0  0.92672276206E+01  0.34379625937E+02  0.11508920513E+03  0.12054392447E+03  0.41800000000E+01 0. -1.
         -5    1    3    3    0  502 -0.60737431420E+00 -0.52277993290E+02  0.28801982966E+01  0.52527377892E+02  0.41800000000E+01 0. -1.
        -11    1    1    2    0    0 -0.46387336386E+02 -0.36060969005E+01  0.10063158892E+03  0.11086706274E+03  0.00000000000E+00 0.  1.
         11    1    1    2    0    0  0.37727483080E+02  0.21504464254E+02  0.15175694663E+03  0.15784795157E+03  0.00000000000E+00 0. -1.
</event>
<event>
 7    1  0.2619826E-009  0.1358897E+03  0.7561462E-02  0.1218969E+00
          1   -1    0    0  501    0  0.00000000000E+00  0.00000000000E+00  0.18326824693E+03  0.18326824693E+03  0.00000000000E+00 0. -1.
         -1   -1    0    0    0  501 -0.00000000000E+00 -0.00000000000E+00 -0.12741539049E+03  0.12741539049E+03  0.00000000000E+00 0.  1.
         25    2    1    2    0    0 -0.10662631039E+03 -0.15240978146E+02  0.40522731412E+02  0.16997238689E+03  0.12508822111E+03 0.  0.
          5    1    3    3  502    0 -0.44835590284E+02 -0.55354487956E+02 -0.20474948917E+02  0.74236415769E+02  0.41800000000E+01 0.  1.
         -5    1    3    3    0  502 -0.61790720109E+02  0.40113509810E+02  0.60997680328E+02  0.95735971120E+02  0.41800000000E+01 0.  1.
        -11    1    1    2    0    0  0.80256079593E+02  0.40694484597E+02  0.37931783344E+02  0.97651930733E+02  0.00000000000E+00 0. -1.
         11    1    1    2    0    0  0.26370230800E+02 -0.25453506451E+02 -0.22601658316E+02  0.43059319801E+02  0.00000000000E+00 0.  1.
</event>
<event>
 7    1  0.2619826E-009  0.7521844E+02  0.7561462E-02  0.1343196E+00
         -1   -1    0    0    0  501 -0.00000000000E+00  0.00000000000E+00  0.25596320855E+02  0.25596320855E+02  0.00000000000E+00 0.  1.
          1   -1    0    0  501    0  0.00000000000E+00 -0.00000000000E+00 -0.64670280652E+03  0.64670280652E+03  0.00000000000E+00 0. -1.
         25    2    1    2    0    0  0.25368886850E+02 -0.10663892369E+02 -0.52135399621E+03  0.53685640385E+03  0.12509000748E+03 0.  0.
          5    1    3    3  502    0  0.25061268024E+01  0.24265929197E+02 -0.15367168774E+02  0.29133112904E+02  0.41800000000E+01 0.  1.
         -5    1    3    3    0  502  0.22862760047E+02 -0.34929821566E+02 -0.50598682743E+03  0.50772329095E+03  0.41800000000E+01 0.  1.
        -11    1    1    2    0    0  0.14988860764E+01 -0.32691156792E+02 -0.67720734263E+02  0.75213404663E+02  0.00000000000E+00 0. -1.
         11    1    1    2    0    0 -0.26867772926E+02  0.43355049161E+02 -0.32031755190E+02  0.60229318859E+02  0.00000000000E+00 0.  1.
</event>
<event>
 7    1  0.2619826E-009  0.1518966E+03  0.7561462E-02  0.1198162E+00
         -2   -1    0    0    0  501 -0.00000000000E+00  0.00000000000E+00  0.41555086429E+02  0.41555086429E+02  0.00000000000E+00 0.  1.
          2   -1    0    0  501    0  0.00000000000E+00 -0.00000000000E+00 -0.68179599656E+03  0.68179599656E+03  0.00000000000E+00 0. -1.
         25    2    1    2    0    0  0.11192313252E+03 -0.52913763885E+02 -0.41783645522E+03  0.45338895894E+03  0.12509033047E+03 0.  0.
          5    1    3    3  502    0  0.93991691660E+02  0.88805573291E+01 -0.33692687473E+03  0.34992926959E+03  0.41800000000E+01 0. -1.
         -5    1    3    3    0  502  0.17931440857E+02 -0.61794321214E+02 -0.80909580490E+02  0.10345968935E+03  0.41800000000E+01 0. -1.
        -11    1    1    2    0    0 -0.12309649197E+03  0.51906382841E+02 -0.16917104278E+03  0.21555941323E+03  0.00000000000E+00 0.  1.
         11    1    1    2    0    0  0.11173359452E+02  0.10073810431E+01 -0.53233412130E+02  0.54402710824E+02  0.00000000000E+00 0. -1.
</event>
<event>
 7    1  0.2619826E-009  0.7025027E+02  0.7561462E-02  0.1359244E+00
         -4   -1    0    0    0  501 -0.00000000000E+00  0.00000000000E+00  0.50700250833E+02  0.50700250833E+02  0.00000000000E+00 0. -1.
          4   -1    0    0  501    0  0.00000000000E+00 -0.00000000000E+00 -0.32148130683E+03  0.32148130683E+03  0.00000000000E+00 0.  1.
         25    2    1    2    0    0 -0.56625413706E+01  0.33969135007E+02 -0.23066734957E+03  0.26464714317E+03  0.12507884602E+03 0.  0.
          5    1    3    3  502    0 -0.12109545869E+02  0.11586381810E+02  0.11869753487E+02  0.20958263107E+02  0.41800000000E+01 0. -1.
         -5    1    3    3    0  502  0.64470044984E+01  0.22382753197E+02 -0.24253710306E+03  0.24368888006E+03  0.41800000000E+01 0. -1.
        -11    1    1    2    0    0  0.23630589853E+02 -0.61953102828E+02 -0.23398988729E+02  0.70314325712E+02  0.00000000000E+00 0.  1.
         11    1    1    2    0    0 -0.17968048483E+02  0.27983967820E+02 -0.16714717701E+02  0.37220088784E+02  0.00000000000E+00 0. -1.
</event>
<event>
 7    1  0.2619826E-009  0.1392031E+03  0.7561462E-02  0.1214405E+00
          2   -1    0    0  501    0  0.00000000000E+00  0.00000000000E+00  0.94048042070E+03  0.94048042070E+03  0.00000000000E+00 0. -1.
         -2   -1    0    0    0  501 -0.00000000000E+00 -0.00000000000E+00 -0.23748934187E+02  0.23748934187E+02  0.00000000000E+00 0.  1.
         25    2    1    2    0    0 -0.10515355261E+03  0.29676158816E+02  0.43817390835E+03  0.46859709146E+03  0.12509562795E+03 0.  0.
          5    1    3    3  502    0 -0.12620616873E+03  0.29574855361E+02  0.27534945637E+03  0.30436403306E+03  0.41800000000E+01 0. -1.
         -5    1    3    3    0  502  0.21052616120E+02  0.10130345499E+00  0.16282445198E+03  0.16423305840E+03  0.41800000000E+01 0. -1.
        -11    1    1    2    0    0  0.88144550672E+02 -0.49529364682E+02  0.40934979601E+03  0.42165136698E+03  0.00000000000E+00 0. -1.
         11    1    1    2    0    0  0.17009001940E+02  0.19853205866E+02  0.69207782148E+02  0.73980896453E+02  0.00000000000E+00 0.  1.
</event>
<event>
 7    1  0.2619826E-009  0.1545007E+03  0.7561462E-02  0.1195049E+00
         -2   -1    0    0    0  501 -0.00000000000E+00  0.00000000000E+00  0.22144634277E+02  0.22144634277E+02  0.00000000000E+00 0.  1.
          2   -1    0    0  501    0  0.00000000000E+00 -0.00000000000E+00 -0.10969325629E+04  0.10969325629E+04  0.00000000000E+00 0. -1.
         25    2    1    2    0    0  0.10895060869E+03 -0.15094783496E+02 -0.57495843910E+03  0.59859762594E+03  0.12507527121E+03 0.  0.
          5    1    3    3  502    0  0.12267673983E+03 -0.45803034943E+02 -0.41931993374E+03  0.43931102847E+03  0.41800000000E+01 0.  1.
         -5    1    3    3    0  502 -0.13726131141E+02  0.30708251447E+02 -0.15563850536E+03  0.15928659747E+03  0.41800000000E+01 0.  1.
        -11    1    1    2    0    0 -0.94783089584E+02  0.49465980504E+02 -0.34154589302E+03  0.35788868987E+03  0.00000000000E+00 0.  1.
         11    1    1    2    0    0 -0.14167519104E+02 -0.34371197008E+02 -0.15828359651E+03  0.16259088138E+03  0.00000000000E+00 0. -1.
</event>
<event>
 7    1  0.2619826E-009  0.1111460E+03  0.7561462E-02  0.1258462E+00
          3   -1    0    0  501    0  0.00000000000E+00  0.00000000000E+00  0.40079450251E+03  0.40079450251E+03  0.00000000000E+00 0. -1.
         -3   -1    0    0    0  501 -0.00000000000E+00 -0.00000000000E+00 -0.36043935181E+02  0.36043935181E+02  0.00000000000E+00 0.  1.
         25    2    1    2    0    0  0.29441344094E+02  0.46889449411E+02  0.20405731748E+03  0.24566905179E+03  0.12509388868E+03 0.  0.
          5    1    3    3  502    0  0.30974967106E+02 -0.30169265324E+02  0.13597775636E+03  0.14274822514E+03  0.41800000000E+01 0.  1.
         -5    1    3    3    0  502 -0.15336230118E+01  0.77058714735E+02  0.68079561121E+02  0.10292082665E+03  0.41800000000E+01 0.  1.
        -11    1    1    2    0    0  0.28713348084E+02 -0.29023653841E+02  0.47268269721E+02  0.62458931810E+02  0.00000000000E+00 0.  1.
         11    1    1    2    0    0 -0.58154692178E+02 -0.17865795570E+02  0.11342498013E+03  0.12871045408E+03  0.00000000000E+00 0. -1.
</event>
<event>
 7    1  0.2740405E-009  0.1380427E+03  0.7561462E-02  0.1215987E+00
         -3   -1    0    0    0  501 -0.00000000000E+00  0.00000000000E+00  0.14836482910E+02  0.14836482910E+02  0.00000000000E+00 0.  1.
          3   -1    0    0  501    0  0.00000000000E+00 -0.00000000000E+00 -0.14979865927E+04  0.14979865927E+04  0.00000000000E+00 0. -1.
         25    2    1    2    0    0 -0.89849034534E+02 -0.82809281049E+01 -0.10401084237E+04  0.10514818209E+04  0.12508822407E+03 0.  0.
          5    1    3    3  502    0 -0.62313811040E+02  0.54421714982E+02 -0.46809389473E+03  0.47536733249E+03  0.41800000000E+01 0. -1.
         -5    1    3    3    0  502 -0.27535223494E+02 -0.62702643087E+02 -0.57201452899E+03  0.57611448842E+03  0.41800000000E+01 0. -1.
        -11    1    1    2    0    0  0.68634943525E+02 -0.34550170188E+02 -0.21431435578E+03  0.22767325892E+03  0.00000000000E+00 0. -1.
         11    1    1    2    0    0  0.21214091009E+02  0.42831098292E+02 -0.22872733029E+03  0.23366799580E+03  0.00000000000E+00 0.  1.
</event>
<event>
 7    1  0.2619826E-009  0.1556900E+03  0.7561462E-02  0.1193651E+00
         -2   -1    0    0    0  501 -0.00000000000E+00  0.00000000000E+00  0.88023785832E+03  0.88023785832E+03  0.00000000000E+00 0.  1.
          2   -1    0    0  501    0  0.00000000000E+00 -0.00000000000E+00 -0.39872195193E+02  0.39872195193E+02  0.00000000000E+00 0. -1.
         25    2    1    2    0    0 -0.11083397597E+03  0.46581442247E+02  0.66985169296E+03  0.69195546283E+03  0.12508825279E+03 0.  0.
          5    1    3    3  502    0  0.50346674559E+01 -0.27537596818E+02  0.21169530620E+03  0.21357912394E+03  0.41800000000E+01 0. -1.
         -5    1    3    3    0  502 -0.11586864342E+03  0.74119039065E+02  0.45815638676E+03  0.47837633889E+03  0.41800000000E+01 0. -1.
        -11    1    1    2    0    0  0.11376259010E+03 -0.62143874617E+02  0.16787825389E+03  0.21210114612E+03  0.00000000000E+00 0.  1.
         11    1    1    2    0    0 -0.29286141284E+01  0.15562432370E+02  0.26357162756E+01  0.16053444560E+02  0.00000000000E+00 0. -1.
</event>
<event>
 7    1  0.2619826E-009  0.1701485E+03  0.7561462E-02  0.1177693E+00
          2   -1    0    0  501    0  0.00000000000E+00  0.00000000000E+00  0.84581941595E+03  0.84581941595E+03  0.00000000000E+00 0. -1.
         -2   -1    0    0    0  501 -0.00000000000E+00 -0.00000000000E+00 -0.41495684740E+02  0.41495684740E+02  0.00000000000E+00 0.  1.
         25    2    1    2    0    0 -0.85469192968E+02  0.10710762825E+03  0.26410033203E+03  0.32275763690E+03  0.12508588978E+03 0.  0.
          5    1    3    3  502    0 -0.11201077901E+03  0.11121481673E+03  0.23286756606E+03  0.28135373784E+03  0.41800000000E+01 0. -1.
         -5    1    3    3    0  502  0.26541586046E+02 -0.41071884776E+01  0.31232765971E+02  0.41403899058E+02  0.41800000000E+01 0. -1.
        -11    1    1    2    0    0  0.94320180983E+02 -0.71047108800E+02  0.31725322393E+03  0.33851675927E+03  0.00000000000E+00 0.  1.
         11    1    1    2    0    0 -0.88509880152E+01 -0.36060519449E+02  0.22297017525E+03  0.22604070452E+03  0.00000000000E+00 0. -1.
</event>
<event>
 7    1  0.2856604E-009  0.8984014E+02  0.7561462E-02  0.1303239E+00
          2   -1    0    0  501    0  0.00000000000E+00  0.00000000000E+00  0.51361785502E+03  0.51361785502E+03  0.00000000000E+00 0.  1.
         -2   -1    0    0    0  501 -0.00000000000E+00 -0.00000000000E+00 -0.25346797483E+02  0.25346797483E+02  0.00000000000E+00 0. -1.
         25    2    1    2    0    0 -0.60667279654E+01  0.18766945808E+02  0.20880972767E+03  0.24420969132E+03  0.12509143664E+03 0.  0.
          5    1    3    3  502    0 -0.21322715403E+02 -0.30997676063E+02  0.18125808762E+03  0.18516879014E+03  0.41800000000E+01 0. -1.
         -5    1    3    3    0  502  0.15255987438E+02  0.49764621871E+02  0.27551640047E+02  0.59040901179E+02  0.41800000000E+01 0. -1.
        -11    1    1    2    0    0  0.41660538358E+02 -0.31044666136E+02  0.11749214871E+03  0.12846702597E+03  0.00000000000E+00 0. -1.
         11    1    1    2    0    0 -0.35593810392E+02  0.12277720328E+02  0.16196918115E+03  0.16628793521E+03  0.00000000000E+00 0.  1.
</event>
<event>
 7    1  0.2619826E-009  0.9953106E+02  0.7561462E-02  0.1281285E+00
         -1   -1    0    0    0  501 -0.00000000000E+00  0.00000000000E+00  0.37616487359E+03  0.37616487359E+03  0.00000000000E+00 0.  1.
          1   -1    0    0  501    0  0.00000000000E+00 -0.00000000000E+00 -0.51076249058E+02  0.51076249058E+02  0.00000000000E+00 0. -1.
         25    2    1    2    0    0 -0.14569575917E+02  0.67362967180E+02  0.26727222490E+03  0.30303846152E+03  0.12509126694E+03 0.  0.
          5    1    3    3  502    0  0.21258621653E+02  0.33043895056E+02  0.24556438732E+03  0.24872307636E+03  0.41800000000E+01 0.  1.
         -5    1    3    3    0  502 -0.35828197570E+02  0.34319072124E+02  0.21707837589E+02  0.54315385163E+02  0.41800000000E+01 0.  1.
        -11    1    1    2    0    0  0.45009918466E+02 -0.12002962687E+02  0.27916292454E+02  0.54307303910E+02  0.00000000000E+00 0.  1.
         11    1    1    2    0    0 -0.30440342549E+02 -0.55360004493E+02  0.29900107176E+02  0.69895357221E+02  0.00000000000E+00 0. -1.
</event>
<event>
 7    1  0.2619826E-009  0.1479106E+03  0.7561462E-02  0.1203064E+00
         -2   -1    0    0    0  501 -0.00000000000E+00  0.00000000000E+00  0.67698408533E+02  0.67698408533E+02  0.00000000000E+00 0. -1.
          2   -1    0    0  501    0  0.00000000000E+00 -0.00000000000E+00 -0.54828092439E+03  0.54828092439E+03  0.00000000000E+00 0.  1.
         25    2    1    2    0    0  0.44935010248E+02 -0.11635436947E+03 -0.97218532040E+02  0.20163768416E+03  0.12509523676E+03 0.  0.
          5    1    3    3  502    0 -0.27496371982E+02 -0.43690501108E+02  0.10471057077E+02  0.52839623348E+02  0.41800000000E+01 0. -1.
         -5    1    3    3    0  502  0.72431382230E+02 -0.72663868358E+02 -0.10768958912E+03  0.14879806081E+03  0.41800000000E+01 0. -1.
        -11    1    1    2    0    0 -0.31041700766E+02  0.12234132551E+03 -0.37762668038E+03  0.39816189779E+03  0.00000000000E+00 0.  1.
         11    1    1    2    0    0 -0.13893309482E+02 -0.59869560422E+01 -0.57373034361E+01  0.16179750979E+02  0.00000000000E+00 0. -1.
</event>
<event>
 7    1  0.2619826E-009  0.1043061E+03  0.7561462E-02  0.1271493E+00
          1   -1    0    0  501    0  0.00000000000E+00  0.00000000000E+00  0.56772862014E+03  0.56772862014E+03  0.00000000000E+00 0. -1.
         -1   -1    0    0    0  501 -0.00000000000E+00 -0.00000000000E+00 -0.61314604700E+02  0.61314604700E+02  0.00000000000E+00 0.  1.
         25    2    1    2    0    0  0.27948372975E+02 -0.29197990896E+02  0.51305668316E+03  0.52962954956E+03  0.12508663161E+03 0.  0.
          5    1    3    3  502    0  0.42500322066E+02 -0.69249296946E+02  0.24449916930E+03  0.25768014804E+03  0.41800000000E+01 0.  1.
         -5    1    3    3    0  502 -0.14551949091E+02  0.40051306049E+02  0.26855751386E+03  0.27194940153E+03  0.41800000000E+01 0.  1.
        -11    1    1    2    0    0 -0.27882551352E+02 -0.20581858263E+02 -0.28670036239E+02  0.44978000594E+02  0.00000000000E+00 0.  1.
         11    1    1    2    0    0 -0.65821622703E-01  0.49779849159E+02  0.22027368519E+02  0.54435674687E+02  0.00000000000E+00 0. -1.
</event>
<event>
 7    1  0.2619826E-009  0.1141990E+03  0.7561462E-02  0.1252986E+00
          1   -1    0    0  501    0  0.00000000000E+00  0.00000000000E+00  0.13624639646E+03  0.13624639646E+03  0.00000000000E+00 0. -1.
         -1   -1    0    0    0  501 -0.00000000000E+00 -0.00000000000E+00 -0.12078574243E+03  0.12078574243E+03  0.00000000000E+00 0.  1.
         25    2    1    2    0    0  0.52805147547E+02  0.34392346228E+02 -0.20109243587E+01  0.14006566764E+03  0.12507250037E+03 0.  0.
          5    1    3    3  502    0  0.15592381947E+02  0.63399575934E+02  0.40059330783E+02  0.76712782417E+02  0.41800000000E+01 0. -1.
         -5    1    3    3    0  502  0.37212765601E+02 -0.29007229706E+02 -0.42070255141E+02  0.63352885227E+02  0.41800000000E+01 0. -1.
        -11    1    1    2    0    0 -0.66005469007E+02  0.12251054304E+02  0.11774606482E+02  0.68157550045E+02  0.00000000000E+00 0.  1.
         11    1    1    2    0    0  0.13200321459E+02 -0.46643400532E+02  0.56969719046E+01  0.48808921200E+02  0.00000000000E+00 0. -1.
</event>
<event>
 7    1  0.3374208E-009  0.1000920E+03  0.7561462E-02  0.1280103E+00
          2   -1    0    0  501    0  0.00000000000E+00  0.00000000000E+00  0.37953982634E+03  0.37953982634E+03  0.00000000000E+00 0.  1.
         -2   -1    0    0    0  501 -0.00000000000E+00 -0.00000000000E+00 -0.50196500085E+02  0.50196500085E+02  0.00000000000E+00 0. -1.
         25    2    1    2    0    0  0.39046849371E+02  0.49601047767E+02  0.90921132407E+02  0.16703327563E+03  0.12509413442E+03 0.  0.
          5    1    3    3  502    0  0.45153812434E+02  0.82270902246E+02  0.94618477041E+02  0.13333227940E+03  0.41800000000E+01 0.  1.
         -5    1    3    3    0  502 -0.61069630630E+01 -0.32669854480E+02 -0.36973446335E+01  0.33700996230E+02  0.41800000000E+01 0.  1.
        -11    1    1    2    0    0 -0.21877279204E+02 -0.17959703884E+01  0.33493909602E+01  0.22204938073E+02  0.00000000000E+00 0. -1.
         11    1    1    2    0    0 -0.17169570167E+02 -0.47805077378E+02  0.23507280289E+03  0.24049811272E+03  0.00000000000E+00 0.  1.
</event>
<event>
 7    1  0.2619826E-009  0.1543329E+03  0.7561462E-02  0.1195248E+00
          1   -1    0    0  501    0  0.00000000000E+00  0.00000000000E+00  0.67906076237E+03  0.67906076237E+03  0.00000000000E+00 0. -1.
         -1   -1    0    0    0  501 -0.00000000000E+00 -0.00000000000E+00 -0.45246657604E+02  0.45246657604E+02  0.00000000000E+00 0.  1.
         25    2    1    2    0    0  0.76266159492E+02 -0.86071087995E+02  0.18401220910E+03  0.25046641242E+03  0.12509265117E+03 0.  0.
          5    1    3    3  502    0  0.64130904979E+02  0.16429485699E+02  0.79106323897E+02  0.10323751186E+03  0.41800000000E+01 0.  1.
         -5    1    3    3    0  502  0.12135254513E+02 -0.10250057369E+03  0.10490588521E+03  0.14722890056E+03  0.41800000000E+01 0.  1.
        -11    1    1    2    0    0 -0.56757066948E+02  0.65290011023E+01  0.10596935095E+03  0.12038893572E+03  0.00000000000E+00 0.  1.
         11    1    1    2    0    0 -0.19509092544E+02  0.79542086892E+02  0.34383254471E+03  0.35345207183E+03  0.00000000000E+00 0. -1.
</event>
<event>
 7    1  0.2619826E-009  0.9346558E+02  0.7561462E-02  0.1294670E+00
          1   -1    0    0  501    0  0.00000000000E+00  0.00000000000E+00  0.24830315605E+03  0.24830315605E+03  0.00000000000E+00 0. -1.
         -1   -1    0    0    0  501 -0.00000000000E+00 -0.00000000000E+00 -0.48463970457E+02  0.48463970457E+02  0.00000000000E+00 0.  1.
         25    2    1    2    0    0  0.17648236117E+01 -0.91727544094E+01  0.97710084192E+02  0.15900999277E+03  0.12509861399E+03 0.  0.
          5    1    3    3  502    0  0.44753303826E+02 -0.47409731707E+02  0.67324764144E+02  0.93811711054E+02  0.41800000000E+01 0.  1.
         -5    1    3    3    0  502 -0.42988480214E+02  0.38236977298E+02  0.30385320048E+02  0.65198281714E+02  0.41800000000E+01 0.  1.
        -11    1    1    2    0    0 -0.20253492936E+02 -0.20587861514E+02 -0.94046504062E+00  0.28895475292E+02  0.00000000000E+00 0.  1.
         11    1    1    2    0    0  0.18488669325E+02  0.29760615923E+02  0.10306956644E+03  0.10886165845E+03  0.00000000000E+00 0. -1.
</event>
<event>
 6    1  0.2619826E-009  0.9193890E+02  0.7561462E-02  0.1298223E+00
          1   -1    0    0  501    0  0.00000000000E+00  0.00000000000E+00  0.16721016008E+03  0.16721016008E+03  0.00000000000E+00 0. -1.
         -1   -1    0    0    0  501 -0.00000000000E+00 -0.00000000000E+00 -0.82068397412E+02  0.82068397412E+02  0.00000000000E+00 0.  1.
          5    1    1    2  502    0  0.56087338209E+02 -0.57753236111E+02  0.57646611234E+02  0.99105146059E+02  0.41800000000E+01 0.  1.
         -5    1    1    2    0  502 -0.25180647623E+02  0.41143075731E+02  0.18413148080E+02  0.51800908462E+02  0.41800000000E+01 0.  1.
        -11    1    1    2    0    0 -0.39481012981E+02  0.41199807410E+01  0.44631020080E+02  0.59729829907E+02  0.00000000000E+00 0. -1.
         11    1    1    2    0    0  0.85743223956E+01  0.12490179639E+02 -0.35549016721E+02  0.38642673067E+02  0.00000000000E+00 0.  1.
</event>
<event>
 7    1  0.2691046E-009  0.1491617E+03  0.7561462E-02  0.1201507E+00
          2   -1    0    0  501    0  0.00000000000E+00  0.00000000000E+00  0.42901472680E+03  0.42901472680E+03  0.00000000000E+00 0. -1.
         -2   -1    0    0    0  501 -0.00000000000E+00 -0.00000000000E+00 -0.61417407983E+02  0.61417407983E+02  0.00000000000E+00 0.  1.
         25    2    1    2    0    0  0.87519436215E+02  0.75891188259E+02  0.24623550108E+03  0.29949708463E+03  0.12508979789E+03 0.  0.
          5    1    3    3  502    0  0.54871541694E+01 -0.27530624107E+02  0.92829100758E+02  0.97070894052E+02  0.41800000000E+01 0.  1.
         -5    1    3    3    0  502  0.82032282045E+02  0.10342181237E+03  0.15340640032E+03  0.20242619057E+03  0.41800000000E+01 0.  1.
        -11    1    1    2    0    0 -0.37913881436E+02 -0.79557377725E+02  0.42854606409E+02  0.97996714468E+02  0.00000000000E+00 0.  1.
         11    1    1    2    0    0 -0.49605554778E+02  0.36661894661E+01  0.78507211334E+02  0.92938335693E+02  0.00000000000E+00 0. -1.
</event>
<event>
 7    1  0.3117496E-009  0.1281184E+03  0.7561462E-02  0.1230275E+00
          2   -1    0    0  501    0  0.00000000000E+00  0.00000000000E+00  0.98537990141E+02  0.98537990141E+02  0.00000000000E+00 0.  1.
         -2   -1    0    0    0  501 -0.00000000000E+00 -0.00000000000E+00 -0.19540164509E+03  0.19540164509E+03  0.00000000000E+00 0. -1.
         25    2    1    2    0    0  0.75646243575E+02 -0.40921142978E+02 -0.52301236471E+02  0.16053259413E+03  0.12505358984E+03 0.  0.
          5    1    3    3  502    0  0.59182862237E+02  0.30419049238E+02 -0.56048558715E+02  0.87102486033E+02  0.41800000000E+01 0.  1.
         -5    1    3    3    0  502  0.16463381338E+02 -0.71340192216E+02  0.37473222442E+01  0.73430108092E+02  0.41800000000E+01 0.  1.
        -11    1    1    2    0    0 -0.41078617270E+02 -0.20377366750E+02  0.67004682938E+01  0.46342055930E+02  0.00000000000E+00 0.  1.
         11    1    1    2    0    0 -0.34567626305E+02  0.61298509727E+02 -0.51262886768E+02  0.87064985171E+02  0.00000000000E+00 0. -1.
</event>
<event>
 7    1  0.2619826E-009  0.7653899E+02  0.7561462E-02  0.1339170E+00
         -1   -1    0    0    0  501 -0.00000000000E+00  0.00000000000E+00  0.21405737787E+02  0.21405737787E+02  0.00000000000E+00 0.  1.
          1   -1    0    0  501    0  0.00000000000E+00 -0.00000000000E+00 -0.66774707257E+03  0.66774707257E+03  0.00000000000E+00 0. -1.
         25    2    1    2    0    0 -0.29377744997E+02  0.13706306697E+01 -0.41905147525E+03  0.43831265350E+03  0.12509561455E+03 0.  0.
          5    1    3    3  502    0  0.26766282794E+02  0.75127067278E+01 -0.18222013291E+02  0.33502071957E+02  0.41800000000E+01 0.  1.
         -5    1    3    3    0  502 -0.56144027791E+02 -0.61420760581E+01 -0.40082946196E+03  0.40481058154E+03  0.41800000000E+01 0.  1.
        -11    1    1    2    0    0 -0.18858540862E+02 -0.62058326901E+01 -0.15058268729E+01  0.19910410277E+02  0.00000000000E+00 0.  1.
         11    1    1    2    0    0  0.48236285859E+02  0.48352020204E+01 -0.22578403266E+03  0.23092974658E+03  0.00000000000E+00 0. -1.
</event>
<event>
 7    1  0.2619826E-009  0.8685012E+02  0.7561462E-02  0.1310664E+00
          1   -1    0    0  501    0  0.00000000000E+00  0.00000000000E+00  0.22879372379E+03  0.22879372379E+03  0.00000000000E+00 0. -1.
         -1   -1    0    0    0  501 -0.00000000000E+00 -0.00000000000E+00 -0.61459956121E+02  0.61459956121E+02  0.00000000000E+00 0.  1.
         25    2    1    2    0    0  0.32146324656E+02 -0.27138150446E+02  0.58007941122E+02  0.14416247293E+03  0.12509209395E+03 0.  0.
          5    1    3    3  502    0 -0.27862155602E+01  0.18962831019E+02  0.79826813908E+02  0.82201852632E+02  0.41800000000E+01 0. -1.
         -5    1    3    3    0  502  0.34932540216E+02 -0.46100981464E+02 -0.21818872786E+02  0.61960620297E+02  0.41800000000E+01 0. -1.
        -11    1    1    2    0    0  0.17655495398E+02 -0.20582156156E+02  0.39766627564E+02  0.48132383460E+02  0.00000000000E+00 0. -1.
         11    1    1    2    0    0 -0.49801820054E+02  0.47720306602E+02  0.69559198986E+02  0.97958823525E+02  0.00000000000E+00 0.  1.
</event>
<event>
 7    1  0.2619826E-009  0.1372601E+03  0.7561462E-02  0.1217064E+00
          2   -1    0    0  501    0  0.00000000000E+00  0.00000000000E+00  0.41426022439E+02  0.41426022439E+02  0.00000000000E+00 0.  1.
         -2   -1    0    0    0  501 -0.00000000000E+00 -0.00000000000E+00 -0.56505944515E+03  0.56505944515E+03  0.00000000000E+00 0. -1.
         25    2    1    2    0    0  0.44196612327E+02 -0.96161305499E+02 -0.24379640903E+03  0.29374297749E+03  0.12509160865E+03 0.  0.
          5    1    3    3  502    0  0.82314740362E+02 -0.50151400511E+02 -0.19063431749E+03  0.21365812612E+03  0.41800000000E+01 0. -1.
         -5    1    3    3    0  502 -0.38118128035E+02 -0.46009904988E+02 -0.53162091543E+02  0.80084851371E+02  0.41800000000E+01 0. -1.
        -11    1    1    2    0    0 -0.39312789594E+02  0.24508436950E+02 -0.20026088316E+03  0.20554945933E+03  0.00000000000E+00 0. -1.
         11    1    1    2    0    0 -0.48838227335E+01  0.71652868549E+02 -0.79576130520E+02  0.10719303076E+03  0.00000000000E+00 0.  1.
</event>
<event>
 7    1  0.2619826E-009  0.3403479E+03  0.7561462E-02  0.1066648E+00
          1   -1    0    0  501    0  0.00000000000E+00  0.00000000000E+00  0.44552976872E+03  0.44552976872E+03  0.00000000000E+00 0. -1.
         -1   -1    0    0    0  501 -0.00000000000E+00 -0.00000000000E+00 -0.33247016769E+03  0.33247016769E+03  0.00000000000E+00 0.  1.
         25    2    1    2    0    0 -0.31931583360E+03  0.48805512271E+02 -0.12278349553E+03  0.36751578042E+03  0.12508989755E+03 0.  0.
          5    1    3    3  502    0 -0.45396796944E+02 -0.35893758647E+02 -0.76751973430E+01  0.58528729158E+02  0.41800000000E+01 0.  1.
         -5    1    3    3    0  502 -0.27391903666E+03  0.84699270918E+02 -0.11510829819E+03  0.30898705126E+03  0.41800000000E+01 0.  1.
        -11    1    1    2    0    0  0.20676092024E+03  0.13639198060E+02  0.14863574868E+03  0.25500723842E+03  0.00000000000E+00 0.  1.
         11    1    1    2    0    0  0.11255491336E+03 -0.62444710331E+02  0.87207347882E+02  0.15547691756E+03  0.00000000000E+00 0. -1.
</event>
<event>
 7    1  0.2619826E-009  0.9467992E+02  0.7561462E-02  0.1291899E+00
          1   -1    0    0  501    0  0.00000000000E+00  0.00000000000E+00  0.13860145107E+03  0.13860145107E+03  0.00000000000E+00 0. -1.
         -1   -1    0    0    0  501 -0.00000000000E+00 -0.00000000000E+00 -0.94951778973E+02  0.94951778973E+02  0.00000000000E+00 0.  1.
         25    2    1    2    0    0 -0.51201737782E+01 -0.38277208894E+02  0.34765316667E+02  0.13545440753E+03  0.12509159994E+03 0.  0.
          5    1    3    3  502    0  0.30043065601E+02  0.14657373364E+02 -0.29645123928E+02  0.44874604816E+02  0.41800000000E+01 0. -1.
         -5    1    3    3    0  502 -0.35163239380E+02 -0.52934582258E+02  0.64410440595E+02  0.90579802717E+02  0.41800000000E+01 0. -1.
        -11    1    1    2    0    0  0.10983550486E+02 -0.25590814350E+02 -0.12453275626E+02  0.30505937688E+02  0.00000000000E+00 0.  1.
         11    1    1    2    0    0 -0.58633767080E+01  0.63868023244E+02  0.21337631056E+02  0.67592884823E+02  0.00000000000E+00 0. -1.
</event>
<event>
 7    1  0.2619826E-009  0.9863313E+02  0.7561462E-02  0.1283197E+00
          1   -1    0    0  501    0  0.00000000000E+00  0.00000000000E+00  0.12187362072E+03  0.12187362072E+03  0.00000000000E+00 0. -1.
         -1   -1    0    0    0  501 -0.00000000000E+00 -0.00000000000E+00 -0.25533753324E+03  0.25533753324E+03  0.00000000000E+00 0.  1.
         25    2    1    2    0    0 -0.70415439371E+02  0.49474442612E+02 -0.18700480220E+03  0.24088241617E+03  0.12508991885E+03 0.  0.
          5    1    3    3  502    0 -0.18742926139E+02  0.16723595898E+02  0.15151028984E+02  0.29631098854E+02  0.41800000000E+01 0.  1.
         -5    1    3    3    0  502 -0.51672513233E+02  0.32750846714E+02 -0.20215583119E+03  0.21125131732E+03  0.41800000000E+01 0.  1.
        -11    1    1    2    0    0  0.70849871392E+02 -0.10639524776E+02  0.18429872690E+01  0.71667987036E+02  0.00000000000E+00 0.  1.
         11    1    1    2    0    0 -0.43443202041E+00 -0.38834917836E+02  0.51697902413E+02  0.64660750757E+02  0.00000000000E+00 0. -1.
</event>
<event>
 7    1  0.2619826E-009  0.1122866E+03  0.7561462E-02  0.1256393E+00
          2   -1    0    0  501    0  0.00000000000E+00  0.00000000000E+00  0.45455669362E+03  0.45455669362E+03  0.00000000000E+00 0. -1.
         -2   -1    0    0    0  501 -0.00000000000E+00 -0.00000000000E+00 -0.33571470389E+02  0.33571470389E+02  0.00000000000E+00 0.  1.
         25    2    1    2    0    0  0.44125588227E+02 -0.37240874389E+02  0.22355798089E+03  0.26260225624E+03  0.12509126229E+03 0.  0.
          5    1    3    3  502    0 -0.27631520110E+02  0.10470153732E+02  0.13766593582E+03  0.14086343496E+03  0.41800000000E+01 0. -1.
         -5    1    3    3    0  502  0.71757108336E+02 -0.47711028121E+02  0.85892045072E+02  0.12173882129E+03  0.41800000000E+01 0. -1.
        -11    1    1    2    0    0 -0.68378975863E+01  0.62851403409E+02  0.12615231540E+03  0.14110798147E+03  0.00000000000E+00 0.  1.
         11    1    1    2    0    0 -0.37287690640E+02 -0.25610529020E+02  0.71274926937E+02  0.84417926295E+02  0.00000000000E+00 0. -1.
</event>
<event>
 7    1  0.2619826E-009  0.1467619E+03  0.7561462E-02  0.1204509E+00
         -1   -1    0    0    0  501 -0.00000000000E+00  0.00000000000E+00  0.55876166370E+02  0.55876166370E+02  0.00000000000E+00 0.  1.
          1   -1    0    0  501    0  0.00000000000E+00 -0.00000000000E+00 -0.55008203437E+03  0.55008203437E+03  0.00000000000E+00 0. -1.
         25    2    1    2    0    0 -0.96251218236E+02  0.77917915645E+02 -0.15697647651E+03  0.23585231077E+03  0.12509676146E+03 0.  0.
          5    1    3    3  502    0 -0.56326292183E+02  0.99836992287E+02 -0.15114751881E+03  0.18974488415E+03  0.41800000000E+01 0.  1.
         -5    1    3    3    0  502 -0.39924926053E+02 -0.21919076642E+02 -0.58289576974E+01  0.46107426614E+02  0.41800000000E+01 0.  1.
        -11    1    1    2    0    0  0.68519100221E+02 -0.24274146864E+02 -0.90422974567E+02  0.11601903133E+03  0.00000000000E+00 0.  1.
         11    1    1    2    0    0  0.27732118015E+02 -0.53643768781E+02 -0.24680641693E+03  0.25408685864E+03  0.00000000000E+00 0. -1.
</event>
<event>
 7    1  0.2619826E-009  0.1380249E+03  0.7561462E-02  0.1216012E+00
          1   -1    0    0  501    0  0.00000000000E+00  0.00000000000E+00  0.32484670042E+03  0.32484670042E+03  0.00000000000E+00 0. -1.
         -1   -1    0    0    0  501 -0.00000000000E+00 -0.00000000000E+00 -0.68014709779E+02  0.68014709779E+02  0.00000000000E+00 0.  1.
         25    2    1    2    0    0 -0.97770053731E+02  0.20671264349E+02  0.11728461439E+03  0.19846713336E+03  0.12508891908E+03 0.  0.
          5    1    3    3  502    0 -0.90270119819E+02  0.63675722011E+02  0.10606593458E+03  0.15320165464E+03  0.41800000000E+01 0.  1.
         -5    1    3    3    0  502 -0.74999339125E+01 -0.43004457662E+02  0.11218679807E+02  0.45265478724E+02  0.41800000000E+01 0.  1.
        -11    1    1    2    0    0  0.62034446320E+02  0.22154633347E+02  0.31977307384E+02  0.73223278379E+02  0.00000000000E+00 0.  1.
         11    1    1    2    0    0  0.35735607411E+02 -0.42825897696E+02  0.10757006887E+03  0.12117099846E+03  0.00000000000E+00 0. -1.
</event>
<event>
 7    1  0.2619826E-009  0.9942882E+02  0.7561462E-02  0.1281502E+00
          2   -1    0    0  501    0  0.00000000000E+00  0.00000000000E+00  0.12118941607E+04  0.12118941607E+04  0.00000000000E+00 0. -1.
         -2   -1    0    0    0  501 -0.00000000000E+00 -0.00000000000E+00 -0.12459615437E+02  0.12459615437E+02  0.00000000000E+00 0.  1.
         25    2    1    2    0    0  0.34495044689E+01  0.38446361996E+02  0.89158159364E+03  0.90114122172E+03  0.12509093309E+03 0.  0.
          5    1    3    3  502    0 -0.48641973654E+02  0.48423875587E+02  0.33262352942E+03  0.33965688282E+03  0.41800000000E+01 0. -1.
         -5    1    3    3    0  502  0.52091478123E+02 -0.99775135908E+01  0.55895806422E+03  0.56148433890E+03  0.41800000000E+01 0. -1.
        -11    1    1    2    0    0 -0.25928045824E+02 -0.46312420678E+02  0.28602357680E+03  0.29090649762E+03  0.00000000000E+00 0. -1.
         11    1    1    2    0    0  0.22478541355E+02  0.78660586820E+01  0.21829374823E+02  0.32306056797E+02  0.00000000000E+00 0.  1.
</event>
<event>
 7    1  0.2619826E-009  0.9831911E+02  0.7561462E-02  0.1283871E+00
          3   -1    0    0  501    0  0.00000000000E+00  0.00000000000E+00  0.17789062661E+03  0.17789062661E+03  0.00000000000E+00 0. -1.
         -3   -1    0    0    0  501 -0.00000000000E+00 -0.00000000000E+00 -0.73710195723E+02  0.73710195723E+02  0.00000000000E+00 0.  1.
         25    2    1    2    0    0 -0.17814005132E+02 -0.19673452503E+02  0.95209481439E+02  0.15942554347E+03  0.12508906844E+03 0.  0.
          5    1    3    3  502    0  0.15286692543E+02 -0.60493301482E+02  0.16471503362E+02  0.64667652781E+02  0.41800000000E+01 0. -1.
         -5    1    3    3    0  502 -0.33100697675E+02  0.40819848980E+02  0.78737978076E+02  0.94757890694E+02  0.41800000000E+01 0. -1.
        -11    1    1    2    0    0  0.17995817027E+02  0.48925908917E+02 -0.15120228797E+02  0.54279050403E+02  0.00000000000E+00 0.  1.
         11    1    1    2    0    0 -0.18181189465E+00 -0.29252456414E+02  0.24091178242E+02  0.37896228453E+02  0.00000000000E+00 0. -1.
</event>
<event>
 7    1  0.2619826E-009  0.1125397E+03  0.7561462E-02  0.1255938E+00
          3   -1    0    0  501    0  0.00000000000E+00  0.00000000000E+00  0.31922164866E+02  0.31922164866E+02  0.00000000000E+00 0. -1.
         -3   -1    0    0    0  501 -0.00000000000E+00 -0.00000000000E+00 -0.40026318909E+03  0.40026318909E+03  0.00000000000E+00 0.  1.
         25    2    1    2    0    0 -0.21925108995E+02  0.29818313494E+02 -0.19816384161E+03  0.23724656317E+03  0.12508869411E+03 0.  0.
          5    1    3    3  502    0  0.51208975402E+02  0.11532675403E+01 -0.87450271893E+02  0.10143328666E+03  0.41800000000E+01 0. -1.
         -5    1    3    3    0  502 -0.73134084397E+02  0.28665045953E+02 -0.11071356971E+03  0.13581327652E+03  0.41800000000E+01 0. -1.
        -11    1    1    2    0    0 -0.23273246562E+02 -0.42172884776E+02 -0.82841764711E+02  0.95827731875E+02  0.00000000000E+00 0.  1.
         11    1    1    2    0    0  0.45198355557E+02  0.12354571283E+02 -0.87335417907E+02  0.99111058907E+02  0.00000000000E+00 0. -1.
</event>
<event>
 7    1  0.2619826E-009  0.1293771E+03  0.7561462E-02  0.1228383E+00
          2   -1    0    0  501    0  0.00000000000E+00  0.00000000000E+00  0.57844437764E+02  0.57844437764E+02  0.00000000000E+00 0. -1.
         -2   -1    0    0    0  501 -0.00000000000E+00 -0.00000000000E+00 -0.44048652117E+03  0.44048652117E+03  0.00000000000E+00 0.  1.
         25    2    1    2    0    0 -0.73127779888E+02  0.43188287037E+02 -0.80550891146E+02  0.17131372657E+03  0.12508815498E+03 0.  0.
          5    1    3    3  502    0  0.25795716230E+02  0.31858944462E+02 -0.54469721555E+02  0.68299592124E+02  0.41800000000E+01 0. -1.
         -5    1    3    3    0  502 -0.98923496118E+02  0.11329342575E+02 -0.26081169591E+02  0.10301413444E+03  0.41800000000E+01 0. -1.
        -11    1    1    2    0    0  0.49452737602E+02  0.17729124832E+02 -0.19132971458E+03  0.19841107531E+03  0.00000000000E+00 0. -1.
         11    1    1    2    0    0  0.23675042286E+02 -0.60917411869E+02 -0.11076147767E+03  0.12860615705E+03  0.00000000000E+00 0.  1.
</event>
<event>
 7    1  0.2619826E-009  0.1363753E+03  0.7561462E-02  0.1218291E+00
          2   -1    0    0  501    0  0.00000000000E+00  0.00000000000E+00  0.16678850021E+03  0.16678850021E+03  0.00000000000E+00 0. -1.
         -2   -1    0    0    0  501 -0.00000000000E+00 -0.00000000000E+00 -0.15301324266E+03  0.15301324266E+03  0.00000000000E+00 0.  1.
         25    2    1    2    0    0 -0.60630175492E+02  0.78606517639E+02 -0.51812118364E+02  0.16788835905E+03  0.12508797983E+03 0.  0.
          5    1    3    3  502    0 -0.87203530734E+02  0.55890673368E+02 -0.73009480407E+02  0.12679148146E+03  0.41800000000E+01 0.  1.
         -5    1    3    3    0  502  0.26573355242E+02  0.22715844271E+02  0.21197362043E+02  0.41096877587E+02  0.41800000000E+01 0.  1.
        -11    1    1    2    0    0 -0.17237920844E+02 -0.46609519627E+02  0.90702132894E+01  0.50515957915E+02  0.00000000000E+00 0.  1.
         11    1    1    2    0    0  0.77868096336E+02 -0.31996998012E+02  0.56517162631E+02  0.10139742591E+03  0.00000000000E+00 0. -1.
</event>
<event>
 7    1  0.2619826E-009  0.9579348E+02  0.7561462E-02  0.1289399E+00
         -2   -1    0    0    0  501 -0.00000000000E+00  0.00000000000E+00  0.31449045752E+02  0.31449045752E+02  0.00000000000E+00 0.  1.
          2   -1    0    0  501    0  0.00000000000E+00 -0.00000000000E+00 -0.59088701663E+03  0.59088701663E+03  0.00000000000E+00 0. -1.
         25    2    1    2    0    0 -0.78799931088E+01 -0.33896672703E+02 -0.47939607684E+03  0.49666910551E+03  0.12509405727E+03 0.  0.
          5    1    3    3  502    0  0.43314775861E+02 -0.14651471265E+02 -0.38313623485E+03  0.38587780744E+03  0.41800000000E+01 0.  1.
         -5    1    3    3    0  502 -0.51194768970E+02 -0.19245201438E+02 -0.96259841990E+02  0.11079129807E+03  0.41800000000E+01 0.  1.
        -11    1    1    2    0    0 -0.13819138169E+01  0.61596129807E+02 -0.31955761673E+02  0.69405789363E+02  0.00000000000E+00 0.  1.
         11    1    1    2    0    0  0.92619069257E+01 -0.27699457104E+02 -0.48086132364E+02  0.56261167509E+02  0.00000000000E+00 0. -1.
</event>
<event>
 7    1  0.2619826E-009  0.1146234E+03  0.7561462E-02  0.1252240E+00
          1   -1    0    0  501    0  0.00000000000E+00  0.00000000000E+00  0.41109982670E+02  0.41109982670E+02  0.00000000000E+00 0. -1.
         -1   -1    0    0    0  501 -0.00000000000E+00 -0.00000000000E+00 -0.54037686323E+03  0.54037686323E+03  0.00000000000E+00 0.  1.
         25    2    1    2    0    0  0.52917513249E+02 -0.58518938711E+02 -0.14716702108E+03  0.20864272781E+03  0.12509566891E+03 0.  0.
          5    1    3    3  502    0  0.70910379650E+02 -0.47360675018E+02 -0.31532169758E+02  0.91011348798E+02  0.41800000000E+01 0.  1.
         -5    1    3    3    0  502 -0.17992866402E+02 -0.11158263693E+02 -0.11563485132E+03  0.11763137902E+03  0.41800000000E+01 0.  1.
        -11    1    1    2    0    0  0.10605682365E+02 -0.19188472652E+02 -0.74401462252E+02  0.77564525180E+02  0.00000000000E+00 0.  1.
         11    1    1    2    0    0 -0.63523195614E+02  0.77707411362E+02 -0.27769839723E+03  0.29527959291E+03  0.00000000000E+00 0. -1.
</event>
<event>
 7    1  0.2619826E-009  0.9636826E+02  0.7561462E-02  0.1288124E+00
         -1   -1    0    0    0  501 -0.00000000000E+00  0.00000000000E+00  0.49741244190E+02  0.49741244190E+02  0.00000000000E+00 0.  1.
          1   -1    0    0  501    0  0.00000000000E+00 -0.00000000000E+00 -0.33424866908E+03  0.33424866908E+03  0.00000000000E+00 0. -1.
         25    2    1    2    0    0 -0.11516838515E+02  0.28738161991E+02 -0.65126065776E+02  0.14438690330E+03  0.12509058269E+03 0.  0.
          5    1    3    3  502    0 -0.32427551235E+02  0.71078255230E+02 -0.55731833782E+02  0.96058181027E+02  0.41800000000E+01 0. -1.
         -5    1    3    3    0  502  0.20910712720E+02 -0.42340093239E+02 -0.93942319937E+01  0.48328722274E+02  0.41800000000E+01 0. -1.
        -11    1    1    2    0    0  0.60727560724E+01  0.18535952386E+02 -0.51828382191E+01  0.20182212692E+02  0.00000000000E+00 0.  1.
         11    1    1    2    0    0  0.54440824422E+01 -0.47274114377E+02 -0.21419852089E+03  0.21942079727E+03  0.00000000000E+00 0. -1.
</event>
<event>
 6    1  0.2619826E-009  0.1420085E+03  0.7561462E-02  0.1210652E+00
         -1   -1    0    0    0  501 -0.00000000000E+00  0.00000000000E+00  0.45673885117E+02  0.45673885117E+02  0.00000000000E+00 0.  1.
          1   -1    0    0  501    0  0.00000000000E+00 -0.00000000000E+00 -0.52522187892E+03  0.52522187892E+03  0.00000000000E+00 0. -1.
          5    1    1    2  502    0  0.25941211623E+02  0.23773048065E+02 -0.40525032346E+02  0.53831727833E+02  0.41800000000E+01 0.  1.
         -5    1    1    2    0  502 -0.72212009894E+02 -0.83115789454E+02 -0.96645335561E+02  0.14656262182E+03  0.41800000000E+01 0.  1.
        -11    1    1    2    0    0  0.83984442664E+02  0.55105725740E+02 -0.20993802277E+03  0.23273160727E+03  0.00000000000E+00 0.  1.
         11    1    1    2    0    0 -0.37713644393E+02  0.42370156491E+01 -0.13243960313E+03  0.13776980711E+03  0.00000000000E+00 0. -1.
</event>
<event>
 7    1  0.2619826E-009  0.1372078E+03  0.7561462E-02  0.1217136E+00
          1   -1    0    0  501    0  0.00000000000E+00  0.00000000000E+00  0.10919257614E+03  0.10919257614E+03  0.00000000000E+00 0. -1.
         -1   -1    0    0    0  501 -0.00000000000E+00 -0.00000000000E+00 -0.27175787006E+03  0.27175787006E+03  0.00000000000E+00 0.  1.
         25    2    1    2    0    0 -0.10605994071E+03 -0.75486303420E+02 -0.11596231146E+03  0.21457311917E+03  0.12508985875E+03 0.  0.
          5    1    3    3  502    0 -0.10206049231E+03 -0.84923104853E+02 -0.13698420153E+03  0.19081515060E+03  0.41800000000E+01 0. -1.
         -5    1    3    3    0  502 -0.39994484020E+01  0.94368014327E+01  0.21021890066E+02  0.23757968574E+02  0.41800000000E+01 0. -1.
        -11    1    1    2    0    0  0.29541525814E+02  0.16056632288E+02 -0.59792072934E+02  0.68597442908E+02  0.00000000000E+00 0.  1.
         11    1    1    2    0    0  0.76518414900E+02  0.59429671132E+02  0.13189090478E+02  0.97779884114E+02  0.00000000000E+00 0. -1.
</event>
<event>
 7    1  0.2619826E-009  0.9452431E+02  0.7561462E-02  0.1292251E+00
         -1   -1    0    0    0  501 -0.00000000000E+00  0.00000000000E+00  0.23025913107E+03  0.23025913107E+03  0.00000000000E+00 0.  1.
          1   -1    0    0  501    0  0.00000000000E+00 -0.00000000000E+00 -0.55061974437E+02  0.55061974437E+02  0.00000000000E+00 0. -1.
         25    2    1    2    0    0 -0.11945479527E+02  0.26744500804E+02  0.78485161909E+02  0.15055314947E+03  0.12509343456E+03 0.  0.
          5    1    3    3  502    0 -0.66093507241E+02  0.16043267848E+02  0.63654197415E+02  0.93247345223E+02  0.41800000000E+01 0. -1.
         -5    1    3    3    0  502  0.54148027714E+02  0.10701232955E+02  0.14830964494E+02  0.57305804242E+02  0.41800000000E+01 0. -1.
        -11    1    1    2    0    0  0.10890520680E+02  0.17870065583E+02 -0.68338384098E+01  0.22014632226E+02  0.00000000000E+00 0. -1.
         11    1    1    2    0    0  0.10549588464E+01 -0.44614566386E+02  0.10354583313E+03  0.11275332381E+03  0.00000000000E+00 0.  1.
</event>
<event>
 7    1  0.2619826E-009  0.1188129E+03  0.7561462E-02  0.1245068E+00
         -1   -1    0    0    0  501 -0.00000000000E+00  0.00000000000E+00  0.55939302344E+02  0.55939302344E+02  0.00000000000E+00 0.  1.
          1   -1    0    0  501    0  0.00000000000E+00 -0.00000000000E+00 -0.28021220841E+03  0.28021220841E+03  0.00000000000E+00 0. -1.
         25    2    1    2    0    0  0.52656416102E+02  0.18033824583E+02 -0.17284820588E+03  0.22050063837E+03  0.12508442053E+03 0.  0.
          5    1    3    3  502    0 -0.36413731054E+02  0.27442260028E+02 -0.74223413106E+02  0.87210233905E+02  0.41800000000E+01 0.  1.
         -5    1    3    3    0  502  0.89070147157E+02 -0.94084354447E+01 -0.98624792771E+02  0.13329040446E+03  0.41800000000E+01 0.  1.
        -11    1    1    2    0    0  0.23897373764E+02 -0.64246245787E+01 -0.21011728177E+02  0.32463102051E+02  0.00000000000E+00 0.  1.
         11    1    1    2    0    0 -0.76553789866E+02 -0.11609200004E+02 -0.30412972016E+02  0.83187770342E+02  0.00000000000E+00 0. -1.
</event>
<event>
 7    1  0.2619826E-009  0.1261447E+03  0.7561462E-02  0.1233291E+00
          1   -1    0    0  501    0  0.00000000000E+00  0.00000000000E+00  0.58382245698E+03  0.58382245698E+03  0.00000000000E+00 0. -1.
         -1   -1    0    0    0  501 -0.00000000000E+00 -0.00000000000E+00 -0.40673577834E+02  0.40673577834E+02  0.00000000000E+00 0.  1.
         25    2    1    2    0    0  0.12162308636E+02 -0.93467768262E+02  0.18295104006E+03  0.24083508307E+03  0.12508520587E+03 0.  0.
          5    1    3    3  502    0  0.68050000590E+02 -0.39376474698E+02  0.91792498680E+02  0.12093239663E+03  0.41800000000E+01 0. -1.
         -5    1    3    3    0  502 -0.55887691954E+02 -0.54091293564E+02  0.91158541375E+02  0.11990268645E+03  0.41800000000E+01 0. -1.
        -11    1    1    2    0    0  0.34497801812E+01  0.34356962003E+02  0.24247654091E+02  0.42193015421E+02  0.00000000000E+00 0.  1.
         11    1    1    2    0    0 -0.15612088817E+02  0.59110806258E+02  0.33595018500E+03  0.34146793632E+03  0.00000000000E+00 0. -1.
</event>
<event>
 7    1  0.2619826E-009  0.1465280E+03  0.7561462E-02  0.1204805E+00
          2   -1    0    0  501    0  0.00000000000E+00  0.00000000000E+00  0.47080700508E+02  0.47080700508E+02  0.00000000000E+00 0. -1.
         -2   -1    0    0    0  501 -0.00000000000E+00 -0.00000000000E+00 -0.68036504929E+03  0.68036504929E+03  0.00000000000E+00 0.  1.
         25    2    1    2    0    0 -0.15721377461E+02 -0.11298164922E+03 -0.16295339788E+03  0.23498125431E+03  0.12510141978E+03 0.  0.
          5    1    3    3  502    0 -0.48380096357E+02 -0.77943751255E+01 -0.90740873522E+02  0.10321223055E+03  0.41800000000E+01 0. -1.
         -5    1    3    3    0  502  0.32658718896E+02 -0.10518727409E+03 -0.72212524355E+02  0.13176902377E+03  0.41800000000E+01 0. -1.
        -11    1    1    2    0    0 -0.23242583885E+02  0.13651336658E+02 -0.34603353860E+02  0.43863068709E+02  0.00000000000E+00 0. -1.
         11    1    1    2    0    0  0.38963961346E+02  0.99330312559E+02 -0.43572759704E+03  0.44860142677E+03  0.00000000000E+00 0.  1.
</event>
<event>
 7    1  0.2619826E-009  0.1171339E+03  0.7561462E-02  0.1247901E+00
         -2   -1    0    0    0  501 -0.00000000000E+00  0.00000000000E+00  0.83753330292E+02  0.83753330292E+02  0.00000000000E+00 0.  1.
          2   -1    0    0  501    0  0.00000000000E+00 -0.00000000000E+00 -0.29097834665E+03  0.29097834665E+03  0.00000000000E+00 0. -1.
         25    2    1    2    0    0 -0.48916624881E+02 -0.87269410009E+02 -0.51166754306E+02  0.16815268304E+03  0.12509397249E+03 0.  0.
          5    1    3    3  502    0 -0.62115868670E+02 -0.96934418295E+02 -0.76078217835E+02  0.13805806829E+03  0.41800000000E+01 0.  1.
         -5    1    3    3    0  502  0.13199243789E+02  0.96650082852E+01  0.24911463529E+02  0.30094614750E+02  0.41800000000E+01 0.  1.
        -11    1    1    2    0    0  0.30250133845E+02  0.71879067901E+02 -0.39275975055E+02  0.87317084333E+02  0.00000000000E+00 0.  1.
         11    1    1    2    0    0  0.18666491036E+02  0.15390342109E+02 -0.11678228700E+03  0.11926190957E+03  0.00000000000E+00 0. -1.
</event>
<event>
 7    1  0.2619826E-009  0.7493752E+02  0.7561462E-02  0.1344065E+00
         -1   -1    0    0    0  501 -0.00000000000E+00  0.00000000000E+00  0.30342690980E+02  0.30342690980E+02  0.00000000000E+00 0.  1.
          1   -1    0    0  501    0  0.00000000000E+00 -0.00000000000E+00 -0.47624782157E+03  0.47624782157E+03  0.00000000000E+00 0. -1.
         25    2    1    2    0    0  0.34420223476E+01  0.59341172781E+01 -0.36064854234E+03  0.38178785539E+03  0.12509010420E+03 0.  0.
          5    1    3    3  502    0 -0.67800164855E+01  0.30646457574E+02 -0.35192857028E+03  0.35335020160E+03  0.41800000000E+01 0. -1.
         -5    1    3    3    0  502  0.10222038833E+02 -0.24712340296E+02 -0.87199720517E+01  0.28437653796E+02  0.41800000000E+01 0. -1.
        -11    1    1    2    0    0 -0.11755442543E+02 -0.47408055314E+02 -0.45792803232E+02  0.66952930973E+02  0.00000000000E+00 0.  1.
         11    1    1    2    0    0  0.83134201956E+01  0.41473938036E+02 -0.39463785023E+02  0.57849726186E+02  0.00000000000E+00 0. -1.
</event>
<event>
 7    1  0.2619826E-009  0.1873188E+03  0.7561462E-02  0.1160902E+00
         -2   -1    0    0    0  501 -0.00000000000E+00  0.00000000000E+00  0.11783114091E+03  0.11783114091E+03  0.00000000000E+00 0.  1.
          2   -1    0    0  501    0  0.00000000000E+00 -0.00000000000E+00 -0.41286241026E+03  0.41286241026E+03  0.00000000000E+00 0. -1.
         25    2    1    2    0    0 -0.16269410998E+03  0.59670244479E+02 -0.23917632062E+03  0.32075099633E+03  0.12508388308E+03 0.  0.
          5    1    3    3  502    0 -0.18107378128E+02  0.37807203705E+02 -0.21092206577E+01  0.42180362806E+02  0.41800000000E+01 0.  1.
         -5    1    3    3    0  502 -0.14458673186E+03  0.21863040773E+02 -0.23706709996E+03  0.27857063353E+03  0.41800000000E+01 0.  1.
        -11    1    1    2    0    0  0.87766796886E+02  0.40518608485E+01 -0.67637879777E+02  0.11087971407E+03  0.00000000000E+00 0. -1.
         11    1    1    2    0    0  0.74927313099E+02 -0.63722105327E+02  0.11782931052E+02  0.99062840761E+02  0.00000000000E+00 0.  1.
</event>
<event>
 7    1  0.2619826E-009  0.8763764E+02  0.7561462E-02  0.1308675E+00
         -2   -1    0    0    0  501 -0.00000000000E+00  0.00000000000E+00  0.31499684712E+03  0.31499684712E+03  0.00000000000E+00 0.  1.
          2   -1    0    0  501    0  0.00000000000E+00 -0.00000000000E+00 -0.50779118117E+02  0.50779118117E+02  0.00000000000E+00 0. -1.
         25    2    1    2    0    0  0.76046477177E+01  0.54644355085E+02  0.21214272116E+03  0.25238137986E+03  0.12509192840E+03 0.  0.
          5    1    3    3  502    0  0.11482199303E+02 -0.12563859963E+02  0.17402666893E+03  0.17490696206E+03  0.41800000000E+01 0. -1.
         -5    1    3    3    0  502 -0.38775515852E+01  0.67208215047E+02  0.38116052226E+02  0.77474417800E+02  0.41800000000E+01 0. -1.
        -11    1    1    2    0    0  0.30275152142E+02 -0.10300895014E+02  0.44184511309E+02  0.54543233447E+02  0.00000000000E+00 0.  1.
         11    1    1    2    0    0 -0.37879799859E+02 -0.44343460071E+02  0.78904965376E+01  0.58851351930E+02  0.00000000000E+00 0. -1.
</event>
<event>
 7    1  0.2619826E-009  0.2792229E+03  0.7561462E-02  0.1096114E+00
         -2   -1    0    0    0  501 -0.00000000000E+00  0.00000000000E+00  0.20143509883E+03  0.20143509883E+03  0.00000000000E+00 0.  1.
          2   -1    0    0  501    0  0.00000000000E+00 -0.00000000000E+00 -0.41315398155E+03  0.41315398155E+03  0.00000000000E+00 0. -1.
         25    2    1    2    0    0  0.23299708846E+03 -0.12939021746E+03 -0.91466289300E+02  0.30829190863E+03  0.12509335413E+03 0.  0.
          5    1    3    3  502    0 -0.61104675299E+01  0.10236830821E+02  0.69290651234E+01  0.14408846663E+02  0.41800000000E+01 0. -1.
         -5    1    3    3    0  502  0.23910755599E+03 -0.13962704828E+03 -0.98395354423E+02  0.29388306197E+03  0.41800000000E+01 0. -1.
        -11    1    1    2    0    0 -0.31104036929E+02  0.43347766842E+01  0.12991205683E+02  0.33985626774E+02  0.00000000000E+00 0.  1.
         11    1    1    2    0    0 -0.20189305153E+03  0.12505544078E+03 -0.13324379911E+03  0.27231154497E+03  0.00000000000E+00 0. -1.
</event>
<event>
 7    1  0.2725114E-009  0.1192311E+03  0.7561462E-02  0.1244371E+00
         -1   -1    0    0    0  501 -0.00000000000E+00  0.00000000000E+00  0.27153049772E+02  0.27153049772E+02  0.00000000000E+00 0.  1.
          1   -1    0    0  501    0  0.00000000000E+00 -0.00000000000E+00 -0.80756011941E+03  0.80756011941E+03  0.00000000000E+00 0. -1.
         25    2    1    2    0    0 -0.13786946372E+02  0.80424742592E+02 -0.58848811314E+03  0.60714396337E+03  0.12508922349E+03 0.  0.
          5    1    3    3  502    0  0.37055233549E+02  0.47602042098E+02 -0.11635344116E+03  0.13112833567E+03  0.41800000000E+01 0.  1.
         -5    1    3    3    0  502 -0.50842179921E+02  0.32822700494E+02 -0.47213467198E+03  0.47601562769E+03  0.41800000000E+01 0.  1.
        -11    1    1    2    0    0  0.48320321181E+02 -0.32387909100E+02 -0.63144455534E+02  0.85854833059E+02  0.00000000000E+00 0.  1.
         11    1    1    2    0    0 -0.34533374809E+02 -0.48036833492E+02 -0.12877450096E+03  0.14171437276E+03  0.00000000000E+00 0. -1.
</event>
<event>
 6    1  0.2619826E-009  0.1197686E+03  0.7561462E-02  0.1243479E+00
         -1   -1    0    0    0  501 -0.00000000000E+00  0.00000000000E+00  0.13197738730E+03  0.13197738730E+03  0.00000000000E+00 0.  1.
          1   -1    0    0  501    0  0.00000000000E+00 -0.00000000000E+00 -0.11942525073E+03  0.11942525073E+03  0.00000000000E+00 0. -1.
          5    1    1    2  502    0 -0.93856804313E+02 -0.31160240915E+02  0.20530547327E+02  0.10108924821E+03  0.41800000000E+01 0. -1.
         -5    1    1    2    0  502  0.37212257938E+02  0.12492644392E+02  0.29876901367E+01  0.39588091608E+02  0.41800000000E+01 0. -1.
        -11    1    1    2    0    0  0.35841120263E+01 -0.29319770603E+02  0.16803607620E+02  0.33983172840E+02  0.00000000000E+00 0.  1.
         11    1    1    2    0    0  0.53060434348E+02  0.47987367126E+02 -0.27769708508E+02  0.76742125377E+02  0.00000000000E+00 0. -1.
</event>
<event>
 7    1  0.2619826E-009  0.9744040E+02  0.7561462E-02  0.1285772E+00
          1   -1    0    0  501    0  0.00000000000E+00  0.00000000000E+00  0.59615273226E+03  0.59615273226E+03  0.00000000000E+00 0. -1.
         -1   -1    0    0    0  501 -0.00000000000E+00 -0.00000000000E+00 -0.21451404108E+02  0.21451404108E+02  0.00000000000E+00 0.  1.
         25    2    1    2    0    0 -0.16295105463E+02  0.29174328947E+02  0.36965216765E+03  0.39167219376E+03  0.12509080855E+03 0.  0.
          5    1    3    3  502    0  0.35788798879E+02  0.31717278528E+02  0.30380448338E+03  0.30757350407E+03  0.41800000000E+01 0. -1.
         -5    1    3    3    0  502 -0.52083904342E+02 -0.25429495813E+01  0.65847684272E+02  0.84098689693E+02  0.41800000000E+01 0. -1.
        -11    1    1    2    0    0 -0.11235277061E+02 -0.55408535604E+02  0.13132829091E+03  0.14298061848E+03  0.00000000000E+00 0. -1.
         11    1    1    2    0    0  0.27530382524E+02  0.26234206657E+02  0.73720869584E+02  0.82951324119E+02  0.00000000000E+00 0.  1.
</event>
<event>
 7    1  0.2619826E-009  0.1836834E+03  0.7561462E-02  0.1164285E+00
          1   -1    0    0  501    0  0.00000000000E+00  0.00000000000E+00  0.12697625412E+03  0.12697625412E+03  0.00000000000E+00 0. -1.
         -1   -1    0    0    0  501 -0.00000000000E+00 -0.00000000000E+00 -0.37004110034E+03  0.37004110034E+03  0.00000000000E+00 0.  1.
         25    2    1    2    0    0  0.14916715856E+03  0.10356855988E+03 -0.14677424029E+03  0.26489006471E+03  0.12508709358E+03 0.  0.
          5    1    3    3  502    0  0.42296322703E+02  0.10119329014E+02  0.18088157817E+02  0.47286716815E+02  0.41800000000E+01 0. -1.
         -5    1    3    3    0  502  0.10687083586E+03  0.93449230862E+02 -0.16486239811E+03  0.21760334790E+03  0.41800000000E+01 0. -1.
        -11    1    1    2    0    0 -0.75848817054E+02 -0.55334633280E+02 -0.10854256229E+03  0.14351464217E+03  0.00000000000E+00 0.  1.
         11    1    1    2    0    0 -0.73318341507E+02 -0.48233926596E+02  0.12251956353E+02  0.88612647578E+02  0.00000000000E+00 0. -1.
</event>
<event>
 7    1  0.2619826E-009  0.1098225E+03  0.7561462E-02  0.1260899E+00
          2   -1    0    0  501    0  0.00000000000E+00  0.00000000000E+00  0.48531240259E+03  0.48531240259E+03  0.00000000000E+00 0. -1.
         -2   -1    0    0    0  501 -0.00000000000E+00 -0.00000000000E+00 -0.34772909051E+02  0.34772909051E+02  0.00000000000E+00 0.  1.
         25    2    1    2    0    0  0.66208317547E+02  0.28829870051E+02  0.25710949573E+03  0.29490491765E+03  0.12509562320E+03 0.  0.
          5    1    3    3  502    0 -0.37181770790E+02  0.98413334980E+01  0.58156969340E+02  0.69850135339E+02  0.41800000000E+01 0.  1.
         -5    1    3    3    0  502  0.10339008834E+03  0.18988536553E+02  0.19895252639E+03  0.22505478231E+03  0.41800000000E+01 0.  1.
        -11    1    1    2    0    0 -0.56376635978E+02 -0.32716441817E+02  0.20156404830E+03  0.21184134681E+03  0.00000000000E+00 0. -1.
         11    1    1    2    0    0 -0.98316815684E+01  0.38865717659E+01 -0.81340504836E+01  0.13339047186E+02  0.00000000000E+00 0.  1.
</event>
<event>
 7    1  0.2619826E-009  0.1156133E+03  0.7561462E-02  0.1250514E+00
         -2   -1    0    0    0  501 -0.00000000000E+00  0.00000000000E+00  0.13066157684E+03  0.13066157684E+03  0.00000000000E+00 0.  1.
          2   -1    0    0  501    0  0.00000000000E+00 -0.00000000000E+00 -0.11315696260E+03  0.11315696260E+03  0.00000000000E+00 0. -1.
         25    2    1    2    0    0 -0.49786493880E+02 -0.23475400438E+02  0.15532271949E+02  0.13754241833E+03  0.12508747328E+03 0.  0.
          5    1    3    3  502    0  0.19836740648E+02 -0.52906030977E+02 -0.10234466518E+02  0.57573961981E+02  0.41800000000E+01 0. -1.
         -5    1    3    3    0  502 -0.69623234528E+02  0.29430630539E+02  0.25766738466E+02  0.79968456352E+02  0.41800000000E+01 0. -1.
        -11    1    1    2    0    0  0.65584215483E+02  0.39339178070E+02 -0.15307850306E+02  0.77994810935E+02  0.00000000000E+00 0. -1.
         11    1    1    2    0    0 -0.15797721602E+02 -0.15863777633E+02  0.17280192601E+02  0.28281310170E+02  0.00000000000E+00 0.  1.
</event>
<event>
 7    1  0.2619826E-009  0.1322119E+03  0.7561462E-02  0.1224210E+00
          1   -1    0    0  501    0  0.00000000000E+00  0.00000000000E+00  0.83963927945E+02  0.83963927945E+02  0.00000000000E+00 0. -1.
         -1   -1    0    0    0  501 -0.00000000000E+00 -0.00000000000E+00 -0.27606277750E+03  0.27606277750E+03  0.00000000000E+00 0.  1.
         25    2    1    2    0    0 -0.89296756667E+02  0.42040996289E+02 -0.15086804397E+03  0.21942958839E+03  0.12508725534E+03 0.  0.
          5    1    3    3  502    0 -0.24117650528E+02 -0.33170107058E+02 -0.32567475844E+01  0.41352096369E+02  0.41800000000E+01 0. -1.
         -5    1    3    3    0  502 -0.65179106139E+02  0.75211103348E+02 -0.14761129639E+03  0.17807749202E+03  0.41800000000E+01 0. -1.
        -11    1    1    2    0    0  0.33765042037E+01 -0.37390298688E+02  0.12003915128E+02  0.39414834707E+02  0.00000000000E+00 0. -1.
         11    1    1    2    0    0  0.85920252463E+02 -0.46506976018E+01 -0.53234720709E+02  0.10118228234E+03  0.00000000000E+00 0.  1.
</event>
<event>
 7    1  0.2619826E-009  0.1337610E+03  0.7561462E-02  0.1221979E+00
          1   -1    0    0  501    0  0.00000000000E+00  0.00000000000E+00  0.43045931212E+03  0.43045931212E+03  0.00000000000E+00 0. -1.
         -1   -1    0    0    0  501 -0.00000000000E+00 -0.00000000000E+00 -0.44991413279E+02  0.44991413279E+02  0.00000000000E+00 0.  1.
         25    2    1    2    0    0 -0.32870752528E+02 -0.81041509745E+02  0.20771232800E+03  0.25776444660E+03  0.12509950460E+03 0.  0.
          5    1    3    3  502    0  0.39049523600E+02  0.39177582068E+01  0.72788939104E+02  0.82800460015E+02  0.41800000000E+01 0.  1.
         -5    1    3    3    0  502 -0.71920276128E+02 -0.84959267952E+02  0.13492338890E+03  0.17496398658E+03  0.41800000000E+01 0.  1.
        -11    1    1    2    0    0  0.58130858077E+02  0.62307838412E+02  0.87629557085E+02  0.12223093988E+03  0.00000000000E+00 0.  1.
         11    1    1    2    0    0 -0.25260105549E+02  0.18733671333E+02  0.90126013748E+02  0.95455338919E+02  0.00000000000E+00 0. -1.
</event>
<event>
 7    1  0.2619826E-009  0.1815299E+03  0.7561462E-02  0.1166331E+00
          3   -1    0    0  501    0  0.00000000000E+00  0.00000000000E+00  0.84710530716E+02  0.84710530716E+02  0.00000000000E+00 0. -1.
         -3   -1    0    0    0  501 -0.00000000000E+00 -0.00000000000E+00 -0.45520317213E+03  0.45520317213E+03  0.00000000000E+00 0.  1.
         25    2    1    2    0    0  0.10455657438E+03  0.12358444380E+03 -0.20821050418E+03  0.29189741420E+03  0.12508914570E+03 0.  0.
          5    1    3    3  502    0  0.29774822832E+02 -0.20220104422E+02 -0.70093752372E+02  0.78905001230E+02  0.41800000000E+01 0.  1.
         -5    1    3    3    0  502  0.74781751553E+02  0.14380454822E+03 -0.13811675181E+03  0.21299241297E+03  0.41800000000E+01 0.  1.
        -11    1    1    2    0    0 -0.71314473775E+02 -0.61100795889E+02 -0.31040499213E+02  0.98906895712E+02  0.00000000000E+00 0.  1.
         11    1    1    2    0    0 -0.33242100610E+02 -0.62483647910E+02 -0.13124163802E+03  0.14910939293E+03  0.00000000000E+00 0. -1.
</event>
<event>
 7    1  0.2619826E-009  0.8348748E+02  0.7561462E-02  0.1319436E+00
         -1   -1    0    0    0  501 -0.00000000000E+00  0.00000000000E+00  0.11198426024E+03  0.11198426024E+03  0.00000000000E+00 0.  1.
          1   -1    0    0  501    0  0.00000000000E+00 -0.00000000000E+00 -0.18815681791E+03  0.18815681791E+03  0.00000000000E+00 0. -1.
         25    2    1    2    0    0 -0.20867145756E+02  0.13793924358E+02  0.54710547888E+02  0.13881648134E+03  0.12510420185E+03 0.  0.
          5    1    3    3  502    0 -0.27233718782E+02  0.40923124743E+02  0.84477447906E+02  0.97827854838E+02  0.41800000000E+01 0. -1.
         -5    1    3    3    0  502  0.63665730262E+01 -0.27129200385E+02 -0.29766900018E+02  0.40988626499E+02  0.41800000000E+01 0. -1.
        -11    1    1    2    0    0  0.37697985960E+02 -0.42112158209E+02 -0.10568691330E+03  0.11985113957E+03  0.00000000000E+00 0.  1.
         11    1    1    2    0    0 -0.16830840204E+02  0.28318233850E+02 -0.25196192264E+02  0.41473457235E+02  0.00000000000E+00 0. -1.
</event>
<event>
 7    1  0.2619826E-009  0.8499397E+02  0.7561462E-02  0.1315448E+00
         -2   -1    0    0    0  501 -0.00000000000E+00  0.00000000000E+00  0.53946566244E+02  0.53946566244E+02  0.00000000000E+00 0.  1.
          2   -1    0    0  501    0  0.00000000000E+00 -0.00000000000E+00 -0.30260943896E+03  0.30260943896E+03  0.00000000000E+00 0. -1.
         25    2    1    2    0    0 -0.27048912728E+02 -0.60545234982E+02 -0.16139925459E+03  0.21469477382E+03  0.12508699919E+03 0.  0.
          5    1    3    3  502    0 -0.34149824760E+02 -0.28045565651E+01 -0.15168816162E+03  0.15556621370E+03  0.41800000000E+01 0.  1.
         -5    1    3    3    0  502  0.71009120316E+01 -0.57740678417E+02 -0.97110929699E+01  0.59128560125E+02  0.41800000000E+01 0.  1.
        -11    1    1    2    0    0  0.20095121600E+02  0.44024853348E+01 -0.82571161459E+02  0.85095196656E+02  0.00000000000E+00 0. -1.
         11    1    1    2    0    0  0.69537911283E+01  0.56142749648E+02 -0.46924566684E+01  0.56766034727E+02  0.00000000000E+00 0.  1.
</event>
<event>
 7    1  0.2619826E-009  0.1024211E+03  0.7561462E-02  0.1275286E+00
          1   -1    0    0  501    0  0.00000000000E+00  0.00000000000E+00  0.96943511430E+03  0.96943511430E+03  0.00000000000E+00 0. -1.
         -1   -1    0    0    0  501 -0.00000000000E+00 -0.00000000000E+00 -0.19312849396E+02  0.19312849396E+02  0.00000000000E+00 0.  1.
         25    2    1    2    0    0 -0.41304118456E+00  0.53617135091E+02  0.74670453787E+03  0.75900617802E+03  0.12509094141E+03 0.  0.
          5    1    3    3  502    0 -0.34863104142E+02  0.64986870077E+02  0.24297808686E+03  0.25395777682E+03  0.41800000000E+01 0. -1.
         -5    1    3    3    0  502  0.34450062958E+02 -0.11369734986E+02  0.50372645100E+03  0.50504840120E+03  0.41800000000E+01 0. -1.
        -11    1    1    2    0    0 -0.18170318588E+02  0.14879621903E+02  0.13713814379E+02  0.27196182276E+02  0.00000000000E+00 0.  1.
         11    1    1    2    0    0  0.18583359772E+02 -0.68496756994E+02  0.18970391266E+03  0.20254560340E+03  0.00000000000E+00 0. -1.
</event>
<event>
 7    1  0.2619826E-009  0.1094825E+03  0.7561462E-02  0.1261531E+00
         -2   -1    0    0    0  501 -0.00000000000E+00  0.00000000000E+00  0.38621844470E+02  0.38621844470E+02  0.00000000000E+00 0.  1.
          2   -1    0    0  501    0  0.00000000000E+00 -0.00000000000E+00 -0.42696619721E+03  0.42696619721E+03  0.00000000000E+00 0. -1.
         25    2    1    2    0    0  0.60920391942E+02 -0.41008890291E+01 -0.18321436934E+03  0.23009336077E+03  0.12508932045E+03 0.  0.
          5    1    3    3  502    0  0.66882643119E+02  0.28514914240E+02 -0.18268943160E+03  0.19667050898E+03  0.41800000000E+01 0.  1.
         -5    1    3    3    0  502 -0.59622511771E+01 -0.32615803269E+02 -0.52493774217E+00  0.33422851788E+02  0.41800000000E+01 0.  1.
        -11    1    1    2    0    0  0.22794721828E+02  0.16432456237E+02 -0.76785180788E+02  0.81765450832E+02  0.00000000000E+00 0.  1.
         11    1    1    2    0    0 -0.83715113771E+02 -0.12331567208E+02 -0.12834480261E+03  0.15372923008E+03  0.00000000000E+00 0. -1.
</event>
<event>
 7    1  0.2619826E-009  0.1150467E+03  0.7561462E-02  0.1251500E+00
          1   -1    0    0  501    0  0.00000000000E+00  0.00000000000E+00  0.15212008136E+03  0.15212008136E+03  0.00000000000E+00 0. -1.
         -1   -1    0    0    0  501 -0.00000000000E+00 -0.00000000000E+00 -0.17370108763E+03  0.17370108763E+03  0.00000000000E+00 0.  1.
         25    2    1    2    0    0 -0.67762439931E+01  0.76216613905E+02 -0.10497035906E+03  0.18033600847E+03  0.12508960769E+03 0.  0.
          5    1    3    3  502    0 -0.21968563120E+02  0.97879005645E+02 -0.11414824670E+03  0.15202043329E+03  0.41800000000E+01 0. -1.
         -5    1    3    3    0  502  0.15192319126E+02 -0.21662391740E+02  0.91778876390E+01  0.28315575182E+02  0.41800000000E+01 0. -1.
        -11    1    1    2    0    0 -0.29925461267E+02 -0.48192135901E+02  0.82978837831E+01  0.57331231192E+02  0.00000000000E+00 0.  1.
         11    1    1    2    0    0  0.36701705261E+02 -0.28024478004E+02  0.75091469011E+02  0.88153929321E+02  0.00000000000E+00 0. -1.
</event>
<event>
 7    1  0.2619826E-009  0.1040288E+03  0.7561462E-02  0.1272045E+00
         -1   -1    0    0    0  501 -0.00000000000E+00  0.00000000000E+00  0.11871830781E+03  0.11871830781E+03  0.00000000000E+00 0.  1.
          1   -1    0    0  501    0  0.00000000000E+00 -0.00000000000E+00 -0.15593256467E+03  0.15593256467E+03  0.00000000000E+00 0. -1.
         25    2    1    2    0    0  0.27684184025E+02 -0.25802104248E+02  0.53430572274E+02  0.14117439791E+03  0.12507286653E+03 0.  0.
          5    1    3    3  502    0  0.61435625297E+02 -0.54319215586E+02  0.17230322002E+02  0.83900355385E+02  0.41800000000E+01 0. -1.
         -5    1    3    3    0  502 -0.33751441272E+02  0.28517111338E+02  0.36200250272E+02  0.57274042522E+02  0.41800000000E+01 0. -1.
        -11    1    1    2    0    0  0.11785197300E+02 -0.18684487579E+02 -0.65108511078E+02  0.68754048363E+02  0.00000000000E+00 0. -1.
         11    1    1    2    0    0 -0.39469381325E+02  0.44486591827E+02 -0.25536318053E+02  0.64722426208E+02  0.00000000000E+00 0.  1.
</event>
<event>
 7    1  0.2619826E-009  0.2542188E+03  0.7561462E-02  0.1110667E+00
          1   -1    0    0  501    0  0.00000000000E+00  0.00000000000E+00  0.15938663693E+03  0.15938663693E+03  0.00000000000E+00 0. -1.
         -1   -1    0    0    0  501 -0.00000000000E+00 -0.00000000000E+00 -0.46507637167E+03  0.46507637167E+03  0.00000000000E+00 0.  1.
         25    2    1    2    0    0 -0.20745216623E+03  0.11250675308E+03 -0.24951480210E+03  0.36551243974E+03  0.12509011303E+03 0.  0.
          5    1    3    3  502    0 -0.13947210930E+03  0.20061230104E+02 -0.18880281899E+03  0.23562448745E+03  0.41800000000E+01 0.  1.
         -5    1    3    3    0  502 -0.67980056928E+02  0.92445522979E+02 -0.60711983111E+02  0.12988795230E+03  0.41800000000E+01 0.  1.
        -11    1    1    2    0    0  0.22918215092E+02 -0.54634179649E+02 -0.95172197411E+01  0.60005963375E+02  0.00000000000E+00 0. -1.
         11    1    1    2    0    0  0.18453395113E+03 -0.57872573435E+02 -0.46657712893E+02  0.19894460548E+03  0.00000000000E+00 0.  1.
</event>
<event>
 7    1  0.2628037E-009  0.1562704E+03  0.7561462E-02  0.1192973E+00
         -1   -1    0    0    0  501 -0.00000000000E+00  0.00000000000E+00  0.13580193982E+03  0.13580193982E+03  0.00000000000E+00 0.  1.
          1   -1    0    0  501    0  0.00000000000E+00 -0.00000000000E+00 -0.23952063346E+03  0.23952063346E+03  0.00000000000E+00 0. -1.
         25    2    1    2    0    0  0.11575144975E+03 -0.84398387781E+02 -0.42422200642E+02  0.19485330788E+03  0.12508669995E+03 0.  0.
          5    1    3    3  502    0  0.58082011576E+02 -0.47469917620E+02 -0.85519266625E+02  0.11383290610E+03  0.41800000000E+01 0. -1.
         -5    1    3    3    0  502  0.57669438173E+02 -0.36928470161E+02  0.43097065983E+02  0.81020401776E+02  0.41800000000E+01 0. -1.
        -11    1    1    2    0    0 -0.12659416564E+03  0.56038817320E+02 -0.42758367000E+02  0.14489551329E+03  0.00000000000E+00 0.  1.
         11    1    1    2    0    0  0.10842715896E+02  0.28359570461E+02 -0.18538125997E+02  0.35573752124E+02  0.00000000000E+00 0. -1.
</event>
<event>
 7    1  0.2619826E-009  0.1036810E+03  0.7561462E-02  0.1272740E+00
          2   -1    0    0  501    0  0.00000000000E+00  0.00000000000E+00  0.71816723870E+03  0.71816723870E+03  0.00000000000E+00 0. -1.
         -2   -1    0    0    0  501 -0.00000000000E+00 -0.00000000000E+00 -0.19525589439E+02  0.19525589439E+02  0.00000000000E+00 0.  1.
         25    2    1    2    0    0 -0.12903801661E+02 -0.20296930057E+02  0.26968416020E+03  0.29825449876E+03  0.12509087217E+03 0.  0.
          5    1    3    3  502    0 -0.30030514287E+01  0.47601836803E+02  0.17379405359E+03  0.18026868460E+03  0.41800000000E+01 0. -1.
         -5    1    3    3    0  502 -0.99007502322E+01 -0.67898766860E+02  0.95890106610E+02  0.11798581416E+03  0.41800000000E+01 0. -1.
        -11    1    1    2    0    0 -0.24580827460E+02 -0.22865501442E+02  0.98279779888E+02  0.10385549273E+03  0.00000000000E+00 0.  1.
         11    1    1    2    0    0  0.37484629121E+02  0.43162431499E+02  0.33067770918E+03  0.33558283666E+03  0.00000000000E+00 0. -1.
</event>
<event>
 7    1  0.2619826E-009  0.1344840E+03  0.7561462E-02  0.1220950E+00
         -2   -1    0    0    0  501 -0.00000000000E+00  0.00000000000E+00  0.16472184827E+02  0.16472184827E+02  0.00000000000E+00 0.  1.
          2   -1    0    0  501    0  0.00000000000E+00 -0.00000000000E+00 -0.14739978670E+04  0.14739978670E+04  0.00000000000E+00 0. -1.
         25    2    1    2    0    0 -0.94557301883E+02 -0.40112334229E+02 -0.99719192481E+03  0.10102423663E+04  0.12509125102E+03 0.  0.
          5    1    3    3  502    0  0.70943905697E+01  0.32977060885E+02 -0.29636093145E+03  0.29830368924E+03  0.41800000000E+01 0.  1.
         -5    1    3    3    0  502 -0.10165169245E+03 -0.73089395114E+02 -0.70083099336E+03  0.71193867707E+03  0.41800000000E+01 0.  1.
        -11    1    1    2    0    0  0.16899719341E+02  0.25648109182E+02 -0.30825969243E+02  0.43516277393E+02  0.00000000000E+00 0.  1.
         11    1    1    2    0    0  0.77657582542E+02  0.14464225048E+02 -0.42950778815E+03  0.43671140816E+03  0.00000000000E+00 0. -1.
</event>
<event>
 7    1  0.2619826E-009  0.1375532E+03  0.7561462E-02  0.1216660E+00
          2   -1    0    0  501    0  0.00000000000E+00  0.00000000000E+00  0.51867422176E+03  0.51867422176E+03  0.00000000000E+00 0. -1.
         -2   -1    0    0    0  501 -0.00000000000E+00 -0.00000000000E+00 -0.44333486212E+02  0.44333486212E+02  0.00000000000E+00 0.  1.
         25    2    1    2    0    0  0.95749216235E+02 -0.28559121428E+02  0.32227263875E+03  0.35984793995E+03  0.12508936955E+03 0.  0.
          5    1    3    3  502    0  0.12350882698E+03 -0.28118377011E+02  0.22106441041E+03  0.25481761991E+03  0.41800000000E+01 0.  1.
         -5    1    3    3    0  502 -0.27759610743E+02 -0.44074441724E+00  0.10120822834E+03  0.10503032004E+03  0.41800000000E+01 0.  1.
        -11    1    1    2    0    0 -0.49342840046E+01 -0.17699618384E+02 -0.19461428324E+01  0.18477313699E+02  0.00000000000E+00 0.  1.
         11    1    1    2    0    0 -0.90814932230E+02  0.46258739812E+02  0.15401423963E+03  0.18468245432E+03  0.00000000000E+00 0. -1.
</event>
<event>
 7    1  0.2619826E-009  0.1019849E+03  0.7561462E-02  0.1276176E+00
         -1   -1    0    0    0  501 -0.00000000000E+00  0.00000000000E+00  0.26290987166E+03  0.26290987166E+03  0.00000000000E+00 0.  1.
          1   -1    0    0  501    0  0.00000000000E+00 -0.00000000000E+00 -0.61703781168E+02  0.61703781168E+02  0.00000000000E+00 0. -1.
         25    2    1    2    0    0 -0.56549744008E+02 -0.27259753187E+02  0.81250419917E+02  0.16183337849E+03  0.12508974364E+03 0.  0.
          5    1    3    3  502    0 -0.88937429420E+02 -0.26387000543E+02  0.23994147552E+02  0.95913146473E+02  0.41800000000E+01 0.  1.
         -5    1    3    3    0  502  0.32387685412E+02 -0.87275264428E+00  0.57256272365E+02  0.65920232013E+02  0.41800000000E+01 0.  1.
        -11    1    1    2    0    0  0.34401006814E+02 -0.93510017892E+01  0.24281460772E+00  0.35650097661E+02  0.00000000000E+00 0. -1.
         11    1    1    2    0    0  0.22148737194E+02  0.36610754976E+02  0.11971285596E+03  0.12713017668E+03  0.00000000000E+00 0.  1.
</event>
<event>
 7    1  0.2622244E-009  0.1880165E+03  0.7561462E-02  0.1160263E+00
         -2   -1    0    0    0  501 -0.00000000000E+00  0.00000000000E+00  0.93053508954E+02  0.93053508954E+02  0.00000000000E+00 0.  1.
          2   -1    0    0  501    0  0.00000000000E+00 -0.00000000000E+00 -0.52560944478E+03  0.52560944478E+03  0.00000000000E+00 0. -1.
         25    2    1    2    0    0  0.17802201493E+03  0.29183644462E+02 -0.13087981871E+03  0.25557877072E+03  0.12508980051E+03 0.  0.
          5    1    3    3  502    0  0.10130434265E+03 -0.20930436357E+02 -0.10251880482E+02  0.10403473679E+03  0.41800000000E+01 0. -1.
         -5    1    3    3    0  502  0.76717672284E+02  0.50114080819E+02 -0.12062793823E+03  0.15154403393E+03  0.41800000000E+01 0. -1.
        -11    1    1    2    0    0 -0.12090781644E+03 -0.25311216801E+02 -0.27170491909E+03  0.29846762107E+03  0.00000000000E+00 0. -1.
         11    1    1    2    0    0 -0.57114198497E+02 -0.38724276610E+01 -0.29971198019E+02  0.64616561937E+02  0.00000000000E+00 0.  1.
</event>
<event>
 7    1  0.2619826E-009  0.1221621E+03  0.7561462E-02  0.1239572E+00
         -1   -1    0    0    0  501 -0.00000000000E+00  0.00000000000E+00  0.21969029780E+02  0.21969029780E+02  0.00000000000E+00 0.  1.
          1   -1    0    0  501    0  0.00000000000E+00 -0.00000000000E+00 -0.74562227862E+03  0.74562227862E+03  0.00000000000E+00 0. -1.
         25    2    1    2    0    0  0.29234482338E+02 -0.49428414925E+02 -0.29521279428E+03  0.32572525115E+03  0.12509405331E+03 0.  0.
          5    1    3    3  502    0  0.62769374078E+02  0.14326700954E+02 -0.15872934013E+03  0.17134095979E+03  0.41800000000E+01 0.  1.
         -5    1    3    3    0  502 -0.33534891739E+02 -0.63755115878E+02 -0.13648345415E+03  0.15438429137E+03  0.41800000000E+01 0.  1.
        -11    1    1    2    0    0 -0.55042180037E+02  0.37344902824E+01 -0.19945738348E+03  0.20694645642E+03  0.00000000000E+00 0. -1.
         11    1    1    2    0    0  0.25807697698E+02  0.45693924642E+02 -0.22898307109E+03  0.23491960083E+03  0.00000000000E+00 0.  1.
</event>
<event>
 7    1  0.2619826E-009  0.1313177E+03  0.7561462E-02  0.1225513E+00
         -1   -1    0    0    0  501 -0.00000000000E+00  0.00000000000E+00  0.27419974607E+03  0.27419974607E+03  0.00000000000E+00 0.  1.
          1   -1    0    0  501    0  0.00000000000E+00 -0.00000000000E+00 -0.79915108222E+02  0.79915108222E+02  0.00000000000E+00 0. -1.
         25    2    1    2    0    0  0.15464296941E+02 -0.87420464862E+02  0.16284790705E+03  0.22371700062E+03  0.12509345857E+03 0.  0.
          5    1    3    3  502    0  0.30332166916E+02  0.23837226507E+02  0.59787594641E+02  0.71276101116E+02  0.41800000000E+01 0.  1.
         -5    1    3    3    0  502 -0.14867869975E+02 -0.11125769137E+03  0.10306031241E+03  0.15244089950E+03  0.41800000000E+01 0.  1.
        -11    1    1    2    0    0 -0.36263003730E+02  0.82523977081E+02 -0.26371934301E+01  0.90178528609E+02  0.00000000000E+00 0. -1.
         11    1    1    2    0    0  0.20798706789E+02  0.48964877807E+01  0.34073924220E+02  0.40219325061E+02  0.00000000000E+00 0.  1.
</event>
<event>
 7    1  0.2619826E-009  0.1614379E+03  0.7561462E-02  0.1187083E+00
         -1   -1    0    0    0  501 -0.00000000000E+00  0.00000000000E+00  0.63068164485E+03  0.63068164485E+03  0.00000000000E+00 0.  1.
          1   -1    0    0  501    0  0.00000000000E+00 -0.00000000000E+00 -0.44564294659E+02  0.44564294659E+02  0.00000000000E+00 0. -1.
         25    2    1    2    0    0  0.12624870526E+03  0.51187121961E+01  0.28727264887E+03  0.33784316626E+03  0.12508994128E+03 0.  0.
          5    1    3    3  502    0  0.13722593678E+03  0.32698200940E+02  0.26588445287E+03  0.30101851231E+03  0.41800000000E+01 0.  1.
         -5    1    3    3    0  502 -0.10977231520E+02 -0.27579488744E+02  0.21388195991E+02  0.36824653956E+02  0.41800000000E+01 0.  1.
        -11    1    1    2    0    0 -0.40226949606E+02 -0.42016059084E+02  0.15728220431E+03  0.16769391310E+03  0.00000000000E+00 0.  1.
         11    1    1    2    0    0 -0.86021755657E+02  0.36897346888E+02  0.14156249701E+03  0.16970886015E+03  0.00000000000E+00 0. -1.
</event>
<event>
 7    1  0.2619826E-009  0.1722059E+03  0.7561462E-02  0.1175567E+00
         -2   -1    0    0    0  501 -0.00000000000E+00  0.00000000000E+00  0.99345553951E+02  0.99345553951E+02  0.00000000000E+00 0.  1.
          2   -1    0    0  501    0  0.00000000000E+00 -0.00000000000E+00 -0.51450907866E+03  0.51450907866E+03  0.00000000000E+00 0. -1.
         25    2    1    2    0    0  0.39136802580E+02  0.14677108656E+03 -0.38738756074E+03  0.43449993756E+03  0.12509049668E+03 0.  0.
          5    1    3    3  502    0  0.59850538932E+02  0.19203126360E+02 -0.86528148107E+02  0.10703008870E+03  0.41800000000E+01 0. -1.
         -5    1    3    3    0  502 -0.20713736352E+02  0.12756796020E+03 -0.30085941263E+03  0.32746984886E+03  0.41800000000E+01 0. -1.
        -11    1    1    2    0    0 -0.92044498798E+01 -0.49134561539E+02  0.33578029831E+02  0.60219690488E+02  0.00000000000E+00 0.  1.
         11    1    1    2    0    0 -0.29932352701E+02 -0.97636525021E+02 -0.61353993798E+02  0.11913500456E+03  0.00000000000E+00 0. -1.
</event>
<event>
 7    1  0.2619826E-009  0.1473961E+03  0.7561462E-02  0.1203710E+00
         -2   -1    0    0    0  501 -0.00000000000E+00  0.00000000000E+00  0.14373395387E+02  0.14373395387E+02  0.00000000000E+00 0. -1.
          2   -1    0    0  501    0  0.00000000000E+00 -0.00000000000E+00 -0.16358419507E+04  0.16358419507E+04  0.00000000000E+00 0.  1.
         25    2    1    2    0    0 -0.97188728258E+02  0.42276176837E+02 -0.97403525072E+03  0.98773927214E+03  0.12510506003E+03 0.  0.
          5    1    3    3  502    0 -0.12270151938E+03  0.37144893951E+02 -0.64378349895E+03  0.65643740899E+03  0.41800000000E+01 0. -1.
         -5    1    3    3    0  502  0.25512791122E+02  0.51312828865E+01 -0.33025175178E+03  0.33130186315E+03  0.41800000000E+01 0. -1.
        -11    1    1    2    0    0  0.83341331187E+01  0.26515482358E+02 -0.14331290731E+03  0.14598327980E+03  0.00000000000E+00 0. -1.
         11    1    1    2    0    0  0.88854595139E+02 -0.68791659196E+02 -0.50412039728E+03  0.51649279415E+03  0.00000000000E+00 0.  1.
</event>
<event>
 7    1  0.2619826E-009  0.2069376E+03  0.7561462E-02  0.1144014E+00
          1   -1    0    0  501    0  0.00000000000E+00  0.00000000000E+00  0.94909779845E+03  0.94909779845E+03  0.00000000000E+00 0. -1.
         -1   -1    0    0    0  501 -0.00000000000E+00 -0.00000000000E+00 -0.53738195010E+02  0.53738195010E+02  0.00000000000E+00 0.  1.
         25    2    1    2    0    0 -0.14249931495E+03 -0.11509152860E+03  0.60658222076E+03  0.64586474949E+03  0.12508864606E+03 0.  0.
          5    1    3    3  502    0 -0.85053825712E+02 -0.13596055737E+03  0.42929703568E+03  0.45829340348E+03  0.41800000000E+01 0.  1.
         -5    1    3    3    0  502 -0.57445489242E+02  0.20869028766E+02  0.17728518508E+03  0.18757134602E+03  0.41800000000E+01 0.  1.
        -11    1    1    2    0    0  0.61438868396E+02  0.14734141375E+02  0.17096278810E+03  0.18226383181E+03  0.00000000000E+00 0. -1.
         11    1    1    2    0    0  0.81060446558E+02  0.10035738723E+03  0.11781459458E+03  0.17470741216E+03  0.00000000000E+00 0.  1.
</event>
<event>
 7    1  0.2619826E-009  0.1609740E+03  0.7561462E-02  0.1187602E+00
          2   -1    0    0  501    0  0.00000000000E+00  0.00000000000E+00  0.50008837704E+03  0.50008837704E+03  0.00000000000E+00 0. -1.
         -2   -1    0    0    0  501 -0.00000000000E+00 -0.00000000000E+00 -0.92753285711E+02  0.92753285711E+02  0.00000000000E+00 0.  1.
         25    2    1    2    0    0  0.15188522855E+03  0.28157905655E+02  0.63998109821E+02  0.20882237868E+03  0.12509611295E+03 0.  0.
          5    1    3    3  502    0  0.34564001307E+02  0.69220718321E+01 -0.37900155941E+02  0.51927637008E+02  0.41800000000E+01 0. -1.
         -5    1    3    3    0  502  0.11732122724E+03  0.21235833823E+02  0.10189826576E+03  0.15689474168E+03  0.41800000000E+01 0. -1.
        -11    1    1    2    0    0 -0.14279935854E+02 -0.25841951454E+02  0.10212802432E+03  0.10631018942E+03  0.00000000000E+00 0.  1.
         11    1    1    2    0    0 -0.13760529270E+03 -0.23159542011E+01  0.24120895719E+03  0.27770909465E+03  0.00000000000E+00 0. -1.
</event>
<event>
 7    1  0.2619826E-009  0.8324833E+02  0.7561462E-02  0.1320078E+00
          2   -1    0    0  501    0  0.00000000000E+00  0.00000000000E+00  0.15022895475E+03  0.15022895475E+03  0.00000000000E+00 0. -1.
         -2   -1    0    0    0  501 -0.00000000000E+00 -0.00000000000E+00 -0.83934584586E+02  0.83934584586E+02  0.00000000000E+00 0.  1.
         25    2    1    2    0    0 -0.34090087756E+01  0.21333283467E+02  0.47339976433E+02  0.13548046657E+03  0.12508858113E+03 0.  0.
          5    1    3    3  502    0 -0.35467750803E+02 -0.36055492361E+01 -0.30811658787E+02  0.47305306780E+02  0.41800000000E+01 0. -1.
         -5    1    3    3    0  502  0.32058742027E+02  0.24938832704E+02  0.78151635220E+02  0.88175159793E+02  0.41800000000E+01 0. -1.
        -11    1    1    2    0    0  0.32745473163E+02 -0.42459028601E+02  0.29270663128E+02  0.61088516452E+02  0.00000000000E+00 0. -1.
         11    1    1    2    0    0 -0.29336464387E+02  0.21125745134E+02 -0.10316269394E+02  0.37594556314E+02  0.00000000000E+00 0.  1.
</event>
<event>
 7    1  0.2619826E-009  0.1339680E+03  0.7561462E-02  0.1221684E+00
         -1   -1    0    0    0  501 -0.00000000000E+00  0.00000000000E+00  0.72073441381E+02  0.72073441381E+02  0.00000000000E+00 0.  1.
          1   -1    0    0  501    0  0.00000000000E+00 -0.00000000000E+00 -0.30463648832E+03  0.30463648832E+03  0.00000000000E+00 0. -1.
         25    2    1    2    0    0 -0.77437817307E+02 -0.60962775082E+02 -0.15513582650E+03  0.22232282309E+03  0.12508891841E+03 0.  0.
          5    1    3    3  502    0  0.63208455354E+01 -0.73008695061E+02 -0.58937157367E+02  0.94134390959E+02  0.41800000000E+01 0.  1.
         -5    1    3    3    0  502 -0.83758662842E+02  0.12045919979E+02 -0.96198669138E+02  0.12818843213E+03  0.41800000000E+01 0.  1.
        -11    1    1    2    0    0 -0.40768279075E+01  0.16424188446E+02  0.15534022603E+02  0.22971294045E+02  0.00000000000E+00 0.  1.
         11    1    1    2    0    0  0.81514645214E+02  0.44538586636E+02 -0.92961243036E+02  0.13141581256E+03  0.00000000000E+00 0. -1.
</event>
<event>
 7    1  0.2619826E-009  0.1236325E+03  0.7561462E-02  0.1237222E+00
          1   -1    0    0  501    0  0.00000000000E+00  0.00000000000E+00  0.11329045132E+04  0.11329045132E+04  0.00000000000E+00 0. -1.
         -1   -1    0    0    0  501 -0.00000000000E+00 -0.00000000000E+00 -0.16310161587E+02  0.16310161587E+02  0.00000000000E+00 0.  1.
         25    2    1    2    0    0  0.39422624116E+02 -0.62296719307E+02  0.74092245439E+03  0.75501613631E+03  0.12509299795E+03 0.  0.
          5    1    3    3  502    0 -0.34956043659E+02  0.14115777422E+02  0.22464830868E+03  0.22782781910E+03  0.41800000000E+01 0. -1.
         -5    1    3    3    0  502  0.74378667775E+02 -0.76412496728E+02  0.51627414571E+03  0.52718831721E+03  0.41800000000E+01 0. -1.
        -11    1    1    2    0    0  0.22530411427E+01  0.60876863389E+02  0.31332263604E+03  0.31918982274E+03  0.00000000000E+00 0.  1.
         11    1    1    2    0    0 -0.41675665259E+02  0.14198559178E+01  0.62349261169E+02  0.75008715720E+02  0.00000000000E+00 0. -1.
</event>
<event>
 7    1  0.2619826E-009  0.7523291E+02  0.7561462E-02  0.1343151E+00
          1   -1    0    0  501    0  0.00000000000E+00  0.00000000000E+00  0.56858154590E+02  0.56858154590E+02  0.00000000000E+00 0. -1.
         -1   -1    0    0    0  501 -0.00000000000E+00 -0.00000000000E+00 -0.25898360092E+03  0.25898360092E+03  0.00000000000E+00 0.  1.
         25    2    1    2    0    0  0.44138863093E+02  0.22420813880E+01 -0.84086461144E+02  0.15706757513E+03  0.12508566682E+03 0.  0.
          5    1    3    3  502    0  0.28418657458E+02  0.36745028016E+02  0.16514611916E+02  0.49477489653E+02  0.41800000000E+01 0. -1.
         -5    1    3    3    0  502  0.15720205635E+02 -0.34502946628E+02 -0.10060107306E+03  0.10759008547E+03  0.41800000000E+01 0. -1.
        -11    1    1    2    0    0 -0.38049792239E+02  0.19743738167E+02 -0.46565928057E+01  0.43119435790E+02  0.00000000000E+00 0. -1.
         11    1    1    2    0    0 -0.60890708538E+01 -0.21985819555E+02 -0.11338239238E+03  0.11565474460E+03  0.00000000000E+00 0.  1.
</event>
<event>
 7    1  0.2619826E-009  0.8824310E+02  0.7561462E-02  0.1307163E+00
         -1   -1    0    0    0  501 -0.00000000000E+00  0.00000000000E+00  0.13002297667E+03  0.13002297667E+03  0.00000000000E+00 0.  1.
          1   -1    0    0  501    0  0.00000000000E+00 -0.00000000000E+00 -0.25059588894E+03  0.25059588894E+03  0.00000000000E+00 0. -1.
         25    2    1    2    0    0  0.68487059957E+02 -0.48247745657E+01  0.71497498372E+02  0.15960025230E+03  0.12508633991E+03 0.  0.
          5    1    3    3  502    0  0.44541278631E+02 -0.41661442288E+01  0.10729617772E+03  0.11632379126E+03  0.41800000000E+01 0. -1.
         -5    1    3    3    0  502  0.23945781325E+02 -0.65863033688E+00 -0.35798679349E+02  0.43276461042E+02  0.41800000000E+01 0. -1.
        -11    1    1    2    0    0 -0.39553524224E+02 -0.38463240385E+02 -0.77089961312E+02  0.94798545741E+02  0.00000000000E+00 0.  1.
         11    1    1    2    0    0 -0.28933535732E+02  0.43288014951E+02 -0.11498044932E+03  0.12622006756E+03  0.00000000000E+00 0. -1.
</event>
<event>
 7    1  0.2619826E-009  0.1084745E+03  0.7561462E-02  0.1263421E+00
          2   -1    0    0  501    0  0.00000000000E+00  0.00000000000E+00  0.40595031141E+03  0.40595031141E+03  0.00000000000E+00 0. -1.
         -2   -1    0    0    0  501 -0.00000000000E+00 -0.00000000000E+00 -0.47191768327E+02  0.47191768327E+02  0.00000000000E+00 0.  1.
         25    2    1    2    0    0 -0.21985306317E+02 -0.86146887455E+02  0.16295322277E+03  0.22384482102E+03  0.12509241053E+03 0.  0.
          5    1    3    3  502    0  0.58693926912E+01  0.38588205225E+00 -0.19043535079E+02  0.20364854623E+02  0.41800000000E+01 0.  1.
         -5    1    3    3    0  502 -0.27854699008E+02 -0.86532769507E+02  0.18199675785E+03  0.20347996640E+03  0.41800000000E+01 0.  1.
        -11    1    1    2    0    0 -0.27472826235E+02  0.51420659971E+02  0.10754252231E+03  0.12232838819E+03  0.00000000000E+00 0.  1.
         11    1    1    2    0    0  0.49458132552E+02  0.34726227484E+02  0.88262798005E+02  0.10696887053E+03  0.00000000000E+00 0. -1.
</event>
<event>
 7    1  0.2619826E-009  0.1045655E+03  0.7561462E-02  0.1270978E+00
          2   -1    0    0  501    0  0.00000000000E+00  0.00000000000E+00  0.65724759409E+03  0.65724759409E+03  0.00000000000E+00 0. -1.
         -2   -1    0    0    0  501 -0.00000000000E+00 -0.00000000000E+00 -0.17817871562E+02  0.17817871562E+02  0.00000000000E+00 0.  1.
         25    2    1    2    0    0  0.69328076499E+01  0.97596957696E+00  0.37989672507E+03  0.40002870838E+03  0.12510966976E+03 0.  0.
          5    1    3    3  502    0  0.37646692857E+02  0.52657964388E+02  0.18636691420E+03  0.19733279962E+03  0.41800000000E+01 0.  1.
         -5    1    3    3    0  502 -0.30713885207E+02 -0.51681994812E+02  0.19352981087E+03  0.20269590876E+03  0.41800000000E+01 0.  1.
        -11    1    1    2    0    0 -0.30364104195E+02  0.31631712086E+02  0.18759755258E+03  0.19265353817E+03  0.00000000000E+00 0.  1.
         11    1    1    2    0    0  0.23431296545E+02 -0.32607681663E+02  0.71935444871E+02  0.82383219104E+02  0.00000000000E+00 0. -1.
</event>
<event>
 7    1  0.2619826E-009  0.1260302E+03  0.7561462E-02  0.1233468E+00
          2   -1    0    0  501    0  0.00000000000E+00  0.00000000000E+00  0.12698035047E+03  0.12698035047E+03  0.00000000000E+00 0. -1.
         -2   -1    0    0    0  501 -0.00000000000E+00 -0.00000000000E+00 -0.14794995538E+03  0.14794995538E+03  0.00000000000E+00 0.  1.
         25    2    1    2    0    0  0.65883095231E+02 -0.19981628252E+02  0.34180478437E+02  0.14681701569E+03  0.12508830195E+03 0.  0.
          5    1    3    3  502    0  0.86400269509E+02 -0.51325922400E+02  0.79544919415E+01  0.10089649758E+03  0.41800000000E+01 0.  1.
         -5    1    3    3    0  502 -0.20517174278E+02  0.31344294149E+02  0.26225986496E+02  0.45920518113E+02  0.41800000000E+01 0.  1.
        -11    1    1    2    0    0 -0.84297963614E+02  0.33736670879E+02 -0.52736042992E+02  0.10500190409E+03  0.00000000000E+00 0.  1.
         11    1    1    2    0    0  0.18414868383E+02 -0.13755042627E+02 -0.24140403477E+01  0.23111386069E+02  0.00000000000E+00 0. -1.
</event>
<event>
 7    1  0.2619826E-009  0.1987135E+03  0.7561462E-02  0.1150829E+00
         -1   -1    0    0    0  501 -0.00000000000E+00  0.00000000000E+00  0.10528942627E+03  0.10528942627E+03  0.00000000000E+00 0.  1.
          1   -1    0    0  501    0  0.00000000000E+00 -0.00000000000E+00 -0.41529740478E+03  0.41529740478E+03  0.00000000000E+00 0. -1.
         25    2    1    2    0    0 -0.95071172195E+02 -0.15006822496E+03 -0.17468844085E+03  0.27878808884E+03  0.12509095566E+03 0.  0.
          5    1    3    3  502    0 -0.25438885359E+02 -0.13823852038E+03 -0.84130267585E+02  0.16386701843E+03  0.41800000000E+01 0. -1.
         -5    1    3    3    0  502 -0.69632286836E+02 -0.11829704583E+02 -0.90558173260E+02  0.11492107041E+03  0.41800000000E+01 0. -1.
        -11    1    1    2    0    0  0.26105226023E+02  0.92819102950E+02 -0.24907149776E+02  0.99585314219E+02  0.00000000000E+00 0.  1.
         11    1    1    2    0    0  0.68965946172E+02  0.57249122011E+02 -0.11041238789E+03  0.14221342799E+03  0.00000000000E+00 0. -1.
</event>
<event>
 7    1  0.2619826E-009  0.1002083E+03  0.7561462E-02  0.1279858E+00
         -1   -1    0    0    0  501 -0.00000000000E+00  0.00000000000E+00  0.10936136630E+03  0.10936136630E+03  0.00000000000E+00 0.  1.
          1   -1    0    0  501    0  0.00000000000E+00 -0.00000000000E+00 -0.17977912414E+03  0.17977912414E+03  0.00000000000E+00 0. -1.
         25    2    1    2    0    0  0.86560271260E+02 -0.92327094330E+01 -0.19247080557E+02  0.15361552958E+03  0.12509739139E+03 0.  0.
          5    1    3    3  502    0  0.68469952517E+02 -0.27562716846E+02  0.43418918014E+02  0.85735130484E+02  0.41800000000E+01 0. -1.
         -5    1    3    3    0  502  0.18090318742E+02  0.18330007413E+02 -0.62665998570E+02  0.67880399091E+02  0.41800000000E+01 0. -1.
        -11    1    1    2    0    0 -0.49729507620E+02  0.30038046273E+02  0.12169618383E+02  0.59358299871E+02  0.00000000000E+00 0.  1.
         11    1    1    2    0    0 -0.36830763640E+02 -0.20805336840E+02 -0.63340295672E+02  0.76166660995E+02  0.00000000000E+00 0. -1.
</event>
<event>
 7    1  0.2619826E-009  0.1165005E+03  0.7561462E-02  0.1248984E+00
          2   -1    0    0  501    0  0.00000000000E+00  0.00000000000E+00  0.52234545514E+02  0.52234545514E+02  0.00000000000E+00 0.  1.
         -2   -1    0    0    0  501 -0.00000000000E+00 -0.00000000000E+00 -0.28481975327E+03  0.28481975327E+03  0.00000000000E+00 0. -1.
         25    2    1    2    0    0  0.34805100634E+02  0.46777873543E+02 -0.16365718194E+03  0.21408005036E+03  0.12508809007E+03 0.  0.
          5    1    3    3  502    0  0.72384818078E+02  0.18334173149E+01 -0.56715390276E+02  0.92070794508E+02  0.41800000000E+01 0. -1.
         -5    1    3    3    0  502 -0.37579717444E+02  0.44944456228E+02 -0.10694179167E+03  0.12200925585E+03  0.41800000000E+01 0. -1.
        -11    1    1    2    0    0  0.27705713180E+02 -0.16907774437E+02 -0.24591635264E+02  0.40721344577E+02  0.00000000000E+00 0.  1.
         11    1    1    2    0    0 -0.62510813814E+02 -0.29870099106E+02 -0.44336390550E+02  0.82252903847E+02  0.00000000000E+00 0. -1.
</event>
<event>
 7    1  0.2619826E-009  0.1112604E+03  0.7561462E-02  0.1258253E+00
          2   -1    0    0  501    0  0.00000000000E+00  0.00000000000E+00  0.48032967015E+03  0.48032967015E+03  0.00000000000E+00 0. -1.
         -2   -1    0    0    0  501 -0.00000000000E+00 -0.00000000000E+00 -0.42770911357E+02  0.42770911357E+02  0.00000000000E+00 0.  1.
         25    2    1    2    0    0 -0.67428436509E+02 -0.47654282188E+02  0.31990965183E+03  0.35328049449E+03  0.12508955910E+03 0.  0.
          5    1    3    3  502    0 -0.76951250056E+02  0.31987221178E+01  0.94547627780E+02  0.12201824875E+03  0.41800000000E+01 0.  1.
         -5    1    3    3    0  502  0.95228135462E+01 -0.50853004306E+02  0.22536202405E+03  0.23126224575E+03  0.41800000000E+01 0.  1.
        -11    1    1    2    0    0  0.46904310530E+02  0.54447804642E+02  0.27227604233E+02  0.76849985094E+02  0.00000000000E+00 0.  1.
         11    1    1    2    0    0  0.20524125979E+02 -0.67935224544E+01  0.90421502731E+02  0.92970101918E+02  0.00000000000E+00 0. -1.
</event>
<event>
 7    1  0.2619826E-009  0.2287798E+03  0.7561462E-02  0.1127502E+00
         -1   -1    0    0    0  501 -0.00000000000E+00  0.00000000000E+00  0.31210398637E+02  0.31210398637E+02  0.00000000000E+00 0.  1.
          1   -1    0    0  501    0  0.00000000000E+00 -0.00000000000E+00 -0.18149823128E+04  0.18149823128E+04  0.00000000000E+00 0. -1.
         25    2    1    2    0    0 -0.10830895118E+03  0.18170234152E+03 -0.89480670991E+03  0.92793974620E+03  0.12508618898E+03 0.  0.
          5    1    3    3  502    0 -0.12480767462E+03  0.18912885540E+03 -0.84177989912E+03  0.87175544194E+03  0.41800000000E+01 0.  1.
         -5    1    3    3    0  502  0.16498723440E+02 -0.74265138787E+01 -0.53026810781E+02  0.56184304260E+02  0.41800000000E+01 0.  1.
        -11    1    1    2    0    0  0.75049739576E+02 -0.14155050886E+03 -0.79315973141E+03  0.80917944209E+03  0.00000000000E+00 0. -1.
         11    1    1    2    0    0  0.33259211603E+02 -0.40151832659E+02 -0.95805472799E+02  0.10907352310E+03  0.00000000000E+00 0.  1.
</event>
<event>
 7    1  0.2619826E-009  0.1198297E+03  0.7561462E-02  0.1243378E+00
         -2   -1    0    0    0  501 -0.00000000000E+00  0.00000000000E+00  0.13583585584E+02  0.13583585584E+02  0.00000000000E+00 0.  1.
          2   -1    0    0  501    0  0.00000000000E+00 -0.00000000000E+00 -0.17771217578E+04  0.17771217578E+04  0.00000000000E+00 0. -1.
         25    2    1    2    0    0 -0.54668528236E+02 -0.87738073398E+02 -0.11820292500E+04  0.11931166985E+04  0.12509073041E+03 0.  0.
          5    1    3    3  502    0 -0.45726981139E+01 -0.50561736477E+02 -0.98693346339E+03  0.98824720203E+03  0.41800000000E+01 0. -1.
         -5    1    3    3    0  502 -0.50095830122E+02 -0.37176336921E+02 -0.19509578662E+03  0.20486949646E+03  0.41800000000E+01 0. -1.
        -11    1    1    2    0    0  0.27063282517E+02 -0.66382860914E+01 -0.51693847645E+02  0.58725990730E+02  0.00000000000E+00 0.  1.
         11    1    1    2    0    0  0.27605245720E+02  0.94376359489E+02 -0.52981507461E+03  0.53886265421E+03  0.00000000000E+00 0. -1.
</event>
<event>
 7    1  0.2619826E-009  0.8077482E+02  0.7561462E-02  0.1326867E+00
         -2   -1    0    0    0  501 -0.00000000000E+00  0.00000000000E+00  0.51215851017E+02  0.51215851017E+02  0.00000000000E+00 0.  1.
          2   -1    0    0  501    0  0.00000000000E+00 -0.00000000000E+00 -0.27415040183E+03  0.27415040183E+03  0.00000000000E+00 0. -1.
         25    2    1    2    0    0  0.48584829559E+01 -0.39074441155E+02 -0.92221707788E+02  0.16031947726E+03  0.12508826721E+03 0.  0.
          5    1    3    3  502    0  0.50812492464E+02 -0.13920688318E+02  0.14964359311E+01  0.52871605556E+02  0.41800000000E+01 0.  1.
         -5    1    3    3    0  502 -0.45954009508E+02 -0.25153752837E+02 -0.93718143719E+02  0.10744787170E+03  0.41800000000E+01 0.  1.
        -11    1    1    2    0    0  0.17056046332E+02  0.24402610078E+02  0.19038867233E+01  0.29833217723E+02  0.00000000000E+00 0.  1.
         11    1    1    2    0    0 -0.21914529288E+02  0.14671831077E+02 -0.13261672975E+03  0.13521355786E+03  0.00000000000E+00 0. -1.
</event>
<event>
 7    1  0.2619826E-009  0.1240924E+03  0.7561462E-02  0.1236495E+00
          1   -1    0    0  501    0  0.00000000000E+00  0.00000000000E+00  0.84694520581E+03  0.84694520581E+03  0.00000000000E+00 0.  1.
         -1   -1    0    0    0  501 -0.00000000000E+00 -0.00000000000E+00 -0.27649077769E+02  0.27649077769E+02  0.00000000000E+00 0. -1.
         25    2    1    2    0    0 -0.38125718492E+02  0.52743766544E+02  0.65933521229E+03  0.67423445911E+03  0.12503482861E+03 0.  0.
          5    1    3    3  502    0 -0.67140010574E+02 -0.12323890435E+02  0.27883396854E+03  0.28709843905E+03  0.41800000000E+01 0. -1.
         -5    1    3    3    0  502  0.29014292082E+02  0.65067656979E+02  0.38050124375E+03  0.38713602005E+03  0.41800000000E+01 0. -1.
        -11    1    1    2    0    0 -0.26900989864E+02 -0.28069066887E+02  0.19216262108E+02  0.43368196884E+02  0.00000000000E+00 0. -1.
         11    1    1    2    0    0  0.65026708356E+02 -0.24674699657E+02  0.14074465364E+03  0.15699162758E+03  0.00000000000E+00 0.  1.
</event>
<event>
 7    1  0.2619826E-009  0.1615897E+03  0.7561462E-02  0.1186914E+00
         -1   -1    0    0    0  501 -0.00000000000E+00  0.00000000000E+00  0.67243108998E+02  0.67243108998E+02  0.00000000000E+00 0.  1.
          1   -1    0    0  501    0  0.00000000000E+00 -0.00000000000E+00 -0.72761448653E+03  0.72761448653E+03  0.00000000000E+00 0. -1.
         25    2    1    2    0    0  0.14959260221E+03  0.28123154987E+02 -0.55299665925E+03  0.58704504291E+03  0.12509084213E+03 0.  0.
          5    1    3    3  502    0  0.14463220707E+02  0.18357436525E+02 -0.29187336649E+03  0.29283735194E+03  0.41800000000E+01 0.  1.
         -5    1    3    3    0  502  0.13512938150E+03  0.97657184615E+01 -0.26112329276E+03  0.29420769097E+03  0.41800000000E+01 0.  1.
        -11    1    1    2    0    0 -0.67573959052E+02  0.17817053648E+02 -0.69109198076E+01  0.70224270415E+02  0.00000000000E+00 0.  1.
         11    1    1    2    0    0 -0.82018643159E+02 -0.45940208635E+02 -0.10046379848E+03  0.13758828220E+03  0.00000000000E+00 0. -1.
</event>
<event>
 7    1  0.2619826E-009  0.8381660E+02  0.7561462E-02  0.1318557E+00
          1   -1    0    0  501    0  0.00000000000E+00  0.00000000000E+00  0.18544809466E+02  0.18544809466E+02  0.00000000000E+00 0. -1.
         -1   -1    0    0    0  501 -0.00000000000E+00 -0.00000000000E+00 -0.98740932123E+03  0.98740932123E+03  0.00000000000E+00 0.  1.
         25    2    1    2    0    0 -0.54143122729E+02  0.85172734818E+01 -0.74891779716E+03  0.76126788595E+03  0.12508759166E+03 0.  0.
          5    1    3    3  502    0 -0.12766617545E+02 -0.96545770754E+01 -0.69995413036E+01  0.17962832753E+02  0.41800000000E+01 0.  1.
         -5    1    3    3    0  502 -0.41376505184E+02  0.18171850557E+02 -0.74191825586E+03  0.74330505320E+03  0.41800000000E+01 0.  1.
        -11    1    1    2    0    0  0.28604918165E+02 -0.49644005412E+02 -0.13933243603E+03  0.15065290023E+03  0.00000000000E+00 0. -1.
         11    1    1    2    0    0  0.25538204564E+02  0.41126731930E+02 -0.80614278566E+02  0.94033344513E+02  0.00000000000E+00 0.  1.
</event>
<event>
 7    1  0.2619826E-009  0.1136808E+03  0.7561462E-02  0.1253901E+00
          1   -1    0    0  501    0  0.00000000000E+00  0.00000000000E+00  0.64076829524E+02  0.64076829524E+02  0.00000000000E+00 0. -1.
         -1   -1    0    0    0  501 -0.00000000000E+00 -0.00000000000E+00 -0.27284250969E+03  0.27284250969E+03  0.00000000000E+00 0.  1.
         25    2    1    2    0    0 -0.41203158185E+02 -0.63240535604E+02 -0.10606021088E+03  0.18053293114E+03  0.12508519220E+03 0.  0.
          5    1    3    3  502    0 -0.38885492215E+02 -0.86720841918E+02 -0.28430520008E+02  0.99289238066E+02  0.41800000000E+01 0.  1.
         -5    1    3    3    0  502 -0.23176659704E+01  0.23480306314E+02 -0.77629690871E+02  0.81243693077E+02  0.41800000000E+01 0.  1.
        -11    1    1    2    0    0  0.61775592256E+02  0.62207323983E+02 -0.10366463769E+03  0.13576572492E+03  0.00000000000E+00 0.  1.
         11    1    1    2    0    0 -0.20572434071E+02  0.10332116211E+01  0.95916839560E+00  0.20620683158E+02  0.00000000000E+00 0. -1.
</event>
<event>
 7    1  0.2619826E-009  0.1084530E+03  0.7561462E-02  0.1263462E+00
         -1   -1    0    0    0  501 -0.00000000000E+00  0.00000000000E+00  0.43116617555E+02  0.43116617555E+02  0.00000000000E+00 0.  1.
          1   -1    0    0  501    0  0.00000000000E+00 -0.00000000000E+00 -0.41663537337E+03  0.41663537337E+03  0.00000000000E+00 0. -1.
         25    2    1    2    0    0  0.27482554025E+02  0.56225391396E+02 -0.12345548474E+03  0.18656242156E+03  0.12509074711E+03 0.  0.
          5    1    3    3  502    0  0.59929635152E+02  0.33476612868E+02 -0.14140780402E+02  0.70211671743E+02  0.41800000000E+01 0.  1.
         -5    1    3    3    0  502 -0.32447081126E+02  0.22748778528E+02 -0.10931470434E+03  0.11635074982E+03  0.41800000000E+01 0.  1.
        -11    1    1    2    0    0 -0.18257227102E+02  0.22526269107E+02 -0.47372837760E+02  0.55542280281E+02  0.00000000000E+00 0. -1.
         11    1    1    2    0    0 -0.92253269230E+01 -0.78751660503E+02 -0.20269043331E+03  0.21764728908E+03  0.00000000000E+00 0.  1.
</event>
<event>
 7    1  0.2619826E-009  0.1446912E+03  0.7561462E-02  0.1207152E+00
          2   -1    0    0  501    0  0.00000000000E+00  0.00000000000E+00  0.80570907504E+03  0.80570907504E+03  0.00000000000E+00 0. -1.
         -2   -1    0    0    0  501 -0.00000000000E+00 -0.00000000000E+00 -0.40646308064E+02  0.40646308064E+02  0.00000000000E+00 0.  1.
         25    2    1    2    0    0  0.78373563095E+02 -0.11458485114E+03  0.31040380609E+03  0.36231242850E+03  0.12509064515E+03 0.  0.
          5    1    3    3  502    0  0.83633260700E+02 -0.88274162072E+02  0.31222634709E+03  0.33509642523E+03  0.41800000000E+01 0.  1.
         -5    1    3    3    0  502 -0.52596976053E+01 -0.26310689072E+02 -0.18225409962E+01  0.27216003271E+02  0.41800000000E+01 0.  1.
        -11    1    1    2    0    0 -0.17542301228E+02  0.11879966280E+02  0.96103027757E+01  0.23264218246E+02  0.00000000000E+00 0.  1.
         11    1    1    2    0    0 -0.60831261867E+02  0.10270488486E+03  0.44504865811E+03  0.46077873636E+03  0.00000000000E+00 0. -1.
</event>
<event>
 7    1  0.2619826E-009  0.1427950E+03  0.7561462E-02  0.1209617E+00
          1   -1    0    0  501    0  0.00000000000E+00  0.00000000000E+00  0.79808163995E+03  0.79808163995E+03  0.00000000000E+00 0. -1.
         -1   -1    0    0    0  501 -0.00000000000E+00 -0.00000000000E+00 -0.34697167578E+02  0.34697167578E+02  0.00000000000E+00 0.  1.
         25    2    1    2    0    0  0.53336770896E+02 -0.10616244393E+03  0.51040879928E+03  0.53877718761E+03  0.12509372438E+03 0.  0.
          5    1    3    3  502    0  0.10005131417E+02 -0.11827077044E+03  0.28280526129E+03  0.30673174927E+03  0.41800000000E+01 0. -1.
         -5    1    3    3    0  502  0.43331639480E+02  0.12108326518E+02  0.22760353798E+03  0.23204543834E+03  0.41800000000E+01 0. -1.
        -11    1    1    2    0    0 -0.20829671477E+02  0.69902207101E+02  0.58440796569E+02  0.93464006308E+02  0.00000000000E+00 0.  1.
         11    1    1    2    0    0 -0.32507099420E+02  0.36260236825E+02  0.19453487653E+03  0.20053761361E+03  0.00000000000E+00 0. -1.
</event>
<event>
 7    1  0.2619826E-009  0.1455552E+03  0.7561462E-02  0.1206044E+00
          1   -1    0    0  501    0  0.00000000000E+00  0.00000000000E+00  0.10173908573E+03  0.10173908573E+03  0.00000000000E+00 0. -1.
         -1   -1    0    0    0  501 -0.00000000000E+00 -0.00000000000E+00 -0.22214121608E+03  0.22214121608E+03  0.00000000000E+00 0.  1.
         25    2    1    2    0    0  0.49079550719E+02  0.90056407189E+02 -0.83350923837E+02  0.18198529560E+03  0.12510920244E+03 0.  0.
          5    1    3    3  502    0  0.38983381262E+02 -0.24652769626E+02 -0.28368737686E+02  0.54311331624E+02  0.41800000000E+01 0. -1.
         -5    1    3    3    0  502  0.10096169457E+02  0.11470917682E+03 -0.54982186151E+02  0.12767396398E+03  0.41800000000E+01 0. -1.
        -11    1    1    2    0    0 -0.71116673239E+02 -0.68490309271E+02 -0.72292008079E+01  0.98998813230E+02  0.00000000000E+00 0. -1.
         11    1    1    2    0    0  0.22037122520E+02 -0.21566097918E+02 -0.29822005697E+02  0.42896192980E+02  0.00000000000E+00 0.  1.
</event>
<event>
 7    1  0.2619826E-009  0.1079105E+03  0.7561462E-02  0.1264489E+00
          2   -1    0    0  501    0  0.00000000000E+00  0.00000000000E+00  0.80320717584E+02  0.80320717584E+02  0.00000000000E+00 0. -1.
         -2   -1    0    0    0  501 -0.00000000000E+00 -0.00000000000E+00 -0.21295843542E+03  0.21295843542E+03  0.00000000000E+00 0.  1.
         25    2    1    2    0    0 -0.61404712083E+01  0.43744239495E+02 -0.99416035028E+01  0.13302834455E+03  0.12508573499E+03 0.  0.
          5    1    3    3  502    0  0.36950521921E+02 -0.22559716183E+02  0.20638054686E+02  0.48142326136E+02  0.41800000000E+01 0.  1.
         -5    1    3    3    0  502 -0.43090993130E+02  0.66303955679E+02 -0.30579658189E+02  0.84886018416E+02  0.41800000000E+01 0.  1.
        -11    1    1    2    0    0 -0.23883276869E+02  0.14266854353E+02 -0.73162956152E+02  0.78273700565E+02  0.00000000000E+00 0.  1.
         11    1    1    2    0    0  0.30023748077E+02 -0.58011093849E+02 -0.49533158177E+02  0.81977107884E+02  0.00000000000E+00 0. -1.
</event>
<event>
 7    1  0.2619826E-009  0.1027926E+03  0.7561462E-02  0.1274531E+00
          2   -1    0    0  501    0  0.00000000000E+00  0.00000000000E+00  0.71809110112E+03  0.71809110112E+03  0.00000000000E+00 0. -1.
         -2   -1    0    0    0  501 -0.00000000000E+00 -0.00000000000E+00 -0.18737714718E+02  0.18737714718E+02  0.00000000000E+00 0.  1.
         25    2    1    2    0    0  0.15521185095E+02  0.24526655933E+02  0.30650102040E+03  0.33231454365E+03  0.12509043279E+03 0.  0.
          5    1    3    3  502    0 -0.11187084918E+02  0.65018555735E+02  0.24561825044E+03  0.25435872466E+03  0.41800000000E+01 0.  1.
         -5    1    3    3    0  502  0.26708270013E+02 -0.40491899802E+02  0.60882769959E+02  0.77955818991E+02  0.41800000000E+01 0.  1.
        -11    1    1    2    0    0  0.28671618960E+02  0.14233349755E+02  0.79614711421E+02  0.85808812214E+02  0.00000000000E+00 0.  1.
         11    1    1    2    0    0 -0.44192804055E+02 -0.38760005688E+02  0.31323765458E+03  0.31870545997E+03  0.00000000000E+00 0. -1.
</event>
<event>
 7    1  0.2619826E-009  0.8071111E+02  0.7561462E-02  0.1327045E+00
         -1   -1    0    0    0  501 -0.00000000000E+00  0.00000000000E+00  0.27660286734E+02  0.27660286734E+02  0.00000000000E+00 0.  1.
          1   -1    0    0  501    0  0.00000000000E+00 -0.00000000000E+00 -0.42975349831E+03  0.42975349831E+03  0.00000000000E+00 0. -1.
         25    2    1    2    0    0 -0.23895092185E+01  0.13798536589E+02 -0.21197411552E+03  0.24653067891E+03  0.12509292796E+03 0.  0.
          5    1    3    3  502    0  0.49706032194E+02  0.21096624627E+01 -0.33323049000E+02  0.60025313884E+02  0.41800000000E+01 0.  1.
         -5    1    3    3    0  502 -0.52095541413E+02  0.11688874126E+02 -0.17865106652E+03  0.18650536503E+03  0.41800000000E+01 0.  1.
        -11    1    1    2    0    0  0.28477257228E+02 -0.14264420082E+02 -0.18016230649E+03  0.18295596339E+03  0.00000000000E+00 0. -1.
         11    1    1    2    0    0 -0.26087748009E+02  0.46588349354E+00 -0.99567895650E+01  0.27927142748E+02  0.00000000000E+00 0.  1.
</event>
<event>
 7    1  0.2619826E-009  0.8885184E+02  0.7561462E-02  0.1305656E+00
         -1   -1    0    0    0  501 -0.00000000000E+00  0.00000000000E+00  0.20178210021E+02  0.20178210021E+02  0.00000000000E+00 0.  1.
          1   -1    0    0  501    0  0.00000000000E+00 -0.00000000000E+00 -0.76939248931E+03  0.76939248931E+03  0.00000000000E+00 0. -1.
         25    2    1    2    0    0 -0.18131681272E+02 -0.56497271666E+02 -0.32656842558E+03  0.35471339447E+03  0.12511577063E+03 0.  0.
          5    1    3    3  502    0 -0.32002629165E+02 -0.65733257402E+02 -0.83595301454E+02  0.11113359630E+03  0.41800000000E+01 0.  1.
         -5    1    3    3    0  502  0.13870947893E+02  0.92359857362E+01 -0.24297312413E+03  0.24357979817E+03  0.41800000000E+01 0.  1.
        -11    1    1    2    0    0  0.37781012555E+02  0.56105617823E+02 -0.39606799818E+03  0.40180232010E+03  0.00000000000E+00 0. -1.
         11    1    1    2    0    0 -0.19649331283E+02  0.39165384295E+00 -0.26577855535E+02  0.33054984759E+02  0.00000000000E+00 0.  1.
</event>
<event>
 7    1  0.2619826E-009  0.2388783E+03  0.7561462E-02  0.1120542E+00
         -1   -1    0    0    0  501 -0.00000000000E+00  0.00000000000E+00  0.10407286088E+03  0.10407286088E+03  0.00000000000E+00 0.  1.
          1   -1    0    0  501    0  0.00000000000E+00 -0.00000000000E+00 -0.78888663571E+03  0.78888663571E+03  0.00000000000E+00 0. -1.
         25    2    1    2    0    0  0.17454752970E+02 -0.22935843817E+03 -0.14547196215E+03  0.29953204596E+03  0.12508954083E+03 0.  0.
          5    1    3    3  502    0  0.51126111191E+01 -0.10648189674E+03  0.25457855522E+01  0.10671685223E+03  0.41800000000E+01 0.  1.
         -5    1    3    3    0  502  0.12342141851E+02 -0.12287654143E+03 -0.14801774770E+03  0.19281519373E+03  0.41800000000E+01 0.  1.
        -11    1    1    2    0    0 -0.29779277383E+02  0.23280923956E+03 -0.51292469049E+03  0.56407329799E+03  0.00000000000E+00 0.  1.
         11    1    1    2    0    0  0.12324524412E+02 -0.34508013893E+01 -0.26417122190E+02  0.29354152636E+02  0.00000000000E+00 0. -1.
</event>
<event>
 7    1  0.2619826E-009  0.8102753E+02  0.7561462E-02  0.1326160E+00
         -3   -1    0    0    0  501 -0.00000000000E+00  0.00000000000E+00  0.14120652865E+03  0.14120652865E+03  0.00000000000E+00 0.  1.
          3   -1    0    0  501    0  0.00000000000E+00 -0.00000000000E+00 -0.13258052959E+03  0.13258052959E+03  0.00000000000E+00 0. -1.
         25    2    1    2    0    0 -0.53436226225E+02 -0.24968517315E+02 -0.54166300132E+02  0.14852930737E+03  0.12509240564E+03 0.  0.
          5    1    3    3  502    0 -0.55858965124E+02 -0.51506143524E+02 -0.80541172307E+02  0.11080369868E+03  0.41800000000E+01 0. -1.
         -5    1    3    3    0  502  0.24227388991E+01  0.26537626209E+02  0.26374872175E+02  0.37725608687E+02  0.41800000000E+01 0. -1.
        -11    1    1    2    0    0  0.37429141297E+02  0.17161628659E+02 -0.16225724923E+02  0.44257612518E+02  0.00000000000E+00 0. -1.
         11    1    1    2    0    0  0.16007084927E+02  0.78068886559E+01  0.79018024112E+02  0.81000138351E+02  0.00000000000E+00 0.  1.
</event>
<event>
 7    1  0.2619826E-009  0.1487511E+03  0.7561462E-02  0.1202016E+00
         -2   -1    0    0    0  501 -0.00000000000E+00  0.00000000000E+00  0.15210778436E+02  0.15210778436E+02  0.00000000000E+00 0.  1.
          2   -1    0    0  501    0  0.00000000000E+00 -0.00000000000E+00 -0.16063325313E+04  0.16063325313E+04  0.00000000000E+00 0. -1.
         25    2    1    2    0    0 -0.92090925965E+02  0.62769430198E+02 -0.78382942495E+03  0.80153371316E+03  0.12508791268E+03 0.  0.
          5    1    3    3  502    0 -0.30108696742E+02  0.83005137396E+02 -0.59919357712E+03  0.60567879418E+03  0.41800000000E+01 0. -1.
         -5    1    3    3    0  502 -0.61982229223E+02 -0.20235707199E+02 -0.18463584783E+03  0.19585491898E+03  0.41800000000E+01 0. -1.
        -11    1    1    2    0    0 -0.55714941322E+01 -0.43961838400E+02 -0.23587391353E+03  0.24000039139E+03  0.00000000000E+00 0. -1.
         11    1    1    2    0    0  0.97662420098E+02 -0.18807591798E+02 -0.57141841440E+03  0.58000920521E+03  0.00000000000E+00 0.  1.
</event>
<event>
 7    1  0.2619826E-009  0.9224790E+02  0.7561462E-02  0.1297498E+00
         -4   -1    0    0    0  501 -0.00000000000E+00  0.00000000000E+00  0.67149133435E+03  0.67149133435E+03  0.00000000000E+00 0.  1.
          4   -1    0    0  501    0  0.00000000000E+00 -0.00000000000E+00 -0.23069164454E+02  0.23069164454E+02  0.00000000000E+00 0. -1.
         25    2    1    2    0    0  0.60713211855E+02 -0.39059690432E+01  0.36687484941E+03  0.39236002743E+03  0.12509150774E+03 0.  0.
          5    1    3    3  502    0 -0.56500823803E+01  0.18605520959E+02  0.27981987015E+03  0.28052579377E+03  0.41800000000E+01 0.  1.
         -5    1    3    3    0  502  0.66363294235E+02 -0.22511490003E+02  0.87054979262E+02  0.11183423366E+03  0.41800000000E+01 0.  1.
        -11    1    1    2    0    0 -0.22134798187E+02  0.37305093513E+02  0.20931425316E+03  0.21376172685E+03  0.00000000000E+00 0.  1.
         11    1    1    2    0    0 -0.38578413668E+02 -0.33399124469E+02  0.72233067321E+02  0.88438744513E+02  0.00000000000E+00 0. -1.
</event>
<event>
 7    1  0.2886230E-009  0.2791635E+03  0.7561462E-02  0.1096147E+00
         -1   -1    0    0    0  501 -0.00000000000E+00  0.00000000000E+00  0.17008727894E+03  0.17008727894E+03  0.00000000000E+00 0.  1.
          1   -1    0    0  501    0  0.00000000000E+00 -0.00000000000E+00 -0.50501180441E+03  0.50501180441E+03  0.00000000000E+00 0. -1.
         25    2    1    2    0    0 -0.55794201872E+02  0.26392342906E+03 -0.20992098421E+03  0.36398100228E+03  0.12508709381E+03 0.  0.
          5    1    3    3  502    0 -0.64458007034E+02  0.25771894107E+03 -0.22280470950E+03  0.34674673500E+03  0.41800000000E+01 0. -1.
         -5    1    3    3    0  502  0.86638051625E+01  0.62044879900E+01  0.12883725294E+02  0.17234267276E+02  0.41800000000E+01 0. -1.
        -11    1    1    2    0    0 -0.90191409839E+01 -0.14881966130E+03 -0.91163617080E+02  0.17475537637E+03  0.00000000000E+00 0. -1.
         11    1    1    2    0    0  0.64813342856E+02 -0.11510376776E+03 -0.33839924186E+02  0.13636270471E+03  0.00000000000E+00 0.  1.
</event>
<event>
 7    1  0.2619826E-009  0.1295831E+03  0.7561462E-02  0.1228076E+00
         -2   -1    0    0    0  501 -0.00000000000E+00  0.00000000000E+00  0.29535787665E+02  0.29535787665E+02  0.00000000000E+00 0.  1.
          2   -1    0    0  501    0  0.00000000000E+00 -0.00000000000E+00 -0.74035055486E+03  0.74035055486E+03  0.00000000000E+00 0. -1.
         25    2    1    2    0    0 -0.17331075595E+02 -0.73696531288E+02 -0.21577711440E+03  0.26065085014E+03  0.12509019816E+03 0.  0.
          5    1    3    3  502    0  0.38470296374E+02  0.11506617967E+02 -0.90828106293E+02  0.99396092745E+02  0.41800000000E+01 0.  1.
         -5    1    3    3    0  502 -0.55801371969E+02 -0.85203149255E+02 -0.12494900811E+03  0.16125475740E+03  0.41800000000E+01 0.  1.
        -11    1    1    2    0    0 -0.32502351566E+02  0.54501241772E+02 -0.21576750284E+03  0.22490532118E+03  0.00000000000E+00 0.  1.
         11    1    1    2    0    0  0.49833427161E+02  0.19195289516E+02 -0.27927014995E+03  0.28433017120E+03  0.00000000000E+00 0. -1.
</event>
<event>
 7    1  0.2619826E-009  0.1010437E+03  0.7561462E-02  0.1278116E+00
         -1   -1    0    0    0  501 -0.00000000000E+00  0.00000000000E+00  0.39544302022E+02  0.39544302022E+02  0.00000000000E+00 0.  1.
          1   -1    0    0  501    0  0.00000000000E+00 -0.00000000000E+00 -0.38444623675E+03  0.38444623675E+03  0.00000000000E+00 0. -1.
         25    2    1    2    0    0 -0.57278369986E+02 -0.76245300624E+01 -0.21113344858E+03  0.25211316102E+03  0.12507904590E+03 0.  0.
          5    1    3    3  502    0  0.34039888421E+02 -0.24435487160E+02 -0.90569876750E+02  0.99880839059E+02  0.41800000000E+01 0.  1.
         -5    1    3    3    0  502 -0.91318258406E+02  0.16810957098E+02 -0.12056357183E+03  0.15223232196E+03  0.41800000000E+01 0.  1.
        -11    1    1    2    0    0  0.95307133397E+01 -0.12070969010E+02  0.10512891981E+02  0.18629645392E+02  0.00000000000E+00 0.  1.
         11    1    1    2    0    0  0.47747656646E+02  0.19695499073E+02 -0.14428137814E+03  0.15324773237E+03  0.00000000000E+00 0. -1.
</event>
<event>
 7    1  0.2619826E-009  0.8938083E+02  0.7561462E-02  0.1304358E+00
         -1   -1    0    0    0  501 -0.00000000000E+00  0.00000000000E+00  0.32937907852E+02  0.32937907852E+02  0.00000000000E+00 0.  1.
          1   -1    0    0  501    0  0.00000000000E+00 -0.00000000000E+00 -0.83324935937E+03  0.83324935937E+03  0.00000000000E+00 0. -1.
         25    2    1    2    0    0 -0.36739621192E+02  0.61944075379E+02 -0.69726596250E+03  0.71204935334E+03  0.12509033093E+03 0.  0.
          5    1    3    3  502    0 -0.57131476879E+01 -0.40117918885E+01  0.24789551483E+01  0.85060066593E+01  0.41800000000E+01 0.  1.
         -5    1    3    3    0  502 -0.31026473504E+02  0.65955867267E+02 -0.69974491765E+03  0.70354334668E+03  0.41800000000E+01 0.  1.
        -11    1    1    2    0    0 -0.10478822001E+02 -0.46903833262E+02 -0.91349191939E+02  0.10322039601E+03  0.00000000000E+00 0. -1.
         11    1    1    2    0    0  0.47218443193E+02 -0.15040242117E+02 -0.11696297078E+02  0.50917517868E+02  0.00000000000E+00 0.  1.
</event>
<event>
 7    1  0.2619826E-009  0.1073657E+03  0.7561462E-02  0.1265527E+00
          1   -1    0    0  501    0  0.00000000000E+00  0.00000000000E+00  0.14474723264E+03  0.14474723264E+03  0.00000000000E+00 0. -1.
         -1   -1    0    0    0  501 -0.00000000000E+00 -0.00000000000E+00 -0.99339261198E+02  0.99339261198E+02  0.00000000000E+00 0.  1.
         25    2    1    2    0    0  0.37691029006E+02  0.30827298094E+02  0.91036507616E+01  0.13454201265E+03  0.12509092987E+03 0.  0.
          5    1    3    3  502    0  0.65135044915E+02 -0.68156090656E+01 -0.31326698864E+02  0.72717680551E+02  0.41800000000E+01 0.  1.
         -5    1    3    3    0  502 -0.27444015908E+02  0.37642907160E+02  0.40430349625E+02  0.61824332099E+02  0.41800000000E+01 0.  1.
        -11    1    1    2    0    0 -0.64648957816E+02 -0.37264010997E+02  0.33143302653E+02  0.81649083112E+02  0.00000000000E+00 0. -1.
         11    1    1    2    0    0  0.26957928810E+02  0.64367129025E+01  0.31610180223E+01  0.27895398073E+02  0.00000000000E+00 0.  1.
</event>
<event>
 7    1  0.2619826E-009  0.1197745E+03  0.7561462E-02  0.1243469E+00
          2   -1    0    0  501    0  0.00000000000E+00  0.00000000000E+00  0.54163847191E+03  0.54163847191E+03  0.00000000000E+00 0. -1.
         -2   -1    0    0    0  501 -0.00000000000E+00 -0.00000000000E+00 -0.31605499383E+02  0.31605499383E+02  0.00000000000E+00 0.  1.
         25    2    1    2    0    0 -0.34706325162E+02  0.50340189030E+02  0.19660706185E+03  0.24091787372E+03  0.12509365081E+03 0.  0.
          5    1    3    3  502    0 -0.44452202680E+02  0.88142617001E+02  0.12590278565E+03  0.16004406609E+03  0.41800000000E+01 0.  1.
         -5    1    3    3    0  502  0.97458775180E+01 -0.37802427970E+02  0.70704276193E+02  0.80873807633E+02  0.41800000000E+01 0.  1.
        -11    1    1    2    0    0  0.61250300203E+02 -0.31067834339E+02  0.14135097131E+03  0.15715249503E+03  0.00000000000E+00 0.  1.
         11    1    1    2    0    0 -0.26543975041E+02 -0.19272354692E+02  0.17207493937E+03  0.17517360254E+03  0.00000000000E+00 0. -1.
</event>
<event>
 7    1  0.2619826E-009  0.1392736E+03  0.7561462E-02  0.1214310E+00
         -1   -1    0    0    0  501 -0.00000000000E+00  0.00000000000E+00  0.54072770442E+03  0.54072770442E+03  0.00000000000E+00 0.  1.
          1   -1    0    0  501    0  0.00000000000E+00 -0.00000000000E+00 -0.39558098978E+02  0.39558098978E+02  0.00000000000E+00 0. -1.
         25    2    1    2    0    0  0.49007829425E+02 -0.82644056966E+02  0.31630030689E+03  0.35344767471E+03  0.12509023594E+03 0.  0.
          5    1    3    3  502    0 -0.29347433333E+02 -0.57782508224E+02  0.78940859643E+02  0.10222143523E+03  0.41800000000E+01 0.  1.
         -5    1    3    3    0  502  0.78355262758E+02 -0.24861548743E+02  0.23735944724E+03  0.25122623948E+03  0.41800000000E+01 0.  1.
        -11    1    1    2    0    0 -0.41496916028E+00  0.82699368591E+02  0.12172275997E+03  0.14715905701E+03  0.00000000000E+00 0.  1.
         11    1    1    2    0    0 -0.48592860264E+02 -0.55311624610E-01  0.63146538587E+02  0.79679071678E+02  0.00000000000E+00 0. -1.
</event>
<event>
 7    1  0.2619826E-009  0.1683030E+03  0.7561462E-02  0.1179629E+00
         -2   -1    0    0    0  501 -0.00000000000E+00  0.00000000000E+00  0.20998580034E+02  0.20998580034E+02  0.00000000000E+00 0.  1.
          2   -1    0    0  501    0  0.00000000000E+00 -0.00000000000E+00 -0.15232069269E+04  0.15232069269E+04  0.00000000000E+00 0. -1.
         25    2    1    2    0    0 -0.12683432224E+03  0.46571431462E+02 -0.99207550421E+03  0.10090179866E+04  0.12509055801E+03 0.  0.
          5    1    3    3  502    0 -0.11428547201E+02  0.65786597843E+02 -0.38106219834E+03  0.38689062996E+03  0.41800000000E+01 0. -1.
         -5    1    3    3    0  502 -0.11540577504E+03 -0.19215166382E+02 -0.61101330587E+03  0.62212735664E+03  0.41800000000E+01 0. -1.
        -11    1    1    2    0    0  0.42788843643E+02 -0.53264456689E+02 -0.14279790462E+03  0.15830107091E+03  0.00000000000E+00 0. -1.
         11    1    1    2    0    0  0.84045478593E+02  0.66930252272E+01 -0.36733493804E+03  0.37688644943E+03  0.00000000000E+00 0.  1.
</event>
<event>
 7    1  0.2619826E-009  0.1061045E+03  0.7561462E-02  0.1267959E+00
          2   -1    0    0  501    0  0.00000000000E+00  0.00000000000E+00  0.55961835731E+03  0.55961835731E+03  0.00000000000E+00 0. -1.
         -2   -1    0    0    0  501 -0.00000000000E+00 -0.00000000000E+00 -0.46094960820E+02  0.46094960820E+02  0.00000000000E+00 0.  1.
         25    2    1    2    0    0  0.53761192251E+02 -0.45020992369E+02  0.45354982799E+03  0.47568143190E+03  0.12509285608E+03 0.  0.
          5    1    3    3  502    0  0.63920339883E+02 -0.13023703014E+02  0.93717570618E+02  0.11426233909E+03  0.41800000000E+01 0.  1.
         -5    1    3    3    0  502 -0.10159147632E+02 -0.31997289356E+02  0.35983225737E+03  0.36141909282E+03  0.41800000000E+01 0. -1.
        -11    1    1    2    0    0  0.69580351454E+01  0.51481082909E+02  0.14613327987E+02  0.53965410268E+02  0.00000000000E+00 0. -1.
         11    1    1    2    0    0 -0.60719227396E+02 -0.64600905395E+01  0.45360240514E+02  0.76066475959E+02  0.00000000000E+00 0.  1.
</event>
<event>
 7    1  0.2619826E-009  0.1291717E+03  0.7561462E-02  0.1228690E+00
          1   -1    0    0  501    0  0.00000000000E+00  0.00000000000E+00  0.68430438036E+03  0.68430438036E+03  0.00000000000E+00 0. -1.
         -1   -1    0    0    0  501 -0.00000000000E+00 -0.00000000000E+00 -0.28858276724E+02  0.28858276724E+02  0.00000000000E+00 0.  1.
         25    2    1    2    0    0  0.14186472431E+01 -0.81688568708E+02  0.45661378694E+03  0.48043625570E+03  0.12509120895E+03 0.  0.
          5    1    3    3  502    0  0.44887689036E+02  0.10673625318E+02  0.16812053291E+03  0.17438697454E+03  0.41800000000E+01 0.  1.
         -5    1    3    3    0  502 -0.43469041793E+02 -0.92362194027E+02  0.28849325403E+03  0.30604928116E+03  0.41800000000E+01 0.  1.
        -11    1    1    2    0    0  0.48547535198E+00 -0.14066912660E+02  0.25224569777E+01  0.14299528220E+02  0.00000000000E+00 0.  1.
         11    1    1    2    0    0 -0.19041225951E+01  0.95755481368E+02  0.19630985972E+03  0.21842687316E+03  0.00000000000E+00 0. -1.
</event>
<event>
 7    1  0.2619826E-009  0.2484714E+03  0.7561462E-02  0.1114275E+00
         -1   -1    0    0    0  501 -0.00000000000E+00  0.00000000000E+00  0.88370833663E+02  0.88370833663E+02  0.00000000000E+00 0.  1.
          1   -1    0    0  501    0  0.00000000000E+00 -0.00000000000E+00 -0.73306348867E+03  0.73306348867E+03  0.00000000000E+00 0. -1.
         25    2    1    2    0    0 -0.20714427491E+03 -0.79979748484E+02 -0.37409241521E+03  0.45265807112E+03  0.12509469791E+03 0.  0.
          5    1    3    3  502    0 -0.27071781199E+02  0.28422917517E+02 -0.30623388462E+02  0.49960063035E+02  0.41800000000E+01 0. -1.
         -5    1    3    3    0  502 -0.18007249371E+03 -0.10840266600E+03 -0.34346902674E+03  0.40269800809E+03  0.41800000000E+01 0. -1.
        -11    1    1    2    0    0  0.31954010133E+02  0.63740801014E+02 -0.10663485546E+03  0.12827681348E+03  0.00000000000E+00 0. -1.
         11    1    1    2    0    0  0.17519026477E+03  0.16238947469E+02 -0.16396538433E+03  0.24049943773E+03  0.00000000000E+00 0.  1.
</event>
<event>
 7    1  0.2619826E-009  0.1130500E+03  0.7561462E-02  0.1255024E+00
          2   -1    0    0  501    0  0.00000000000E+00  0.00000000000E+00  0.94380265556E+03  0.94380265556E+03  0.00000000000E+00 0. -1.
         -2   -1    0    0    0  501 -0.00000000000E+00 -0.00000000000E+00 -0.15690693554E+02  0.15690693554E+02  0.00000000000E+00 0.  1.
         25    2    1    2    0    0 -0.39213479448E+02 -0.33271544495E+02  0.58695262604E+03  0.60233646881E+03  0.12510453150E+03 0.  0.
          5    1    3    3  502    0  0.43312701793E+02  0.31085682551E+01  0.23310548038E+03  0.23715246302E+03  0.41800000000E+01 0.  1.
         -5    1    3    3    0  502 -0.82526181241E+02 -0.36380112750E+02  0.35384714565E+03  0.36518400578E+03  0.41800000000E+01 0.  1.
        -11    1    1    2    0    0 -0.15070281391E+02 -0.13728376403E+02  0.21888129703E+02  0.29911066878E+02  0.00000000000E+00 0.  1.
         11    1    1    2    0    0  0.54283760839E+02  0.46999920897E+02  0.31927120627E+03  0.32724581343E+03  0.00000000000E+00 0. -1.
</event>
<event>
 7    1  0.2619826E-009  0.1256552E+03  0.7561462E-02  0.1234049E+00
          1   -1    0    0  501    0  0.00000000000E+00  0.00000000000E+00  0.19854547921E+03  0.19854547921E+03  0.00000000000E+00 0. -1.
         -1   -1    0    0    0  501 -0.00000000000E+00 -0.00000000000E+00 -0.92055731396E+02  0.92055731396E+02  0.00000000000E+00 0.  1.
         25    2    1    2    0    0  0.36155425382E+01  0.68151823165E+02  0.10504968526E+03  0.17703217062E+03  0.12508880811E+03 0.  0.
          5    1    3    3  502    0 -0.59091700608E+02  0.44294921908E+02  0.66926382346E+02  0.99752103945E+02  0.41800000000E+01 0.  1.
         -5    1    3    3    0  502  0.62707243146E+02  0.23856901257E+02  0.38123302914E+02  0.77280066677E+02  0.41800000000E+01 0.  1.
        -11    1    1    2    0    0 -0.21136626829E+02  0.14499354683E+02  0.12220869541E+02  0.28396090087E+02  0.00000000000E+00 0. -1.
         11    1    1    2    0    0  0.17521084291E+02 -0.82651177848E+02 -0.10780806989E+02  0.85172949894E+02  0.00000000000E+00 0.  1.
</event>
<event>
 7    1  0.2619826E-009  0.1055530E+03  0.7561462E-02  0.1269034E+00
          1   -1    0    0  501    0  0.00000000000E+00  0.00000000000E+00  0.53236063410E+03  0.53236063410E+03  0.00000000000E+00 0. -1.
         -1   -1    0    0    0  501 -0.00000000000E+00 -0.00000000000E+00 -0.22808160901E+02  0.22808160901E+02  0.00000000000E+00 0.  1.
         25    2    1    2    0    0 -0.11974836368E+02 -0.61470256025E+01  0.25870590716E+03  0.28767724801E+03  0.12509304533E+03 0.  0.
          5    1    3    3  502    0  0.22173177198E+02 -0.55873773510E+02  0.16964499333E+03  0.18002895466E+03  0.41800000000E+01 0.  1.
         -5    1    3    3    0  502 -0.34148013566E+02  0.49726747908E+02  0.89060913832E+02  0.10764829335E+03  0.41800000000E+01 0.  1.
        -11    1    1    2    0    0  0.12638980725E+02 -0.41166309314E+02  0.89015047004E+02  0.98884212336E+02  0.00000000000E+00 0.  1.
         11    1    1    2    0    0 -0.66414435732E+00  0.47313334916E+02  0.16183151903E+03  0.16860733466E+03  0.00000000000E+00 0. -1.
</event>
<event>
 7    1  0.2619826E-009  0.1259594E+03  0.7561462E-02  0.1233577E+00
          2   -1    0    0  501    0  0.00000000000E+00  0.00000000000E+00  0.83314099736E+02  0.83314099736E+02  0.00000000000E+00 0. -1.
         -2   -1    0    0    0  501 -0.00000000000E+00 -0.00000000000E+00 -0.21408146277E+03  0.21408146277E+03  0.00000000000E+00 0.  1.
         25    2    1    2    0    0 -0.67037005225E+02  0.24644098992E+02 -0.36358761843E+02  0.14856197500E+03  0.12508960456E+03 0.  0.
          5    1    3    3  502    0 -0.56119624867E+02  0.70623378467E+02 -0.44094768954E+02  0.10049325813E+03  0.41800000000E+01 0. -1.
         -5    1    3    3    0  502 -0.10917380358E+02 -0.45979279475E+02  0.77360071113E+01  0.48068716864E+02  0.41800000000E+01 0. -1.
        -11    1    1    2    0    0  0.46088952383E+02  0.30444981466E+02 -0.54901562813E+02  0.77879843525E+02  0.00000000000E+00 0.  1.
         11    1    1    2    0    0  0.20948052843E+02 -0.55089080458E+02 -0.39507038378E+02  0.70953743982E+02  0.00000000000E+00 0. -1.
</event>
<event>
 7    1  0.2619826E-009  0.1638385E+03  0.7561462E-02  0.1184430E+00
          2   -1    0    0  501    0  0.00000000000E+00  0.00000000000E+00  0.10476562631E+04  0.10476562631E+04  0.00000000000E+00 0. -1.
         -2   -1    0    0    0  501 -0.00000000000E+00 -0.00000000000E+00 -0.26529869898E+02  0.26529869898E+02  0.00000000000E+00 0.  1.
         25    2    1    2    0    0  0.12447653913E+03 -0.15455402674E+02  0.48098577720E+03  0.51256983099E+03  0.12508891039E+03 0.  0.
          5    1    3    3  502    0 -0.69283259235E+01 -0.42199702785E+02  0.11935999813E+03  0.12685857546E+03  0.41800000000E+01 0. -1.
         -5    1    3    3    0  502  0.13140486505E+03  0.26744300110E+02  0.36162577908E+03  0.38571125553E+03  0.41800000000E+01 0. -1.
        -11    1    1    2    0    0 -0.56653922800E+02  0.48977650299E+02  0.32640649884E+03  0.33488756274E+03  0.00000000000E+00 0. -1.
         11    1    1    2    0    0 -0.67822616328E+02 -0.33522247625E+02  0.21373411720E+03  0.22672873930E+03  0.00000000000E+00 0.  1.
</event>
<event>
 7    1  0.2619826E-009  0.2826883E+03  0.7561462E-02  0.1094230E+00
          1   -1    0    0  501    0  0.00000000000E+00  0.00000000000E+00  0.98356027713E+02  0.98356027713E+02  0.00000000000E+00 0. -1.
         -1   -1    0    0    0  501 -0.00000000000E+00 -0.00000000000E+00 -0.10064357492E+04  0.10064357492E+04  0.00000000000E+00 0.  1.
         25    2    1    2    0    0 -0.16972714184E+03  0.20842349496E+03 -0.25008756092E+03  0.38786411473E+03  0.12508847845E+03 0.  0.
          5    1    3    3  502    0 -0.11493830077E+03  0.44064697806E+02 -0.10297761458E+03  0.16054398799E+03  0.41800000000E+01 0. -1.
         -5    1    3    3    0  502 -0.54788841072E+02  0.16435879715E+03 -0.14710994634E+03  0.22732012674E+03  0.41800000000E+01 0. -1.
        -11    1    1    2    0    0  0.86878613711E+02 -0.11304276698E+03 -0.46411445639E+03  0.48551909264E+03  0.00000000000E+00 0. -1.
         11    1    1    2    0    0  0.82848528128E+02 -0.95380727976E+02 -0.19387770418E+03  0.23140856955E+03  0.00000000000E+00 0.  1.
</event>
<event>
 7    1  0.2619826E-009  0.1049750E+03  0.7561462E-02  0.1270169E+00
         -2   -1    0    0    0  501 -0.00000000000E+00  0.00000000000E+00  0.30317972990E+02  0.30317972990E+02  0.00000000000E+00 0.  1.
          2   -1    0    0  501    0  0.00000000000E+00 -0.00000000000E+00 -0.53944346481E+03  0.53944346481E+03  0.00000000000E+00 0. -1.
         25    2    1    2    0    0  0.90432304725E+01 -0.66653303007E+02 -0.27091006715E+03  0.30588251471E+03  0.12508958990E+03 0.  0.
          5    1    3    3  502    0 -0.29521962900E+02 -0.90277514542E+02 -0.20331109639E+03  0.22444253215E+03  0.41800000000E+01 0.  1.
         -5    1    3    3    0  502  0.38565193373E+02  0.23624211535E+02 -0.67598970764E+02  0.81439982557E+02  0.41800000000E+01 0.  1.
        -11    1    1    2    0    0  0.51908916219E+01  0.21270001553E+02 -0.97322052314E+00  0.21915872789E+02  0.00000000000E+00 0.  1.
         11    1    1    2    0    0 -0.14234122094E+02  0.45383301453E+02 -0.23724220415E+03  0.24196305030E+03  0.00000000000E+00 0. -1.
</event>
<event>
 7    1  0.2619826E-009  0.1054958E+03  0.7561462E-02  0.1269146E+00
         -1   -1    0    0    0  501 -0.00000000000E+00  0.00000000000E+00  0.27578826626E+02  0.27578826626E+02  0.00000000000E+00 0.  1.
          1   -1    0    0  501    0  0.00000000000E+00 -0.00000000000E+00 -0.78717570488E+03  0.78717570488E+03  0.00000000000E+00 0. -1.
         25    2    1    2    0    0 -0.63250283386E+02  0.62409025653E+02 -0.28797402574E+03  0.32629814330E+03  0.12508378786E+03 0.  0.
          5    1    3    3  502    0  0.10944762498E+02  0.97038842776E+01  0.75974081738E+01  0.17004299667E+02  0.41800000000E+01 0.  1.
         -5    1    3    3    0  502 -0.74195045884E+02  0.52705141376E+02 -0.29557143392E+03  0.30929384363E+03  0.41800000000E+01 0.  1.
        -11    1    1    2    0    0  0.58745324452E+02 -0.72683073229E+02 -0.46710556218E+03  0.47636272786E+03  0.00000000000E+00 0. -1.
         11    1    1    2    0    0  0.45049589341E+01  0.10274047575E+02 -0.45172903330E+01  0.12093660344E+02  0.00000000000E+00 0.  1.
</event>
<event>
 7    1  0.2619826E-009  0.1308509E+03  0.7561462E-02  0.1226199E+00
          1   -1    0    0  501    0  0.00000000000E+00  0.00000000000E+00  0.50800063281E+03  0.50800063281E+03  0.00000000000E+00 0.  1.
         -1   -1    0    0    0  501 -0.00000000000E+00 -0.00000000000E+00 -0.85702101075E+02  0.85702101075E+02  0.00000000000E+00 0. -1.
         25    2    1    2    0    0  0.16690639297E+02 -0.71976377174E+02  0.45035082404E+03  0.47319408692E+03  0.12505040134E+03 0.  0.
          5    1    3    3  502    0  0.73923911534E+01 -0.10772326892E+03  0.33183660250E+03  0.34898703883E+03  0.41800000000E+01 0. -1.
         -5    1    3    3    0  502  0.92982481440E+01  0.35746891749E+02  0.11851422154E+03  0.12420704809E+03  0.41800000000E+01 0. -1.
        -11    1    1    2    0    0  0.35815706655E+02  0.14544724676E+02 -0.30575583978E+01  0.38777087596E+02  0.00000000000E+00 0. -1.
         11    1    1    2    0    0 -0.52506345952E+02  0.57431652498E+02 -0.24994733904E+02  0.81731559368E+02  0.00000000000E+00 0.  1.
</event>
<event>
 7    1  0.2619826E-009  0.1094537E+03  0.7561462E-02  0.1261585E+00
         -2   -1    0    0    0  501 -0.00000000000E+00  0.00000000000E+00  0.34133054191E+03  0.34133054191E+03  0.00000000000E+00 0.  1.
          2   -1    0    0  501    0  0.00000000000E+00 -0.00000000000E+00 -0.55400280664E+02  0.55400280664E+02  0.00000000000E+00 0. -1.
         25    2    1    2    0    0  0.24839218184E+02 -0.27849709766E+02  0.47908010375E+02  0.13905128132E+03  0.12508992080E+03 0.  0.
          5    1    3    3  502    0  0.68612033348E+02  0.13510257625E+02  0.28656016883E+02  0.75688690600E+02  0.41800000000E+01 0. -1.
         -5    1    3    3    0  502 -0.43772815164E+02 -0.41359967391E+02  0.19251993492E+02  0.63362590724E+02  0.41800000000E+01 0. -1.
        -11    1    1    2    0    0  0.10465090736E+02  0.47117741371E+02  0.18462402626E+03  0.19082879958E+03  0.00000000000E+00 0.  1.
         11    1    1    2    0    0 -0.35304308920E+02 -0.19268031605E+02  0.53398224614E+02  0.66850741673E+02  0.00000000000E+00 0. -1.
</event>
<event>
 7    1  0.2619826E-009  0.1155344E+03  0.7561462E-02  0.1250651E+00
          1   -1    0    0  501    0  0.00000000000E+00  0.00000000000E+00  0.92503587201E+02  0.92503587201E+02  0.00000000000E+00 0. -1.
         -1   -1    0    0    0  501 -0.00000000000E+00 -0.00000000000E+00 -0.16711437539E+03  0.16711437539E+03  0.00000000000E+00 0.  1.
         25    2    1    2    0    0 -0.51203194394E+02 -0.30496319030E+01 -0.66517694869E+01  0.13536138266E+03  0.12508952997E+03 0.  0.
          5    1    3    3  502    0 -0.63402424188E+00 -0.59081042663E+02  0.20637923374E+01  0.59268062459E+02  0.41800000000E+01 0.  1.
         -5    1    3    3    0  502 -0.50569170153E+02  0.56031410760E+02 -0.87155618243E+01  0.76093320203E+02  0.41800000000E+01 0.  1.
        -11    1    1    2    0    0 -0.22372663875E+02  0.36342205463E+01  0.19667768237E+01  0.22751084786E+02  0.00000000000E+00 0. -1.
         11    1    1    2    0    0  0.73575858270E+02 -0.58458864333E+00 -0.69925795523E+02  0.10150549514E+03  0.00000000000E+00 0.  1.
</event>
<event>
 7    1  0.2619826E-009  0.1245053E+03  0.7561462E-02  0.1235844E+00
         -2   -1    0    0    0  501 -0.00000000000E+00  0.00000000000E+00  0.63482768586E+02  0.63482768586E+02  0.00000000000E+00 0.  1.
          2   -1    0    0  501    0  0.00000000000E+00 -0.00000000000E+00 -0.32291105166E+03  0.32291105166E+03  0.00000000000E+00 0. -1.
         25    2    1    2    0    0  0.61132610110E+02 -0.18951940184E+02 -0.23438425389E+03  0.27327604725E+03  0.12508975767E+03 0.  0.
          5    1    3    3  502    0  0.58047330153E+02  0.46592994375E+02 -0.11704959942E+03  0.13877492852E+03  0.41800000000E+01 0. -1.
         -5    1    3    3    0  502  0.30852799571E+01 -0.65544934559E+02 -0.11733465447E+03  0.13450111873E+03  0.41800000000E+01 0. -1.
        -11    1    1    2    0    0  0.15878912451E+02  0.26953222647E+02  0.13625541331E+01  0.31312499508E+02  0.00000000000E+00 0. -1.
         11    1    1    2    0    0 -0.77011522561E+02 -0.80012824624E+01 -0.26406583319E+02  0.81805273490E+02  0.00000000000E+00 0.  1.
</event>
<event>
 7    1  0.2619826E-009  0.2153056E+03  0.7561462E-02  0.1137432E+00
          1   -1    0    0  501    0  0.00000000000E+00  0.00000000000E+00  0.19070442728E+03  0.19070442728E+03  0.00000000000E+00 0. -1.
         -1   -1    0    0    0  501 -0.00000000000E+00 -0.00000000000E+00 -0.31873915728E+03  0.31873915728E+03  0.00000000000E+00 0.  1.
         25    2    1    2    0    0 -0.59398202719E+02 -0.19308967972E+03 -0.15556212308E+03  0.28400446301E+03  0.12508872839E+03 0.  0.
          5    1    3    3  502    0  0.21881201320E+02 -0.10370117368E+03 -0.31181851519E+02  0.11055541894E+03  0.41800000000E+01 0.  1.
         -5    1    3    3    0  502 -0.81279404039E+02 -0.89388506044E+02 -0.12438027156E+03  0.17344904407E+03  0.41800000000E+01 0.  1.
        -11    1    1    2    0    0  0.35262942547E+02  0.15168467135E+03 -0.21113378566E+02  0.15715434895E+03  0.00000000000E+00 0.  1.
         11    1    1    2    0    0  0.24135260172E+02  0.41405008374E+02  0.48640771649E+02  0.68284772597E+02  0.00000000000E+00 0. -1.
</event>
<event>
 7    1  0.2619826E-009  0.7804339E+02  0.7561462E-02  0.1334698E+00
         -1   -1    0    0    0  501 -0.00000000000E+00  0.00000000000E+00  0.44739983672E+02  0.44739983672E+02  0.00000000000E+00 0.  1.
          1   -1    0    0  501    0  0.00000000000E+00 -0.00000000000E+00 -0.33740611431E+03  0.33740611431E+03  0.00000000000E+00 0. -1.
         25    2    1    2    0    0 -0.19375213546E+02 -0.58487699652E+02 -0.18350057150E+03  0.23046979335E+03  0.12509059115E+03 0.  0.
          5    1    3    3  502    0 -0.26752574036E+02  0.38031789647E+00 -0.16639376980E+03  0.16858292881E+03  0.41800000000E+01 0.  1.
         -5    1    3    3    0  502  0.73773604901E+01 -0.58868017548E+02 -0.17106801709E+02  0.61886864540E+02  0.41800000000E+01 0.  1.
        -11    1    1    2    0    0 -0.18249602958E+01  0.43571219328E+02 -0.44912994341E+01  0.43840089010E+02  0.00000000000E+00 0.  1.
         11    1    1    2    0    0  0.21200173841E+02  0.14916480323E+02 -0.10467425970E+03  0.10783621562E+03  0.00000000000E+00 0. -1.
</event>
<event>
 7    1  0.2619826E-009  0.8640606E+02  0.7561462E-02  0.1311796E+00
         -2   -1    0    0    0  501 -0.00000000000E+00  0.00000000000E+00  0.35630541543E+02  0.35630541543E+02  0.00000000000E+00 0. -1.
          2   -1    0    0  501    0  0.00000000000E+00 -0.00000000000E+00 -0.74403646737E+03  0.74403646737E+03  0.00000000000E+00 0.  1.
         25    2    1    2    0    0 -0.30171895343E+02 -0.60637727816E+02 -0.62042863813E+03  0.63652689535E+03  0.12509003230E+03 0.  0.
          5    1    3    3  502    0 -0.33597493686E+02  0.70853267430E+01 -0.43331067436E+02  0.55444091139E+02  0.41800000000E+01 0.  1.
         -5    1    3    3    0  502  0.34255983434E+01 -0.67723054559E+02 -0.57709757070E+03  0.58108280421E+03  0.41800000000E+01 0.  1.
        -11    1    1    2    0    0  0.28063832575E+02  0.36438174591E+02 -0.10422105719E+03  0.11391816373E+03  0.00000000000E+00 0.  1.
         11    1    1    2    0    0  0.21080627677E+01  0.24199553225E+02  0.16243769493E+02  0.29221949836E+02  0.00000000000E+00 0. -1.
</event>
<event>
 6    1  0.2619826E-009  0.1022488E+03  0.7561462E-02  0.1275637E+00
          1   -1    0    0  501    0  0.00000000000E+00  0.00000000000E+00  0.18802441727E+03  0.18802441727E+03  0.00000000000E+00 0. -1.
         -1   -1    0    0    0  501 -0.00000000000E+00 -0.00000000000E+00 -0.10544707802E+03  0.10544707802E+03  0.00000000000E+00 0.  1.
          5    1    1    2  502    0 -0.43542783446E+02  0.24940294375E+02  0.24590879111E+02  0.56037273392E+02  0.41800000000E+01 0.  1.
         -5    1    1    2    0  502  0.38948047610E+02 -0.61516572245E+02  0.10576355522E+03  0.12847038992E+03  0.41800000000E+01 0.  1.
        -11    1    1    2    0    0  0.94650733134E+01 -0.21208633676E+02  0.11605585398E+02  0.25963115523E+02  0.00000000000E+00 0. -1.
         11    1    1    2    0    0 -0.48703374771E+01  0.57784911545E+02 -0.59382680483E+02  0.83000716448E+02  0.00000000000E+00 0.  1.
</event>
<event>
 7    1  0.2619826E-009  0.8992961E+02  0.7561462E-02  0.1303022E+00
         -2   -1    0    0    0  501 -0.00000000000E+00  0.00000000000E+00  0.52882216633E+02  0.52882216633E+02  0.00000000000E+00 0.  1.
          2   -1    0    0  501    0  0.00000000000E+00 -0.00000000000E+00 -0.30523242495E+03  0.30523242495E+03  0.00000000000E+00 0. -1.
         25    2    1    2    0    0  0.22826919339E+02  0.15680534880E+02 -0.55518292735E+02  0.13962916888E+03  0.12508827504E+03 0.  0.
          5    1    3    3  502    0  0.32456533479E+02  0.47523433771E+02  0.16647984464E+02  0.60054401250E+02  0.41800000000E+01 0. -1.
         -5    1    3    3    0  502 -0.96296141399E+01 -0.31842898890E+02 -0.72166277199E+02  0.79574767628E+02  0.41800000000E+01 0. -1.
        -11    1    1    2    0    0 -0.30006347487E+02 -0.47404728787E+02 -0.83645707952E+02  0.10071838789E+03  0.00000000000E+00 0.  1.
         11    1    1    2    0    0  0.71794281479E+01  0.31724193907E+02 -0.11318620763E+03  0.11776708481E+03  0.00000000000E+00 0. -1.
</event>
<event>
 7    1  0.2619826E-009  0.9351508E+02  0.7561462E-02  0.1294556E+00
          4   -1    0    0  501    0  0.00000000000E+00  0.00000000000E+00  0.19535420041E+03  0.19535420041E+03  0.00000000000E+00 0. -1.
         -4   -1    0    0    0  501 -0.00000000000E+00 -0.00000000000E+00 -0.67335912029E+02  0.67335912029E+02  0.00000000000E+00 0.  1.
         25    2    1    2    0    0  0.28365927901E+02 -0.21730595074E-02  0.46715434804E+02  0.13650786117E+03  0.12508972157E+03 0.  0.
          5    1    3    3  502    0  0.76743614068E+02 -0.77539486852E+01  0.39652920330E+02  0.86830481463E+02  0.41800000000E+01 0.  1.
         -5    1    3    3    0  502 -0.48377686167E+02  0.77517756257E+01  0.70625144739E+01  0.49677379711E+02  0.41800000000E+01 0.  1.
        -11    1    1    2    0    0 -0.13781850136E+02  0.26779922609E+02  0.89645674997E+02  0.94569819148E+02  0.00000000000E+00 0. -1.
         11    1    1    2    0    0 -0.14584077765E+02 -0.26777749549E+02 -0.83428214190E+01  0.31612432118E+02  0.00000000000E+00 0.  1.
</event>
<event>
 7    1  0.2619826E-009  0.1565057E+03  0.7561462E-02  0.1192699E+00
          1   -1    0    0  501    0  0.00000000000E+00  0.00000000000E+00  0.19170612089E+03  0.19170612089E+03  0.00000000000E+00 0. -1.
         -1   -1    0    0    0  501 -0.00000000000E+00 -0.00000000000E+00 -0.20567292132E+03  0.20567292132E+03  0.00000000000E+00 0.  1.
         25    2    1    2    0    0  0.10381126349E+03 -0.10338379483E+03  0.68772140367E+02  0.20455288779E+03  0.12508912484E+03 0.  0.
          5    1    3    3  502    0  0.42173143960E+02 -0.85057116926E+02  0.95558119079E+02  0.13476688663E+03  0.41800000000E+01 0. -1.
         -5    1    3    3    0  502  0.61638119528E+02 -0.18326677900E+02 -0.26785978712E+02  0.69786001156E+02  0.41800000000E+01 0. -1.
        -11    1    1    2    0    0 -0.58138867897E+02  0.26008689017E+02 -0.80893608323E+02  0.10295802898E+03  0.00000000000E+00 0.  1.
         11    1    1    2    0    0 -0.45672395591E+02  0.77375105809E+02 -0.18453324753E+01  0.89868125439E+02  0.00000000000E+00 0. -1.
</event>
<event>
 7    1  0.2619826E-009  0.1646518E+03  0.7561462E-02  0.1183543E+00
         -2   -1    0    0    0  501 -0.00000000000E+00  0.00000000000E+00  0.36790555345E+02  0.36790555345E+02  0.00000000000E+00 0.  1.
          2   -1    0    0  501    0  0.00000000000E+00 -0.00000000000E+00 -0.86803363504E+03  0.86803363504E+03  0.00000000000E+00 0. -1.
         25    2    1    2    0    0  0.25918754327E+01  0.13795375836E+03 -0.52461873623E+03  0.55669562825E+03  0.12508895576E+03 0.  0.
          5    1    3    3  502    0  0.16466414077E+02  0.15838434876E+03 -0.47694086055E+03  0.50283874313E+03  0.41800000000E+01 0.  1.
         -5    1    3    3    0  502 -0.13874538644E+02 -0.20430590401E+02 -0.47677875673E+02  0.53856885126E+02  0.41800000000E+01 0.  1.
        -11    1    1    2    0    0  0.17779600540E+02 -0.28215684183E+02 -0.16224883634E+03  0.16564094881E+03  0.00000000000E+00 0.  1.
         11    1    1    2    0    0 -0.20371475973E+02 -0.10973807418E+03 -0.14437550713E+03  0.18248761333E+03  0.00000000000E+00 0. -1.
</event>
<event>
 7    1  0.2619826E-009  0.1082541E+03  0.7561462E-02  0.1263838E+00
          2   -1    0    0  501    0  0.00000000000E+00  0.00000000000E+00  0.64945636478E+03  0.64945636478E+03  0.00000000000E+00 0. -1.
         -2   -1    0    0    0  501 -0.00000000000E+00 -0.00000000000E+00 -0.46342771164E+02  0.46342771164E+02  0.00000000000E+00 0.  1.
         25    2    1    2    0    0 -0.32761203516E+02 -0.52695793397E+02  0.56190644351E+03  0.57899643169E+03  0.12509146073E+03 0.  0.
          5    1    3    3  502    0  0.20851494869E+02 -0.48908176562E+02  0.94655129198E+02  0.10864557265E+03  0.41800000000E+01 0.  1.
         -5    1    3    3    0  502 -0.53612698385E+02 -0.37876168351E+01  0.46725131431E+03  0.47035085904E+03  0.41800000000E+01 0.  1.
        -11    1    1    2    0    0  0.18045951451E+02  0.77965063403E+02  0.29080062596E+02  0.85146095129E+02  0.00000000000E+00 0.  1.
         11    1    1    2    0    0  0.14715252065E+02 -0.25269270006E+02  0.12127087508E+02  0.31656609127E+02  0.00000000000E+00 0. -1.
</event>
<event>
 7    1  0.2619826E-009  0.1089699E+03  0.7561462E-02  0.1262489E+00
         -1   -1    0    0    0  501 -0.00000000000E+00  0.00000000000E+00  0.51013322006E+02  0.51013322006E+02  0.00000000000E+00 0.  1.
          1   -1    0    0  501    0  0.00000000000E+00 -0.00000000000E+00 -0.35414716741E+03  0.35414716741E+03  0.00000000000E+00 0. -1.
         25    2    1    2    0    0  0.58652739510E+02 -0.38827437553E+02 -0.22586804120E+03  0.26760395715E+03  0.12509113514E+03 0.  0.
          5    1    3    3  502    0 -0.22428550198E+02 -0.33460270749E+02 -0.15336394998E+03  0.15862094167E+03  0.41800000000E+01 0. -1.
         -5    1    3    3    0  502  0.81081289708E+02 -0.53671668041E+01 -0.72504091217E+02  0.10898301548E+03  0.41800000000E+01 0. -1.
        -11    1    1    2    0    0 -0.62143050251E+02  0.52879391386E+02 -0.28094299097E+02  0.86297615087E+02  0.00000000000E+00 0.  1.
         11    1    1    2    0    0  0.34903107413E+01 -0.14051953833E+02 -0.49171505108E+02  0.51258917177E+02  0.00000000000E+00 0. -1.
</event>
<event>
 7    1  0.2619826E-009  0.1097556E+03  0.7561462E-02  0.1261023E+00
         -2   -1    0    0    0  501 -0.00000000000E+00  0.00000000000E+00  0.88680193974E+02  0.88680193974E+02  0.00000000000E+00 0.  1.
          2   -1    0    0  501    0  0.00000000000E+00 -0.00000000000E+00 -0.18555588412E+03  0.18555588412E+03  0.00000000000E+00 0. -1.
         25    2    1    2    0    0 -0.48809379291E+01  0.58011968453E+02 -0.95365681399E+02  0.16774066312E+03  0.12511236884E+03 0.  0.
          5    1    3    3  502    0 -0.32939927182E+02 -0.30065772514E+02 -0.38992547361E+02  0.59387546079E+02  0.41800000000E+01 0. -1.
         -5    1    3    3    0  502  0.28058989253E+02  0.88077740966E+02 -0.56373134037E+02  0.10835311704E+03  0.41800000000E+01 0. -1.
        -11    1    1    2    0    0  0.30847860595E+02 -0.22456663788E+02 -0.34530208011E+02  0.51460931949E+02  0.00000000000E+00 0. -1.
         11    1    1    2    0    0 -0.25966922666E+02 -0.35555304665E+02  0.33020199262E+02  0.55034483025E+02  0.00000000000E+00 0.  1.
</event>
<event>
 7    1  0.2619826E-009  0.1376023E+03  0.7561462E-02  0.1216592E+00
         -1   -1    0    0    0  501 -0.00000000000E+00  0.00000000000E+00  0.35943218273E+03  0.35943218273E+03  0.00000000000E+00 0.  1.
          1   -1    0    0  501    0  0.00000000000E+00 -0.00000000000E+00 -0.68686004493E+02  0.68686004493E+02  0.00000000000E+00 0. -1.
         25    2    1    2    0    0 -0.99873910920E+02 -0.33499536097E+02  0.93200249849E+02  0.18823199181E+03  0.12509188290E+03 0.  0.
          5    1    3    3  502    0 -0.45539840926E+02  0.47466037982E+02  0.35788672822E+02  0.75001355825E+02  0.41800000000E+01 0.  1.
         -5    1    3    3    0  502 -0.54334069995E+02 -0.80965574079E+02  0.57411577027E+02  0.11323063598E+03  0.41800000000E+01 0.  1.
        -11    1    1    2    0    0  0.48926144724E+02 -0.30080208277E+01  0.15881421357E+03  0.16620701026E+03  0.00000000000E+00 0.  1.
         11    1    1    2    0    0  0.50947766196E+02  0.36507556925E+02  0.38731714820E+02  0.73679185160E+02  0.00000000000E+00 0. -1.
</event>
<event>
 7    1  0.2619826E-009  0.1689275E+03  0.7561462E-02  0.1178971E+00
         -2   -1    0    0    0  501 -0.00000000000E+00  0.00000000000E+00  0.29025750090E+02  0.29025750090E+02  0.00000000000E+00 0.  1.
          2   -1    0    0  501    0  0.00000000000E+00 -0.00000000000E+00 -0.10977577932E+04  0.10977577932E+04  0.00000000000E+00 0. -1.
         25    2    1    2    0    0 -0.10354562140E+03 -0.88739231876E+02 -0.67425306757E+03  0.69918493316E+03  0.12508407029E+03 0.  0.
          5    1    3    3  502    0 -0.77814656579E+02 -0.11317746768E+03 -0.61352338557E+03  0.62872305271E+03  0.41800000000E+01 0. -1.
         -5    1    3    3    0  502 -0.25730964822E+02  0.24438235808E+02 -0.60729682003E+02  0.70461880447E+02  0.41800000000E+01 0. -1.
        -11    1    1    2    0    0  0.96465817027E+02  0.23760656674E+02 -0.25026851691E+03  0.26926669533E+03  0.00000000000E+00 0. -1.
         11    1    1    2    0    0  0.70798043729E+01  0.64978575201E+02 -0.14421045861E+03  0.15833191478E+03  0.00000000000E+00 0.  1.
</event>
<event>
 7    1  0.2936285E-009  0.2368716E+03  0.7561462E-02  0.1121895E+00
         -1   -1    0    0    0  501 -0.00000000000E+00  0.00000000000E+00  0.16720401052E+03  0.16720401052E+03  0.00000000000E+00 0.  1.
          1   -1    0    0  501    0  0.00000000000E+00 -0.00000000000E+00 -0.41300232908E+03  0.41300232908E+03  0.00000000000E+00 0. -1.
         25    2    1    2    0    0 -0.17446575256E+03 -0.15975028638E+03 -0.89034623113E+02  0.28202195683E+03  0.12510302636E+03 0.  0.
          5    1    3    3  502    0 -0.85586520076E+02 -0.87316796762E+02 -0.11101801007E+03  0.16520213793E+03  0.41800000000E+01 0.  1.
         -5    1    3    3    0  502 -0.88879232483E+02 -0.72433489621E+02  0.21983386959E+02  0.11681981890E+03  0.41800000000E+01 0.  1.
        -11    1    1    2    0    0  0.50133025404E+02  0.41410966775E+02  0.10239468324E+01  0.65032583161E+02  0.00000000000E+00 0.  1.
         11    1    1    2    0    0  0.12433272715E+03  0.11833931961E+03 -0.15778764228E+03  0.23315179961E+03  0.00000000000E+00 0. -1.
</event>
<event>
 7    1  0.2619826E-009  0.8193498E+02  0.7561462E-02  0.1323648E+00
          2   -1    0    0  501    0  0.00000000000E+00  0.00000000000E+00  0.36895091023E+03  0.36895091023E+03  0.00000000000E+00 0. -1.
         -2   -1    0    0    0  501 -0.00000000000E+00 -0.00000000000E+00 -0.48254845993E+02  0.48254845993E+02  0.00000000000E+00 0.  1.
         25    2    1    2    0    0  0.27604186337E+02  0.15557959717E+02  0.28721214913E+03  0.31486678091E+03  0.12508489078E+03 0.  0.
          5    1    3    3  502    0  0.44135669388E+02 -0.31585656932E+02  0.23967736751E+03  0.24578104877E+03  0.41800000000E+01 0. -1.
         -5    1    3    3    0  502 -0.16531483051E+02  0.47143616648E+02  0.47534781612E+02  0.69085732141E+02  0.41800000000E+01 0. -1.
        -11    1    1    2    0    0 -0.15682133494E+02  0.17892097157E+02 -0.24623340503E+02  0.34239821103E+02  0.00000000000E+00 0.  1.
         11    1    1    2    0    0 -0.11922052843E+02 -0.33450056874E+02  0.58107255613E+02  0.68099154207E+02  0.00000000000E+00 0. -1.
</event>
<event>
 7    1  0.2619826E-009  0.1428917E+03  0.7561462E-02  0.1209490E+00
         -2   -1    0    0    0  501 -0.00000000000E+00  0.00000000000E+00  0.25091205009E+02  0.25091205009E+02  0.00000000000E+00 0. -1.
          2   -1    0    0  501    0  0.00000000000E+00 -0.00000000000E+00 -0.82714903700E+03  0.82714903700E+03  0.00000000000E+00 0.  1.
         25    2    1    2    0    0 -0.60577306851E+02 -0.71846317001E+02 -0.45037854400E+03  0.47679453807E+03  0.12514269959E+03 0.  0.
          5    1    3    3  502    0  0.25247646169E+02 -0.63827443908E+02 -0.23217721954E+03  0.24214689737E+03  0.41800000000E+01 0.  1.
         -5    1    3    3    0  502 -0.85824953020E+02 -0.80188730929E+01 -0.21820132447E+03  0.23464764070E+03  0.41800000000E+01 0.  1.
        -11    1    1    2    0    0  0.57280199415E+02  0.93045123090E+02 -0.30744536947E+03  0.32628372835E+03  0.00000000000E+00 0.  1.
         11    1    1    2    0    0  0.32971074362E+01 -0.21198806089E+02 -0.44233918521E+02  0.49161975598E+02  0.00000000000E+00 0. -1.
</event>
<event>
 6    1  0.2619826E-009  0.2181189E+03  0.7561462E-02  0.1135293E+00
         -1   -1    0    0    0  501 -0.00000000000E+00  0.00000000000E+00  0.50918942072E+02  0.50918942072E+02  0.00000000000E+00 0.  1.
          1   -1    0    0  501    0  0.00000000000E+00 -0.00000000000E+00 -0.11618087094E+04  0.11618087094E+04  0.00000000000E+00 0. -1.
          5    1    1    2  502    0 -0.11508582807E+03  0.12405729902E+01 -0.16762519125E+03  0.20337640961E+03  0.41800000000E+01 0.  1.
         -5    1    1    2    0  502 -0.45189290752E+02  0.10428985593E+03 -0.14871578811E+03  0.18722260569E+03  0.41800000000E+01 0.  1.
        -11    1    1    2    0    0  0.68814980546E+02 -0.15223091674E+01 -0.34209451694E+03  0.34895053731E+03  0.00000000000E+00 0.  1.
         11    1    1    2    0    0  0.91460138276E+02 -0.10400811975E+03 -0.45245427108E+03  0.47317809890E+03  0.00000000000E+00 0. -1.
</event>
<event>
 7    1  0.2619826E-009  0.1221078E+03  0.7561462E-02  0.1239660E+00
         -2   -1    0    0    0  501 -0.00000000000E+00  0.00000000000E+00  0.19386501360E+02  0.19386501360E+02  0.00000000000E+00 0. -1.
          2   -1    0    0  501    0  0.00000000000E+00 -0.00000000000E+00 -0.79776250592E+03  0.79776250592E+03  0.00000000000E+00 0.  1.
         25    2    1    2    0    0 -0.41174984470E+02 -0.53388221299E+02 -0.37879800372E+03  0.40457498174E+03  0.12508919499E+03 0.  0.
          5    1    3    3  502    0  0.83205229674E+01 -0.83092761484E+02 -0.24201459790E+03  0.25605112011E+03  0.41800000000E+01 0.  1.
         -5    1    3    3    0  502 -0.49495507438E+02  0.29704540185E+02 -0.13678340582E+03  0.14852386162E+03  0.41800000000E+01 0.  1.
        -11    1    1    2    0    0  0.31664548852E+02  0.73746267016E+02 -0.31448063700E+03  0.32456005084E+03  0.00000000000E+00 0.  1.
         11    1    1    2    0    0  0.95104356189E+01 -0.20358045718E+02 -0.85097363847E+02  0.88013974713E+02  0.00000000000E+00 0. -1.
</event>
<event>
 7    1  0.2619826E-009  0.9958994E+02  0.7561462E-02  0.1281161E+00
          1   -1    0    0  501    0  0.00000000000E+00  0.00000000000E+00  0.19578558661E+03  0.19578558661E+03  0.00000000000E+00 0. -1.
         -1   -1    0    0    0  501 -0.00000000000E+00 -0.00000000000E+00 -0.71188380268E+02  0.71188380268E+02  0.00000000000E+00 0.  1.
         25    2    1    2    0    0  0.17272660025E+02  0.35951293357E+02  0.99638746866E+02  0.16482309891E+03  0.12509170148E+03 0.  0.
          5    1    3    3  502    0  0.65969271332E+02  0.19773928230E+02  0.23452783913E+02  0.72872892566E+02  0.41800000000E+01 0. -1.
         -5    1    3    3    0  502 -0.48696611306E+02  0.16177365127E+02  0.76185962954E+02  0.91950206342E+02  0.41800000000E+01 0. -1.
        -11    1    1    2    0    0  0.14530174058E+02 -0.43628358657E+02 -0.16928456254E+02  0.49001349659E+02  0.00000000000E+00 0.  1.
         11    1    1    2    0    0 -0.31802834083E+02  0.76770653006E+01  0.41886915733E+02  0.53149518314E+02  0.00000000000E+00 0. -1.
</event>
<event>
 7    1  0.2619826E-009  0.1220061E+03  0.7561462E-02  0.1239824E+00
         -2   -1    0    0    0  501 -0.00000000000E+00  0.00000000000E+00  0.67024226017E+02  0.67024226017E+02  0.00000000000E+00 0.  1.
          2   -1    0    0  501    0  0.00000000000E+00 -0.00000000000E+00 -0.30508209602E+03  0.30508209602E+03  0.00000000000E+00 0. -1.
         25    2    1    2    0    0 -0.86323746018E+02 -0.17589669164E+02 -0.91907999232E+02  0.17848233024E+03  0.12509067230E+03 0.  0.
          5    1    3    3  502    0 -0.10308470498E+03 -0.50957008707E+02 -0.63912094332E+02  0.13162561050E+03  0.41800000000E+01 0.  1.
         -5    1    3    3    0  502  0.16760958963E+02  0.33367339543E+02 -0.27995904901E+02  0.46856719740E+02  0.41800000000E+01 0.  1.
        -11    1    1    2    0    0  0.62898719484E+02  0.23611131270E+02 -0.27600996202E+02  0.72632977524E+02  0.00000000000E+00 0.  1.
         11    1    1    2    0    0  0.23425026534E+02 -0.60214621058E+01 -0.11854887457E+03  0.12099101427E+03  0.00000000000E+00 0. -1.
</event>
<event>
 7    1  0.2619826E-009  0.7395154E+02  0.7561462E-02  0.1347149E+00
         -1   -1    0    0    0  501 -0.00000000000E+00  0.00000000000E+00  0.49562014336E+02  0.49562014336E+02  0.00000000000E+00 0.  1.
          1   -1    0    0  501    0  0.00000000000E+00 -0.00000000000E+00 -0.23310687388E+03  0.23310687388E+03  0.00000000000E+00 0. -1.
         25    2    1    2    0    0 -0.50229458485E+01  0.48303522888E+02 -0.14415940895E+03  0.19694607922E+03  0.12508941851E+03 0.  0.
          5    1    3    3  502    0 -0.36729129551E+01 -0.11506390206E+02 -0.13579431505E+03  0.13639448561E+03  0.41800000000E+01 0.  1.
         -5    1    3    3    0  502 -0.13500328933E+01  0.59809913094E+02 -0.83650939018E+01  0.60551593613E+02  0.41800000000E+01 0.  1.
        -11    1    1    2    0    0 -0.19152403881E+02  0.20824721913E+01 -0.16379521121E+02  0.25287150433E+02  0.00000000000E+00 0. -1.
         11    1    1    2    0    0  0.24175349729E+02 -0.50385995079E+02 -0.23005929470E+02  0.60435658559E+02  0.00000000000E+00 0.  1.
</event>
<event>
 7    1  0.2619826E-009  0.9338150E+02  0.7561462E-02  0.1294864E+00
          1   -1    0    0  501    0  0.00000000000E+00  0.00000000000E+00  0.12625049489E+03  0.12625049489E+03  0.00000000000E+00 0. -1.
         -1   -1    0    0    0  501 -0.00000000000E+00 -0.00000000000E+00 -0.13834617052E+03  0.13834617052E+03  0.00000000000E+00 0.  1.
         25    2    1    2    0    0 -0.10534206057E+02  0.73494271758E+02  0.69992119736E+01  0.14561436749E+03  0.12506869141E+03 0.  0.
          5    1    3    3  502    0  0.49750682384E+01 -0.26501000166E+01 -0.49152470106E+02  0.49650901820E+02  0.41800000000E+01 0. -1.
         -5    1    3    3    0  502 -0.15509274295E+02  0.76144371774E+02  0.56151682079E+02  0.95963465665E+02  0.41800000000E+01 0. -1.
        -11    1    1    2    0    0 -0.15699225487E+02 -0.74040024373E+02 -0.39841563984E+02  0.85532105731E+02  0.00000000000E+00 0.  1.
         11    1    1    2    0    0  0.26233431544E+02  0.54575261551E+00  0.20746676387E+02  0.33450192191E+02  0.00000000000E+00 0. -1.
</event>
<event>
 7    1  0.2619826E-009  0.1713729E+03  0.7561462E-02  0.1176424E+00
          2   -1    0    0  501    0  0.00000000000E+00  0.00000000000E+00  0.40847458164E+03  0.40847458164E+03  0.00000000000E+00 0. -1.
         -2   -1    0    0    0  501 -0.00000000000E+00 -0.00000000000E+00 -0.85665114662E+02  0.85665114662E+02  0.00000000000E+00 0.  1.
         25    2    1    2    0    0 -0.55278498339E+02 -0.14142961685E+03  0.17885881007E+03  0.26588735105E+03  0.12509020988E+03 0.  0.
          5    1    3    3  502    0 -0.63484146598E+02 -0.19647073078E+02  0.10125550667E+03  0.12118743492E+03  0.41800000000E+01 0. -1.
         -5    1    3    3    0  502  0.82056482589E+01 -0.12178254377E+03  0.77603303399E+02  0.14469991614E+03  0.41800000000E+01 0. -1.
        -11    1    1    2    0    0  0.10171693556E+02  0.60759016105E+02  0.11658625066E+03  0.13186157602E+03  0.00000000000E+00 0. -1.
         11    1    1    2    0    0  0.45106804783E+02  0.80670600748E+02  0.27364406242E+02  0.96390769225E+02  0.00000000000E+00 0.  1.
</event>
<event>
 7    1  0.2619826E-009  0.1382166E+03  0.7561462E-02  0.1215749E+00
         -1   -1    0    0    0  501 -0.00000000000E+00  0.00000000000E+00  0.45325025985E+02  0.45325025985E+02  0.00000000000E+00 0.  1.
          1   -1    0    0  501    0  0.00000000000E+00 -0.00000000000E+00 -0.42726695976E+03  0.42726695976E+03  0.00000000000E+00 0. -1.
         25    2    1    2    0    0 -0.77134979709E+02 -0.36515360951E+02 -0.22425667920E+03  0.27059549244E+03  0.12509070980E+03 0.  0.
          5    1    3    3  502    0 -0.45980138662E+02 -0.83144759311E+02 -0.14541437443E+03  0.17375280385E+03  0.41800000000E+01 0.  1.
         -5    1    3    3    0  502 -0.31154841048E+02  0.46629398360E+02 -0.78842304770E+02  0.96842688591E+02  0.41800000000E+01 0.  1.
        -11    1    1    2    0    0  0.65477581949E+02 -0.19150770735E+02 -0.99417645837E+02  0.12057335552E+03  0.00000000000E+00 0. -1.
         11    1    1    2    0    0  0.11657397760E+02  0.55666131686E+02 -0.58267608730E+02  0.81423137784E+02  0.00000000000E+00 0.  1.
</event>
<event>
 7    1  0.2619826E-009  0.1895803E+03  0.7561462E-02  0.1158840E+00
          1   -1    0    0  501    0  0.00000000000E+00  0.00000000000E+00  0.26362131708E+03  0.26362131708E+03  0.00000000000E+00 0. -1.
         -1   -1    0    0    0  501 -0.00000000000E+00 -0.00000000000E+00 -0.16295456596E+03  0.16295456596E+03  0.00000000000E+00 0.  1.
         25    2    1    2    0    0  0.63373166059E+02 -0.15321257964E+03  0.11563739817E+03  0.23771639584E+03  0.12508726658E+03 0.  0.
          5    1    3    3  502    0  0.31581723451E+02  0.25516758785E+01  0.62231261369E+02  0.69957977369E+02  0.41800000000E+01 0. -1.
         -5    1    3    3    0  502  0.31791442608E+02 -0.15576425551E+03  0.53406136800E+02  0.16775841847E+03  0.41800000000E+01 0. -1.
        -11    1    1    2    0    0  0.11929677179E+02  0.87253954701E+02 -0.99883909203E+01  0.88630343346E+02  0.00000000000E+00 0.  1.
         11    1    1    2    0    0 -0.75302843238E+02  0.65958624935E+02 -0.49822561302E+01  0.10022914386E+03  0.00000000000E+00 0. -1.
</event>
<event>
 6    1  0.2619826E-009  0.1128903E+03  0.7561462E-02  0.1255309E+00
          2   -1    0    0  501    0  0.00000000000E+00  0.00000000000E+00  0.28097526365E+03  0.28097526365E+03  0.00000000000E+00 0. -1.
         -2   -1    0    0    0  501 -0.00000000000E+00 -0.00000000000E+00 -0.56253207691E+02  0.56253207691E+02  0.00000000000E+00 0.  1.
          5    1    1    2  502    0  0.38895664796E+02  0.66034266465E+02  0.53333277617E+02  0.93462869573E+02  0.41800000000E+01 0. -1.
         -5    1    1    2    0  502  0.17833397656E+02 -0.58104415789E+02  0.44105334887E+02  0.75212407033E+02  0.41800000000E+01 0. -1.
        -11    1    1    2    0    0  0.15129181736E+02  0.29912281512E+01  0.80841362551E+02  0.82299243526E+02  0.00000000000E+00 0. -1.
         11    1    1    2    0    0 -0.71858244188E+02 -0.10921078826E+02  0.46442080906E+02  0.86253951211E+02  0.00000000000E+00 0.  1.
</event>
<event>
 7    1  0.2619826E-009  0.1116404E+03  0.7561462E-02  0.1257562E+00
          1   -1    0    0  501    0  0.00000000000E+00  0.00000000000E+00  0.11975503409E+03  0.11975503409E+03  0.00000000000E+00 0. -1.
         -1   -1    0    0    0  501 -0.00000000000E+00 -0.00000000000E+00 -0.21011103622E+03  0.21011103622E+03  0.00000000000E+00 0.  1.
         25    2    1    2    0    0 -0.23436247671E+02  0.85696276960E+02  0.26811044638E+02  0.15575439895E+03  0.12508993200E+03 0.  0.
          5    1    3    3  502    0 -0.32476774495E+01  0.78653863080E+02  0.71251996573E+02  0.10626051478E+03  0.41800000000E+01 0. -1.
         -5    1    3    3    0  502 -0.20188570221E+02  0.70424138796E+01 -0.44440951935E+02  0.49493884165E+02  0.41800000000E+01 0. -1.
        -11    1    1    2    0    0  0.43063507160E+02 -0.96596273134E+01 -0.69250399544E+02  0.82118158076E+02  0.00000000000E+00 0.  1.
         11    1    1    2    0    0 -0.19627259490E+02 -0.76036649646E+02 -0.47916647230E+02  0.91993513283E+02  0.00000000000E+00 0. -1.
</event>
<event>
 7    1  0.2619826E-009  0.2178255E+03  0.7561462E-02  0.1135515E+00
         -4   -1    0    0    0  501 -0.00000000000E+00  0.00000000000E+00  0.32484350740E+02  0.32484350740E+02  0.00000000000E+00 0.  1.
          4   -1    0    0  501    0  0.00000000000E+00 -0.00000000000E+00 -0.24161678367E+04  0.24161678367E+04  0.00000000000E+00 0. -1.
         25    2    1    2    0    0  0.19894794164E+03 -0.73698327968E+02 -0.18602064984E+04  0.18764393578E+04  0.12507885352E+03 0.  0.
          5    1    3    3  502    0  0.17915885928E+03 -0.73282920497E+02 -0.18291938827E+04  0.18394118670E+04  0.41800000000E+01 0.  1.
         -5    1    3    3    0  502  0.19789082353E+02 -0.41540747041E+00 -0.31012615686E+02  0.37027490806E+02  0.41800000000E+01 0.  1.
        -11    1    1    2    0    0 -0.73316392795E+02  0.61300117581E+02 -0.30792026115E+03  0.32240949907E+03  0.00000000000E+00 0. -1.
         11    1    1    2    0    0 -0.12563154884E+03  0.12398210387E+02 -0.21555672642E+03  0.24980333062E+03  0.00000000000E+00 0.  1.
</event>
<event>
 7    1  0.2619826E-009  0.2805562E+03  0.7561462E-02  0.1095386E+00
          2   -1    0    0  501    0  0.00000000000E+00  0.00000000000E+00  0.82387423779E+03  0.82387423779E+03  0.00000000000E+00 0.  1.
         -2   -1    0    0    0  501 -0.00000000000E+00 -0.00000000000E+00 -0.11133397602E+03  0.11133397602E+03  0.00000000000E+00 0. -1.
         25    2    1    2    0    0  0.23030310238E+03 -0.14804250438E+03  0.25678340797E+03  0.39564605585E+03  0.12506790488E+03 0.  0.
          5    1    3    3  502    0  0.15320017275E+03 -0.78226977723E+02  0.78348376699E+02  0.18906531545E+03  0.41800000000E+01 0. -1.
         -5    1    3    3    0  502  0.77102929632E+02 -0.69815526656E+02  0.17843503127E+03  0.20658074040E+03  0.41800000000E+01 0. -1.
        -11    1    1    2    0    0 -0.13620264497E+02  0.41123193781E+02  0.41518831224E+02  0.60003683369E+02  0.00000000000E+00 0.  1.
         11    1    1    2    0    0 -0.21668283788E+03  0.10691931060E+03  0.41423802258E+03  0.47955847460E+03  0.00000000000E+00 0. -1.
</event>
<event>
 7    1  0.2619826E-009  0.1061537E+03  0.7561462E-02  0.1267863E+00
          2   -1    0    0  501    0  0.00000000000E+00  0.00000000000E+00  0.75298130046E+03  0.75298130046E+03  0.00000000000E+00 0. -1.
         -2   -1    0    0    0  501 -0.00000000000E+00 -0.00000000000E+00 -0.16070874265E+02  0.16070874265E+02  0.00000000000E+00 0.  1.
         25    2    1    2    0    0 -0.23406331346E+02  0.22287708358E+01  0.45048229420E+03  0.46811769208E+03  0.12508817883E+03 0.  0.
          5    1    3    3  502    0 -0.25469329935E+02 -0.55993242974E+02  0.30832100903E+03  0.31442526463E+03  0.41800000000E+01 0. -1.
         -5    1    3    3    0  502  0.20629985890E+01  0.58222013810E+02  0.14216128516E+03  0.15369242745E+03  0.41800000000E+01 0. -1.
        -11    1    1    2    0    0  0.37759488520E+02 -0.38079288790E+02  0.16100582796E+03  0.16970176147E+03  0.00000000000E+00 0. -1.
         11    1    1    2    0    0 -0.14353157175E+02  0.35850517954E+02  0.12542230403E+03  0.13123272118E+03  0.00000000000E+00 0.  1.
</event>
<event>
 7    1  0.2619826E-009  0.1192089E+03  0.7561462E-02  0.1244408E+00
         -2   -1    0    0    0  501 -0.00000000000E+00  0.00000000000E+00  0.60587193262E+02  0.60587193262E+02  0.00000000000E+00 0.  1.
          2   -1    0    0  501    0  0.00000000000E+00 -0.00000000000E+00 -0.24538167527E+03  0.24538167527E+03  0.00000000000E+00 0. -1.
         25    2    1    2    0    0  0.15518878809E+02  0.52340670407E+02 -0.11979837352E+03  0.18160296501E+03  0.12509038822E+03 0.  0.
          5    1    3    3  502    0  0.45530017439E+01  0.93049579466E+02 -0.91551269519E+02  0.13068305710E+03  0.41800000000E+01 0. -1.
         -5    1    3    3    0  502  0.10965877065E+02 -0.40708909059E+02 -0.28247104000E+02  0.50919907904E+02  0.41800000000E+01 0. -1.
        -11    1    1    2    0    0 -0.24459330310E+02  0.18953750114E+02 -0.34401922834E+02  0.46270895574E+02  0.00000000000E+00 0. -1.
         11    1    1    2    0    0  0.89404515004E+01 -0.71294420522E+02 -0.30594185653E+02  0.78095007948E+02  0.00000000000E+00 0.  1.
</event>
<event>
 7    1  0.2619826E-009  0.1565579E+03  0.7561462E-02  0.1192639E+00
         -2   -1    0    0    0  501 -0.00000000000E+00  0.00000000000E+00  0.51341822064E+02  0.51341822064E+02  0.00000000000E+00 0.  1.
          2   -1    0    0  501    0  0.00000000000E+00 -0.00000000000E+00 -0.57533038376E+03  0.57533038376E+03  0.00000000000E+00 0. -1.
         25    2    1    2    0    0  0.33489348084E+02 -0.12877813241E+03 -0.26940959379E+03  0.32547767024E+03  0.12509532675E+03 0.  0.
          5    1    3    3  502    0  0.34057154128E+02 -0.14509043430E+03 -0.27020638192E+03  0.30860992385E+03  0.41800000000E+01 0. -1.
         -5    1    3    3    0  502 -0.56780604376E+00  0.16312301895E+02  0.79678812070E+00  0.16867746386E+02  0.41800000000E+01 0. -1.
        -11    1    1    2    0    0 -0.88529525627E+01  0.12102257804E+03 -0.14727829097E+03  0.19082907052E+03  0.00000000000E+00 0.  1.
         11    1    1    2    0    0 -0.24636395522E+02  0.77555543638E+01 -0.10730067693E+03  0.11036546506E+03  0.00000000000E+00 0. -1.
</event>
<event>
 7    1  0.2619826E-009  0.1721012E+03  0.7561462E-02  0.1175674E+00
          1   -1    0    0  501    0  0.00000000000E+00  0.00000000000E+00  0.13296050671E+03  0.13296050671E+03  0.00000000000E+00 0. -1.
         -1   -1    0    0    0  501 -0.00000000000E+00 -0.00000000000E+00 -0.23945902094E+03  0.23945902094E+03  0.00000000000E+00 0.  1.
         25    2    1    2    0    0  0.78006604312E+02 -0.73344606816E+02 -0.46144029622E+02  0.17100031690E+03  0.12508946897E+03 0.  0.
          5    1    3    3  502    0 -0.33435134016E+02 -0.21452964975E+02 -0.22165910037E+02  0.45683015013E+02  0.41800000000E+01 0. -1.
         -5    1    3    3    0  502  0.11144173833E+03 -0.51891641841E+02 -0.23978119585E+02  0.12531730189E+03  0.41800000000E+01 0. -1.
        -11    1    1    2    0    0 -0.32615188955E+02 -0.44384215606E+02 -0.50721459641E+02  0.74875734478E+02  0.00000000000E+00 0.  1.
         11    1    1    2    0    0 -0.45391415357E+02  0.11772882242E+03 -0.96330249717E+01  0.12654347627E+03  0.00000000000E+00 0. -1.
</event>
<event>
 7    1  0.2619826E-009  0.1011233E+03  0.7561462E-02  0.1277951E+00
         -2   -1    0    0    0  501 -0.00000000000E+00  0.00000000000E+00  0.27230822054E+03  0.27230822054E+03  0.00000000000E+00 0. -1.
          2   -1    0    0  501    0  0.00000000000E+00 -0.00000000000E+00 -0.52057536443E+02  0.52057536443E+02  0.00000000000E+00 0.  1.
         25    2    1    2    0    0 -0.51974559434E+01  0.16122923177E+01  0.18978419960E+03  0.22736481185E+03  0.12508837761E+03 0.  0.
          5    1    3    3  502    0  0.57064636523E+02  0.13033328563E+02  0.11643769471E+03  0.13038960673E+03  0.41800000000E+01 0. -1.
         -5    1    3    3    0  502 -0.62262092466E+02 -0.11421036245E+02  0.73346504894E+02  0.96975205116E+02  0.41800000000E+01 0. -1.
        -11    1    1    2    0    0  0.37760945846E+02  0.18293593923E+02 -0.81097558510E+01  0.42735380539E+02  0.00000000000E+00 0.  1.
         11    1    1    2    0    0 -0.32563489903E+02 -0.19905886241E+02  0.38576240341E+02  0.54265564592E+02  0.00000000000E+00 0. -1.
</event>
<event>
 7    1  0.2619826E-009  0.1056136E+03  0.7561462E-02  0.1268915E+00
         -1   -1    0    0    0  501 -0.00000000000E+00  0.00000000000E+00  0.46952589491E+02  0.46952589491E+02  0.00000000000E+00 0.  1.
          1   -1    0    0  501    0  0.00000000000E+00 -0.00000000000E+00 -0.27126982461E+03  0.27126982461E+03  0.00000000000E+00 0. -1.
         25    2    1    2    0    0  0.14641555695E+02 -0.30230398323E+02 -0.11297084779E+03  0.17186346079E+03  0.12508550903E+03 0.  0.
          5    1    3    3  502    0 -0.48732874244E+02  0.13627879736E+02 -0.58117045916E+02  0.77173023552E+02  0.41800000000E+01 0.  1.
         -5    1    3    3    0  502  0.63374429939E+02 -0.43858278060E+02 -0.54853801877E+02  0.94690437241E+02  0.41800000000E+01 0.  1.
        -11    1    1    2    0    0  0.83592895513E+01  0.51359862110E+02 -0.32002366624E+02  0.61088989411E+02  0.00000000000E+00 0.  1.
         11    1    1    2    0    0 -0.23000845247E+02 -0.21129463787E+02 -0.79344020699E+02  0.85269963895E+02  0.00000000000E+00 0. -1.
</event>
<event>
 7    1  0.2619826E-009  0.7659254E+02  0.7561462E-02  0.1339009E+00
          1   -1    0    0  501    0  0.00000000000E+00  0.00000000000E+00  0.64023932188E+02  0.64023932188E+02  0.00000000000E+00 0. -1.
         -1   -1    0    0    0  501 -0.00000000000E+00 -0.00000000000E+00 -0.27565792232E+03  0.27565792232E+03  0.00000000000E+00 0.  1.
         25    2    1    2    0    0  0.81186623677E+01 -0.55555687624E+01 -0.21183800348E+03  0.24620937951E+03  0.12508773647E+03 0.  0.
          5    1    3    3  502    0  0.41887240595E+01 -0.35969038442E+02 -0.46795578707E+01  0.36751704689E+02  0.41800000000E+01 0. -1.
         -5    1    3    3    0  502  0.39299383082E+01  0.30413469680E+02 -0.20715844561E+03  0.20945767482E+03  0.41800000000E+01 0. -1.
        -11    1    1    2    0    0  0.31931125129E+02  0.25665744457E+02 -0.18449588412E+02  0.44930106867E+02  0.00000000000E+00 0.  1.
         11    1    1    2    0    0 -0.40049787496E+02 -0.20110175694E+02  0.18653601763E+02  0.48542368130E+02  0.00000000000E+00 0. -1.
</event>
<event>
 7    1  0.2619826E-009  0.9705488E+02  0.7561462E-02  0.1286614E+00
          4   -1    0    0  501    0  0.00000000000E+00  0.00000000000E+00  0.29654040317E+02  0.29654040317E+02  0.00000000000E+00 0. -1.
         -4   -1    0    0    0  501 -0.00000000000E+00 -0.00000000000E+00 -0.46755290713E+03  0.46755290713E+03  0.00000000000E+00 0.  1.
         25    2    1    2    0    0 -0.44545188092E+02 -0.19290237650E+02 -0.24208456648E+03  0.27678023339E+03  0.12508386473E+03 0.  0.
          5    1    3    3  502    0  0.93636833635E+01  0.44999065141E+02 -0.55677305411E+02  0.72318940586E+02  0.41800000000E+01 0.  1.
         -5    1    3    3    0  502 -0.53908871456E+02 -0.64289302791E+02 -0.18640726107E+03  0.20446129281E+03  0.41800000000E+01 0.  1.
        -11    1    1    2    0    0  0.46718115835E+02  0.22477227970E+01 -0.19768675295E+03  0.20314449758E+03  0.00000000000E+00 0.  1.
         11    1    1    2    0    0 -0.21729277430E+01  0.17042514853E+02  0.18724526209E+01  0.17282216476E+02  0.00000000000E+00 0. -1.
</event>
<event>
 6    1  0.2619826E-009  0.1313658E+03  0.7561462E-02  0.1225443E+00
          2   -1    0    0  501    0  0.00000000000E+00  0.00000000000E+00  0.16315842544E+03  0.16315842544E+03  0.00000000000E+00 0. -1.
         -2   -1    0    0    0  501 -0.00000000000E+00 -0.00000000000E+00 -0.23859289236E+03  0.23859289236E+03  0.00000000000E+00 0.  1.
          5    1    1    2  502    0 -0.63113768121E+02 -0.31745195437E+02 -0.28478839335E+02  0.76286446041E+02  0.41800000000E+01 0. -1.
         -5    1    1    2    0  502 -0.55767623088E+02 -0.77040158537E+01  0.98282754951E+02  0.11334174856E+03  0.41800000000E+01 0. -1.
        -11    1    1    2    0    0  0.75093646571E+02 -0.21307700364E+01 -0.27860322176E+02  0.80123613798E+02  0.00000000000E+00 0. -1.
         11    1    1    2    0    0  0.43787744637E+02  0.41579981327E+02 -0.11737806036E+03  0.13199950940E+03  0.00000000000E+00 0.  1.
</event>
<event>
 7    1  0.2619826E-009  0.1158544E+03  0.7561462E-02  0.1250097E+00
         -1   -1    0    0    0  501 -0.00000000000E+00  0.00000000000E+00  0.13573739661E+02  0.13573739661E+02  0.00000000000E+00 0.  1.
          1   -1    0    0  501    0  0.00000000000E+00 -0.00000000000E+00 -0.10353759726E+04  0.10353759726E+04  0.00000000000E+00 0. -1.
         25    2    1    2    0    0 -0.86477317832E+01 -0.43800535796E+02 -0.65546320031E+03  0.66878539987E+03  0.12509449994E+03 0.  0.
          5    1    3    3  502    0  0.11483736198E+02  0.42054643917E+02 -0.18523574018E+03  0.19034237865E+03  0.41800000000E+01 0.  1.
         -5    1    3    3    0  502 -0.20131467981E+02 -0.85855179713E+02 -0.47022746013E+03  0.47844302121E+03  0.41800000000E+01 0.  1.
        -11    1    1    2    0    0 -0.13242967629E+02 -0.24532092268E+02 -0.72083853094E+02  0.77287008090E+02  0.00000000000E+00 0.  1.
         11    1    1    2    0    0  0.21890699412E+02  0.68332628064E+02 -0.29425517955E+03  0.30287730432E+03  0.00000000000E+00 0. -1.
</event>
<event>
 7    1  0.2619826E-009  0.1288470E+03  0.7561462E-02  0.1229177E+00
          2   -1    0    0  501    0  0.00000000000E+00  0.00000000000E+00  0.61733549356E+03  0.61733549356E+03  0.00000000000E+00 0.  1.
         -2   -1    0    0    0  501 -0.00000000000E+00 -0.00000000000E+00 -0.31005454017E+02  0.31005454017E+02  0.00000000000E+00 0. -1.
         25    2    1    2    0    0 -0.59191193875E+02  0.78190410820E+02  0.40487362589E+03  0.43495540645E+03  0.12508483073E+03 0.  0.
          5    1    3    3  502    0  0.37326356590E+02  0.40498573492E+02  0.14304176692E+03  0.15333561502E+03  0.41800000000E+01 0.  1.
         -5    1    3    3    0  502 -0.96517550466E+02  0.37691837328E+02  0.26183185898E+03  0.28161979143E+03  0.41800000000E+01 0.  1.
        -11    1    1    2    0    0  0.89401790742E+01 -0.19784908398E+02  0.95566417387E+02  0.98001579244E+02  0.00000000000E+00 0.  1.
         11    1    1    2    0    0  0.50251014801E+02 -0.58405502422E+02  0.85889996259E+02  0.11538396188E+03  0.00000000000E+00 0. -1.
</event>
<event>
 7    1  0.2619826E-009  0.1388618E+03  0.7561462E-02  0.1214869E+00
          1   -1    0    0  501    0  0.00000000000E+00  0.00000000000E+00  0.25485277382E+03  0.25485277382E+03  0.00000000000E+00 0. -1.
         -1   -1    0    0    0  501 -0.00000000000E+00 -0.00000000000E+00 -0.16082557916E+03  0.16082557916E+03  0.00000000000E+00 0.  1.
         25    2    1    2    0    0  0.11111600372E+03 -0.65384709050E+02 -0.66922333517E+02  0.19169485812E+03  0.12508554451E+03 0.  0.
          5    1    3    3  502    0  0.13663071377E+02 -0.31706088302E+02  0.33079509590E+02  0.47996686444E+02  0.41800000000E+01 0. -1.
         -5    1    3    3    0  502  0.97452932341E+02 -0.33678620748E+02 -0.10000184311E+03  0.14369817167E+03  0.41800000000E+01 0. -1.
        -11    1    1    2    0    0  0.15458682358E+01  0.17118373321E+02  0.68055941552E+02  0.70192874241E+02  0.00000000000E+00 0. -1.
         11    1    1    2    0    0 -0.11266187195E+03  0.48266335730E+02  0.92893586619E+02  0.15379062062E+03  0.00000000000E+00 0.  1.
</event>
<event>
 7    1  0.2619826E-009  0.1602503E+03  0.7561462E-02  0.1188414E+00
         -2   -1    0    0    0  501 -0.00000000000E+00  0.00000000000E+00  0.26570903272E+03  0.26570903272E+03  0.00000000000E+00 0.  1.
          2   -1    0    0  501    0  0.00000000000E+00 -0.00000000000E+00 -0.10169679186E+03  0.10169679186E+03  0.00000000000E+00 0. -1.
         25    2    1    2    0    0 -0.11830224332E+03 -0.30068148743E+02  0.10508062478E+03  0.20393466997E+03  0.12509155675E+03 0.  0.
          5    1    3    3  502    0 -0.92479696462E+02  0.38861048855E+02  0.51830464725E+02  0.11298913598E+03  0.41800000000E+01 0. -1.
         -5    1    3    3    0  502 -0.25822546856E+02 -0.68929197598E+02  0.53250160055E+02  0.90945533995E+02  0.41800000000E+01 0. -1.
        -11    1    1    2    0    0  0.24919905457E+02  0.45354402521E+02 -0.45957853839E+00  0.51751664016E+02  0.00000000000E+00 0. -1.
         11    1    1    2    0    0  0.93382337861E+02 -0.15286253777E+02  0.59391194618E+02  0.11171949059E+03  0.00000000000E+00 0.  1.
</event>
<event>
 7    1  0.2619826E-009  0.1122284E+03  0.7561462E-02  0.1256498E+00
         -2   -1    0    0    0  501 -0.00000000000E+00  0.00000000000E+00  0.37522208878E+02  0.37522208878E+02  0.00000000000E+00 0.  1.
          2   -1    0    0  501    0  0.00000000000E+00 -0.00000000000E+00 -0.60176091028E+03  0.60176091028E+03  0.00000000000E+00 0. -1.
         25    2    1    2    0    0 -0.30432015589E+02  0.98536129873E+02 -0.28049698509E+03  0.32397906538E+03  0.12509356377E+03 0.  0.
          5    1    3    3  502    0 -0.32574564368E+02  0.90191790882E+02 -0.29294784038E+03  0.30827191077E+03  0.41800000000E+01 0.  1.
         -5    1    3    3    0  502  0.21425487795E+01  0.83443389906E+01  0.12450855290E+02  0.15707154609E+02  0.41800000000E+01 0.  1.
        -11    1    1    2    0    0 -0.17878712072E+02 -0.21467909358E+02 -0.15261700326E+02  0.31834556294E+02  0.00000000000E+00 0.  1.
         11    1    1    2    0    0  0.48310727660E+02 -0.77068220514E+02 -0.26848001598E+03  0.28346949748E+03  0.00000000000E+00 0. -1.
</event>
<event>
 7    1  0.2619826E-009  0.2891796E+03  0.7561462E-02  0.1090778E+00
          2   -1    0    0  501    0  0.00000000000E+00  0.00000000000E+00  0.11465816734E+03  0.11465816734E+03  0.00000000000E+00 0. -1.
         -2   -1    0    0    0  501 -0.00000000000E+00 -0.00000000000E+00 -0.77600017752E+03  0.77600017752E+03  0.00000000000E+00 0.  1.
         25    2    1    2    0    0 -0.14823852131E+03 -0.23349281889E+03 -0.35824340983E+03  0.46955134420E+03  0.12508624417E+03 0.  0.
          5    1    3    3  502    0 -0.76313004585E+02 -0.21268766278E+03 -0.29384036898E+03  0.37070116187E+03  0.41800000000E+01 0.  1.
         -5    1    3    3    0  502 -0.71925516726E+02 -0.20805156114E+02 -0.64403040849E+02  0.98850182336E+02  0.41800000000E+01 0.  1.
        -11    1    1    2    0    0  0.98146798793E+02  0.13548562926E+03 -0.24493375912E+03  0.29661708684E+03  0.00000000000E+00 0. -1.
         11    1    1    2    0    0  0.50091722518E+02  0.98007189632E+02 -0.58164841225E+02  0.12448991380E+03  0.00000000000E+00 0.  1.
</event>
<event>
 7    1  0.2619826E-009  0.8525717E+02  0.7561462E-02  0.1314761E+00
         -4   -1    0    0    0  501 -0.00000000000E+00  0.00000000000E+00  0.46261990472E+02  0.46261990472E+02  0.00000000000E+00 0. -1.
          4   -1    0    0  501    0  0.00000000000E+00 -0.00000000000E+00 -0.45959845847E+03  0.45959845847E+03  0.00000000000E+00 0.  1.
         25    2    1    2    0    0 -0.25085383175E+02 -0.26474507589E+02 -0.38979612530E+03  0.41099696178E+03  0.12508919734E+03 0.  0.
          5    1    3    3  502    0 -0.17381547655E+02  0.42592121912E+02 -0.25638218201E+03  0.26051008177E+03  0.41800000000E+01 0. -1.
         -5    1    3    3    0  502 -0.77038355208E+01 -0.69066629501E+02 -0.13341394328E+03  0.15048688001E+03  0.41800000000E+01 0. -1.
        -11    1    1    2    0    0  0.16801316304E+02 -0.84513484994E+01 -0.47915740517E+02  0.51474534581E+02  0.00000000000E+00 0.  1.
         11    1    1    2    0    0  0.82840668716E+01  0.34925856088E+02  0.24375397819E+02  0.43388952583E+02  0.00000000000E+00 0. -1.
</event>
<event>
 7    1  0.2619826E-009  0.9493946E+02  0.7561462E-02  0.1291312E+00
          2   -1    0    0  501    0  0.00000000000E+00  0.00000000000E+00  0.86080546407E+02  0.86080546407E+02  0.00000000000E+00 0. -1.
         -2   -1    0    0    0  501 -0.00000000000E+00 -0.00000000000E+00 -0.23118635752E+03  0.23118635752E+03  0.00000000000E+00 0.  1.
         25    2    1    2    0    0 -0.36505617467E+01 -0.80262102753E+02 -0.12309901310E+03  0.19301148193E+03  0.12507890865E+03 0.  0.
          5    1    3    3  502    0 -0.12430263330E+02 -0.22450683143E+02  0.23549297653E+02  0.35079715506E+02  0.41800000000E+01 0.  1.
         -5    1    3    3    0  502  0.87797015836E+01 -0.57811419609E+02 -0.14664831076E+03  0.15793176642E+03  0.41800000000E+01 0.  1.
        -11    1    1    2    0    0 -0.30318967950E+02  0.55419333646E+02 -0.43793353120E+02  0.76866118263E+02  0.00000000000E+00 0.  1.
         11    1    1    2    0    0  0.33969529697E+02  0.24842769106E+02  0.21786555113E+02  0.47389303734E+02  0.00000000000E+00 0. -1.
</event>
<event>
 7    1  0.2619826E-009  0.9566002E+02  0.7561462E-02  0.1289696E+00
         -1   -1    0    0    0  501 -0.00000000000E+00  0.00000000000E+00  0.40416307648E+02  0.40416307648E+02  0.00000000000E+00 0.  1.
          1   -1    0    0  501    0  0.00000000000E+00 -0.00000000000E+00 -0.61555908504E+03  0.61555908504E+03  0.00000000000E+00 0. -1.
         25    2    1    2    0    0  0.59065238213E+02  0.25864044535E+02 -0.50780801884E+03  0.52694762122E+03  0.12508860998E+03 0.  0.
          5    1    3    3  502    0  0.73628230913E+01  0.30302303792E+02 -0.44161628735E+03  0.44273565299E+03  0.41800000000E+01 0.  1.
         -5    1    3    3    0  502  0.51702415122E+02 -0.44382592572E+01 -0.66191731487E+02  0.84211968222E+02  0.41800000000E+01 0.  1.
        -11    1    1    2    0    0 -0.77388529809E+02 -0.37597759483E+02 -0.63500942360E+02  0.10693430574E+03  0.00000000000E+00 0.  1.
         11    1    1    2    0    0  0.18323291595E+02  0.11733714949E+02 -0.38338161974E+01  0.22093465731E+02  0.00000000000E+00 0. -1.
</event>
<event>
 7    1  0.2619826E-009  0.8182901E+02  0.7561462E-02  0.1323940E+00
          1   -1    0    0  501    0  0.00000000000E+00  0.00000000000E+00  0.14669852374E+03  0.14669852374E+03  0.00000000000E+00 0. -1.
         -1   -1    0    0    0  501 -0.00000000000E+00 -0.00000000000E+00 -0.97091191124E+02  0.97091191124E+02  0.00000000000E+00 0.  1.
         25    2    1    2    0    0 -0.15717682367E+02  0.40585487624E+02  0.51456729870E+02  0.14208518373E+03  0.12508467949E+03 0.  0.
          5    1    3    3  502    0  0.21020645817E+02  0.37408659289E+02 -0.30033082870E+02  0.52542685571E+02  0.41800000000E+01 0. -1.
         -5    1    3    3    0  502 -0.36738328184E+02  0.31768283352E+01  0.81489812740E+02  0.89542498158E+02  0.41800000000E+01 0. -1.
        -11    1    1    2    0    0 -0.25642488447E+02 -0.22468113027E+00 -0.28264625057E+02  0.38163814340E+02  0.00000000000E+00 0.  1.
         11    1    1    2    0    0  0.41360170814E+02 -0.40360806494E+02  0.26415227800E+02  0.63540716791E+02  0.00000000000E+00 0. -1.
</event>
<event>
 7    1  0.2619826E-009  0.1756278E+03  0.7561462E-02  0.1172103E+00
         -2   -1    0    0    0  501 -0.00000000000E+00  0.00000000000E+00  0.41750425918E+03  0.41750425918E+03  0.00000000000E+00 0.  1.
          2   -1    0    0  501    0  0.00000000000E+00 -0.00000000000E+00 -0.10507779252E+03  0.10507779252E+03  0.00000000000E+00 0. -1.
         25    2    1    2    0    0  0.24452355144E+02 -0.16115177558E+03  0.25441927190E+03  0.32702281292E+03  0.12508773645E+03 0.  0.
          5    1    3    3  502    0 -0.22069733997E+01 -0.14293829897E+03  0.25726210534E+03  0.29434247279E+03  0.41800000000E+01 0. -1.
         -5    1    3    3    0  502  0.26659328543E+02 -0.18213476615E+02 -0.28428334445E+01  0.32680340126E+02  0.41800000000E+01 0. -1.
        -11    1    1    2    0    0 -0.46300650194E+02  0.12661806301E+03  0.71397642797E+02  0.15255657143E+03  0.00000000000E+00 0.  1.
         11    1    1    2    0    0  0.21848295050E+02  0.34533712570E+02 -0.13390448038E+02  0.43002667349E+02  0.00000000000E+00 0. -1.
</event>
<event>
 7    1  0.4152072E-009  0.1146473E+03  0.7561462E-02  0.1252198E+00
         -1   -1    0    0    0  501 -0.00000000000E+00  0.00000000000E+00  0.45502723931E+02  0.45502723931E+02  0.00000000000E+00 0.  1.
          1   -1    0    0  501    0  0.00000000000E+00 -0.00000000000E+00 -0.41553507929E+03  0.41553507929E+03  0.00000000000E+00 0. -1.
         25    2    1    2    0    0 -0.67076765855E+02 -0.42114836067E+02 -0.25042943488E+03  0.29092185110E+03  0.12509064577E+03 0.  0.
          5    1    3    3  502    0 -0.58536761021E+02 -0.85109693863E+02 -0.18757851833E+03  0.21418073050E+03  0.41800000000E+01 0.  1.
         -5    1    3    3    0  502 -0.85400048332E+01  0.42994857796E+02 -0.62850916553E+02  0.76741120601E+02  0.41800000000E+01 0.  1.
        -11    1    1    2    0    0  0.33322922096E+02  0.33042418355E+02 -0.15022528316E+01  0.46951840340E+02  0.00000000000E+00 0.  1.
         11    1    1    2    0    0  0.33753843759E+02  0.90724177113E+01 -0.11810066765E+03  0.12316411178E+03  0.00000000000E+00 0. -1.
</event>
<event>
 7    1  0.2619826E-009  0.9096826E+02  0.7561462E-02  0.1300524E+00
          1   -1    0    0  501    0  0.00000000000E+00  0.00000000000E+00  0.13860472519E+03  0.13860472519E+03  0.00000000000E+00 0. -1.
         -1   -1    0    0    0  501 -0.00000000000E+00 -0.00000000000E+00 -0.13482555492E+03  0.13482555492E+03  0.00000000000E+00 0.  1.
         25    2    1    2    0    0  0.32705946651E+02 -0.25009620603E+01 -0.74162821211E+02  0.14907463594E+03  0.12508872560E+03 0.  0.
          5    1    3    3  502    0  0.55317429439E+02 -0.49887294056E+02 -0.30276515149E+02  0.80516457185E+02  0.41800000000E+01 0. -1.
         -5    1    3    3    0  502 -0.22611482788E+02  0.47386331996E+02 -0.43886306062E+02  0.68558178751E+02  0.41800000000E+01 0. -1.
        -11    1    1    2    0    0 -0.26205843674E+02  0.21929851316E+02  0.92902361576E+02  0.98987440657E+02  0.00000000000E+00 0. -1.
         11    1    1    2    0    0 -0.65001029770E+01 -0.19428889256E+02 -0.14960370097E+02  0.25368203520E+02  0.00000000000E+00 0.  1.
</event>
<event>
 7    1  0.2619826E-009  0.1229262E+03  0.7561462E-02  0.1238346E+00
          2   -1    0    0  501    0  0.00000000000E+00  0.00000000000E+00  0.85490211194E+02  0.85490211194E+02  0.00000000000E+00 0.  1.
         -2   -1    0    0    0  501 -0.00000000000E+00 -0.00000000000E+00 -0.30629434718E+03  0.30629434718E+03  0.00000000000E+00 0. -1.
         25    2    1    2    0    0 -0.55267764337E+02  0.84157489747E+02 -0.19724892399E+03  0.25435078155E+03  0.12510065230E+03 0.  0.
          5    1    3    3  502    0 -0.63435197487E+02  0.74295742746E+02 -0.21255133598E+03  0.23396457958E+03  0.41800000000E+01 0.  1.
         -5    1    3    3    0  502  0.81674331502E+01  0.98617470013E+01  0.15302411991E+02  0.20386201974E+02  0.41800000000E+01 0.  1.
        -11    1    1    2    0    0  0.66929809338E+02 -0.20667308837E+02 -0.19703989658E+02  0.72766642365E+02  0.00000000000E+00 0. -1.
         11    1    1    2    0    0 -0.11662045002E+02 -0.63490180910E+02 -0.38512223420E+01  0.64667134459E+02  0.00000000000E+00 0.  1.
</event>
<event>
 7    1  0.2619826E-009  0.1281592E+03  0.7561462E-02  0.1230213E+00
          1   -1    0    0  501    0  0.00000000000E+00  0.00000000000E+00  0.92216414274E+03  0.92216414274E+03  0.00000000000E+00 0. -1.
         -1   -1    0    0    0  501 -0.00000000000E+00 -0.00000000000E+00 -0.25721533691E+02  0.25721533691E+02  0.00000000000E+00 0.  1.
         25    2    1    2    0    0 -0.36597925877E+02 -0.71680462494E+02  0.41710493787E+03  0.44283398670E+03  0.12509162123E+03 0.  0.
          5    1    3    3  502    0 -0.35033118588E+02 -0.10678940184E+02  0.21801984024E+02  0.42827071682E+02  0.41800000000E+01 0. -1.
         -5    1    3    3    0  502 -0.15648072896E+01 -0.61001522311E+02  0.39530295384E+03  0.40000691502E+03  0.41800000000E+01 0. -1.
        -11    1    1    2    0    0  0.38000125830E+02 -0.34963780198E+02  0.13336426753E+03  0.14301224893E+03  0.00000000000E+00 0.  1.
         11    1    1    2    0    0 -0.14021999521E+01  0.10664424269E+03  0.34597340365E+03  0.36203944081E+03  0.00000000000E+00 0. -1.
</event>
<event>
 7    1  0.2619826E-009  0.9145577E+02  0.7561462E-02  0.1299364E+00
          2   -1    0    0  501    0  0.00000000000E+00  0.00000000000E+00  0.56044222621E+02  0.56044222621E+02  0.00000000000E+00 0. -1.
         -2   -1    0    0    0  501 -0.00000000000E+00 -0.00000000000E+00 -0.49932228769E+03  0.49932228769E+03  0.00000000000E+00 0.  1.
         25    2    1    2    0    0  0.84910230069E+01  0.54536257429E+02 -0.42493070675E+03  0.44638485338E+03  0.12508809272E+03 0.  0.
          5    1    3    3  502    0  0.40138610575E+02  0.69665466930E+02 -0.38385771900E+03  0.39220990066E+03  0.41800000000E+01 0.  1.
         -5    1    3    3    0  502 -0.31647587568E+02 -0.15129209500E+02 -0.41072987749E+02  0.54174952714E+02  0.41800000000E+01 0.  1.
        -11    1    1    2    0    0 -0.22600276815E+02 -0.21679141221E+02  0.33590376516E+02  0.45924623795E+02  0.00000000000E+00 0. -1.
         11    1    1    2    0    0  0.14109253809E+02 -0.32857116208E+02 -0.51937734833E+02  0.63057033138E+02  0.00000000000E+00 0.  1.
</event>
<event>
 7    1  0.2619826E-009  0.8554557E+02  0.7561462E-02  0.1314012E+00
          1   -1    0    0  501    0  0.00000000000E+00  0.00000000000E+00  0.26096428763E+03  0.26096428763E+03  0.00000000000E+00 0. -1.
         -1   -1    0    0    0  501 -0.00000000000E+00 -0.00000000000E+00 -0.51755294926E+02  0.51755294926E+02  0.00000000000E+00 0.  1.
         25    2    1    2    0    0  0.10329036004E+01  0.32130306060E+02  0.14903219901E+03  0.19721024988E+03  0.12509141800E+03 0.  0.
          5    1    3    3  502    0 -0.40694093592E+02  0.45718631112E+02  0.13909264733E+03  0.15202118085E+03  0.41800000000E+01 0.  1.
         -5    1    3    3    0  502  0.41726997192E+02 -0.13588325052E+02  0.99395516803E+01  0.45189069032E+02  0.41800000000E+01 0.  1.
        -11    1    1    2    0    0  0.92231089806E+01 -0.46833573774E+02  0.77214701619E+02  0.90777527604E+02  0.00000000000E+00 0.  1.
         11    1    1    2    0    0 -0.10256012581E+02  0.14703267713E+02 -0.17037907929E+02  0.24731805072E+02  0.00000000000E+00 0. -1.
</event>
<event>
 7    1  0.2619826E-009  0.1406624E+03  0.7561462E-02  0.1212440E+00
         -1   -1    0    0    0  501 -0.00000000000E+00  0.00000000000E+00  0.66792894920E+03  0.66792894920E+03  0.00000000000E+00 0.  1.
          1   -1    0    0  501    0  0.00000000000E+00 -0.00000000000E+00 -0.32300078744E+02  0.32300078744E+02  0.00000000000E+00 0. -1.
         25    2    1    2    0    0 -0.97501822312E+02  0.13388866788E+01  0.33563272552E+03  0.37122216305E+03  0.12509264538E+03 0.  0.
          5    1    3    3  502    0 -0.37285463355E+02 -0.53118076499E+02  0.80707320413E+02  0.10364786441E+03  0.41800000000E+01 0. -1.
         -5    1    3    3    0  502 -0.60216358957E+02  0.54456963178E+02  0.25492540510E+03  0.26757429864E+03  0.41800000000E+01 0. -1.
        -11    1    1    2    0    0  0.41390355264E+02 -0.47019330131E+02  0.13329223428E+03  0.14727796385E+03  0.00000000000E+00 0.  1.
         11    1    1    2    0    0  0.56111467048E+02  0.45680443452E+02  0.16670391066E+03  0.18172890105E+03  0.00000000000E+00 0. -1.
</event>
<event>
 7    1  0.2619826E-009  0.8237978E+02  0.7561462E-02  0.1322430E+00
          2   -1    0    0  501    0  0.00000000000E+00  0.00000000000E+00  0.44954330461E+03  0.44954330461E+03  0.00000000000E+00 0. -1.
         -2   -1    0    0    0  501 -0.00000000000E+00 -0.00000000000E+00 -0.32460989452E+02  0.32460989452E+02  0.00000000000E+00 0.  1.
         25    2    1    2    0    0 -0.29448977972E+02 -0.35652317457E+02  0.25020321739E+03  0.28352711076E+03  0.12509053719E+03 0.  0.
          5    1    3    3  502    0 -0.22040097218E+02  0.10347201492E+02 -0.40257156068E+01  0.25030166804E+02  0.41800000000E+01 0. -1.
         -5    1    3    3    0  502 -0.74088807538E+01 -0.45999518949E+02  0.25422893300E+03  0.25849694395E+03  0.41800000000E+01 0. -1.
        -11    1    1    2    0    0 -0.13898497053E+02 -0.18986884663E+02  0.78149886523E+01  0.24794032692E+02  0.00000000000E+00 0.  1.
         11    1    1    2    0    0  0.43347475025E+02  0.54639202119E+02  0.15906410911E+03  0.17368315061E+03  0.00000000000E+00 0. -1.
</event>
<event>
 7    1  0.2619826E-009  0.1037675E+03  0.7561462E-02  0.1272567E+00
         -1   -1    0    0    0  501 -0.00000000000E+00  0.00000000000E+00  0.14946348908E+04  0.14946348908E+04  0.00000000000E+00 0.  1.
          1   -1    0    0  501    0  0.00000000000E+00 -0.00000000000E+00 -0.15682056478E+02  0.15682056478E+02  0.00000000000E+00 0. -1.
         25    2    1    2    0    0  0.82739331584E+02 -0.21009328483E+02  0.11092042982E+04  0.11194943892E+04  0.12508526447E+03 0.  0.
          5    1    3    3  502    0  0.56495186515E+02 -0.13449131426E+02  0.16652742452E+03  0.17641270009E+03  0.41800000000E+01 0. -1.
         -5    1    3    3    0  502  0.26244145069E+02 -0.75601970574E+01  0.94267687367E+03  0.94308168908E+03  0.41800000000E+01 0. -1.
        -11    1    1    2    0    0 -0.30029858358E+02  0.52354873708E+02  0.23746600079E+03  0.24501617646E+03  0.00000000000E+00 0. -1.
         11    1    1    2    0    0 -0.52709473226E+02 -0.31345545225E+02  0.13228253532E+03  0.14580638163E+03  0.00000000000E+00 0.  1.
</event>
<event>
 7    1  0.2619826E-009  0.1368221E+03  0.7561462E-02  0.1217670E+00
          2   -1    0    0  501    0  0.00000000000E+00  0.00000000000E+00  0.53014524446E+03  0.53014524446E+03  0.00000000000E+00 0. -1.
         -2   -1    0    0    0  501 -0.00000000000E+00 -0.00000000000E+00 -0.36099281371E+02  0.36099281371E+02  0.00000000000E+00 0.  1.
         25    2    1    2    0    0 -0.56600205970E+02 -0.53686501370E+02  0.24143543154E+03  0.28289294966E+03  0.12510607347E+03 0.  0.
          5    1    3    3  502    0  0.18292254706E+02 -0.68442489176E+02  0.11863472129E+03  0.13824127605E+03  0.41800000000E+01 0. -1.
         -5    1    3    3    0  502 -0.74892460677E+02  0.14755987806E+02  0.12280071024E+03  0.14465167361E+03  0.41800000000E+01 0. -1.
        -11    1    1    2    0    0 -0.24152152835E+02 -0.70789635870E+01  0.32138966339E+02  0.40820967276E+02  0.00000000000E+00 0.  1.
         11    1    1    2    0    0  0.80752358805E+02  0.60765464957E+02  0.22047156521E+03  0.24253060889E+03  0.00000000000E+00 0. -1.
</event>
<event>
 7    1  0.3538414E-009  0.9617008E+02  0.7561462E-02  0.1288562E+00
          1   -1    0    0  501    0  0.00000000000E+00  0.00000000000E+00  0.20833999969E+03  0.20833999969E+03  0.00000000000E+00 0. -1.
         -1   -1    0    0    0  501 -0.00000000000E+00 -0.00000000000E+00 -0.10071228692E+03  0.10071228692E+03  0.00000000000E+00 0.  1.
         25    2    1    2    0    0 -0.70884482638E+02  0.62981390150E+02  0.70179934150E+02  0.17197369775E+03  0.12513378512E+03 0.  0.
          5    1    3    3  502    0 -0.45122112601E+02  0.36646854848E+02  0.10565297774E+03  0.12066076877E+03  0.41800000000E+01 0. -1.
         -5    1    3    3    0  502 -0.25762370037E+02  0.26334535301E+02 -0.35473043586E+02  0.51312928982E+02  0.41800000000E+01 0. -1.
        -11    1    1    2    0    0  0.22166435076E+02 -0.81028380252E+01 -0.29476774285E+02  0.37760919617E+02  0.00000000000E+00 0.  1.
         11    1    1    2    0    0  0.48718047563E+02 -0.54878552124E+02  0.66924552901E+02  0.99317669237E+02  0.00000000000E+00 0. -1.
</event>
<event>
 7    1  0.2619826E-009  0.1104993E+03  0.7561462E-02  0.1259648E+00
         -4   -1    0    0    0  501 -0.00000000000E+00  0.00000000000E+00  0.27631139911E+03  0.27631139911E+03  0.00000000000E+00 0.  1.
          4   -1    0    0  501    0  0.00000000000E+00 -0.00000000000E+00 -0.58753447880E+02  0.58753447880E+02  0.00000000000E+00 0. -1.
         25    2    1    2    0    0 -0.51280570081E+02 -0.36055536453E+02  0.11046436180E+03  0.17826934775E+03  0.12509151268E+03 0.  0.
          5    1    3    3  502    0 -0.38993298431E+02  0.30814261350E+02  0.96657541762E+02  0.10876648751E+03  0.41800000000E+01 0. -1.
         -5    1    3    3    0  502 -0.12287271650E+02 -0.66869797803E+02  0.13806820034E+02  0.69502860246E+02  0.41800000000E+01 0. -1.
        -11    1    1    2    0    0  0.52641580163E+02  0.59544706059E+02  0.10697329311E+03  0.13326662530E+03  0.00000000000E+00 0.  1.
         11    1    1    2    0    0 -0.13610100821E+01 -0.23489169606E+02  0.12029632327E+00  0.23528873930E+02  0.00000000000E+00 0. -1.
</event>
<event>
 7    1  0.2619826E-009  0.1345731E+03  0.7561462E-02  0.1220824E+00
         -1   -1    0    0    0  501 -0.00000000000E+00  0.00000000000E+00  0.32561145414E+02  0.32561145414E+02  0.00000000000E+00 0.  1.
          1   -1    0    0  501    0  0.00000000000E+00 -0.00000000000E+00 -0.96889346207E+03  0.96889346207E+03  0.00000000000E+00 0. -1.
         25    2    1    2    0    0  0.12164724328E+03 -0.16324761232E+02 -0.68552253059E+03  0.70756806753E+03  0.12508749182E+03 0.  0.
          5    1    3    3  502    0  0.48423551981E+02 -0.13754433883E+02 -0.55918707512E+03  0.56146387437E+03  0.41800000000E+01 0. -1.
         -5    1    3    3    0  502  0.73223691297E+02 -0.25703273494E+01 -0.12633545548E+03  0.14610419316E+03  0.41800000000E+01 0. -1.
        -11    1    1    2    0    0 -0.12878237709E+03  0.14973758840E+01 -0.18087857394E+03  0.22204549375E+03  0.00000000000E+00 0.  1.
         11    1    1    2    0    0  0.71351338153E+01  0.14827385348E+02 -0.69931212118E+02  0.71841046200E+02  0.00000000000E+00 0. -1.
</event>
<event>
 7    1  0.2619826E-009  0.1115091E+03  0.7561462E-02  0.1257801E+00
         -2   -1    0    0    0  501 -0.00000000000E+00  0.00000000000E+00  0.48632197197E+03  0.48632197197E+03  0.00000000000E+00 0.  1.
          2   -1    0    0  501    0  0.00000000000E+00 -0.00000000000E+00 -0.26021812912E+02  0.26021812912E+02  0.00000000000E+00 0. -1.
         25    2    1    2    0    0 -0.15410975259E+02  0.19237019373E+02  0.28039119438E+03  0.30801575423E+03  0.12508765684E+03 0.  0.
          5    1    3    3  502    0  0.52805511081E+02 -0.62967478219E+01  0.13957953891E+03  0.14942553703E+03  0.41800000000E+01 0. -1.
         -5    1    3    3    0  502 -0.68216486340E+02  0.25533767194E+02  0.14081165547E+03  0.15859021720E+03  0.41800000000E+01 0. -1.
        -11    1    1    2    0    0  0.32055060363E+02  0.30512971233E+02  0.87978171147E+02  0.98482114654E+02  0.00000000000E+00 0.  1.
         11    1    1    2    0    0 -0.16644085104E+02 -0.49749990606E+02  0.91930793526E+02  0.10584591599E+03  0.00000000000E+00 0. -1.
</event>
<event>
 7    1  0.2619826E-009  0.1375613E+03  0.7561462E-02  0.1216649E+00
          1   -1    0    0  501    0  0.00000000000E+00  0.00000000000E+00  0.21147626421E+03  0.21147626421E+03  0.00000000000E+00 0. -1.
         -1   -1    0    0    0  501 -0.00000000000E+00 -0.00000000000E+00 -0.11507960393E+03  0.11507960393E+03  0.00000000000E+00 0.  1.
         25    2    1    2    0    0  0.60873496793E+02  0.74842505925E+02  0.11107365895E+03  0.19311160480E+03  0.12509097046E+03 0.  0.
          5    1    3    3  502    0  0.97440929941E+02  0.49381518193E+02  0.58222035169E+02  0.12385696164E+03  0.41800000000E+01 0. -1.
         -5    1    3    3    0  502 -0.36567433148E+02  0.25460987731E+02  0.52851623786E+02  0.69254643167E+02  0.41800000000E+01 0. -1.
        -11    1    1    2    0    0  0.14368305901E+02 -0.30495414260E+02  0.20312814706E+02  0.39357705048E+02  0.00000000000E+00 0. -1.
         11    1    1    2    0    0 -0.75241802694E+02 -0.44347091664E+02 -0.34989813380E+02  0.94086558296E+02  0.00000000000E+00 0.  1.
</event>
<event>
 7    1  0.2619826E-009  0.1279843E+03  0.7561462E-02  0.1230478E+00
         -1   -1    0    0    0  501 -0.00000000000E+00  0.00000000000E+00  0.32100597867E+02  0.32100597867E+02  0.00000000000E+00 0.  1.
          1   -1    0    0  501    0  0.00000000000E+00 -0.00000000000E+00 -0.71188173128E+03  0.71188173128E+03  0.00000000000E+00 0. -1.
         25    2    1    2    0    0  0.10537391749E+03  0.13419555959E+02 -0.40878825474E+03  0.44050121457E+03  0.12509890429E+03 0.  0.
          5    1    3    3  502    0  0.28128124364E+02  0.29997491304E+02 -0.31543973660E+03  0.31813635550E+03  0.41800000000E+01 0.  1.
         -5    1    3    3    0  502  0.77245793126E+02 -0.16577935345E+02 -0.93348518138E+02  0.12236485907E+03  0.41800000000E+01 0.  1.
        -11    1    1    2    0    0 -0.11993735357E+03 -0.14993548843E+02 -0.22794279734E+03  0.25800715910E+03  0.00000000000E+00 0.  1.
         11    1    1    2    0    0  0.14563436077E+02  0.15739928839E+01 -0.43050081333E+02  0.45473955477E+02  0.00000000000E+00 0. -1.
</event>
<event>
 7    1  0.2619826E-009  0.1432759E+03  0.7561462E-02  0.1208988E+00
          2   -1    0    0  501    0  0.00000000000E+00  0.00000000000E+00  0.22853623225E+04  0.22853623225E+04  0.00000000000E+00 0. -1.
         -2   -1    0    0    0  501 -0.00000000000E+00 -0.00000000000E+00 -0.20321261321E+02  0.20321261321E+02  0.00000000000E+00 0.  1.
         25    2    1    2    0    0 -0.46451131345E+02  0.12179804407E+03  0.19157274791E+04  0.19242276035E+04  0.12509046647E+03 0.  0.
          5    1    3    3  502    0 -0.38959692202E+02  0.44716473097E+02  0.15090441280E+04  0.15102149096E+04  0.41800000000E+01 0. -1.
         -5    1    3    3    0  502 -0.74914391430E+01  0.77081570975E+02  0.40668335110E+03  0.41401269390E+03  0.41800000000E+01 0. -1.
        -11    1    1    2    0    0 -0.15772665051E+02 -0.59244613603E+02  0.10359801498E+03  0.12037960754E+03  0.00000000000E+00 0.  1.
         11    1    1    2    0    0  0.62223796396E+02 -0.62553430469E+02  0.24571556707E+03  0.26107637274E+03  0.00000000000E+00 0. -1.
</event>
<event>
 7    1  0.2619826E-009  0.9563401E+02  0.7561462E-02  0.1289754E+00
          1   -1    0    0  501    0  0.00000000000E+00  0.00000000000E+00  0.10082596298E+03  0.10082596298E+03  0.00000000000E+00 0. -1.
         -1   -1    0    0    0  501 -0.00000000000E+00 -0.00000000000E+00 -0.12588023527E+03  0.12588023527E+03  0.00000000000E+00 0.  1.
         25    2    1    2    0    0  0.97703031908E+01  0.19728954542E+02 -0.13815612451E+01  0.12702865120E+03  0.12509867722E+03 0.  0.
          5    1    3    3  502    0  0.18164967614E+02  0.57171416518E+02 -0.40162948929E+02  0.72312321092E+02  0.41800000000E+01 0.  1.
         -5    1    3    3    0  502 -0.83946644230E+01 -0.37442461976E+02  0.38781387684E+02  0.54716330106E+02  0.41800000000E+01 0.  1.
        -11    1    1    2    0    0 -0.23474524745E+02 -0.52230474738E+02 -0.11829134371E+00  0.57263337278E+02  0.00000000000E+00 0.  1.
         11    1    1    2    0    0  0.13704221555E+02  0.32501520196E+02 -0.23554419704E+02  0.42414209777E+02  0.00000000000E+00 0. -1.
</event>
<event>
 7    1  0.2619826E-009  0.1256331E+03  0.7561462E-02  0.1234083E+00
          2   -1    0    0  501    0  0.00000000000E+00  0.00000000000E+00  0.86170903564E+03  0.86170903564E+03  0.00000000000E+00 0.  1.
         -2   -1    0    0    0  501 -0.00000000000E+00 -0.00000000000E+00 -0.20513378538E+02  0.20513378538E+02  0.00000000000E+00 0. -1.
         25    2    1    2    0    0  0.66173119036E+02  0.24252452295E+02  0.35877577356E+03  0.38643809205E+03  0.12508908891E+03 0.  0.
          5    1    3    3  502    0 -0.27634639336E+02  0.38006923228E+02  0.14662723852E+03  0.15402992885E+03  0.41800000000E+01 0. -1.
         -5    1    3    3    0  502  0.93807758372E+02 -0.13754470933E+02  0.21214853504E+03  0.23240816320E+03  0.41800000000E+01 0. -1.
        -11    1    1    2    0    0 -0.26659117646E+01  0.27274810209E+02  0.66946043795E+02  0.72338061470E+02  0.00000000000E+00 0. -1.
         11    1    1    2    0    0 -0.63507207272E+02 -0.51527262503E+02  0.41547383974E+03  0.42344626066E+03  0.00000000000E+00 0.  1.
</event>
<event>
 7    1  0.2619826E-009  0.1247848E+03  0.7561462E-02  0.1235406E+00
          2   -1    0    0  501    0  0.00000000000E+00  0.00000000000E+00  0.12264266353E+04  0.12264266353E+04  0.00000000000E+00 0.  1.
         -2   -1    0    0    0  501 -0.00000000000E+00 -0.00000000000E+00 -0.14142331601E+02  0.14142331601E+02  0.00000000000E+00 0. -1.
         25    2    1    2    0    0  0.28988477501E+02  0.68728799189E+02  0.84061055753E+03  0.85312852107E+03  0.12505272635E+03 0.  0.
          5    1    3    3  502    0  0.50209290079E+02  0.95074640444E+02  0.71168447939E+03  0.71977248536E+03  0.41800000000E+01 0.  1.
         -5    1    3    3    0  502 -0.21220812578E+02 -0.26345841255E+02  0.12892607814E+03  0.13335603572E+03  0.41800000000E+01 0.  1.
        -11    1    1    2    0    0 -0.11756118846E+02  0.16872862532E+02  0.48536975281E+02  0.52713734356E+02  0.00000000000E+00 0. -1.
         11    1    1    2    0    0 -0.17232358655E+02 -0.85601661721E+02  0.32313677085E+03  0.33472671144E+03  0.00000000000E+00 0.  1.
</event>
<event>
 7    1  0.2619826E-009  0.2825185E+03  0.7561462E-02  0.1094321E+00
          2   -1    0    0  501    0  0.00000000000E+00  0.00000000000E+00  0.14132406837E+04  0.14132406837E+04  0.00000000000E+00 0. -1.
         -2   -1    0    0    0  501 -0.00000000000E+00 -0.00000000000E+00 -0.58489891590E+02  0.58489891590E+02  0.00000000000E+00 0.  1.
         25    2    1    2    0    0 -0.23885209823E+03  0.11607652528E+03  0.65916701143E+03  0.72157502029E+03  0.12508107927E+03 0.  0.
          5    1    3    3  502    0  0.35588313896E+01  0.25973347816E+02  0.24091165142E+02  0.35848803544E+02  0.41800000000E+01 0.  1.
         -5    1    3    3    0  502 -0.24241092962E+03  0.90103177467E+02  0.63507584629E+03  0.68572621674E+03  0.41800000000E+01 0.  1.
        -11    1    1    2    0    0  0.21362814596E+03 -0.65700328452E+02  0.57997108836E+03  0.62154644335E+03  0.00000000000E+00 0. -1.
         11    1    1    2    0    0  0.25223952268E+02 -0.50376196830E+02  0.11561269230E+03  0.12860911164E+03  0.00000000000E+00 0.  1.
</event>
<event>
 7    1  0.2619826E-009  0.2351594E+03  0.7561462E-02  0.1123060E+00
         -3   -1    0    0    0  501 -0.00000000000E+00  0.00000000000E+00  0.42118809132E+03  0.42118809132E+03  0.00000000000E+00 0.  1.
          3   -1    0    0  501    0  0.00000000000E+00 -0.00000000000E+00 -0.16661084547E+03  0.16661084547E+03  0.00000000000E+00 0. -1.
         25    2    1    2    0    0  0.10782413845E+03 -0.20143693397E+03  0.44564084502E+02  0.26426651642E+03  0.12509176982E+03 0.  0.
          5    1    3    3  502    0  0.60711813900E+02 -0.10874002497E+03 -0.39249624043E+02  0.13064579122E+03  0.41800000000E+01 0.  1.
         -5    1    3    3    0  502  0.47112324549E+02 -0.92696909003E+02  0.83813708545E+02  0.13362072520E+03  0.41800000000E+01 0.  1.
        -11    1    1    2    0    0 -0.97932038796E+02  0.10086954828E+03  0.15183917051E+03  0.20693110857E+03  0.00000000000E+00 0.  1.
         11    1    1    2    0    0 -0.98920996536E+01  0.10056738569E+03  0.58173990835E+02  0.11660131178E+03  0.00000000000E+00 0. -1.
</event>
<event>
 7    1  0.2619826E-009  0.1246352E+03  0.7561462E-02  0.1235640E+00
          2   -1    0    0  501    0  0.00000000000E+00  0.00000000000E+00  0.30721378276E+03  0.30721378276E+03  0.00000000000E+00 0. -1.
         -2   -1    0    0    0  501 -0.00000000000E+00 -0.00000000000E+00 -0.88560054108E+02  0.88560054108E+02  0.00000000000E+00 0.  1.
         25    2    1    2    0    0  0.94180981314E+02 -0.74912094879E+02  0.79602178266E+02  0.19096966702E+03  0.12510406763E+03 0.  0.
          5    1    3    3  502    0  0.54192436122E+02 -0.18387161322E+02 -0.27293630794E+02  0.63539928520E+02  0.41800000000E+01 0.  1.
         -5    1    3    3    0  502  0.39988545191E+02 -0.56524933557E+02  0.10689580906E+03  0.12742973850E+03  0.41800000000E+01 0.  1.
        -11    1    1    2    0    0 -0.43172720344E+02  0.20009194607E+02  0.11758636054E+03  0.12684953227E+03  0.00000000000E+00 0.  1.
         11    1    1    2    0    0 -0.51008260969E+02  0.54902900272E+02  0.21465189845E+02  0.77954637582E+02  0.00000000000E+00 0. -1.
</event>
<event>
 7    1  0.2619826E-009  0.9172871E+02  0.7561462E-02  0.1298719E+00
          1   -1    0    0  501    0  0.00000000000E+00  0.00000000000E+00  0.31191667905E+03  0.31191667905E+03  0.00000000000E+00 0. -1.
         -1   -1    0    0    0  501 -0.00000000000E+00 -0.00000000000E+00 -0.37883067119E+02  0.37883067119E+02  0.00000000000E+00 0.  1.
         25    2    1    2    0    0 -0.10622143735E+01 -0.91863383634E+01  0.15525162552E+03  0.19958848612E+03  0.12508788693E+03 0.  0.
          5    1    3    3  502    0  0.47449057218E+02 -0.16540894085E+02  0.13879136274E+03  0.14766695290E+03  0.41800000000E+01 0.  1.
         -5    1    3    3    0  502 -0.48511271592E+02  0.73545557212E+01  0.16460262773E+02  0.51921533219E+02  0.41800000000E+01 0.  1.
        -11    1    1    2    0    0 -0.40765915435E+02  0.99236456944E+01  0.28537857264E+02  0.50741973772E+02  0.00000000000E+00 0.  1.
         11    1    1    2    0    0  0.41828129809E+02 -0.73730733097E+00  0.90244129150E+02  0.99469286272E+02  0.00000000000E+00 0. -1.
</event>
<event>
 7    1  0.2619826E-009  0.9581643E+02  0.7561462E-02  0.1289348E+00
         -2   -1    0    0    0  501 -0.00000000000E+00  0.00000000000E+00  0.36455978791E+02  0.36455978791E+02  0.00000000000E+00 0.  1.
          2   -1    0    0  501    0  0.00000000000E+00 -0.00000000000E+00 -0.55768386447E+03  0.55768386447E+03  0.00000000000E+00 0. -1.
         25    2    1    2    0    0  0.65482860015E+02 -0.27044814023E+02 -0.40930573485E+03  0.43381925923E+03  0.12509411726E+03 0.  0.
          5    1    3    3  502    0 -0.19434217506E+02  0.15332683228E+02 -0.22572036475E+03  0.22711216491E+03  0.41800000000E+01 0.  1.
         -5    1    3    3    0  502  0.84917077521E+02 -0.42377497251E+02 -0.18358537010E+03  0.20670709432E+03  0.41800000000E+01 0.  1.
        -11    1    1    2    0    0 -0.25533374901E+02  0.15814199234E+02 -0.11485700383E+03  0.11871888417E+03  0.00000000000E+00 0. -1.
         11    1    1    2    0    0 -0.39949485114E+02  0.11230614788E+02  0.29348529959E+01  0.41601699863E+02  0.00000000000E+00 0.  1.
</event>
<event>
 7    1  0.2619826E-009  0.1018642E+03  0.7561462E-02  0.1276424E+00
         -3   -1    0    0    0  501 -0.00000000000E+00  0.00000000000E+00  0.73652739563E+02  0.73652739563E+02  0.00000000000E+00 0.  1.
          3   -1    0    0  501    0  0.00000000000E+00 -0.00000000000E+00 -0.27577624813E+03  0.27577624813E+03  0.00000000000E+00 0. -1.
         25    2    1    2    0    0  0.17521825352E+02  0.85223745914E+02 -0.14853203740E+03  0.21278950389E+03  0.12508999001E+03 0.  0.
          5    1    3    3  502    0  0.14663988884E+02  0.83787217627E+02 -0.17029307359E+03  0.19040098140E+03  0.41800000000E+01 0. -1.
         -5    1    3    3    0  502  0.28578364678E+01  0.14365282873E+01  0.21761036193E+02  0.22388522484E+02  0.41800000000E+01 0. -1.
        -11    1    1    2    0    0  0.22475866008E+02 -0.64396689900E+02 -0.60310479953E+02  0.91046428898E+02  0.00000000000E+00 0. -1.
         11    1    1    2    0    0 -0.39997691360E+02 -0.20827056014E+02  0.67190087842E+01  0.45593054903E+02  0.00000000000E+00 0.  1.
</event>
<event>
 7    1  0.2619826E-009  0.1268030E+03  0.7561462E-02  0.1232278E+00
          2   -1    0    0  501    0  0.00000000000E+00  0.00000000000E+00  0.17679877823E+03  0.17679877823E+03  0.00000000000E+00 0. -1.
         -2   -1    0    0    0  501 -0.00000000000E+00 -0.00000000000E+00 -0.99082708964E+02  0.99082708964E+02  0.00000000000E+00 0.  1.
         25    2    1    2    0    0  0.70502092941E+02 -0.25945385573E+02  0.33062676316E+02  0.14961486700E+03  0.12509100576E+03 0.  0.
          5    1    3    3  502    0  0.91148668877E+02  0.12198096213E+02 -0.43848381381E+01  0.92160580482E+02  0.41800000000E+01 0.  1.
         -5    1    3    3    0  502 -0.20646575936E+02 -0.38143481786E+02  0.37447514454E+02  0.57454286519E+02  0.41800000000E+01 0.  1.
        -11    1    1    2    0    0 -0.91861635956E+02  0.29153754480E+02  0.38750093247E+02  0.10387526793E+03  0.00000000000E+00 0. -1.
         11    1    1    2    0    0  0.21359543015E+02 -0.32083689070E+01  0.59032997063E+01  0.22391352266E+02  0.00000000000E+00 0.  1.
</event>
<event>
 7    1  0.2619826E-009  0.1081280E+03  0.7561462E-02  0.1264076E+00
          1   -1    0    0  501    0  0.00000000000E+00  0.00000000000E+00  0.21969731490E+03  0.21969731490E+03  0.00000000000E+00 0. -1.
         -1   -1    0    0    0  501 -0.00000000000E+00 -0.00000000000E+00 -0.75591560968E+02  0.75591560968E+02  0.00000000000E+00 0.  1.
         25    2    1    2    0    0  0.29386559745E+02  0.60131475102E+02  0.98273848643E+02  0.17257589212E+03  0.12508127367E+03 0.  0.
          5    1    3    3  502    0  0.13521580097E+02 -0.36777560828E+02  0.10454223575E+02  0.40769906786E+02  0.41800000000E+01 0. -1.
         -5    1    3    3    0  502  0.15864979648E+02  0.96909035930E+02  0.87819625068E+02  0.13180598534E+03  0.41800000000E+01 0. -1.
        -11    1    1    2    0    0 -0.25414440279E+02 -0.85310562861E+01 -0.23872468662E+02  0.35896621792E+02  0.00000000000E+00 0.  1.
         11    1    1    2    0    0 -0.39721194658E+01 -0.51600418816E+02  0.69704373952E+02  0.86816361955E+02  0.00000000000E+00 0. -1.
</event>
<event>
 7    1  0.2619826E-009  0.1098690E+03  0.7561462E-02  0.1260813E+00
          2   -1    0    0  501    0  0.00000000000E+00  0.00000000000E+00  0.17477400785E+03  0.17477400785E+03  0.00000000000E+00 0. -1.
         -2   -1    0    0    0  501 -0.00000000000E+00 -0.00000000000E+00 -0.10608568297E+03  0.10608568297E+03  0.00000000000E+00 0.  1.
         25    2    1    2    0    0  0.71133183741E+02 -0.32048575729E+02  0.71993708613E+02  0.16406259025E+03  0.12508556433E+03 0.  0.
          5    1    3    3  502    0  0.94818111598E+00  0.23036702942E+02  0.70969997746E+02  0.74738221212E+02  0.41800000000E+01 0.  1.
         -5    1    3    3    0  502  0.70185002625E+02 -0.55085278671E+02  0.10237108675E+01  0.89324369035E+02  0.41800000000E+01 0.  1.
        -11    1    1    2    0    0  0.47376903246E+01  0.30742375909E+02  0.20518230972E+02  0.37263080769E+02  0.00000000000E+00 0. -1.
         11    1    1    2    0    0 -0.75870874065E+02  0.13061998195E+01 -0.23823614700E+02  0.79534019808E+02  0.00000000000E+00 0.  1.
</event>
<event>
 6    1  0.2619826E-009  0.1487958E+03  0.7561462E-02  0.1201961E+00
          2   -1    0    0  501    0  0.00000000000E+00  0.00000000000E+00  0.11767459611E+04  0.11767459611E+04  0.00000000000E+00 0.  1.
         -2   -1    0    0    0  501 -0.00000000000E+00 -0.00000000000E+00 -0.25705709468E+02  0.25705709468E+02  0.00000000000E+00 0. -1.
          5    1    1    2  502    0  0.22726404973E+02  0.45813674875E+02  0.14293583091E+03  0.15186673911E+03  0.41800000000E+01 0.  1.
         -5    1    1    2    0  502 -0.10963217347E+03  0.45734662147E+02  0.63964765992E+03  0.65059778206E+03  0.41800000000E+01 0.  1.
        -11    1    1    2    0    0  0.73552610423E+02 -0.85425258769E+02  0.36843771330E+03  0.38529704114E+03  0.00000000000E+00 0.  1.
         11    1    1    2    0    0  0.13353158072E+02 -0.61230782531E+01  0.19047504866E-01  0.14690108256E+02  0.00000000000E+00 0. -1.
</event>
<event>
 7    1  0.2619826E-009  0.8922288E+02  0.7561462E-02  0.1304745E+00
          1   -1    0    0  501    0  0.00000000000E+00  0.00000000000E+00  0.31359681412E+03  0.31359681412E+03  0.00000000000E+00 0. -1.
         -1   -1    0    0    0  501 -0.00000000000E+00 -0.00000000000E+00 -0.41234568548E+02  0.41234568548E+02  0.00000000000E+00 0.  1.
         25    2    1    2    0    0 -0.35444023685E+02 -0.12346003192E+02  0.16893198082E+03  0.21353018371E+03  0.12509365532E+03 0.  0.
          5    1    3    3  502    0  0.22493605416E+02  0.15227203357E+02 -0.51423496497E+01  0.27959724008E+02  0.41800000000E+01 0. -1.
         -5    1    3    3    0  502 -0.57937629101E+02 -0.27573206549E+02  0.17407433047E+03  0.18557045970E+03  0.41800000000E+01 0. -1.
        -11    1    1    2    0    0  0.14532313519E+02 -0.33366665848E+02  0.75452620364E+02  0.83771238774E+02  0.00000000000E+00 0. -1.
         11    1    1    2    0    0  0.20911710166E+02  0.45712669041E+02  0.27977644379E+02  0.57529960176E+02  0.00000000000E+00 0.  1.
</event>
<event>
 7    1  0.2619826E-009  0.2468379E+03  0.7561462E-02  0.1115320E+00
         -1   -1    0    0    0  501 -0.00000000000E+00  0.00000000000E+00  0.51723576521E+02  0.51723576521E+02  0.00000000000E+00 0.  1.
          1   -1    0    0  501    0  0.00000000000E+00 -0.00000000000E+00 -0.14763283295E+04  0.14763283295E+04  0.00000000000E+00 0. -1.
         25    2    1    2    0    0  0.16979934285E+02  0.24264508068E+03 -0.52638024214E+03  0.59320192485E+03  0.12508961179E+03 0.  0.
          5    1    3    3  502    0  0.98228563098E+01  0.19550852929E+03 -0.27666126432E+03  0.33893804907E+03  0.41800000000E+01 0.  1.
         -5    1    3    3    0  502  0.71570779756E+01  0.47136551396E+02 -0.24971897782E+03  0.25426387578E+03  0.41800000000E+01 0.  1.
        -11    1    1    2    0    0 -0.25425821510E+02 -0.41333340842E+02 -0.29235625627E+03  0.29635637001E+03  0.00000000000E+00 0. -1.
         11    1    1    2    0    0  0.84458872248E+01 -0.20131173984E+03 -0.60586825458E+03  0.63849361118E+03  0.00000000000E+00 0.  1.
</event>
<event>
 7    1  0.2619826E-009  0.9325797E+02  0.7561462E-02  0.1295148E+00
         -4   -1    0    0    0  501 -0.00000000000E+00  0.00000000000E+00  0.29643430158E+02  0.29643430158E+02  0.00000000000E+00 0.  1.
          4   -1    0    0  501    0  0.00000000000E+00 -0.00000000000E+00 -0.41282965152E+03  0.41282965152E+03  0.00000000000E+00 0. -1.
         25    2    1    2    0    0  0.95397243056E+01 -0.16434409190E+02 -0.24341887763E+03  0.27433813965E+03  0.12509024236E+03 0.  0.
          5    1    3    3  502    0 -0.17816746953E+02  0.32587269789E+02 -0.19941373804E+03  0.20288587419E+03  0.41800000000E+01 0.  1.
         -5    1    3    3    0  502  0.27356471259E+02 -0.49021678979E+02 -0.44005139589E+02  0.71452265464E+02  0.41800000000E+01 0.  1.
        -11    1    1    2    0    0  0.33301607565E+02  0.33030651501E+02 -0.61006344146E+02  0.76953200265E+02  0.00000000000E+00 0.  1.
         11    1    1    2    0    0 -0.42841331871E+02 -0.16596242311E+02 -0.78760999588E+02  0.91181741766E+02  0.00000000000E+00 0. -1.
</event>
<event>
 7    1  0.2619826E-009  0.8123450E+02  0.7561462E-02  0.1325584E+00
          1   -1    0    0  501    0  0.00000000000E+00  0.00000000000E+00  0.22976816535E+03  0.22976816535E+03  0.00000000000E+00 0. -1.
         -1   -1    0    0    0  501 -0.00000000000E+00 -0.00000000000E+00 -0.60079509030E+02  0.60079509030E+02  0.00000000000E+00 0.  1.
         25    2    1    2    0    0  0.38545892216E+02  0.28411562273E+02  0.82128923004E+02  0.15711681528E+03  0.12509009143E+03 0.  0.
          5    1    3    3  502    0  0.62635138339E+02  0.24815842983E+02 -0.38948663241E+01  0.67613822562E+02  0.41800000000E+01 0.  1.
         -5    1    3    3    0  502 -0.24089246124E+02  0.35957192898E+01  0.86023789328E+02  0.89502992723E+02  0.41800000000E+01 0.  1.
        -11    1    1    2    0    0  0.99540313699E+01 -0.18122028412E+02 -0.10246870312E+02  0.23075723292E+02  0.00000000000E+00 0.  1.
         11    1    1    2    0    0 -0.48499923585E+02 -0.10289533861E+02  0.97806603633E+02  0.10965513581E+03  0.00000000000E+00 0. -1.
</event>
<event>
 7    1  0.2619826E-009  0.1036975E+03  0.7561462E-02  0.1272707E+00
          2   -1    0    0  501    0  0.00000000000E+00  0.00000000000E+00  0.19106520893E+03  0.19106520893E+03  0.00000000000E+00 0.  1.
         -2   -1    0    0    0  501 -0.00000000000E+00 -0.00000000000E+00 -0.84465114654E+02  0.84465114654E+02  0.00000000000E+00 0. -1.
         25    2    1    2    0    0 -0.55357326961E+02  0.28503779616E+02  0.63877747291E+02  0.15363968777E+03  0.12509151834E+03 0.  0.
          5    1    3    3  502    0  0.15035594376E+02 -0.23221514939E+02 -0.18464144920E+02  0.33521707921E+02  0.41800000000E+01 0.  1.
         -5    1    3    3    0  502 -0.70392921338E+02  0.51725294555E+02  0.82341892211E+02  0.12011797985E+03  0.41800000000E+01 0.  1.
        -11    1    1    2    0    0  0.39642304498E+02 -0.50954398686E+02 -0.71817729254E+01  0.64957223722E+02  0.00000000000E+00 0. -1.
         11    1    1    2    0    0  0.15715022463E+02  0.22450619070E+02  0.49904119908E+02  0.56933412083E+02  0.00000000000E+00 0.  1.
</event>
<event>
 7    1  0.2619826E-009  0.1144747E+03  0.7561462E-02  0.1252501E+00
         -3   -1    0    0    0  501 -0.00000000000E+00  0.00000000000E+00  0.29814268658E+02  0.29814268658E+02  0.00000000000E+00 0. -1.
          3   -1    0    0  501    0  0.00000000000E+00 -0.00000000000E+00 -0.68623497481E+03  0.68623497481E+03  0.00000000000E+00 0.  1.
         25    2    1    2    0    0  0.37263459626E+02  0.23702266872E+02 -0.56916241516E+03  0.58441816950E+03  0.12509348156E+03 0.  0.
          5    1    3    3  502    0  0.22063928908E+02  0.74895437404E+02 -0.37053281892E+03  0.37869273270E+03  0.41800000000E+01 0.  1.
         -5    1    3    3    0  502  0.15199530717E+02 -0.51193170532E+02 -0.19862959624E+03  0.20572543680E+03  0.41800000000E+01 0.  1.
        -11    1    1    2    0    0 -0.26569666013E+02 -0.56641142450E+02 -0.45380074631E+02  0.77288533067E+02  0.00000000000E+00 0.  1.
         11    1    1    2    0    0 -0.10693793613E+02  0.32938875579E+02 -0.41878216363E+02  0.54342540905E+02  0.00000000000E+00 0. -1.
</event>
<event>
 7    1  0.2619826E-009  0.1057423E+03  0.7561462E-02  0.1268664E+00
          4   -1    0    0  501    0  0.00000000000E+00  0.00000000000E+00  0.58283693283E+03  0.58283693283E+03  0.00000000000E+00 0. -1.
         -4   -1    0    0    0  501 -0.00000000000E+00 -0.00000000000E+00 -0.27675177227E+02  0.27675177227E+02  0.00000000000E+00 0.  1.
         25    2    1    2    0    0 -0.16812032030E+02 -0.67154841625E+02  0.32894616117E+03  0.35867207535E+03  0.12509062121E+03 0.  0.
          5    1    3    3  502    0  0.34656194035E+01 -0.92443905267E+02  0.14644248927E+03  0.17326500282E+03  0.41800000000E+01 0. -1.
         -5    1    3    3    0  502 -0.20277651434E+02  0.25289063642E+02  0.18250367190E+03  0.18540707253E+03  0.41800000000E+01 0. -1.
        -11    1    1    2    0    0  0.35412214879E+02  0.42706272400E+02  0.20979628743E+03  0.21700767932E+03  0.00000000000E+00 0. -1.
         11    1    1    2    0    0 -0.18600182849E+02  0.24448569224E+02  0.16419307001E+02  0.34832355383E+02  0.00000000000E+00 0.  1.
</event>
<event>
 7    1  0.2619826E-009  0.1714560E+03  0.7561462E-02  0.1176338E+00
          1   -1    0    0  501    0  0.00000000000E+00  0.00000000000E+00  0.34104308094E+03  0.34104308094E+03  0.00000000000E+00 0. -1.
         -1   -1    0    0    0  501 -0.00000000000E+00 -0.00000000000E+00 -0.11880487021E+03  0.11880487021E+03  0.00000000000E+00 0.  1.
         25    2    1    2    0    0  0.42009978850E+02 -0.13967654113E+03  0.17757980548E+02  0.19296774729E+03  0.12508729415E+03 0.  0.
          5    1    3    3  502    0 -0.16781909541E+02 -0.12858507043E+03 -0.21933533153E+01  0.12976145816E+03  0.41800000000E+01 0. -1.
         -5    1    3    3    0  502  0.58791888390E+02 -0.11091470702E+02  0.19951333863E+02  0.63206289131E+02  0.41800000000E+01 0. -1.
        -11    1    1    2    0    0 -0.84159408759E+01  0.10343777825E+03  0.74294621444E+02  0.12763186438E+03  0.00000000000E+00 0.  1.
         11    1    1    2    0    0 -0.33594037974E+02  0.36238762884E+02  0.13018560874E+03  0.13924833947E+03  0.00000000000E+00 0. -1.
</event>
<event>
 7    1  0.2619826E-009  0.1038033E+03  0.7561462E-02  0.1272495E+00
         -2   -1    0    0    0  501 -0.00000000000E+00  0.00000000000E+00  0.64868537387E+02  0.64868537387E+02  0.00000000000E+00 0.  1.
          2   -1    0    0  501    0  0.00000000000E+00 -0.00000000000E+00 -0.27792705008E+03  0.27792705008E+03  0.00000000000E+00 0. -1.
         25    2    1    2    0    0 -0.66334580640E+02 -0.10384067223E+02 -0.16761407780E+03  0.21965871123E+03  0.12508942761E+03 0.  0.
          5    1    3    3  502    0  0.36422476466E+02  0.17759252469E+01 -0.29837053875E+02  0.47301933220E+02  0.41800000000E+01 0.  1.
         -5    1    3    3    0  502 -0.10275705711E+03 -0.12159992469E+02 -0.13777702393E+03  0.17235677801E+03  0.41800000000E+01 0.  1.
        -11    1    1    2    0    0  0.35927235171E+02  0.29975609660E+01 -0.73015851897E+02  0.81431358991E+02  0.00000000000E+00 0. -1.
         11    1    1    2    0    0  0.30407345469E+02  0.73865062566E+01  0.27571417008E+02  0.41705517249E+02  0.00000000000E+00 0.  1.
</event>
<event>
 7    1  0.2619826E-009  0.1190131E+03  0.7561462E-02  0.1244734E+00
          2   -1    0    0  501    0  0.00000000000E+00  0.00000000000E+00  0.11848505749E+04  0.11848505749E+04  0.00000000000E+00 0. -1.
         -2   -1    0    0    0  501 -0.00000000000E+00 -0.00000000000E+00 -0.41064355126E+02  0.41064355126E+02  0.00000000000E+00 0.  1.
         25    2    1    2    0    0  0.67429116539E+02 -0.19120429265E+02  0.10876933362E+04  0.10971036190E+04  0.12508909013E+03 0.  0.
          5    1    3    3  502    0 -0.24659337465E+02 -0.16360203216E+02  0.83558810563E+02  0.88742810392E+02  0.41800000000E+01 0.  1.
         -5    1    3    3    0  502  0.92088454004E+02 -0.27602260492E+01  0.10041345257E+04  0.10083608086E+04  0.41800000000E+01 0.  1.
        -11    1    1    2    0    0 -0.81901046630E+02 -0.10866188876E+02  0.38407830655E+02  0.91109916888E+02  0.00000000000E+00 0.  1.
         11    1    1    2    0    0  0.14471930091E+02  0.29986618141E+02  0.17685052899E+02  0.37701394193E+02  0.00000000000E+00 0. -1.
</event>
<event>
 7    1  0.2619826E-009  0.1102602E+03  0.7561462E-02  0.1260089E+00
          2   -1    0    0  501    0  0.00000000000E+00  0.00000000000E+00  0.48047129601E+02  0.48047129601E+02  0.00000000000E+00 0. -1.
         -2   -1    0    0    0  501 -0.00000000000E+00 -0.00000000000E+00 -0.35609161482E+03  0.35609161482E+03  0.00000000000E+00 0.  1.
         25    2    1    2    0    0 -0.57900368045E+02 -0.44451872735E+02 -0.17267589828E+03  0.22537353356E+03  0.12509133532E+03 0.  0.
          5    1    3    3  502    0 -0.20552351984E+02  0.43368036863E+02 -0.71641435522E+02  0.86331648177E+02  0.41800000000E+01 0.  1.
         -5    1    3    3    0  502 -0.37348016061E+02 -0.87819909598E+02 -0.10103446276E+03  0.13904188538E+03  0.41800000000E+01 0.  1.
        -11    1    1    2    0    0  0.14331685621E+02 -0.34269191954E+00  0.12000178599E+02  0.18695425561E+02  0.00000000000E+00 0. -1.
         11    1    1    2    0    0  0.43568682423E+02  0.44794564654E+02 -0.14736876554E+03  0.16006978530E+03  0.00000000000E+00 0.  1.
</event>
<event>
 7    1  0.2619826E-009  0.9199852E+02  0.7561462E-02  0.1298083E+00
          1   -1    0    0  501    0  0.00000000000E+00  0.00000000000E+00  0.85107973846E+03  0.85107973846E+03  0.00000000000E+00 0. -1.
         -1   -1    0    0    0  501 -0.00000000000E+00 -0.00000000000E+00 -0.17564733768E+02  0.17564733768E+02  0.00000000000E+00 0.  1.
         25    2    1    2    0    0  0.22567996433E+02  0.23253130857E+01  0.57857648654E+03  0.59237906432E+03  0.12508990176E+03 0.  0.
          5    1    3    3  502    0 -0.21917676501E+01 -0.37950289451E+02  0.49333439772E+03  0.49481443864E+03  0.41800000000E+01 0.  1.
         -5    1    3    3    0  502  0.24759764083E+02  0.40275602536E+02  0.85242088816E+02  0.97564625673E+02  0.41800000000E+01 0.  1.
        -11    1    1    2    0    0  0.37347951705E+02 -0.77082649248E+01  0.51264961304E+02  0.63893529424E+02  0.00000000000E+00 0.  1.
         11    1    1    2    0    0 -0.59915948139E+02  0.53829518391E+01  0.20367355685E+03  0.21237187848E+03  0.00000000000E+00 0. -1.
</event>
<event>
 7    1  0.2619826E-009  0.9264518E+02  0.7561462E-02  0.1296570E+00
         -1   -1    0    0    0  501 -0.00000000000E+00  0.00000000000E+00  0.53019474029E+02  0.53019474029E+02  0.00000000000E+00 0.  1.
          1   -1    0    0  501    0  0.00000000000E+00 -0.00000000000E+00 -0.44210080118E+03  0.44210080118E+03  0.00000000000E+00 0. -1.
         25    2    1    2    0    0 -0.49613270552E+02 -0.69530027454E+02 -0.31464659612E+03  0.34920755208E+03  0.12509009813E+03 0.  0.
          5    1    3    3  502    0  0.68553005596E+01 -0.23097820647E+02  0.16845470728E+01  0.24511518991E+02  0.41800000000E+01 0.  1.
         -5    1    3    3    0  502 -0.56468571112E+02 -0.46432206807E+02 -0.31633114319E+03  0.32469603309E+03  0.41800000000E+01 0.  1.
        -11    1    1    2    0    0  0.13577550978E+02  0.35653483443E+02  0.17148211670E+02  0.41828004204E+02  0.00000000000E+00 0.  1.
         11    1    1    2    0    0  0.36035719574E+02  0.33876544011E+02 -0.91582942704E+02  0.10408471892E+03  0.00000000000E+00 0. -1.
</event>
<event>
 7    1  0.2619826E-009  0.1062969E+03  0.7561462E-02  0.1267585E+00
         -1   -1    0    0    0  501 -0.00000000000E+00  0.00000000000E+00  0.43419048208E+02  0.43419048208E+02  0.00000000000E+00 0.  1.
          1   -1    0    0  501    0  0.00000000000E+00 -0.00000000000E+00 -0.33863576486E+03  0.33863576486E+03  0.00000000000E+00 0. -1.
         25    2    1    2    0    0 -0.44400025491E+02 -0.29712185231E+02 -0.17809492498E+03  0.22409719926E+03  0.12509027219E+03 0.  0.
          5    1    3    3  502    0  0.22025663713E+02  0.33458276575E+02 -0.81244305186E+02  0.90679080600E+02  0.41800000000E+01 0.  1.
         -5    1    3    3    0  502 -0.66425689204E+02 -0.63170461806E+02 -0.96850619794E+02  0.13341811866E+03  0.41800000000E+01 0.  1.
        -11    1    1    2    0    0  0.22819415635E+02 -0.17426613361E+02  0.12402306358E+01  0.28739358990E+02  0.00000000000E+00 0.  1.
         11    1    1    2    0    0  0.21580609856E+02  0.47138798592E+02 -0.11836202230E+03  0.12921825482E+03  0.00000000000E+00 0. -1.
</event>
<event>
 7    1  0.2619826E-009  0.1994514E+03  0.7561462E-02  0.1150203E+00
         -2   -1    0    0    0  501 -0.00000000000E+00  0.00000000000E+00  0.72211185190E+02  0.72211185190E+02  0.00000000000E+00 0.  1.
          2   -1    0    0  501    0  0.00000000000E+00 -0.00000000000E+00 -0.57684935384E+03  0.57684935384E+03  0.00000000000E+00 0. -1.
         25    2    1    2    0    0  0.39602138633E+02  0.16720835002E+03 -0.27120905549E+03  0.34456992342E+03  0.12508844329E+03 0.  0.
          5    1    3    3  502    0  0.35384273253E+02 -0.85119809065E+01 -0.43083887926E+02  0.56552580944E+02  0.41800000000E+01 0.  1.
         -5    1    3    3    0  502  0.42178653798E+01  0.17572033093E+03 -0.22812516756E+03  0.28801734248E+03  0.41800000000E+01 0.  1.
        -11    1    1    2    0    0 -0.31927158214E+02 -0.17239675277E+02 -0.14640195493E+02  0.39126527566E+02  0.00000000000E+00 0.  1.
         11    1    1    2    0    0 -0.76749804189E+01 -0.14996867475E+03 -0.21878891766E+03  0.26536408804E+03  0.00000000000E+00 0. -1.
</event>
<event>
 7    1  0.2619826E-009  0.1286178E+03  0.7561462E-02  0.1229521E+00
         -2   -1    0    0    0  501 -0.00000000000E+00  0.00000000000E+00  0.79224189424E+02  0.79224189424E+02  0.00000000000E+00 0.  1.
          2   -1    0    0  501    0  0.00000000000E+00 -0.00000000000E+00 -0.24895470208E+03  0.24895470208E+03  0.00000000000E+00 0. -1.
         25    2    1    2    0    0  0.82550318500E+02  0.49468519427E+00 -0.50184643729E+02  0.15805273804E+03  0.12508944694E+03 0.  0.
          5    1    3    3  502    0  0.40488466210E+02 -0.57311335009E+02 -0.50305977884E+02  0.86441129259E+02  0.41800000000E+01 0.  1.
         -5    1    3    3    0  502  0.42061852290E+02  0.57806020204E+02  0.12133415547E+00  0.71611608778E+02  0.41800000000E+01 0.  1.
        -11    1    1    2    0    0 -0.78105472084E+02  0.30624092827E+02 -0.61178127064E+02  0.10383189809E+03  0.00000000000E+00 0.  1.
         11    1    1    2    0    0 -0.44448464166E+01 -0.31118778021E+02 -0.58367741868E+02  0.66294255377E+02  0.00000000000E+00 0. -1.
</event>
<event>
 7    1  0.2619826E-009  0.1307786E+03  0.7561462E-02  0.1226305E+00
          1   -1    0    0  501    0  0.00000000000E+00  0.00000000000E+00  0.30609536396E+03  0.30609536396E+03  0.00000000000E+00 0. -1.
         -1   -1    0    0    0  501 -0.00000000000E+00 -0.00000000000E+00 -0.75362415600E+02  0.75362415600E+02  0.00000000000E+00 0.  1.
         25    2    1    2    0    0 -0.95037589454E+02 -0.14509821175E+02  0.59841106175E+02  0.16873479731E+03  0.12509114884E+03 0.  0.
          5    1    3    3  502    0 -0.10741877667E+03 -0.45385152591E+02  0.66853767011E+02  0.13448235654E+03  0.41800000000E+01 0.  1.
         -5    1    3    3    0  502  0.12381187216E+02  0.30875331417E+02 -0.70126608368E+01  0.34252440774E+02  0.41800000000E+01 0.  1.
        -11    1    1    2    0    0  0.50361965244E+02  0.35862813091E+02  0.14322967671E+03  0.15600387558E+03  0.00000000000E+00 0.  1.
         11    1    1    2    0    0  0.44675624210E+02 -0.21352991916E+02  0.27662165482E+02  0.56719106670E+02  0.00000000000E+00 0. -1.
</event>
<event>
 7    1  0.2619826E-009  0.1126112E+03  0.7561462E-02  0.1255809E+00
         -2   -1    0    0    0  501 -0.00000000000E+00  0.00000000000E+00  0.20613389060E+03  0.20613389060E+03  0.00000000000E+00 0. -1.
          2   -1    0    0  501    0  0.00000000000E+00 -0.00000000000E+00 -0.11367750659E+03  0.11367750659E+03  0.00000000000E+00 0.  1.
         25    2    1    2    0    0  0.11831924021E+02  0.10472598091E+03  0.10305171334E+03  0.19332570212E+03  0.12509055110E+03 0.  0.
          5    1    3    3  502    0 -0.99933012618E+01  0.39566079152E+02  0.11620706897E+03  0.12323512474E+03  0.41800000000E+01 0. -1.
         -5    1    3    3    0  502  0.21825225282E+02  0.65159901754E+02 -0.13155355636E+02  0.70090577378E+02  0.41800000000E+01 0. -1.
        -11    1    1    2    0    0 -0.23605090967E+02 -0.23597992171E+02 -0.26941408842E+02  0.42894114566E+02  0.00000000000E+00 0.  1.
         11    1    1    2    0    0  0.11773166946E+02 -0.81127988735E+02  0.16346079512E+02  0.83591580506E+02  0.00000000000E+00 0. -1.
</event>
<event>
 7    1  0.2619826E-009  0.1468046E+03  0.7561462E-02  0.1204455E+00
         -2   -1    0    0    0  501 -0.00000000000E+00  0.00000000000E+00  0.10425806805E+03  0.10425806805E+03  0.00000000000E+00 0.  1.
          2   -1    0    0  501    0  0.00000000000E+00 -0.00000000000E+00 -0.28727806841E+03  0.28727806841E+03  0.00000000000E+00 0. -1.
         25    2    1    2    0    0 -0.13252468403E+03 -0.42694598574E+01 -0.12728945227E+03  0.22232924101E+03  0.12508663632E+03 0.  0.
          5    1    3    3  502    0 -0.13365186086E+03  0.55699444117E+01 -0.14766652317E+03  0.19929053830E+03  0.41800000000E+01 0.  1.
         -5    1    3    3    0  502  0.11271768312E+01 -0.98394042691E+01  0.20377070901E+02  0.23038702709E+02  0.41800000000E+01 0.  1.
        -11    1    1    2    0    0  0.44878324021E+02 -0.31005954617E+02  0.81581900630E+01  0.55154231512E+02  0.00000000000E+00 0.  1.
         11    1    1    2    0    0  0.87646360006E+02  0.35275414474E+02 -0.63888738147E+02  0.11405266393E+03  0.00000000000E+00 0. -1.
</event>
<event>
 7    1  0.2619826E-009  0.1145504E+03  0.7561462E-02  0.1252368E+00
          2   -1    0    0  501    0  0.00000000000E+00  0.00000000000E+00  0.62141774757E+02  0.62141774757E+02  0.00000000000E+00 0.  1.
         -2   -1    0    0    0  501 -0.00000000000E+00 -0.00000000000E+00 -0.31002943451E+03  0.31002943451E+03  0.00000000000E+00 0. -1.
         25    2    1    2    0    0 -0.43487902520E+02 -0.22321609543E+02 -0.23087765369E+03  0.26709154056E+03  0.12507576962E+03 0.  0.
          5    1    3    3  502    0 -0.86020220847E+02 -0.16438058165E+02 -0.18119617336E+03  0.20129384936E+03  0.41800000000E+01 0.  1.
         -5    1    3    3    0  502  0.42532318327E+02 -0.58835513787E+01 -0.49681480333E+02  0.65797691199E+02  0.41800000000E+01 0.  1.
        -11    1    1    2    0    0 -0.18214316442E+02  0.31019465625E+02 -0.22656385298E+02  0.42512120223E+02  0.00000000000E+00 0. -1.
         11    1    1    2    0    0  0.61702218962E+02 -0.86978560817E+01  0.56463792332E+01  0.62567548487E+02  0.00000000000E+00 0.  1.
</event>
<event>
 7    1  0.2619826E-009  0.7715144E+02  0.7561462E-02  0.1337335E+00
         -2   -1    0    0    0  501 -0.00000000000E+00  0.00000000000E+00  0.67892975819E+02  0.67892975819E+02  0.00000000000E+00 0.  1.
          2   -1    0    0  501    0  0.00000000000E+00 -0.00000000000E+00 -0.24811501820E+03  0.24811501820E+03  0.00000000000E+00 0. -1.
         25    2    1    2    0    0 -0.13922058788E+02 -0.43564676189E+02 -0.35289798241E+02  0.13778354375E+03  0.12508888974E+03 0.  0.
          5    1    3    3  502    0  0.72717481544E+01 -0.15134775137E+02 -0.79268544822E+02  0.81135160922E+02  0.41800000000E+01 0. -1.
         -5    1    3    3    0  502 -0.21193806943E+02 -0.28429901052E+02  0.43978746581E+02  0.56648382831E+02  0.41800000000E+01 0. -1.
        -11    1    1    2    0    0  0.20027862891E+02 -0.25238722667E+02 -0.29396002831E+02  0.43614600724E+02  0.00000000000E+00 0.  1.
         11    1    1    2    0    0 -0.61058041033E+01  0.68803398856E+02 -0.11553624131E+03  0.13460984954E+03  0.00000000000E+00 0. -1.
</event>
<event>
 7    1  0.2619826E-009  0.9051729E+02  0.7561462E-02  0.1301604E+00
          1   -1    0    0  501    0  0.00000000000E+00  0.00000000000E+00  0.14470890318E+03  0.14470890318E+03  0.00000000000E+00 0. -1.
         -1   -1    0    0    0  501 -0.00000000000E+00 -0.00000000000E+00 -0.93541635573E+02  0.93541635573E+02  0.00000000000E+00 0.  1.
         25    2    1    2    0    0  0.17275128473E+02  0.19002946615E+02  0.54563305238E+02  0.13886826855E+03  0.12509076580E+03 0.  0.
          5    1    3    3  502    0 -0.24018936882E+02  0.30234190961E+02  0.79985958219E+02  0.88917048670E+02  0.41800000000E+01 0. -1.
         -5    1    3    3    0  502  0.41294065354E+02 -0.11231244345E+02 -0.25422652981E+02  0.49951219881E+02  0.41800000000E+01 0. -1.
        -11    1    1    2    0    0  0.35433801189E+02 -0.28706493885E+02 -0.40627911312E+01  0.45783439470E+02  0.00000000000E+00 0.  1.
         11    1    1    2    0    0 -0.52708929662E+02  0.97035472699E+01  0.66675350030E+00  0.53598830733E+02  0.00000000000E+00 0. -1.
</event>
<event>
 7    1  0.2619826E-009  0.1059875E+03  0.7561462E-02  0.1268186E+00
         -2   -1    0    0    0  501 -0.00000000000E+00  0.00000000000E+00  0.20115648077E+03  0.20115648077E+03  0.00000000000E+00 0.  1.
          2   -1    0    0  501    0  0.00000000000E+00 -0.00000000000E+00 -0.85458492761E+02  0.85458492761E+02  0.00000000000E+00 0. -1.
         25    2    1    2    0    0 -0.26733145729E+02  0.58711613815E+02  0.99901670207E+02  0.17259644398E+03  0.12508986405E+03 0.  0.
          5    1    3    3  502    0 -0.54033300478E+02 -0.81198779751E+01  0.81100467873E+02  0.97878947012E+02  0.41800000000E+01 0. -1.
         -5    1    3    3    0  502  0.27300154749E+02  0.66831491790E+02  0.18801202333E+02  0.74717496970E+02  0.41800000000E+01 0. -1.
        -11    1    1    2    0    0  0.12133250927E+02  0.93084911964E+01 -0.27934349206E+02  0.31846375806E+02  0.00000000000E+00 0. -1.
         11    1    1    2    0    0  0.14599894801E+02 -0.68020105012E+02  0.43730667012E+02  0.82172153746E+02  0.00000000000E+00 0.  1.
</event>
<event>
 7    1  0.2619826E-009  0.8461618E+02  0.7561462E-02  0.1316439E+00
          1   -1    0    0  501    0  0.00000000000E+00  0.00000000000E+00  0.63080238790E+03  0.63080238790E+03  0.00000000000E+00 0. -1.
         -1   -1    0    0    0  501 -0.00000000000E+00 -0.00000000000E+00 -0.37370641334E+02  0.37370641334E+02  0.00000000000E+00 0.  1.
         25    2    1    2    0    0  0.68768580039E+01  0.18926634650E+02  0.55380770661E+03  0.56811674486E+03  0.12509257061E+03 0.  0.
          5    1    3    3  502    0  0.14938251355E+02 -0.48261268636E+02  0.34161812941E+03  0.34535882810E+03  0.41800000000E+01 0.  1.
         -5    1    3    3    0  502 -0.80613933514E+01  0.67187903286E+02  0.21218957720E+03  0.22275791676E+03  0.41800000000E+01 0.  1.
        -11    1    1    2    0    0 -0.17836281047E+02 -0.30164693148E+02  0.62887504174E+02  0.71992220521E+02  0.00000000000E+00 0. -1.
         11    1    1    2    0    0  0.10959423043E+02  0.11238058498E+02 -0.23263464216E+02  0.28064063847E+02  0.00000000000E+00 0.  1.
</event>
<event>
 7    1  0.2619826E-009  0.1109176E+03  0.7561462E-02  0.1258880E+00
         -1   -1    0    0    0  501 -0.00000000000E+00  0.00000000000E+00  0.37537854434E+02  0.37537854434E+02  0.00000000000E+00 0.  1.
          1   -1    0    0  501    0  0.00000000000E+00 -0.00000000000E+00 -0.45589327689E+03  0.45589327689E+03  0.00000000000E+00 0. -1.
         25    2    1    2    0    0 -0.37304118601E+02  0.60359821806E+02 -0.24627119023E+03  0.28518781583E+03  0.12509071032E+03 0.  0.
          5    1    3    3  502    0 -0.46881687090E+02 -0.53726507278E+01 -0.23882687313E+02  0.53052927473E+02  0.41800000000E+01 0. -1.
         -5    1    3    3    0  502  0.95775684887E+01  0.65732472534E+02 -0.22238850292E+03  0.23213488836E+03  0.41800000000E+01 0. -1.
        -11    1    1    2    0    0  0.19635234464E+01 -0.70976004773E+02 -0.14807807909E+03  0.16422108935E+03  0.00000000000E+00 0. -1.
         11    1    1    2    0    0  0.35340595155E+02  0.10616182967E+02 -0.24006153133E+02  0.44022226146E+02  0.00000000000E+00 0.  1.
</event>
<event>
 7    1  0.2619826E-009  0.7495083E+02  0.7561462E-02  0.1344023E+00
          1   -1    0    0  501    0  0.00000000000E+00  0.00000000000E+00  0.22082072801E+04  0.22082072801E+04  0.00000000000E+00 0. -1.
         -1   -1    0    0    0  501 -0.00000000000E+00 -0.00000000000E+00 -0.15082197211E+02  0.15082197211E+02  0.00000000000E+00 0.  1.
         25    2    1    2    0    0  0.32896317303E+02 -0.55813015520E+01  0.20204501696E+04  0.20245937446E+04  0.12509046351E+03 0.  0.
          5    1    3    3  502    0 -0.82722383153E+01 -0.13162547008E+02  0.18051620413E+04  0.18052338215E+04  0.41800000000E+01 0. -1.
         -5    1    3    3    0  502  0.41168555619E+02  0.75812454561E+01  0.21528812830E+03  0.21935992305E+03  0.41800000000E+01 0. -1.
        -11    1    1    2    0    0 -0.14689739603E+01 -0.37986271855E+02  0.10871203741E+03  0.11516693020E+03  0.00000000000E+00 0. -1.
         11    1    1    2    0    0 -0.31427343343E+02  0.43567573407E+02  0.63962875814E+02  0.83528802485E+02  0.00000000000E+00 0.  1.
</event>
<event>
 7    1  0.2619826E-009  0.1097499E+03  0.7561462E-02  0.1261034E+00
          2   -1    0    0  501    0  0.00000000000E+00  0.00000000000E+00  0.40198684407E+03  0.40198684407E+03  0.00000000000E+00 0. -1.
         -2   -1    0    0    0  501 -0.00000000000E+00 -0.00000000000E+00 -0.42018908841E+02  0.42018908841E+02  0.00000000000E+00 0.  1.
         25    2    1    2    0    0 -0.14872510439E+02 -0.67991891824E+02  0.17202022358E+03  0.22379340070E+03  0.12509372469E+03 0.  0.
          5    1    3    3  502    0  0.37655948590E+02 -0.54807317165E+02  0.15189604048E+03  0.16586648846E+03  0.41800000000E+01 0. -1.
         -5    1    3    3    0  502 -0.52528459029E+02 -0.13184574659E+02  0.20124183096E+02  0.57926912244E+02  0.41800000000E+01 0. -1.
        -11    1    1    2    0    0  0.41875915426E+02  0.53393381887E+02  0.17347642124E+03  0.18627537209E+03  0.00000000000E+00 0. -1.
         11    1    1    2    0    0 -0.27003404987E+02  0.14598509937E+02  0.14471290412E+02  0.33936980117E+02  0.00000000000E+00 0.  1.
</event>
<event>
 7    1  0.2619826E-009  0.9983852E+02  0.7561462E-02  0.1280636E+00
          1   -1    0    0  501    0  0.00000000000E+00  0.00000000000E+00  0.57891341954E+03  0.57891341954E+03  0.00000000000E+00 0. -1.
         -1   -1    0    0    0  501 -0.00000000000E+00 -0.00000000000E+00 -0.28176286147E+02  0.28176286147E+02  0.00000000000E+00 0.  1.
         25    2    1    2    0    0  0.29225412607E+02  0.56398463866E+02  0.38888951676E+03  0.41342238601E+03  0.12509237202E+03 0.  0.
          5    1    3    3  502    0 -0.17142209932E+02 -0.90525433165E+01  0.26521209091E+03  0.26595249476E+03  0.41800000000E+01 0. -1.
         -5    1    3    3    0  502  0.46367622539E+02  0.65451007182E+02  0.12367742585E+03  0.14746989125E+03  0.41800000000E+01 0. -1.
        -11    1    1    2    0    0  0.24974805662E+02 -0.30603251464E+02  0.99818593029E+02  0.10735013476E+03  0.00000000000E+00 0. -1.
         11    1    1    2    0    0 -0.54200218270E+02 -0.25795212402E+02  0.62029023598E+02  0.86317184917E+02  0.00000000000E+00 0.  1.
</event>
<event>
 7    1  0.2619826E-009  0.1123338E+03  0.7561462E-02  0.1256308E+00
         -2   -1    0    0    0  501 -0.00000000000E+00  0.00000000000E+00  0.23338883727E+02  0.23338883727E+02  0.00000000000E+00 0.  1.
          2   -1    0    0  501    0  0.00000000000E+00 -0.00000000000E+00 -0.95624759700E+03  0.95624759700E+03  0.00000000000E+00 0. -1.
         25    2    1    2    0    0 -0.15759447433E+02 -0.98478399491E+02 -0.58612231675E+03  0.60756352460E+03  0.12509081052E+03 0.  0.
          5    1    3    3  502    0 -0.71211963224E+01  0.11525556896E+02 -0.30795225052E+03  0.30827846324E+03  0.41800000000E+01 0. -1.
         -5    1    3    3    0  502 -0.86382511110E+01 -0.11000395639E+03 -0.27817006623E+03  0.29928506136E+03  0.41800000000E+01 0. -1.
        -11    1    1    2    0    0  0.60757023453E+01  0.62971960201E+02 -0.32077848859E+03  0.32695752121E+03  0.00000000000E+00 0. -1.
         11    1    1    2    0    0  0.96837450882E+01  0.35506439290E+02 -0.26007907929E+02  0.45065434923E+02  0.00000000000E+00 0.  1.
</event>
<event>
 7    1  0.2619826E-009  0.1114169E+03  0.7561462E-02  0.1257968E+00
          1   -1    0    0  501    0  0.00000000000E+00  0.00000000000E+00  0.87836864528E+03  0.87836864528E+03  0.00000000000E+00 0. -1.
         -1   -1    0    0    0  501 -0.00000000000E+00 -0.00000000000E+00 -0.14820449877E+02  0.14820449877E+02  0.00000000000E+00 0.  1.
         25    2    1    2    0    0  0.34817096799E+02  0.13315629788E+02  0.46971076793E+03  0.48750940180E+03  0.12509066756E+03 0.  0.
          5    1    3    3  502    0  0.80498445345E+02  0.13485267583E+02  0.24856476108E+03  0.26165581399E+03  0.41800000000E+01 0.  1.
         -5    1    3    3    0  502 -0.45681348546E+02 -0.16963779463E+00  0.22114600685E+03  0.22585358781E+03  0.41800000000E+01 0.  1.
        -11    1    1    2    0    0  0.28798278418E+02 -0.13052470913E+02  0.94238493453E+02  0.99401214706E+02  0.00000000000E+00 0.  1.
         11    1    1    2    0    0 -0.63615375217E+02 -0.26315887543E+00  0.29959893402E+03  0.30627847865E+03  0.00000000000E+00 0. -1.
</event>
<event>
 7    1  0.2619826E-009  0.1654552E+03  0.7561462E-02  0.1182672E+00
          1   -1    0    0  501    0  0.00000000000E+00  0.00000000000E+00  0.13337481214E+04  0.13337481214E+04  0.00000000000E+00 0. -1.
         -1   -1    0    0    0  501 -0.00000000000E+00 -0.00000000000E+00 -0.30286564917E+02  0.30286564917E+02  0.00000000000E+00 0.  1.
         25    2    1    2    0    0  0.10440020448E+03  0.12701620975E+03  0.81251847875E+03  0.83837582581E+03  0.12512084858E+03 0.  0.
          5    1    3    3  502    0  0.60654363605E+02  0.60261680414E+02  0.66598910735E+03  0.67146808224E+03  0.41800000000E+01 0. -1.
         -5    1    3    3    0  502  0.43745840877E+02  0.66754529337E+02  0.14652937140E+03  0.16690774357E+03  0.41800000000E+01 0. -1.
        -11    1    1    2    0    0 -0.76013315844E+02 -0.79176439632E+02  0.42711373499E+03  0.44099101510E+03  0.00000000000E+00 0. -1.
         11    1    1    2    0    0 -0.28386888637E+02 -0.47839770119E+02  0.63829342723E+02  0.84667845396E+02  0.00000000000E+00 0.  1.
</event>
<event>
 7    1  0.2619826E-009  0.1022468E+03  0.7561462E-02  0.1275641E+00
         -2   -1    0    0    0  501 -0.00000000000E+00  0.00000000000E+00  0.93232523150E+02  0.93232523150E+02  0.00000000000E+00 0. -1.
          2   -1    0    0  501    0  0.00000000000E+00 -0.00000000000E+00 -0.23531238578E+03  0.23531238578E+03  0.00000000000E+00 0.  1.
         25    2    1    2    0    0  0.65949751485E+02  0.48542728078E+02 -0.14222371544E+03  0.20635206503E+03  0.12509126004E+03 0.  0.
          5    1    3    3  502    0  0.14104784658E+02  0.50730880248E+02 -0.14489681680E+03  0.15422427526E+03  0.41800000000E+01 0. -1.
         -5    1    3    3    0  502  0.51844966827E+02 -0.21881521695E+01  0.26731013622E+01  0.52127789768E+02  0.41800000000E+01 0. -1.
        -11    1    1    2    0    0  0.10470441836E+02 -0.43732163215E+01 -0.27458806824E+02  0.29710961705E+02  0.00000000000E+00 0.  1.
         11    1    1    2    0    0 -0.76420193321E+02 -0.44169511757E+02  0.27602659631E+02  0.92481882198E+02  0.00000000000E+00 0. -1.
</event>
<event>
 7    1  0.2619826E-009  0.1354488E+03  0.7561462E-02  0.1219588E+00
          2   -1    0    0  501    0  0.00000000000E+00  0.00000000000E+00  0.56117143896E+02  0.56117143896E+02  0.00000000000E+00 0. -1.
         -2   -1    0    0    0  501 -0.00000000000E+00 -0.00000000000E+00 -0.51366922779E+03  0.51366922779E+03  0.00000000000E+00 0.  1.
         25    2    1    2    0    0 -0.28622259214E+02 -0.10335060003E+03 -0.35225341527E+03  0.38888294819E+03  0.12508756363E+03 0.  0.
          5    1    3    3  502    0 -0.28092181924E+02 -0.66611482953E+01 -0.23519478834E+03  0.23699705155E+03  0.41800000000E+01 0.  1.
         -5    1    3    3    0  502 -0.53007729062E+00 -0.96689451739E+02 -0.11705862693E+03  0.15188589664E+03  0.41800000000E+01 0.  1.
        -11    1    1    2    0    0 -0.28074544537E+02  0.11832065911E+01 -0.90483595387E+01  0.29520380064E+02  0.00000000000E+00 0. -1.
         11    1    1    2    0    0  0.56696803751E+02  0.10216739344E+03 -0.96250309084E+02  0.15138304343E+03  0.00000000000E+00 0.  1.
</event>
<event>
 7    1  0.2619826E-009  0.9337698E+02  0.7561462E-02  0.1294874E+00
         -2   -1    0    0    0  501 -0.00000000000E+00  0.00000000000E+00  0.94007515096E+02  0.94007515096E+02  0.00000000000E+00 0.  1.
          2   -1    0    0  501    0  0.00000000000E+00 -0.00000000000E+00 -0.12576761719E+03  0.12576761719E+03  0.00000000000E+00 0. -1.
         25    2    1    2    0    0 -0.39119620293E+01 -0.53966117075E+01 -0.27048707332E+02  0.12817318089E+03  0.12510917179E+03 0.  0.
          5    1    3    3  502    0 -0.34365338478E+02 -0.38072158068E+02 -0.54997951717E+02  0.75317413669E+02  0.41800000000E+01 0. -1.
         -5    1    3    3    0  502  0.30453376449E+02  0.32675546361E+02  0.27949244386E+02  0.52855767224E+02  0.41800000000E+01 0. -1.
        -11    1    1    2    0    0 -0.42606940894E+02 -0.45959518412E+01 -0.91343521260E+01  0.43816784164E+02  0.00000000000E+00 0. -1.
         11    1    1    2    0    0  0.46518902923E+02  0.99925635487E+01  0.44229573613E+01  0.47785167231E+02  0.00000000000E+00 0.  1.
</event>
<event>
 7    1  0.2619826E-009  0.6740401E+02  0.7561462E-02  0.1369150E+00
         -1   -1    0    0    0  501 -0.00000000000E+00  0.00000000000E+00  0.30759836995E+03  0.30759836995E+03  0.00000000000E+00 0.  1.
          1   -1    0    0  501    0  0.00000000000E+00 -0.00000000000E+00 -0.43540837319E+02  0.43540837319E+02  0.00000000000E+00 0. -1.
         25    2    1    2    0    0  0.39929149516E+02  0.72673967626E+01  0.13391951138E+03  0.18768767398E+03  0.12508027581E+03 0.  0.
          5    1    3    3  502    0  0.32915435860E+02  0.23104205910E+02 -0.10821105615E+02  0.41854497671E+02  0.41800000000E+01 0.  1.
         -5    1    3    3    0  502  0.70137136563E+01 -0.15836809148E+02  0.14474061699E+03  0.14583317630E+03  0.41800000000E+01 0.  1.
        -11    1    1    2    0    0  0.46142685508E+01 -0.27322138038E+02  0.37626128368E+01  0.27963332358E+02  0.00000000000E+00 0. -1.
         11    1    1    2    0    0 -0.44543418067E+02  0.20054741275E+02  0.12637540841E+03  0.13548820093E+03  0.00000000000E+00 0.  1.
</event>
<event>
 7    1  0.2619826E-009  0.9105046E+02  0.7561462E-02  0.1300328E+00
         -2   -1    0    0    0  501 -0.00000000000E+00  0.00000000000E+00  0.11473566703E+02  0.11473566703E+02  0.00000000000E+00 0. -1.
          2   -1    0    0  501    0  0.00000000000E+00 -0.00000000000E+00 -0.16887922224E+04  0.16887922224E+04  0.00000000000E+00 0.  1.
         25    2    1    2    0    0 -0.48116760350E+02 -0.36563291915E+02 -0.12983184498E+04  0.13057292264E+04  0.12508364670E+03 0.  0.
          5    1    3    3  502    0 -0.74545063250E+01 -0.32311709344E+02 -0.11800607907E+04  0.11805340141E+04  0.41800000000E+01 0.  1.
         -5    1    3    3    0  502 -0.40662254025E+02 -0.42515825711E+01 -0.11825765903E+03  0.12519521227E+03  0.41800000000E+01 0.  1.
        -11    1    1    2    0    0  0.19910779732E+02  0.64727848577E+02 -0.27344529333E+03  0.28170633996E+03  0.00000000000E+00 0.  1.
         11    1    1    2    0    0  0.28205980617E+02 -0.28164556661E+02 -0.10555491260E+03  0.11283022276E+03  0.00000000000E+00 0. -1.
</event>
<event>
 7    1  0.2619826E-009  0.1591673E+03  0.7561462E-02  0.1189640E+00
         -2   -1    0    0    0  501 -0.00000000000E+00  0.00000000000E+00  0.36402750556E+02  0.36402750556E+02  0.00000000000E+00 0.  1.
          2   -1    0    0  501    0  0.00000000000E+00 -0.00000000000E+00 -0.78794879672E+03  0.78794879672E+03  0.00000000000E+00 0. -1.
         25    2    1    2    0    0 -0.36856945467E+02  0.67381410491E+02 -0.41228900709E+03  0.43764035920E+03  0.12509264457E+03 0.  0.
          5    1    3    3  502    0  0.28888186676E+02  0.62233632673E+02 -0.12303705680E+03  0.14093665992E+03  0.41800000000E+01 0.  1.
         -5    1    3    3    0  502 -0.65745132144E+02  0.51477778171E+01 -0.28925195029E+03  0.29670369928E+03  0.41800000000E+01 0.  1.
        -11    1    1    2    0    0 -0.59383211350E+02  0.97553920614E+01 -0.13976870943E+03  0.15217366921E+03  0.00000000000E+00 0.  1.
         11    1    1    2    0    0  0.96240156817E+02 -0.77136802552E+02 -0.19948832964E+03  0.23453751887E+03  0.00000000000E+00 0. -1.
</event>
<event>
 7    1  0.2619826E-009  0.1956476E+03  0.7561462E-02  0.1153464E+00
          1   -1    0    0  501    0  0.00000000000E+00  0.00000000000E+00  0.96448799526E+03  0.96448799526E+03  0.00000000000E+00 0. -1.
         -1   -1    0    0    0  501 -0.00000000000E+00 -0.00000000000E+00 -0.58276425553E+02  0.58276425553E+02  0.00000000000E+00 0.  1.
         25    2    1    2    0    0 -0.21689466574E+02 -0.17904788342E+03  0.70213184045E+03  0.73563878189E+03  0.12508684395E+03 0.  0.
          5    1    3    3  502    0 -0.11801240697E+02  0.13253757065E+02  0.21049074608E+02  0.27847213508E+02  0.41800000000E+01 0. -1.
         -5    1    3    3    0  502 -0.98882258769E+01 -0.19230164048E+03  0.68108276584E+03  0.70779156838E+03  0.41800000000E+01 0. -1.
        -11    1    1    2    0    0  0.98376222645E+01  0.10640234954E+03  0.18063809895E+03  0.20987701540E+03  0.00000000000E+00 0.  1.
         11    1    1    2    0    0  0.11851844309E+02  0.72645533878E+02  0.23441630313E+02  0.77248623533E+02  0.00000000000E+00 0. -1.
</event>
<event>
 7    1  0.2619826E-009  0.1805901E+03  0.7561462E-02  0.1167233E+00
         -2   -1    0    0    0  501 -0.00000000000E+00  0.00000000000E+00  0.94132364737E+02  0.94132364737E+02  0.00000000000E+00 0. -1.
          2   -1    0    0  501    0  0.00000000000E+00 -0.00000000000E+00 -0.39461153948E+03  0.39461153948E+03  0.00000000000E+00 0.  1.
         25    2    1    2    0    0  0.54151189409E+02 -0.13478168723E+03 -0.22887902130E+03  0.29854786725E+03  0.12508704217E+03 0.  0.
          5    1    3    3  502    0  0.87172592754E+02 -0.50893230787E+02 -0.11109463918E+03  0.15016215609E+03  0.41800000000E+01 0.  1.
         -5    1    3    3    0  502 -0.33021403345E+02 -0.83888456441E+02 -0.11778438212E+03  0.14838571116E+03  0.41800000000E+01 0.  1.
        -11    1    1    2    0    0 -0.20247550245E+02  0.13448099406E+03 -0.76345350988E+02  0.15596061577E+03  0.00000000000E+00 0.  1.
         11    1    1    2    0    0 -0.33903639164E+02  0.30069316761E+00  0.47451975485E+01  0.34235421200E+02  0.00000000000E+00 0. -1.
</event>
<event>
 7    1  0.2619826E-009  0.9568582E+02  0.7561462E-02  0.1289639E+00
          2   -1    0    0  501    0  0.00000000000E+00  0.00000000000E+00  0.56310382336E+02  0.56310382336E+02  0.00000000000E+00 0. -1.
         -2   -1    0    0    0  501 -0.00000000000E+00 -0.00000000000E+00 -0.32517987012E+03  0.32517987012E+03  0.00000000000E+00 0.  1.
         25    2    1    2    0    0 -0.69797346953E+02  0.19092430310E+02 -0.17981463177E+03  0.23068909013E+03  0.12509182214E+03 0.  0.
          5    1    3    3  502    0  0.30954564994E+01  0.67681609993E+01  0.17754722010E+02  0.19700061115E+02  0.41800000000E+01 0.  1.
         -5    1    3    3    0  502 -0.72892803453E+02  0.12324269311E+02 -0.19756935378E+03  0.21098902901E+03  0.41800000000E+01 0.  1.
        -11    1    1    2    0    0  0.84057188958E+02 -0.31621399124E+02 -0.40212808128E+02  0.98400171929E+02  0.00000000000E+00 0. -1.
         11    1    1    2    0    0 -0.14259842005E+02  0.12528968814E+02 -0.48842047882E+02  0.52400990400E+02  0.00000000000E+00 0.  1.
</event>
<event>
 7    1  0.2619826E-009  0.1349029E+03  0.7561462E-02  0.1220357E+00
          2   -1    0    0  501    0  0.00000000000E+00  0.00000000000E+00  0.24170155484E+02  0.24170155484E+02  0.00000000000E+00 0. -1.
         -2   -1    0    0    0  501 -0.00000000000E+00 -0.00000000000E+00 -0.89164313320E+03  0.89164313320E+03  0.00000000000E+00 0.  1.
         25    2    1    2    0    0  0.20320915486E+02  0.91283318452E+02 -0.39245090401E+03  0.42238792322E+03  0.12509301254E+03 0.  0.
          5    1    3    3  502    0 -0.43789142969E+02  0.73455820700E+02 -0.26594193866E+03  0.27938474149E+03  0.41800000000E+01 0.  1.
         -5    1    3    3    0  502  0.64110058455E+02  0.17827497753E+02 -0.12650896535E+03  0.14300318173E+03  0.41800000000E+01 0.  1.
        -11    1    1    2    0    0  0.25458590215E+02 -0.18276725153E+02 -0.44897608715E+02  0.54753755729E+02  0.00000000000E+00 0. -1.
         11    1    1    2    0    0 -0.45779505701E+02 -0.73006593299E+02 -0.43012446499E+03  0.43867160974E+03  0.00000000000E+00 0.  1.
</event>
<event>
 7    1  0.2619826E-009  0.1484957E+03  0.7561462E-02  0.1202334E+00
          3   -1    0    0  501    0  0.00000000000E+00  0.00000000000E+00  0.45727129875E+03  0.45727129875E+03  0.00000000000E+00 0. -1.
         -3   -1    0    0    0  501 -0.00000000000E+00 -0.00000000000E+00 -0.68248680819E+02  0.68248680819E+02  0.00000000000E+00 0.  1.
         25    2    1    2    0    0  0.11214209622E+03 -0.71537114223E+02  0.14645188183E+03  0.23406968828E+03  0.12508819618E+03 0.  0.
          5    1    3    3  502    0  0.56862123492E+02 -0.80516007314E+02  0.27332129404E+02  0.10237502732E+03  0.41800000000E+01 0.  1.
         -5    1    3    3    0  502  0.55279972728E+02  0.89788930907E+01  0.11911975243E+03  0.13169466096E+03  0.41800000000E+01 0.  1.
        -11    1    1    2    0    0 -0.28244242631E+02 -0.49111290284E+01  0.12415341563E+03  0.12742027720E+03  0.00000000000E+00 0. -1.
         11    1    1    2    0    0 -0.83897853590E+02  0.76448243252E+02  0.11841732047E+03  0.16403001408E+03  0.00000000000E+00 0.  1.
</event>
<event>
 7    1  0.2619826E-009  0.2533734E+03  0.7561462E-02  0.1111191E+00
         -2   -1    0    0    0  501 -0.00000000000E+00  0.00000000000E+00  0.91334673278E+03  0.91334673278E+03  0.00000000000E+00 0.  1.
          2   -1    0    0  501    0  0.00000000000E+00 -0.00000000000E+00 -0.80875145096E+02  0.80875145096E+02  0.00000000000E+00 0. -1.
         25    2    1    2    0    0  0.24238764297E+03 -0.41027908849E+02  0.49940358846E+03  0.57051481337E+03  0.12509256311E+03 0.  0.
          5    1    3    3  502    0  0.24045794368E+02 -0.33065507779E+02  0.24754381707E+02  0.47976867813E+02  0.41800000000E+01 0.  1.
         -5    1    3    3    0  502  0.21834184860E+03 -0.79624010702E+01  0.47464920675E+03  0.52253794556E+03  0.41800000000E+01 0.  1.
        -11    1    1    2    0    0 -0.18338996950E+03  0.19947346495E+02  0.17751115687E+03  0.25600778965E+03  0.00000000000E+00 0. -1.
         11    1    1    2    0    0 -0.58997673463E+02  0.21080562354E+02  0.15555684236E+03  0.16769927486E+03  0.00000000000E+00 0.  1.
</event>
<event>
 6    1  0.2619826E-009  0.6294356E+02  0.7561462E-02  0.1385878E+00
         -1   -1    0    0    0  501 -0.00000000000E+00  0.00000000000E+00  0.73798551789E+02  0.73798551789E+02  0.00000000000E+00 0.  1.
          1   -1    0    0  501    0  0.00000000000E+00 -0.00000000000E+00 -0.18208138597E+03  0.18208138597E+03  0.00000000000E+00 0. -1.
          5    1    1    2  502    0 -0.17854176472E+02 -0.10342232785E+02  0.47418711327E+02  0.51881981269E+02  0.41800000000E+01 0.  1.
         -5    1    1    2    0  502 -0.13197571861E+02  0.12148762618E+01 -0.80406469004E+02  0.81598556881E+02  0.41800000000E+01 0.  1.
        -11    1    1    2    0    0  0.49493147052E+02 -0.22468021175E+02 -0.24053454541E+02  0.59438642784E+02  0.00000000000E+00 0.  1.
         11    1    1    2    0    0 -0.18441398719E+02  0.31595377698E+02 -0.51241621963E+02  0.62960756825E+02  0.00000000000E+00 0. -1.
</event>
<event>
 7    1  0.2619826E-009  0.6505863E+02  0.7561462E-02  0.1377751E+00
          1   -1    0    0  501    0  0.00000000000E+00  0.00000000000E+00  0.21761842646E+03  0.21761842646E+03  0.00000000000E+00 0.  1.
         -1   -1    0    0    0  501 -0.00000000000E+00 -0.00000000000E+00 -0.10448970845E+03  0.10448970845E+03  0.00000000000E+00 0. -1.
         25    2    1    2    0    0 -0.36117207110E+02  0.73127685175E+01  0.16446207172E+03  0.20988960766E+03  0.12509174689E+03 0.  0.
          5    1    3    3  502    0 -0.23192239847E+02  0.30429256925E+02  0.17639270286E+03  0.18054273092E+03  0.41800000000E+01 0. -1.
         -5    1    3    3    0  502 -0.12924967263E+02 -0.23116488408E+02 -0.11930631143E+02  0.29346876743E+02  0.41800000000E+01 0. -1.
        -11    1    1    2    0    0  0.22198907482E+02 -0.30530248415E+02  0.14965684084E+02  0.40606148079E+02  0.00000000000E+00 0.  1.
         11    1    1    2    0    0  0.13918299628E+02  0.23217479898E+02 -0.66299037796E+02  0.71612379168E+02  0.00000000000E+00 0. -1.
</event>
<event>
 7    1  0.2619826E-009  0.5841510E+02  0.7561462E-02  0.1404606E+00
          2   -1    0    0  501    0  0.00000000000E+00  0.00000000000E+00  0.49337686347E+03  0.49337686347E+03  0.00000000000E+00 0. -1.
         -2   -1    0    0    0  501 -0.00000000000E+00 -0.00000000000E+00 -0.27262683950E+02  0.27262683950E+02  0.00000000000E+00 0.  1.
         25    2    1    2    0    0 -0.32390913317E+02  0.22711151454E+01  0.19912219747E+03  0.23738385048E+03  0.12508842357E+03 0.  0.
          5    1    3    3  502    0 -0.26465100615E+02  0.12193915186E+02 -0.75149159768E+01  0.30381564809E+02  0.41800000000E+01 0.  1.
         -5    1    3    3    0  502 -0.59258127030E+01 -0.99228000405E+01  0.20663711345E+03  0.20700228567E+03  0.41800000000E+01 0.  1.
        -11    1    1    2    0    0  0.47021052834E+02  0.17789490490E+02  0.24494567549E+03  0.25005165331E+03  0.00000000000E+00 0. -1.
         11    1    1    2    0    0 -0.14630139516E+02 -0.20060605636E+02  0.22046306555E+02  0.33204043631E+02  0.00000000000E+00 0.  1.
</event>
<event>
 7    1  0.2619826E-009  0.9175127E+02  0.7561462E-02  0.1298665E+00
         -2   -1    0    0    0  501 -0.00000000000E+00  0.00000000000E+00  0.18511088619E+02  0.18511088619E+02  0.00000000000E+00 0.  1.
          2   -1    0    0  501    0  0.00000000000E+00 -0.00000000000E+00 -0.67261608239E+03  0.67261608239E+03  0.00000000000E+00 0. -1.
         25    2    1    2    0    0 -0.20375521240E+02  0.10039021151E+02 -0.33557151631E+03  0.35884843255E+03  0.12509201082E+03 0.  0.
          5    1    3    3  502    0 -0.52153374143E+02  0.29786729238E+02 -0.77962058205E+02  0.98502683175E+02  0.41800000000E+01 0. -1.
         -5    1    3    3    0  502  0.31777852903E+02 -0.19747708087E+02 -0.25760945811E+03  0.26034574937E+03  0.41800000000E+01 0. -1.
        -11    1    1    2    0    0  0.27497627290E+02 -0.43487657681E+02 -0.11628546507E+03  0.12715976275E+03  0.00000000000E+00 0.  1.
         11    1    1    2    0    0 -0.71221060499E+01  0.33448636530E+02 -0.20224801239E+03  0.20511897571E+03  0.00000000000E+00 0. -1.
</event>
<event>
 7    1  0.2619826E-009  0.9788774E+02  0.7561462E-02  0.1284801E+00
          2   -1    0    0  501    0  0.00000000000E+00  0.00000000000E+00  0.19068459884E+03  0.19068459884E+03  0.00000000000E+00 0. -1.
         -2   -1    0    0    0  501 -0.00000000000E+00 -0.00000000000E+00 -0.66509367661E+02  0.66509367661E+02  0.00000000000E+00 0.  1.
         25    2    1    2    0    0 -0.51463870120E+01  0.27581574211E+02  0.93037596154E+02  0.15839909862E+03  0.12508817535E+03 0.  0.
          5    1    3    3  502    0 -0.50947030850E+02  0.80905868316E+00 -0.10665005539E+00  0.51124732788E+02  0.41800000000E+01 0. -1.
         -5    1    3    3    0  502  0.45800643838E+02  0.26772515528E+02  0.93144246209E+02  0.10727436584E+03  0.41800000000E+01 0. -1.
        -11    1    1    2    0    0  0.45580412553E+02 -0.71699020391E+01  0.47745882509E+01  0.46387263303E+02  0.00000000000E+00 0.  1.
         11    1    1    2    0    0 -0.40434025541E+02 -0.20411672172E+02  0.26363046779E+02  0.52407604579E+02  0.00000000000E+00 0. -1.
</event>
<event>
 7    1  0.2619826E-009  0.1173829E+03  0.7561462E-02  0.1247478E+00
          1   -1    0    0  501    0  0.00000000000E+00  0.00000000000E+00  0.86531145051E+03  0.86531145051E+03  0.00000000000E+00 0. -1.
         -1   -1    0    0    0  501 -0.00000000000E+00 -0.00000000000E+00 -0.20824411331E+02  0.20824411331E+02  0.00000000000E+00 0.  1.
         25    2    1    2    0    0  0.28846804150E+01  0.33083460437E+02  0.24580797789E+03  0.27779917515E+03  0.12509189816E+03 0.  0.
          5    1    3    3  502    0  0.58563245659E+02  0.39256488984E+02  0.16399442208E+03  0.17855634557E+03  0.41800000000E+01 0. -1.
         -5    1    3    3    0  502 -0.55678565244E+02 -0.61730285467E+01  0.81813555809E+02  0.99242829581E+02  0.41800000000E+01 0. -1.
        -11    1    1    2    0    0  0.48348562066E+02 -0.29426577034E+02  0.31122887422E+03  0.31633355661E+03  0.00000000000E+00 0.  1.
         11    1    1    2    0    0 -0.51233242481E+02 -0.36568834032E+01  0.28745018707E+03  0.29200313008E+03  0.00000000000E+00 0. -1.
</event>
<event>
 7    1  0.2619826E-009  0.7532193E+02  0.7561462E-02  0.1342877E+00
         -4   -1    0    0    0  501 -0.00000000000E+00  0.00000000000E+00  0.10254713858E+03  0.10254713858E+03  0.00000000000E+00 0. -1.
          4   -1    0    0  501    0  0.00000000000E+00 -0.00000000000E+00 -0.11525525391E+03  0.11525525391E+03  0.00000000000E+00 0.  1.
         25    2    1    2    0    0 -0.46656903339E+01  0.17544666670E+02 -0.16731159142E+02  0.12749778595E+03  0.12508465030E+03 0.  0.
          5    1    3    3  502    0 -0.15128346464E+02  0.47183099420E+02 -0.57390969421E+02  0.75936206836E+02  0.41800000000E+01 0. -1.
         -5    1    3    3    0  502  0.10462656131E+02 -0.29638432749E+02  0.40659810279E+02  0.51561579117E+02  0.41800000000E+01 0. -1.
        -11    1    1    2    0    0 -0.29844038671E+02  0.13363187635E+01 -0.26952696390E+02  0.40235559331E+02  0.00000000000E+00 0.  1.
         11    1    1    2    0    0  0.34509729004E+02 -0.18880985434E+02  0.30975740200E+02  0.50069047203E+02  0.00000000000E+00 0. -1.
</event>
<event>
 7    1  0.2619826E-009  0.1210265E+03  0.7561462E-02  0.1241413E+00
          1   -1    0    0  501    0  0.00000000000E+00  0.00000000000E+00  0.47671948179E+03  0.47671948179E+03  0.00000000000E+00 0. -1.
         -1   -1    0    0    0  501 -0.00000000000E+00 -0.00000000000E+00 -0.48118008676E+02  0.48118008676E+02  0.00000000000E+00 0.  1.
         25    2    1    2    0    0  0.17572196025E+02 -0.74608712793E+02  0.35485592883E+03  0.38398612319E+03  0.12508944990E+03 0.  0.
          5    1    3    3  502    0 -0.26983072844E+02  0.24736959787E+02  0.10926135480E+03  0.11530619867E+03  0.41800000000E+01 0. -1.
         -5    1    3    3    0  502  0.44555268869E+02 -0.99345672580E+02  0.24559457403E+03  0.26867992452E+03  0.41800000000E+01 0. -1.
        -11    1    1    2    0    0 -0.29679185534E+02  0.78182245087E+02  0.20462132072E+02  0.86093067954E+02  0.00000000000E+00 0.  1.
         11    1    1    2    0    0  0.12106989509E+02 -0.35735322946E+01  0.53283412207E+02  0.54758299320E+02  0.00000000000E+00 0. -1.
</event>
<event>
 7    1  0.2619826E-009  0.1257380E+03  0.7561462E-02  0.1233920E+00
         -2   -1    0    0    0  501 -0.00000000000E+00  0.00000000000E+00  0.18552045148E+03  0.18552045148E+03  0.00000000000E+00 0.  1.
          2   -1    0    0  501    0  0.00000000000E+00 -0.00000000000E+00 -0.11211789862E+03  0.11211789862E+03  0.00000000000E+00 0. -1.
         25    2    1    2    0    0 -0.53999651983E+02 -0.53508964604E+02  0.77141474529E+01  0.14658253931E+03  0.12509101108E+03 0.  0.
          5    1    3    3  502    0 -0.87285287209E+02 -0.22068031805E+02  0.30655111319E+02  0.95199409877E+02  0.41800000000E+01 0.  1.
         -5    1    3    3    0  502  0.33285635226E+02 -0.31440932798E+02 -0.22940963866E+02  0.51383129437E+02  0.41800000000E+01 0.  1.
        -11    1    1    2    0    0 -0.22230962866E+02 -0.46057325391E-02  0.52468220387E+02  0.56983593093E+02  0.00000000000E+00 0.  1.
         11    1    1    2    0    0  0.76230614849E+02  0.53513570336E+02  0.13220185024E+02  0.94072217697E+02  0.00000000000E+00 0. -1.
</event>
<event>
 7    1  0.2619826E-009  0.1087438E+03  0.7561462E-02  0.1262914E+00
          2   -1    0    0  501    0  0.00000000000E+00  0.00000000000E+00  0.56486445642E+03  0.56486445642E+03  0.00000000000E+00 0. -1.
         -2   -1    0    0    0  501 -0.00000000000E+00 -0.00000000000E+00 -0.22653247054E+02  0.22653247054E+02  0.00000000000E+00 0.  1.
         25    2    1    2    0    0  0.23424463752E+02  0.10651207030E+02  0.27028334587E+03  0.29893816982E+03  0.12509511824E+03 0.  0.
          5    1    3    3  502    0  0.14712721856E+02 -0.55688120056E+02  0.93817944947E+02  0.11016764540E+03  0.41800000000E+01 0.  1.
         -5    1    3    3    0  502  0.87117418955E+01  0.66339327085E+02  0.17646540092E+03  0.18877052442E+03  0.41800000000E+01 0.  1.
        -11    1    1    2    0    0 -0.47708448850E+02  0.21563719817E+02  0.11185935935E+03  0.12350549129E+03  0.00000000000E+00 0.  1.
         11    1    1    2    0    0  0.24283985098E+02 -0.32214926847E+02  0.16006850415E+03  0.16507404237E+03  0.00000000000E+00 0. -1.
</event>
<event>
 7    1  0.2619826E-009  0.1195719E+03  0.7561462E-02  0.1243805E+00
         -1   -1    0    0    0  501 -0.00000000000E+00  0.00000000000E+00  0.54854809304E+02  0.54854809304E+02  0.00000000000E+00 0.  1.
          1   -1    0    0  501    0  0.00000000000E+00 -0.00000000000E+00 -0.29829272433E+03  0.29829272433E+03  0.00000000000E+00 0. -1.
         25    2    1    2    0    0  0.54214282141E+02 -0.30723682040E+02 -0.10310505213E+03  0.17367100369E+03  0.12509129755E+03 0.  0.
          5    1    3    3  502    0 -0.28129714298E+02  0.19335555535E+02 -0.27848586083E+01  0.34501773459E+02  0.41800000000E+01 0.  1.
         -5    1    3    3    0  502  0.82343996439E+02 -0.50059237575E+02 -0.10032019352E+03  0.13916923023E+03  0.41800000000E+01 0.  1.
        -11    1    1    2    0    0 -0.72449465188E+02 -0.13984789362E+00 -0.71079239592E+02  0.10149484157E+03  0.00000000000E+00 0.  1.
         11    1    1    2    0    0  0.18235183048E+02  0.30863529934E+02 -0.69253623300E+02  0.77981688370E+02  0.00000000000E+00 0. -1.
</event>
<event>
 7    1  0.2619826E-009  0.1253900E+03  0.7561462E-02  0.1234461E+00
          4   -1    0    0  501    0  0.00000000000E+00  0.00000000000E+00  0.12777750129E+03  0.12777750129E+03  0.00000000000E+00 0.  1.
         -4   -1    0    0    0  501 -0.00000000000E+00 -0.00000000000E+00 -0.19179242288E+03  0.19179242288E+03  0.00000000000E+00 0. -1.
         25    2    1    2    0    0 -0.49649029161E+02  0.51137139285E+02 -0.12347583899E+03  0.18966797049E+03  0.12509045969E+03 0.  0.
          5    1    3    3  502    0 -0.73461014984E+02 -0.79702212655E+01 -0.38661089799E+02  0.83499685113E+02  0.41800000000E+01 0. -1.
         -5    1    3    3    0  502  0.23811985823E+02  0.59107360551E+02 -0.84814749192E+02  0.10616828538E+03  0.41800000000E+01 0. -1.
        -11    1    1    2    0    0 -0.20337301600E+02  0.74281503987E+01  0.23117952091E+02  0.31673695136E+02  0.00000000000E+00 0.  1.
         11    1    1    2    0    0  0.69986330761E+02 -0.58565289684E+02  0.36342965307E+02  0.98228258543E+02  0.00000000000E+00 0. -1.
</event>
<event>
 7    1  0.2619826E-009  0.1077451E+03  0.7561462E-02  0.1264804E+00
         -2   -1    0    0    0  501 -0.00000000000E+00  0.00000000000E+00  0.43034256386E+02  0.43034256386E+02  0.00000000000E+00 0.  1.
          2   -1    0    0  501    0  0.00000000000E+00 -0.00000000000E+00 -0.32662820040E+03  0.32662820040E+03  0.00000000000E+00 0. -1.
         25    2    1    2    0    0 -0.34395606142E+01 -0.31006571813E+02 -0.21866375793E+03  0.25384114805E+03  0.12509297077E+03 0.  0.
          5    1    3    3  502    0 -0.59366500359E+02 -0.26039973849E+02 -0.73236298058E+02  0.97895297927E+02  0.41800000000E+01 0.  1.
         -5    1    3    3    0  502  0.55926939745E+02 -0.49665979635E+01 -0.14542745987E+03  0.15594585012E+03  0.41800000000E+01 0.  1.
        -11    1    1    2    0    0  0.38086133602E+02 -0.11126241668E+02 -0.38189830066E+02  0.55070953749E+02  0.00000000000E+00 0.  1.
         11    1    1    2    0    0 -0.34646572987E+02  0.42132813481E+02 -0.26740356017E+02  0.60750354991E+02  0.00000000000E+00 0. -1.
</event>
<event>
 7    1  0.2619826E-009  0.1347258E+03  0.7561462E-02  0.1220607E+00
          2   -1    0    0  501    0  0.00000000000E+00  0.00000000000E+00  0.10884701078E+04  0.10884701078E+04  0.00000000000E+00 0. -1.
         -2   -1    0    0    0  501 -0.00000000000E+00 -0.00000000000E+00 -0.24953168760E+02  0.24953168760E+02  0.00000000000E+00 0.  1.
         25    2    1    2    0    0  0.47662692776E+02 -0.53810306634E+02  0.62740953771E+03  0.64378318470E+03  0.12508708767E+03 0.  0.
          5    1    3    3  502    0  0.46210813305E+02  0.62163898757E+00  0.53065682012E+03  0.53268185518E+03  0.41800000000E+01 0.  1.
         -5    1    3    3    0  502  0.14518794708E+01 -0.54431945622E+02  0.96752717594E+02  0.11110132951E+03  0.41800000000E+01 0.  1.
        -11    1    1    2    0    0 -0.94393558320E+02  0.71555487231E+02  0.35627605384E+03  0.37545034045E+03  0.00000000000E+00 0. -1.
         11    1    1    2    0    0  0.46730865545E+02 -0.17745180597E+02  0.79831347468E+02  0.94189751393E+02  0.00000000000E+00 0.  1.
</event>
<event>
 7    1  0.2619826E-009  0.1003561E+03  0.7561462E-02  0.1279549E+00
          2   -1    0    0  501    0  0.00000000000E+00  0.00000000000E+00  0.34680905669E+03  0.34680905669E+03  0.00000000000E+00 0.  1.
         -2   -1    0    0    0  501 -0.00000000000E+00 -0.00000000000E+00 -0.48347385320E+02  0.48347385320E+02  0.00000000000E+00 0. -1.
         25    2    1    2    0    0 -0.60716505583E+02 -0.25439283751E+02  0.12578293643E+03  0.18921542480E+03  0.12508988240E+03 0.  0.
          5    1    3    3  502    0  0.25569825105E+02  0.15426653417E+02  0.75347357821E+02  0.81157219778E+02  0.41800000000E+01 0.  1.
         -5    1    3    3    0  502 -0.86286330688E+02 -0.40865937168E+02  0.50435578605E+02  0.10805820503E+03  0.41800000000E+01 0.  1.
        -11    1    1    2    0    0  0.58232762794E+02  0.96720657727E+01  0.17921978139E+03  0.18869110620E+03  0.00000000000E+00 0.  1.
         11    1    1    2    0    0  0.24837427888E+01  0.15767217978E+02 -0.65410464450E+01  0.17249911003E+02  0.00000000000E+00 0. -1.
</event>
<event>
 7    1  0.2619826E-009  0.1183227E+03  0.7561462E-02  0.1245890E+00
         -2   -1    0    0    0  501 -0.00000000000E+00  0.00000000000E+00  0.33629201050E+03  0.33629201050E+03  0.00000000000E+00 0.  1.
          2   -1    0    0  501    0  0.00000000000E+00 -0.00000000000E+00 -0.61695847284E+02  0.61695847284E+02  0.00000000000E+00 0. -1.
         25    2    1    2    0    0 -0.90244313406E+02  0.39045837318E+02  0.14663341255E+03  0.21637360163E+03  0.12509022461E+03 0.  0.
          5    1    3    3  502    0 -0.85722910648E+02  0.47314339541E+02  0.34697153607E+02  0.10396359461E+03  0.41800000000E+01 0.  1.
         -5    1    3    3    0  502 -0.45214027583E+01 -0.82685022230E+01  0.11193625894E+03  0.11241000702E+03  0.41800000000E+01 0.  1.
        -11    1    1    2    0    0  0.73994884940E+02  0.11821865208E+02  0.82841007659E+02  0.11170332155E+03  0.00000000000E+00 0.  1.
         11    1    1    2    0    0  0.16249428466E+02 -0.50867702525E+02  0.45121743007E+02  0.69910934607E+02  0.00000000000E+00 0. -1.
</event>
<event>
 7    1  0.2619826E-009  0.1305997E+03  0.7561462E-02  0.1226569E+00
          2   -1    0    0  501    0  0.00000000000E+00  0.00000000000E+00  0.24110351258E+03  0.24110351258E+03  0.00000000000E+00 0. -1.
         -2   -1    0    0    0  501 -0.00000000000E+00 -0.00000000000E+00 -0.97413149893E+02  0.97413149893E+02  0.00000000000E+00 0.  1.
         25    2    1    2    0    0  0.58215254921E+02 -0.45126208223E+02 -0.95681391769E+01  0.14551814558E+03  0.12513429119E+03 0.  0.
          5    1    3    3  502    0  0.27650097384E+02  0.43301264599E+02 -0.38363894823E+01  0.51688661092E+02  0.41800000000E+01 0.  1.
         -5    1    3    3    0  502  0.30565157538E+02 -0.88427472822E+02 -0.57317496946E+01  0.93829484489E+02  0.41800000000E+01 0.  1.
        -11    1    1    2    0    0 -0.78291070537E+02  0.14873763927E+02  0.91318010370E+02  0.12120107094E+03  0.00000000000E+00 0.  1.
         11    1    1    2    0    0  0.20075815616E+02  0.30252444296E+02  0.61940491489E+02  0.71797445947E+02  0.00000000000E+00 0. -1.
</event>
<event>
 7    1  0.2619826E-009  0.1680113E+03  0.7561462E-02  0.1179938E+00
         -2   -1    0    0    0  501 -0.00000000000E+00  0.00000000000E+00  0.46749019202E+02  0.46749019202E+02  0.00000000000E+00 0.  1.
          2   -1    0    0  501    0  0.00000000000E+00 -0.00000000000E+00 -0.70652103486E+03  0.70652103486E+03  0.00000000000E+00 0. -1.
         25    2    1    2    0    0  0.33446038812E+02  0.12494413787E+03 -0.20989799336E+03  0.27646806137E+03  0.12509095186E+03 0.  0.
          5    1    3    3  502    0 -0.42840757707E+02  0.80952331978E+02 -0.11140293993E+03  0.14427992930E+03  0.41800000000E+01 0. -1.
         -5    1    3    3    0  502  0.76286796519E+02  0.43991805892E+02 -0.98495053426E+02  0.13218813206E+03  0.41800000000E+01 0. -1.
        -11    1    1    2    0    0  0.30020407495E+02 -0.35282261005E+02 -0.10273724733E+03  0.11269873467E+03  0.00000000000E+00 0.  1.
         11    1    1    2    0    0 -0.63466446306E+02 -0.89661876864E+02 -0.34713677497E+03  0.36410325803E+03  0.00000000000E+00 0. -1.
</event>
<event>
 7    1  0.2619826E-009  0.1169549E+03  0.7561462E-02  0.1248207E+00
         -2   -1    0    0    0  501 -0.00000000000E+00  0.00000000000E+00  0.67713165364E+02  0.67713165364E+02  0.00000000000E+00 0.  1.
          2   -1    0    0  501    0  0.00000000000E+00 -0.00000000000E+00 -0.26879933695E+03  0.26879933695E+03  0.00000000000E+00 0. -1.
         25    2    1    2    0    0  0.22820387842E+02  0.64429714653E+02 -0.16340519766E+03  0.21684257156E+03  0.12508990361E+03 0.  0.
          5    1    3    3  502    0  0.51945957527E+02  0.89681345936E+02 -0.11639407603E+03  0.15590439265E+03  0.41800000000E+01 0.  1.
         -5    1    3    3    0  502 -0.29125569685E+02 -0.25251631283E+02 -0.47011121625E+02  0.60938178906E+02  0.41800000000E+01 0.  1.
        -11    1    1    2    0    0  0.14301569647E+02  0.28388188494E+01  0.19175147005E+02  0.24089002667E+02  0.00000000000E+00 0.  1.
         11    1    1    2    0    0 -0.37121957489E+02 -0.67268533503E+02 -0.56856120940E+02  0.95580928097E+02  0.00000000000E+00 0. -1.
</event>
<event>
 7    1  0.2619826E-009  0.1048388E+03  0.7561462E-02  0.1270438E+00
         -2   -1    0    0    0  501 -0.00000000000E+00  0.00000000000E+00  0.16832045040E+02  0.16832045040E+02  0.00000000000E+00 0.  1.
          2   -1    0    0  501    0  0.00000000000E+00 -0.00000000000E+00 -0.77095502150E+03  0.77095502150E+03  0.00000000000E+00 0. -1.
         25    2    1    2    0    0  0.19350086623E+02 -0.78842947093E+01 -0.34036692057E+03  0.36322666922E+03  0.12508950661E+03 0.  0.
          5    1    3    3  502    0 -0.46204447503E+02  0.10186051878E+02 -0.21856171885E+03  0.22366337199E+03  0.41800000000E+01 0.  1.
         -5    1    3    3    0  502  0.65554534127E+02 -0.18070346587E+02 -0.12180520172E+03  0.13956329724E+03  0.41800000000E+01 0.  1.
        -11    1    1    2    0    0 -0.56499474841E+02  0.29572585409E+01 -0.21611436845E+03  0.22339730590E+03  0.00000000000E+00 0.  1.
         11    1    1    2    0    0  0.37149388218E+02  0.49270361684E+01 -0.19764168745E+03  0.20116309142E+03  0.00000000000E+00 0. -1.
</event>
<event>
 7    1  0.2619826E-009  0.2087810E+03  0.7561462E-02  0.1142535E+00
          2   -1    0    0  501    0  0.00000000000E+00  0.00000000000E+00  0.11140703098E+04  0.11140703098E+04  0.00000000000E+00 0. -1.
         -2   -1    0    0    0  501 -0.00000000000E+00 -0.00000000000E+00 -0.47511498974E+02  0.47511498974E+02  0.00000000000E+00 0.  1.
         25    2    1    2    0    0 -0.15354115745E+03  0.95172303296E+02  0.31738782704E+03  0.38602656204E+03  0.12509524172E+03 0.  0.
          5    1    3    3  502    0  0.15412265597E+02  0.35856884754E+02  0.41735790388E+02  0.57294002430E+02  0.41800000000E+01 0. -1.
         -5    1    3    3    0  502 -0.16895342305E+03  0.59315418542E+02  0.27565203665E+03  0.32873255961E+03  0.41800000000E+01 0. -1.
        -11    1    1    2    0    0  0.95642818632E+02 -0.99365125043E+01  0.40708715768E+03  0.41828965679E+03  0.00000000000E+00 0. -1.
         11    1    1    2    0    0  0.57898338821E+02 -0.85235790791E+02  0.34208382613E+03  0.35726558996E+03  0.00000000000E+00 0.  1.
</event>
<event>
 7    1  0.2619826E-009  0.1106351E+03  0.7561462E-02  0.1259398E+00
         -2   -1    0    0    0  501 -0.00000000000E+00  0.00000000000E+00  0.19892866386E+02  0.19892866386E+02  0.00000000000E+00 0.  1.
          2   -1    0    0  501    0  0.00000000000E+00 -0.00000000000E+00 -0.14460414035E+04  0.14460414035E+04  0.00000000000E+00 0. -1.
         25    2    1    2    0    0 -0.44469041223E+02  0.35443434043E+02 -0.12668154010E+04  0.12742458161E+04  0.12508959566E+03 0.  0.
          5    1    3    3  502    0 -0.42117841123E+02 -0.32350071338E+02 -0.87183142492E+03  0.87345746635E+03  0.41800000000E+01 0.  1.
         -5    1    3    3    0  502 -0.23512000996E+01  0.67793505381E+02 -0.39498397607E+03  0.40078834971E+03  0.41800000000E+01 0.  1.
        -11    1    1    2    0    0  0.48995509748E+02 -0.58632280426E+02 -0.87993495824E+02  0.11653823231E+03  0.00000000000E+00 0.  1.
         11    1    1    2    0    0 -0.45264685250E+01  0.23188846383E+02 -0.71339640299E+02  0.75150221503E+02  0.00000000000E+00 0. -1.
</event>
<event>
 7    1  0.2619826E-009  0.9807818E+02  0.7561462E-02  0.1284390E+00
         -2   -1    0    0    0  501 -0.00000000000E+00  0.00000000000E+00  0.24181934443E+03  0.24181934443E+03  0.00000000000E+00 0. -1.
          2   -1    0    0  501    0  0.00000000000E+00 -0.00000000000E+00 -0.53230272978E+02  0.53230272978E+02  0.00000000000E+00 0.  1.
         25    2    1    2    0    0  0.32082648692E+02  0.12800472167E+02  0.95641450497E+02  0.16120961974E+03  0.12509238989E+03 0.  0.
          5    1    3    3  502    0 -0.29382427716E+02 -0.34635531010E+02  0.60799436562E+02  0.76006519149E+02  0.41800000000E+01 0. -1.
         -5    1    3    3    0  502  0.61465076408E+02  0.47436003177E+02  0.34842013934E+02  0.85203100590E+02  0.41800000000E+01 0. -1.
        -11    1    1    2    0    0 -0.42213023400E+02 -0.30719068231E+02  0.16625083668E+02  0.54790454502E+02  0.00000000000E+00 0.  1.
         11    1    1    2    0    0  0.10130374709E+02  0.17918596064E+02  0.76322537283E+02  0.79049543161E+02  0.00000000000E+00 0. -1.
</event>
<event>
 7    1  0.2619826E-009  0.1554629E+03  0.7561462E-02  0.1193916E+00
          1   -1    0    0  501    0  0.00000000000E+00  0.00000000000E+00  0.30144341991E+03  0.30144341991E+03  0.00000000000E+00 0. -1.
         -1   -1    0    0    0  501 -0.00000000000E+00 -0.00000000000E+00 -0.10090432078E+03  0.10090432078E+03  0.00000000000E+00 0.  1.
         25    2    1    2    0    0  0.11961543104E+03 -0.53405763243E+02  0.62660665544E+02  0.19166116501E+03  0.12509043239E+03 0.  0.
          5    1    3    3  502    0  0.27853886638E+02  0.39786949244E+02  0.61753084257E+01  0.49137024382E+02  0.41800000000E+01 0. -1.
         -5    1    3    3    0  502  0.91761544402E+02 -0.93192712488E+02  0.56485357119E+02  0.14252414062E+03  0.41800000000E+01 0. -1.
        -11    1    1    2    0    0 -0.96518822090E+02  0.38974909437E+02  0.44124320161E+02  0.11305698657E+03  0.00000000000E+00 0.  1.
         11    1    1    2    0    0 -0.23096608950E+02  0.14430853806E+02  0.93754113425E+02  0.97629589115E+02  0.00000000000E+00 0. -1.
</event>
<event>
 7    1  0.2619826E-009  0.1760040E+03  0.7561462E-02  0.1171727E+00
          1   -1    0    0  501    0  0.00000000000E+00  0.00000000000E+00  0.53486277175E+03  0.53486277175E+03  0.00000000000E+00 0. -1.
         -1   -1    0    0    0  501 -0.00000000000E+00 -0.00000000000E+00 -0.61684148214E+02  0.61684148214E+02  0.00000000000E+00 0.  1.
         25    2    1    2    0    0 -0.12019883557E+03  0.84051252542E+02  0.26715795459E+03  0.32943747461E+03  0.12507319397E+03 0.  0.
          5    1    3    3  502    0 -0.89236969632E+02  0.11662594874E+03  0.21586893804E+03  0.26111629493E+03  0.41800000000E+01 0.  1.
         -5    1    3    3    0  502 -0.30961865936E+02 -0.32574696193E+02  0.51289016558E+02  0.68321179687E+02  0.41800000000E+01 0.  1.
        -11    1    1    2    0    0  0.10419003521E+03 -0.37495023138E+02  0.95906329809E+02  0.14649049216E+03  0.00000000000E+00 0.  1.
         11    1    1    2    0    0  0.16008800359E+02 -0.46556229405E+02  0.11011433913E+03  0.12061895319E+03  0.00000000000E+00 0. -1.
</event>
<event>
 7    1  0.3144657E-009  0.8876654E+02  0.7561462E-02  0.1305866E+00
         -2   -1    0    0    0  501 -0.00000000000E+00  0.00000000000E+00  0.30274129320E+02  0.30274129320E+02  0.00000000000E+00 0.  1.
          2   -1    0    0  501    0  0.00000000000E+00 -0.00000000000E+00 -0.53323571357E+03  0.53323571357E+03  0.00000000000E+00 0. -1.
         25    2    1    2    0    0  0.51893447116E+02 -0.40117788934E+02 -0.26431232561E+03  0.29968566774E+03  0.12509247434E+03 0.  0.
          5    1    3    3  502    0  0.36780812067E+02 -0.51259381407E+02 -0.40585061643E+02  0.75133028337E+02  0.41800000000E+01 0. -1.
         -5    1    3    3    0  502  0.15112635049E+02  0.11141592472E+02 -0.22372726397E+03  0.22455263941E+03  0.41800000000E+01 0. -1.
        -11    1    1    2    0    0 -0.47195561683E+01 -0.18919735250E+02 -0.79408879191E+01  0.21054412680E+02  0.00000000000E+00 0.  1.
         11    1    1    2    0    0 -0.47173890947E+02  0.59037524184E+02 -0.23070837071E+03  0.24276976246E+03  0.00000000000E+00 0. -1.
</event>
<event>
 7    1  0.2619826E-009  0.1572008E+03  0.7561462E-02  0.1191894E+00
         -1   -1    0    0    0  501 -0.00000000000E+00  0.00000000000E+00  0.26185273045E+02  0.26185273045E+02  0.00000000000E+00 0.  1.
          1   -1    0    0  501    0  0.00000000000E+00 -0.00000000000E+00 -0.12134092787E+04  0.12134092787E+04  0.00000000000E+00 0. -1.
         25    2    1    2    0    0  0.77332966288E+01 -0.13821129579E+03 -0.53824354042E+03  0.56966219254E+03  0.12508692437E+03 0.  0.
          5    1    3    3  502    0 -0.26546437100E+02 -0.97122272010E+02 -0.47997834142E+03  0.49044278940E+03  0.41800000000E+01 0. -1.
         -5    1    3    3    0  502  0.34279733729E+02 -0.41089023775E+02 -0.58265198996E+02  0.79219403137E+02  0.41800000000E+01 0. -1.
        -11    1    1    2    0    0  0.20720559970E+02  0.12809113955E+03 -0.58450865323E+03  0.59873787866E+03  0.00000000000E+00 0. -1.
         11    1    1    2    0    0 -0.28453856599E+02  0.10120156237E+02 -0.64471812022E+02  0.71194480566E+02  0.00000000000E+00 0.  1.
</event>
<event>
 7    1  0.2619826E-009  0.1030192E+03  0.7561462E-02  0.1274072E+00
         -1   -1    0    0    0  501 -0.00000000000E+00  0.00000000000E+00  0.99661889892E+02  0.99661889892E+02  0.00000000000E+00 0.  1.
          1   -1    0    0  501    0  0.00000000000E+00 -0.00000000000E+00 -0.17224938272E+03  0.17224938272E+03  0.00000000000E+00 0. -1.
         25    2    1    2    0    0  0.42271218050E+02 -0.27906232610E+02  0.15596542658E+02  0.13585400658E+03  0.12508974885E+03 0.  0.
          5    1    3    3  502    0  0.77445030277E+02 -0.20480681017E+02  0.42480299086E+02  0.90770255150E+02  0.41800000000E+01 0.  1.
         -5    1    3    3    0  502 -0.35173812228E+02 -0.74255515936E+01 -0.26883756428E+02  0.45083751428E+02  0.41800000000E+01 0.  1.
        -11    1    1    2    0    0  0.21203014899E+02  0.11272539422E+02  0.24781544618E+01  0.24140820934E+02  0.00000000000E+00 0.  1.
         11    1    1    2    0    0 -0.63474232949E+02  0.16633693188E+02 -0.90662189945E+02  0.11191644510E+03  0.00000000000E+00 0. -1.
</event>
<event>
 7    1  0.2619826E-009  0.1253058E+03  0.7561462E-02  0.1234592E+00
          1   -1    0    0  501    0  0.00000000000E+00  0.00000000000E+00  0.89423221207E+02  0.89423221207E+02  0.00000000000E+00 0. -1.
         -1   -1    0    0    0  501 -0.00000000000E+00 -0.00000000000E+00 -0.21312746535E+03  0.21312746535E+03  0.00000000000E+00 0.  1.
         25    2    1    2    0    0 -0.77254239334E+02  0.29403208049E+02 -0.46998497652E+02  0.15712512621E+03  0.12508669140E+03 0.  0.
          5    1    3    3  502    0  0.19166842335E+02  0.23184496447E+02 -0.52070792257E+02  0.60280415783E+02  0.41800000000E+01 0. -1.
         -5    1    3    3    0  502 -0.96421081670E+02  0.62187116022E+01  0.50722946051E+01  0.96844710423E+02  0.41800000000E+01 0. -1.
        -11    1    1    2    0    0  0.10568566089E+02  0.31495138515E+02 -0.21839038089E+02  0.39756533097E+02  0.00000000000E+00 0.  1.
         11    1    1    2    0    0  0.66685673245E+02 -0.60898346565E+02 -0.54866708405E+02  0.10566902726E+03  0.00000000000E+00 0. -1.
</event>
<event>
 7    1  0.2619826E-009  0.1958096E+03  0.7561462E-02  0.1153323E+00
          1   -1    0    0  501    0  0.00000000000E+00  0.00000000000E+00  0.10381681186E+04  0.10381681186E+04  0.00000000000E+00 0. -1.
         -1   -1    0    0    0  501 -0.00000000000E+00 -0.00000000000E+00 -0.43421783194E+02  0.43421783194E+02  0.00000000000E+00 0.  1.
         25    2    1    2    0    0 -0.10871347166E+03 -0.14579426727E+03  0.49608421904E+03  0.54296857577E+03  0.12506292258E+03 0.  0.
          5    1    3    3  502    0 -0.86966954676E+02 -0.14205135519E+03  0.49288456972E+03  0.52028310581E+03  0.41800000000E+01 0.  1.
         -5    1    3    3    0  502 -0.21746516982E+02 -0.37429120778E+01  0.31996493174E+01  0.22685469962E+02  0.41800000000E+01 0.  1.
        -11    1    1    2    0    0  0.13196685206E+02  0.91968406519E+02  0.25605757026E+03  0.27239276713E+03  0.00000000000E+00 0. -1.
         11    1    1    2    0    0  0.95516786452E+02  0.53825860752E+02  0.24260454612E+03  0.26622855891E+03  0.00000000000E+00 0.  1.
</event>
<event>
 7    1  0.2619826E-009  0.8786114E+02  0.7561462E-02  0.1308115E+00
          3   -1    0    0  501    0  0.00000000000E+00  0.00000000000E+00  0.34787988718E+02  0.34787988718E+02  0.00000000000E+00 0. -1.
         -3   -1    0    0    0  501 -0.00000000000E+00 -0.00000000000E+00 -0.41005409086E+03  0.41005409086E+03  0.00000000000E+00 0.  1.
         25    2    1    2    0    0 -0.35342021548E+02 -0.18108972249E+02 -0.17070489984E+03  0.21532509132E+03  0.12509092197E+03 0.  0.
          5    1    3    3  502    0  0.35963289425E+02 -0.34711115045E+02 -0.10705767899E+03  0.11822452675E+03  0.41800000000E+01 0.  1.
         -5    1    3    3    0  502 -0.71305310973E+02  0.16602142796E+02 -0.63647220843E+02  0.97100564568E+02  0.41800000000E+01 0.  1.
        -11    1    1    2    0    0  0.31192151138E+02  0.27742540862E+02 -0.21237396811E+03  0.21643775364E+03  0.00000000000E+00 0.  1.
         11    1    1    2    0    0  0.41498704097E+01 -0.96335686134E+01  0.78127658114E+01  0.13079234621E+02  0.00000000000E+00 0. -1.
</event>
<event>
 7    1  0.2619826E-009  0.1136303E+03  0.7561462E-02  0.1253991E+00
         -1   -1    0    0    0  501 -0.00000000000E+00  0.00000000000E+00  0.15243477500E+03  0.15243477500E+03  0.00000000000E+00 0.  1.
          1   -1    0    0  501    0  0.00000000000E+00 -0.00000000000E+00 -0.15321758128E+03  0.15321758128E+03  0.00000000000E+00 0. -1.
         25    2    1    2    0    0 -0.32923202705E+02  0.52188780561E+02 -0.76392819130E+02  0.15902270542E+03  0.12507898277E+03 0.  0.
          5    1    3    3  502    0  0.66633646849E+01  0.69435660063E+02  0.14641231159E+01  0.69895116952E+02  0.41800000000E+01 0.  1.
         -5    1    3    3    0  502 -0.39586567390E+02 -0.17246879502E+02 -0.77856942246E+02  0.89127588468E+02  0.41800000000E+01 0.  1.
        -11    1    1    2    0    0  0.35537955663E+02  0.20657284400E+02 -0.68376651912E+00  0.41111278600E+02  0.00000000000E+00 0. -1.
         11    1    1    2    0    0 -0.26147529582E+01 -0.72846064961E+02  0.76293779369E+02  0.10551837226E+03  0.00000000000E+00 0.  1.
</event>
<event>
 7    1  0.2619826E-009  0.7407892E+02  0.7561462E-02  0.1346747E+00
          2   -1    0    0  501    0  0.00000000000E+00  0.00000000000E+00  0.30506207790E+03  0.30506207790E+03  0.00000000000E+00 0. -1.
         -2   -1    0    0    0  501 -0.00000000000E+00 -0.00000000000E+00 -0.40690939222E+02  0.40690939222E+02  0.00000000000E+00 0.  1.
         25    2    1    2    0    0  0.10543213865E+02 -0.87337097317E+01  0.14974900570E+03  0.19556555094E+03  0.12503472702E+03 0.  0.
          5    1    3    3  502    0 -0.35786690628E+02 -0.23156708923E+02  0.13932529306E+03  0.14575983699E+03  0.41800000000E+01 0. -1.
         -5    1    3    3    0  502  0.46329904493E+02  0.14422999192E+02  0.10423712637E+02  0.49805713941E+02  0.41800000000E+01 0. -1.
        -11    1    1    2    0    0 -0.19584752367E+00 -0.23126291726E+02 -0.68987169818E+01  0.24134125657E+02  0.00000000000E+00 0.  1.
         11    1    1    2    0    0 -0.10347366341E+02  0.31860001458E+02  0.12152084996E+03  0.12605334053E+03  0.00000000000E+00 0. -1.
</event>
<event>
 7    1  0.2619826E-009  0.1300593E+03  0.7561462E-02  0.1227368E+00
         -1   -1    0    0    0  501 -0.00000000000E+00  0.00000000000E+00  0.23545892870E+02  0.23545892870E+02  0.00000000000E+00 0.  1.
          1   -1    0    0  501    0  0.00000000000E+00 -0.00000000000E+00 -0.89543734784E+03  0.89543734784E+03  0.00000000000E+00 0. -1.
         25    2    1    2    0    0 -0.94970539609E+02 -0.11910277998E+01 -0.42764345113E+03  0.45557438593E+03  0.12509307689E+03 0.  0.
          5    1    3    3  502    0  0.29011792637E+02  0.12152753071E+02 -0.72069353642E+02  0.78745397666E+02  0.41800000000E+01 0.  1.
         -5    1    3    3    0  502 -0.12398233225E+03 -0.13343780871E+02 -0.35557409748E+03  0.37682898827E+03  0.41800000000E+01 0.  1.
        -11    1    1    2    0    0  0.28918984845E+02 -0.18938743398E+02 -0.38149749743E+02  0.51481910332E+02  0.00000000000E+00 0.  1.
         11    1    1    2    0    0  0.66051554764E+02  0.20129771198E+02 -0.40609825410E+03  0.41192694444E+03  0.00000000000E+00 0. -1.
</event>
<event>
 7    1  0.2619826E-009  0.2369306E+03  0.7561462E-02  0.1121855E+00
          2   -1    0    0  501    0  0.00000000000E+00  0.00000000000E+00  0.12000373149E+04  0.12000373149E+04  0.00000000000E+00 0. -1.
         -2   -1    0    0    0  501 -0.00000000000E+00 -0.00000000000E+00 -0.71289737128E+02  0.71289737128E+02  0.00000000000E+00 0.  1.
         25    2    1    2    0    0 -0.18082974301E+03 -0.14431924876E+03  0.27054502376E+03  0.37731846610E+03  0.12508866240E+03 0.  0.
          5    1    3    3  502    0 -0.27130703096E+02 -0.25805376706E+02 -0.72962042012E+01  0.38375767265E+02  0.41800000000E+01 0. -1.
         -5    1    3    3    0  502 -0.15369903992E+03 -0.11851387205E+03  0.27784122796E+03  0.33894269884E+03  0.41800000000E+01 0. -1.
        -11    1    1    2    0    0  0.14505017448E+02  0.47362946491E+02  0.98005910239E+02  0.10981257976E+03  0.00000000000E+00 0.  1.
         11    1    1    2    0    0  0.16632472557E+03  0.96956302267E+02  0.76019664378E+03  0.78419600618E+03  0.00000000000E+00 0. -1.
</event>
<event>
 7    1  0.2619826E-009  0.1042186E+03  0.7561462E-02  0.1271667E+00
         -2   -1    0    0    0  501 -0.00000000000E+00  0.00000000000E+00  0.31310752559E+02  0.31310752559E+02  0.00000000000E+00 0.  1.
          2   -1    0    0  501    0  0.00000000000E+00 -0.00000000000E+00 -0.49830998038E+03  0.49830998038E+03  0.00000000000E+00 0. -1.
         25    2    1    2    0    0 -0.49815649876E+02 -0.19969161176E+02 -0.20583137035E+03  0.24676805017E+03  0.12509017226E+03 0.  0.
          5    1    3    3  502    0 -0.83807631126E+02 -0.26565056073E+02 -0.18802947883E+03  0.20761016003E+03  0.41800000000E+01 0. -1.
         -5    1    3    3    0  502  0.33991981250E+02  0.65958948971E+01 -0.17801891517E+02  0.39157890142E+02  0.41800000000E+01 0. -1.
        -11    1    1    2    0    0 -0.14350346532E+02  0.15648140564E+02 -0.97930935506E+01  0.23381647289E+02  0.00000000000E+00 0.  1.
         11    1    1    2    0    0  0.64165996407E+02  0.43210206122E+01 -0.25137476393E+03  0.25947103548E+03  0.00000000000E+00 0. -1.
</event>
<event>
 7    1  0.2619826E-009  0.1420496E+03  0.7561462E-02  0.1210597E+00
          1   -1    0    0  501    0  0.00000000000E+00  0.00000000000E+00  0.37300618803E+03  0.37300618803E+03  0.00000000000E+00 0. -1.
         -1   -1    0    0    0  501 -0.00000000000E+00 -0.00000000000E+00 -0.59060351342E+02  0.59060351342E+02  0.00000000000E+00 0.  1.
         25    2    1    2    0    0  0.92282767816E+02  0.46255834190E+02  0.18841423149E+03  0.24860223725E+03  0.12508972102E+03 0.  0.
          5    1    3    3  502    0  0.53960496954E+02 -0.39855422591E+02  0.89235148183E+02  0.11171648944E+03  0.41800000000E+01 0. -1.
         -5    1    3    3    0  502  0.38322270862E+02  0.86111256781E+02  0.99179083307E+02  0.13688574781E+03  0.41800000000E+01 0. -1.
        -11    1    1    2    0    0 -0.16739334979E+02  0.17111813864E+02  0.61244961316E+02  0.65756861207E+02  0.00000000000E+00 0. -1.
         11    1    1    2    0    0 -0.75543432837E+02 -0.63367648054E+02  0.64286643880E+02  0.11770744091E+03  0.00000000000E+00 0.  1.
</event>
<event>
 7    1  0.2765222E-009  0.1426162E+03  0.7561462E-02  0.1209851E+00
          2   -1    0    0  501    0  0.00000000000E+00  0.00000000000E+00  0.27919233467E+03  0.27919233467E+03  0.00000000000E+00 0. -1.
         -2   -1    0    0    0  501 -0.00000000000E+00 -0.00000000000E+00 -0.11002688357E+03  0.11002688357E+03  0.00000000000E+00 0.  1.
         25    2    1    2    0    0 -0.27560810791E+02 -0.12251139708E+03  0.15046258774E+03  0.23249827466E+03  0.12509123353E+03 0.  0.
          5    1    3    3  502    0 -0.35785539316E+02 -0.11488257247E+03  0.17075730965E+03  0.20893573529E+03  0.41800000000E+01 0. -1.
         -5    1    3    3    0  502  0.82247285248E+01 -0.76288246051E+01 -0.20294721912E+02  0.23562539372E+02  0.41800000000E+01 0. -1.
        -11    1    1    2    0    0  0.58003373841E+02  0.60687493275E+02  0.24810768404E+02  0.87538205635E+02  0.00000000000E+00 0. -1.
         11    1    1    2    0    0 -0.30442563050E+02  0.61823903801E+02 -0.61079050460E+01  0.69182737950E+02  0.00000000000E+00 0.  1.
</event>
<event>
 7    1  0.2619826E-009  0.1456859E+03  0.7561462E-02  0.1205877E+00
          2   -1    0    0  501    0  0.00000000000E+00  0.00000000000E+00  0.14519117814E+03  0.14519117814E+03  0.00000000000E+00 0. -1.
         -2   -1    0    0    0  501 -0.00000000000E+00 -0.00000000000E+00 -0.21881111534E+03  0.21881111534E+03  0.00000000000E+00 0.  1.
         25    2    1    2    0    0  0.12143198458E+03 -0.61783003995E+02 -0.24850966320E+01  0.18497736479E+03  0.12509030065E+03 0.  0.
          5    1    3    3  502    0  0.39133352499E+02 -0.22657383025E+02 -0.61411903744E+02  0.76378469511E+02  0.41800000000E+01 0.  1.
         -5    1    3    3    0  502  0.82298632083E+02 -0.39125620970E+02  0.58926807112E+02  0.10859889528E+03  0.41800000000E+01 0.  1.
        -11    1    1    2    0    0 -0.14560641739E+02  0.44064784428E+02 -0.50792955695E+02  0.68801467011E+02  0.00000000000E+00 0. -1.
         11    1    1    2    0    0 -0.10687134284E+03  0.17718219567E+02 -0.20341884866E+02  0.11022346168E+03  0.00000000000E+00 0.  1.
</event>
<event>
 7    1  0.2619826E-009  0.1050959E+03  0.7561462E-02  0.1269931E+00
         -1   -1    0    0    0  501 -0.00000000000E+00  0.00000000000E+00  0.56079682299E+03  0.56079682299E+03  0.00000000000E+00 0.  1.
          1   -1    0    0  501    0  0.00000000000E+00 -0.00000000000E+00 -0.30432250858E+02  0.30432250858E+02  0.00000000000E+00 0. -1.
         25    2    1    2    0    0 -0.69943418666E+02 -0.11359371386E+02  0.32663352187E+03  0.35687331935E+03  0.12509193147E+03 0.  0.
          5    1    3    3  502    0  0.13108535913E+02 -0.59912908103E+01 -0.42991920409E+01  0.15610404593E+02  0.41800000000E+01 0. -1.
         -5    1    3    3    0  502 -0.83051954579E+02 -0.53680805761E+01  0.33093271391E+03  0.34126291475E+03  0.41800000000E+01 0. -1.
        -11    1    1    2    0    0 -0.59747865804E+01  0.32502872512E+02  0.90956515925E+02  0.96774080132E+02  0.00000000000E+00 0. -1.
         11    1    1    2    0    0  0.75918205246E+02 -0.21143501126E+02  0.11277453434E+03  0.13758167437E+03  0.00000000000E+00 0.  1.
</event>
<event>
 7    1  0.2619826E-009  0.1388607E+03  0.7561462E-02  0.1214870E+00
          1   -1    0    0  501    0  0.00000000000E+00  0.00000000000E+00  0.24641192277E+03  0.24641192277E+03  0.00000000000E+00 0. -1.
         -1   -1    0    0    0  501 -0.00000000000E+00 -0.00000000000E+00 -0.10982416656E+03  0.10982416656E+03  0.00000000000E+00 0.  1.
         25    2    1    2    0    0 -0.31300058571E+02 -0.10663928138E+03  0.13106652132E+03  0.21254894504E+03  0.12508793318E+03 0.  0.
          5    1    3    3  502    0  0.44270102557E+02 -0.13635325461E+02  0.27003431919E+02  0.53781240374E+02  0.41800000000E+01 0. -1.
         -5    1    3    3    0  502 -0.75570161128E+02 -0.93003955915E+02  0.10406308940E+03  0.15876770467E+03  0.41800000000E+01 0. -1.
        -11    1    1    2    0    0  0.23287672436E+02  0.87668248351E+02  0.43412021512E+02  0.10056162821E+03  0.00000000000E+00 0. -1.
         11    1    1    2    0    0  0.80123861353E+01  0.18971033025E+02 -0.37890786631E+02  0.43125516079E+02  0.00000000000E+00 0.  1.
</event>
<event>
 7    1  0.2619826E-009  0.9771056E+02  0.7561462E-02  0.1285185E+00
         -2   -1    0    0    0  501 -0.00000000000E+00  0.00000000000E+00  0.34015438595E+02  0.34015438595E+02  0.00000000000E+00 0.  1.
          2   -1    0    0  501    0  0.00000000000E+00 -0.00000000000E+00 -0.56225416971E+03  0.56225416971E+03  0.00000000000E+00 0. -1.
         25    2    1    2    0    0 -0.46100863004E+02 -0.56641646226E+02 -0.23971103495E+03  0.28007587769E+03  0.12509017280E+03 0.  0.
          5    1    3    3  502    0 -0.50518540018E+02 -0.75187310864E+02 -0.24381498443E+03  0.26013164674E+03  0.41800000000E+01 0. -1.
         -5    1    3    3    0  502  0.44176770141E+01  0.18545664638E+02  0.41039494833E+01  0.19944230956E+02  0.41800000000E+01 0. -1.
        -11    1    1    2    0    0 -0.44402906556E+00  0.33030206240E+02 -0.12569977450E+02  0.35343967224E+02  0.00000000000E+00 0.  1.
         11    1    1    2    0    0  0.46544892070E+02  0.23611439986E+02 -0.27595771872E+03  0.28084976339E+03  0.00000000000E+00 0. -1.
</event>
<event>
 7    1  0.2619826E-009  0.8544000E+02  0.7561462E-02  0.1314286E+00
          3   -1    0    0  501    0  0.00000000000E+00  0.00000000000E+00  0.25924180821E+03  0.25924180821E+03  0.00000000000E+00 0. -1.
         -3   -1    0    0    0  501 -0.00000000000E+00 -0.00000000000E+00 -0.13140594992E+03  0.13140594992E+03  0.00000000000E+00 0.  1.
         25    2    1    2    0    0 -0.55133043814E+02  0.14707598508E+02  0.21193615409E+03  0.25262788724E+03  0.12509176642E+03 0.  0.
          5    1    3    3  502    0 -0.20790754637E+02 -0.20916952493E+02 -0.48921778685E+01  0.30185761284E+02  0.41800000000E+01 0. -1.
         -5    1    3    3    0  502 -0.34342289176E+02  0.35624551001E+02  0.21682833196E+03  0.22244212596E+03  0.41800000000E+01 0. -1.
        -11    1    1    2    0    0  0.28991364492E+02  0.28679936441E+02 -0.76646437999E+02  0.86820011675E+02  0.00000000000E+00 0.  1.
         11    1    1    2    0    0  0.26141679321E+02 -0.43387534949E+02 -0.74538578110E+01  0.51199859209E+02  0.00000000000E+00 0. -1.
</event>
<event>
 7    1  0.2619826E-009  0.8767271E+02  0.7561462E-02  0.1308587E+00
          1   -1    0    0  501    0  0.00000000000E+00  0.00000000000E+00  0.49989792720E+02  0.49989792720E+02  0.00000000000E+00 0. -1.
         -1   -1    0    0    0  501 -0.00000000000E+00 -0.00000000000E+00 -0.25249126477E+03  0.25249126477E+03  0.00000000000E+00 0.  1.
         25    2    1    2    0    0  0.58095122398E+01 -0.97834102064E+01 -0.76129752458E+02  0.14687882080E+03  0.12509269859E+03 0.  0.
          5    1    3    3  502    0  0.60934607911E+02 -0.28172821033E+02 -0.43488799042E+02  0.80096706102E+02  0.41800000000E+01 0. -1.
         -5    1    3    3    0  502 -0.55125095671E+02  0.18389410826E+02 -0.32640953416E+02  0.66782114695E+02  0.41800000000E+01 0. -1.
        -11    1    1    2    0    0  0.21255267111E+02  0.79548958911E+01  0.34685213773E+01  0.22958601637E+02  0.00000000000E+00 0. -1.
         11    1    1    2    0    0 -0.27064779351E+02  0.18285143154E+01 -0.12984024097E+03  0.13264363506E+03  0.00000000000E+00 0.  1.
</event>
<event>
 7    1  0.2619826E-009  0.1679548E+03  0.7561462E-02  0.1179998E+00
          2   -1    0    0  501    0  0.00000000000E+00  0.00000000000E+00  0.11864109715E+04  0.11864109715E+04  0.00000000000E+00 0. -1.
         -2   -1    0    0    0  501 -0.00000000000E+00 -0.00000000000E+00 -0.28885643361E+02  0.28885643361E+02  0.00000000000E+00 0.  1.
         25    2    1    2    0    0  0.10767852119E+03 -0.91923354450E+02  0.44987127773E+03  0.48793244693E+03  0.12509731900E+03 0.  0.
          5    1    3    3  502    0  0.60615278906E+01  0.17955227470E+02  0.16476493498E+03  0.16590385322E+03  0.41800000000E+01 0.  1.
         -5    1    3    3    0  502  0.10161699330E+03 -0.10987858192E+03  0.28510634275E+03  0.32202859371E+03  0.41800000000E+01 0.  1.
        -11    1    1    2    0    0 -0.64107048476E+02 -0.10376420040E+01  0.22783878346E+03  0.23668819492E+03  0.00000000000E+00 0.  1.
         11    1    1    2    0    0 -0.43571472710E+02  0.92960996454E+02  0.47981526694E+03  0.49067597300E+03  0.00000000000E+00 0. -1.
</event>
<event>
 7    1  0.2619826E-009  0.1266134E+03  0.7561462E-02  0.1232569E+00
          1   -1    0    0  501    0  0.00000000000E+00  0.00000000000E+00  0.22122737022E+03  0.22122737022E+03  0.00000000000E+00 0. -1.
         -1   -1    0    0    0  501 -0.00000000000E+00 -0.00000000000E+00 -0.11591800494E+03  0.11591800494E+03  0.00000000000E+00 0.  1.
         25    2    1    2    0    0 -0.64525019743E+01 -0.96333722247E+02  0.12249590637E+03  0.19993515586E+03  0.12508796365E+03 0.  0.
          5    1    3    3  502    0 -0.30054860807E+01 -0.11941492114E+03  0.61344643323E+02  0.13434877745E+03  0.41800000000E+01 0. -1.
         -5    1    3    3    0  502 -0.34470158935E+01  0.23081198897E+02  0.61151263044E+02  0.65586378410E+02  0.41800000000E+01 0. -1.
        -11    1    1    2    0    0 -0.22613201531E+02  0.29982618955E+02 -0.45885518260E+02  0.59294140595E+02  0.00000000000E+00 0.  1.
         11    1    1    2    0    0  0.29065703505E+02  0.66351103292E+02  0.28698977175E+02  0.77916078695E+02  0.00000000000E+00 0. -1.
</event>
<event>
 7    1  0.2619826E-009  0.9761682E+02  0.7561462E-02  0.1285389E+00
         -1   -1    0    0    0  501 -0.00000000000E+00  0.00000000000E+00  0.86663610211E+01  0.86663610211E+01  0.00000000000E+00 0.  1.
          1   -1    0    0  501    0  0.00000000000E+00 -0.00000000000E+00 -0.14957572494E+04  0.14957572494E+04  0.00000000000E+00 0. -1.
         25    2    1    2    0    0  0.13183045646E+01 -0.20655476334E+02 -0.10586407670E+04  0.10662068340E+04  0.12509337532E+03 0.  0.
          5    1    3    3  502    0 -0.47395409913E+02  0.62279419764E+01 -0.19694395436E+03  0.20270546539E+03  0.41800000000E+01 0. -1.
         -5    1    3    3    0  502  0.48713714478E+02 -0.26883418311E+02 -0.86169681268E+03  0.86350136858E+03  0.41800000000E+01 0. -1.
        -11    1    1    2    0    0 -0.14209150581E+02 -0.33180201173E+02 -0.14624414207E+03  0.15063258213E+03  0.00000000000E+00 0.  1.
         11    1    1    2    0    0  0.12890846017E+02  0.53835677508E+02 -0.28220597932E+03  0.28758419436E+03  0.00000000000E+00 0. -1.
</event>
<event>
 7    1  0.2619826E-009  0.9372088E+02  0.7561462E-02  0.1294083E+00
         -1   -1    0    0    0  501 -0.00000000000E+00  0.00000000000E+00  0.24099064751E+02  0.24099064751E+02  0.00000000000E+00 0.  1.
          1   -1    0    0  501    0  0.00000000000E+00 -0.00000000000E+00 -0.48100559828E+03  0.48100559828E+03  0.00000000000E+00 0. -1.
         25    2    1    2    0    0  0.19520056564E+01 -0.42513278322E+00 -0.25162845134E+03  0.28101466214E+03  0.12509345207E+03 0.  0.
          5    1    3    3  502    0 -0.50216375387E+02  0.29720261227E+02 -0.16771942614E+03  0.17762954875E+03  0.41800000000E+01 0.  1.
         -5    1    3    3    0  502  0.52168381044E+02 -0.30145394010E+02 -0.83909025205E+02  0.10338511339E+03  0.41800000000E+01 0.  1.
        -11    1    1    2    0    0  0.67711534225E+01 -0.33159812102E+02 -0.29427495259E+02  0.44848624667E+02  0.00000000000E+00 0.  1.
         11    1    1    2    0    0 -0.87231590788E+01  0.33584944885E+02 -0.17585058693E+03  0.17924137622E+03  0.00000000000E+00 0. -1.
</event>
<event>
 7    1  0.2689700E-009  0.1027605E+03  0.7561462E-02  0.1274596E+00
          1   -1    0    0  501    0  0.00000000000E+00  0.00000000000E+00  0.53684461560E+03  0.53684461560E+03  0.00000000000E+00 0. -1.
         -1   -1    0    0    0  501 -0.00000000000E+00 -0.00000000000E+00 -0.35769083148E+02  0.35769083148E+02  0.00000000000E+00 0.  1.
         25    2    1    2    0    0  0.54708171581E+02 -0.61844500689E+02  0.22661526451E+03  0.27169659852E+03  0.12508731844E+03 0.  0.
          5    1    3    3  502    0  0.38523190243E+02 -0.59747200818E+02  0.23989709499E+03  0.25024358688E+03  0.41800000000E+01 0.  1.
         -5    1    3    3    0  502  0.16184981338E+02 -0.20972998713E+01 -0.13281830475E+02  0.21453011640E+02  0.41800000000E+01 0.  1.
        -11    1    1    2    0    0 -0.53710399953E+02 -0.18661144245E+01  0.80775290177E+02  0.97020291431E+02  0.00000000000E+00 0.  1.
         11    1    1    2    0    0 -0.99777162729E+00  0.63710615114E+02  0.19368497776E+03  0.20389680879E+03  0.00000000000E+00 0. -1.
</event>
<event>
 6    1  0.2619826E-009  0.1141618E+03  0.7561462E-02  0.1253051E+00
          2   -1    0    0  501    0  0.00000000000E+00  0.00000000000E+00  0.53899079480E+03  0.53899079480E+03  0.00000000000E+00 0. -1.
         -2   -1    0    0    0  501 -0.00000000000E+00 -0.00000000000E+00 -0.30257802259E+02  0.30257802259E+02  0.00000000000E+00 0.  1.
          5    1    1    2  502    0  0.35362658893E+02 -0.94344958036E+01  0.11117000127E+03  0.11711434130E+03  0.41800000000E+01 0. -1.
         -5    1    1    2    0  502 -0.99711383757E+02 -0.97916340101E+01  0.15483258951E+03  0.18446907416E+03  0.41800000000E+01 0. -1.
        -11    1    1    2    0    0  0.64303510103E+00  0.27019604986E+02  0.14682230929E+02  0.30757770608E+02  0.00000000000E+00 0.  1.
         11    1    1    2    0    0  0.63705689763E+02 -0.77934751721E+01  0.22804817083E+03  0.23690741099E+03  0.00000000000E+00 0. -1.
</event>
<event>
 7    1  0.2619826E-009  0.2072520E+03  0.7561462E-02  0.1143761E+00
         -1   -1    0    0    0  501 -0.00000000000E+00  0.00000000000E+00  0.61905053245E+03  0.61905053245E+03  0.00000000000E+00 0.  1.
          1   -1    0    0  501    0  0.00000000000E+00 -0.00000000000E+00 -0.75256556459E+02  0.75256556459E+02  0.00000000000E+00 0. -1.
         25    2    1    2    0    0  0.12071543664E+03 -0.13228385054E+03  0.36371916093E+03  0.42427588931E+03  0.12508864242E+03 0.  0.
          5    1    3    3  502    0  0.97352902828E+02 -0.20217874763E+02  0.21174269620E+03  0.23396322776E+03  0.41800000000E+01 0.  1.
         -5    1    3    3    0  502  0.23362533812E+02 -0.11206597578E+03  0.15197646473E+03  0.19031266155E+03  0.41800000000E+01 0.  1.
        -11    1    1    2    0    0 -0.12687765303E+02  0.78941528909E+02  0.60292849410E+02  0.10013976266E+03  0.00000000000E+00 0.  1.
         11    1    1    2    0    0 -0.10802767134E+03  0.53342321635E+02  0.11978196564E+03  0.16989143694E+03  0.00000000000E+00 0. -1.
</event>
<event>
 7    1  0.2619826E-009  0.2501829E+03  0.7561462E-02  0.1113189E+00
          2   -1    0    0  501    0  0.00000000000E+00  0.00000000000E+00  0.69206549705E+03  0.69206549705E+03  0.00000000000E+00 0. -1.
         -2   -1    0    0    0  501 -0.00000000000E+00 -0.00000000000E+00 -0.14139511791E+03  0.14139511791E+03  0.00000000000E+00 0.  1.
         25    2    1    2    0    0 -0.13221171443E+03 -0.18403449860E+03  0.33184379596E+02  0.26095526200E+03  0.12509121315E+03 0.  0.
          5    1    3    3  502    0 -0.11640534026E+03 -0.60003544917E+02  0.35779515269E+02  0.13582442621E+03  0.41800000000E+01 0.  1.
         -5    1    3    3    0  502 -0.15806374174E+02 -0.12403095368E+03 -0.25951356722E+01  0.12513083579E+03  0.41800000000E+01 0.  1.
        -11    1    1    2    0    0  0.14130002839E+03  0.13870078655E+03  0.40225254885E+03  0.44834218993E+03  0.00000000000E+00 0.  1.
         11    1    1    2    0    0 -0.90883139613E+01  0.45333712043E+02  0.11523345069E+03  0.12416316304E+03  0.00000000000E+00 0. -1.
</event>
<event>
 7    1  0.2619826E-009  0.1409624E+03  0.7561462E-02  0.1212040E+00
         -2   -1    0    0    0  501 -0.00000000000E+00  0.00000000000E+00  0.18628634848E+03  0.18628634848E+03  0.00000000000E+00 0.  1.
          2   -1    0    0  501    0  0.00000000000E+00 -0.00000000000E+00 -0.12631912561E+03  0.12631912561E+03  0.00000000000E+00 0. -1.
         25    2    1    2    0    0  0.59519732002E+02 -0.99825319930E+02  0.36924774829E+02  0.17469275225E+03  0.12508567342E+03 0.  0.
          5    1    3    3  502    0  0.83580989472E+02 -0.60478029396E+02  0.63582301455E+02  0.12125821745E+03  0.41800000000E+01 0.  1.
         -5    1    3    3    0  502 -0.24061257470E+02 -0.39347290535E+02 -0.26657526626E+02  0.53434534800E+02  0.41800000000E+01 0.  1.
        -11    1    1    2    0    0 -0.42705045589E+02  0.14052351645E+02 -0.69768186767E+01  0.45495774577E+02  0.00000000000E+00 0. -1.
         11    1    1    2    0    0 -0.16814686413E+02  0.85772968285E+02  0.30019266720E+02  0.92416947266E+02  0.00000000000E+00 0.  1.
</event>
<event>
 7    1  0.2619826E-009  0.1045557E+03  0.7561462E-02  0.1270997E+00
          2   -1    0    0  501    0  0.00000000000E+00  0.00000000000E+00  0.57401120277E+03  0.57401120277E+03  0.00000000000E+00 0. -1.
         -2   -1    0    0    0  501 -0.00000000000E+00 -0.00000000000E+00 -0.31744413077E+02  0.31744413077E+02  0.00000000000E+00 0.  1.
         25    2    1    2    0    0  0.45504821231E+02  0.60696270596E+02  0.36084371821E+03  0.38936290887E+03  0.12506222378E+03 0.  0.
          5    1    3    3  502    0  0.86283131244E+01  0.80723195790E+02  0.12055549168E+03  0.14540213582E+03  0.41800000000E+01 0.  1.
         -5    1    3    3    0  502  0.36876508106E+02 -0.20026925194E+02  0.24028822653E+03  0.24396077306E+03  0.41800000000E+01 0.  1.
        -11    1    1    2    0    0 -0.45165318639E+02 -0.28401927414E+02  0.29280092520E+02  0.60859668965E+02  0.00000000000E+00 0.  1.
         11    1    1    2    0    0 -0.33950259216E+00 -0.32294343183E+02  0.15214297897E+03  0.15553303801E+03  0.00000000000E+00 0. -1.
</event>
<event>
 7    1  0.2619826E-009  0.8994426E+02  0.7561462E-02  0.1302987E+00
         -2   -1    0    0    0  501 -0.00000000000E+00  0.00000000000E+00  0.23542476444E+03  0.23542476444E+03  0.00000000000E+00 0.  1.
          2   -1    0    0  501    0  0.00000000000E+00 -0.00000000000E+00 -0.60334788745E+02  0.60334788745E+02  0.00000000000E+00 0. -1.
         25    2    1    2    0    0 -0.40163521281E+02 -0.22780041507E+02  0.11572682413E+03  0.17655703399E+03  0.12509056597E+03 0.  0.
          5    1    3    3  502    0  0.41472502285E+02  0.12869471615E+02  0.30729983064E+02  0.53360997035E+02  0.41800000000E+01 0.  1.
         -5    1    3    3    0  502 -0.81636023566E+02 -0.35649513122E+02  0.84996841067E+02  0.12319603695E+03  0.41800000000E+01 0.  1.
        -11    1    1    2    0    0  0.22763038463E+02  0.76108012613E+01 -0.23255187238E+02  0.33419813725E+02  0.00000000000E+00 0. -1.
         11    1    1    2    0    0  0.17400482818E+02  0.15169240245E+02  0.82618338806E+02  0.85782705477E+02  0.00000000000E+00 0.  1.
</event>
<event>
 7    1  0.2619826E-009  0.1122191E+03  0.7561462E-02  0.1256515E+00
         -1   -1    0    0    0  501 -0.00000000000E+00  0.00000000000E+00  0.19064668308E+03  0.19064668308E+03  0.00000000000E+00 0.  1.
          1   -1    0    0  501    0  0.00000000000E+00 -0.00000000000E+00 -0.73561635529E+02  0.73561635529E+02  0.00000000000E+00 0. -1.
         25    2    1    2    0    0 -0.36745824875E+02  0.15137362308E+02  0.50771981589E+02  0.14070115018E+03  0.12505848298E+03 0.  0.
          5    1    3    3  502    0 -0.12797727811E+02 -0.53692409092E+02  0.36547672476E+02  0.66331451021E+02  0.41800000000E+01 0.  1.
         -5    1    3    3    0  502 -0.23948097064E+02  0.68829771399E+02  0.14224309113E+02  0.74369699163E+02  0.41800000000E+01 0.  1.
        -11    1    1    2    0    0  0.37620429660E+02 -0.49243474145E+02  0.64344257998E+02  0.89333084638E+02  0.00000000000E+00 0.  1.
         11    1    1    2    0    0 -0.87460478513E+00  0.34106111837E+02  0.19688079691E+01  0.34174083791E+02  0.00000000000E+00 0. -1.
</event>
<event>
 7    1  0.2619826E-009  0.1601988E+03  0.7561462E-02  0.1188472E+00
         -1   -1    0    0    0  501 -0.00000000000E+00  0.00000000000E+00  0.71010026289E+02  0.71010026289E+02  0.00000000000E+00 0.  1.
          1   -1    0    0  501    0  0.00000000000E+00 -0.00000000000E+00 -0.40732467483E+03  0.40732467483E+03  0.00000000000E+00 0. -1.
         25    2    1    2    0    0 -0.13607504931E+02 -0.12928128324E+03 -0.14900236340E+03  0.23397846573E+03  0.12508158834E+03 0.  0.
          5    1    3    3  502    0 -0.29712841580E+02  0.60990870469E+01  0.17616087032E+01  0.30669650842E+02  0.41800000000E+01 0.  1.
         -5    1    3    3    0  502  0.16105336648E+02 -0.13538037028E+03 -0.15076397211E+03  0.20330881489E+03  0.41800000000E+01 0.  1.
        -11    1    1    2    0    0  0.42339264721E+02  0.35363375531E+02 -0.43723579441E+02  0.70391285435E+02  0.00000000000E+00 0.  1.
         11    1    1    2    0    0 -0.28731759789E+02  0.93917907706E+02 -0.14358870570E+03  0.17396494995E+03  0.00000000000E+00 0. -1.
</event>
<event>
 7    1  0.2619826E-009  0.6889387E+02  0.7561462E-02  0.1363895E+00
          1   -1    0    0  501    0  0.00000000000E+00  0.00000000000E+00  0.62476047879E+03  0.62476047879E+03  0.00000000000E+00 0. -1.
         -1   -1    0    0    0  501 -0.00000000000E+00 -0.00000000000E+00 -0.19020597430E+02  0.19020597430E+02  0.00000000000E+00 0.  1.
         25    2    1    2    0    0 -0.75222607904E+00 -0.19222720392E+02  0.33809514238E+03  0.36100534297E+03  0.12508578467E+03 0.  0.
          5    1    3    3  502    0 -0.14828587891E+02  0.71235314631E+01 -0.41176296684E+01  0.17465938092E+02  0.41800000000E+01 0. -1.
         -5    1    3    3    0  502  0.14076361811E+02 -0.26346251856E+02  0.34221277205E+03  0.34353940488E+03  0.41800000000E+01 0. -1.
        -11    1    1    2    0    0  0.30657905974E+02 -0.23411771666E+02  0.13026771121E+03  0.13585909920E+03  0.00000000000E+00 0.  1.
         11    1    1    2    0    0 -0.29905679895E+02  0.42634492058E+02  0.13737702777E+03  0.14691663405E+03  0.00000000000E+00 0. -1.
</event>
<event>
 7    1  0.3353634E-009  0.9515363E+02  0.7561462E-02  0.1290830E+00
         -2   -1    0    0    0  501 -0.00000000000E+00  0.00000000000E+00  0.27984738686E+02  0.27984738686E+02  0.00000000000E+00 0.  1.
          2   -1    0    0  501    0  0.00000000000E+00 -0.00000000000E+00 -0.58112763477E+03  0.58112763477E+03  0.00000000000E+00 0. -1.
         25    2    1    2    0    0  0.98611908078E+01  0.60578474373E+02 -0.37087248666E+03  0.39618128651E+03  0.12508483432E+03 0.  0.
          5    1    3    3  502    0  0.16492151153E+02  0.92991201903E+02 -0.33082921328E+03  0.34407091629E+03  0.41800000000E+01 0.  1.
         -5    1    3    3    0  502 -0.66309603454E+01 -0.32412727530E+02 -0.40043273387E+02  0.52110370221E+02  0.41800000000E+01 0.  1.
        -11    1    1    2    0    0 -0.84901892131E+01 -0.18843109687E+02  0.48325391166E+01  0.21224974202E+02  0.00000000000E+00 0.  1.
         11    1    1    2    0    0 -0.13710015947E+01 -0.41735364685E+02 -0.18710294854E+03  0.19170611274E+03  0.00000000000E+00 0. -1.
</event>
<event>
 7    1  0.2619826E-009  0.1313705E+03  0.7561462E-02  0.1225436E+00
          2   -1    0    0  501    0  0.00000000000E+00  0.00000000000E+00  0.67983910099E+03  0.67983910099E+03  0.00000000000E+00 0.  1.
         -2   -1    0    0    0  501 -0.00000000000E+00 -0.00000000000E+00 -0.30425519772E+02  0.30425519772E+02  0.00000000000E+00 0. -1.
         25    2    1    2    0    0  0.13828031234E+02 -0.75598035563E+02  0.21799248826E+03  0.26279846480E+03  0.12504411516E+03 0.  0.
          5    1    3    3  502    0 -0.22926620832E+02 -0.99728979159E+02  0.15834475810E+03  0.18857898622E+03  0.41800000000E+01 0.  1.
         -5    1    3    3    0  502  0.36754652066E+02  0.24130943596E+02  0.59647730162E+02  0.74219478581E+02  0.41800000000E+01 0.  1.
        -11    1    1    2    0    0 -0.49503432246E+02  0.28657468281E+02  0.25907131733E+03  0.26531073810E+03  0.00000000000E+00 0.  1.
         11    1    1    2    0    0  0.35675401012E+02  0.46940567282E+02  0.17234977563E+03  0.18215541785E+03  0.00000000000E+00 0. -1.
</event>
<event>
 6    1  0.2619826E-009  0.1592464E+03  0.7561462E-02  0.1189550E+00
          2   -1    0    0  501    0  0.00000000000E+00  0.00000000000E+00  0.13202429270E+04  0.13202429270E+04  0.00000000000E+00 0. -1.
         -2   -1    0    0    0  501 -0.00000000000E+00 -0.00000000000E+00 -0.31224094789E+02  0.31224094789E+02  0.00000000000E+00 0.  1.
          5    1    1    2  502    0 -0.70396232604E+01  0.36694477847E+02  0.43973637788E+03  0.44134067955E+03  0.41800000000E+01 0. -1.
         -5    1    1    2    0  502  0.13225041993E+03  0.15087207549E+02  0.59660528887E+03  0.61128809943E+03  0.41800000000E+01 0. -1.
        -11    1    1    2    0    0 -0.76360061012E+02  0.23861153331E+00  0.73557471749E+02  0.10602649435E+03  0.00000000000E+00 0. -1.
         11    1    1    2    0    0 -0.48850735653E+02 -0.52020296930E+02  0.17911969374E+03  0.19281174848E+03  0.00000000000E+00 0.  1.
</event>
<event>
 7    1  0.2619826E-009  0.1053631E+03  0.7561462E-02  0.1269406E+00
          2   -1    0    0  501    0  0.00000000000E+00  0.00000000000E+00  0.57843703398E+03  0.57843703398E+03  0.00000000000E+00 0. -1.
         -2   -1    0    0    0  501 -0.00000000000E+00 -0.00000000000E+00 -0.24771568652E+02  0.24771568652E+02  0.00000000000E+00 0.  1.
         25    2    1    2    0    0  0.12111078036E+02  0.38640210279E+02  0.40354716227E+03  0.42442694056E+03  0.12509265222E+03 0.  0.
          5    1    3    3  502    0 -0.44064489572E+02 -0.37371862140E+01  0.65719035317E+02  0.79322820203E+02  0.41800000000E+01 0. -1.
         -5    1    3    3    0  502  0.56175567608E+02  0.42377396493E+02  0.33782812695E+03  0.34510412036E+03  0.41800000000E+01 0. -1.
        -11    1    1    2    0    0  0.35876477836E+02 -0.30610190714E+02  0.59456713057E+02  0.75889433817E+02  0.00000000000E+00 0.  1.
         11    1    1    2    0    0 -0.47987555872E+02 -0.80300195643E+01  0.90661590006E+02  0.10289222825E+03  0.00000000000E+00 0. -1.
</event>
<event>
 7    1  0.2619826E-009  0.1231387E+03  0.7561462E-02  0.1238007E+00
          1   -1    0    0  501    0  0.00000000000E+00  0.00000000000E+00  0.90095792240E+03  0.90095792240E+03  0.00000000000E+00 0. -1.
         -1   -1    0    0    0  501 -0.00000000000E+00 -0.00000000000E+00 -0.24414813441E+02  0.24414813441E+02  0.00000000000E+00 0.  1.
         25    2    1    2    0    0  0.94522512148E+02 -0.32193627625E+02  0.54353091491E+03  0.56660600717E+03  0.12508228068E+03 0.  0.
          5    1    3    3  502    0  0.57006421362E+02 -0.64518500771E+02  0.17866329218E+03  0.19836938622E+03  0.41800000000E+01 0.  1.
         -5    1    3    3    0  502  0.37516090787E+02  0.32324873147E+02  0.36486762273E+03  0.36823662095E+03  0.41800000000E+01 0.  1.
        -11    1    1    2    0    0 -0.39225935540E+02  0.38210429901E+02  0.26647000955E+03  0.27203855786E+03  0.00000000000E+00 0. -1.
         11    1    1    2    0    0 -0.55296576609E+02 -0.60168022764E+01  0.66542184503E+02  0.86728170814E+02  0.00000000000E+00 0.  1.
</event>
<event>
 7    1  0.2619826E-009  0.1117771E+03  0.7561462E-02  0.1257314E+00
          2   -1    0    0  501    0  0.00000000000E+00  0.00000000000E+00  0.82976269789E+02  0.82976269789E+02  0.00000000000E+00 0. -1.
         -2   -1    0    0    0  501 -0.00000000000E+00 -0.00000000000E+00 -0.16756389007E+03  0.16756389007E+03  0.00000000000E+00 0.  1.
         25    2    1    2    0    0  0.31697496321E+02  0.38182527421E+02 -0.46822866090E+02  0.14248814947E+03  0.12509138770E+03 0.  0.
          5    1    3    3  502    0  0.46421470921E+02  0.78432663190E+02 -0.36037925625E+02  0.98096075869E+02  0.41800000000E+01 0.  1.
         -5    1    3    3    0  502 -0.14723974600E+02 -0.40250135769E+02 -0.10784940464E+02  0.44392073597E+02  0.41800000000E+01 0.  1.
        -11    1    1    2    0    0  0.16179536044E+02 -0.38084063409E+02 -0.43256841071E+02  0.59860901863E+02  0.00000000000E+00 0.  1.
         11    1    1    2    0    0 -0.47877032364E+02 -0.98464011427E-01  0.54920868788E+01  0.48191108531E+02  0.00000000000E+00 0. -1.
</event>
<event>
 7    1  0.2619826E-009  0.1018959E+03  0.7561462E-02  0.1276359E+00
         -3   -1    0    0    0  501 -0.00000000000E+00  0.00000000000E+00  0.30473980913E+03  0.30473980913E+03  0.00000000000E+00 0.  1.
          3   -1    0    0  501    0  0.00000000000E+00 -0.00000000000E+00 -0.55979224096E+02  0.55979224096E+02  0.00000000000E+00 0. -1.
         25    2    1    2    0    0 -0.21407722649E+02 -0.60724596226E+02  0.85892474201E+02  0.16482505134E+03  0.12507602987E+03 0.  0.
          5    1    3    3  502    0 -0.11774222748E+02 -0.95777942963E+02  0.84291658327E+02  0.12819751457E+03  0.41800000000E+01 0.  1.
         -5    1    3    3    0  502 -0.96334999003E+01  0.35053346738E+02  0.16008158737E+01  0.36627536763E+02  0.41800000000E+01 0.  1.
        -11    1    1    2    0    0  0.28095597658E+02  0.40367185115E+02  0.16698245408E+03  0.17407473169E+03  0.00000000000E+00 0.  1.
         11    1    1    2    0    0 -0.66878750096E+01  0.20357411110E+02 -0.41143432403E+01  0.21819250206E+02  0.00000000000E+00 0. -1.
</event>
<event>
 7    1  0.2619826E-009  0.1568549E+03  0.7561462E-02  0.1192294E+00
         -1   -1    0    0    0  501 -0.00000000000E+00  0.00000000000E+00  0.46929041631E+02  0.46929041631E+02  0.00000000000E+00 0.  1.
          1   -1    0    0  501    0  0.00000000000E+00 -0.00000000000E+00 -0.60624648546E+03  0.60624648546E+03  0.00000000000E+00 0. -1.
         25    2    1    2    0    0 -0.95462481916E+02 -0.86710660275E+02 -0.30631665608E+03  0.35511865087E+03  0.12509012089E+03 0.  0.
          5    1    3    3  502    0 -0.12600701191E+03 -0.68361853318E+02 -0.25377606444E+03  0.29149763863E+03  0.41800000000E+01 0. -1.
         -5    1    3    3    0  502  0.30544529994E+02 -0.18348806958E+02 -0.52540591636E+02  0.63621012243E+02  0.41800000000E+01 0. -1.
        -11    1    1    2    0    0  0.70523494703E+02  0.39020961698E+02 -0.68206573149E+02  0.10558567790E+03  0.00000000000E+00 0.  1.
         11    1    1    2    0    0  0.24938987214E+02  0.47689698577E+02 -0.18479421460E+03  0.19247119832E+03  0.00000000000E+00 0. -1.
</event>
<event>
 7    1  0.2619826E-009  0.9880076E+02  0.7561462E-02  0.1282838E+00
         -1   -1    0    0    0  501 -0.00000000000E+00  0.00000000000E+00  0.35119669226E+03  0.35119669226E+03  0.00000000000E+00 0.  1.
          1   -1    0    0  501    0  0.00000000000E+00 -0.00000000000E+00 -0.37403391493E+02  0.37403391493E+02  0.00000000000E+00 0. -1.
         25    2    1    2    0    0 -0.24278871022E+02 -0.12436082675E+02  0.21035858380E+03  0.24625659205E+03  0.12508979022E+03 0.  0.
          5    1    3    3  502    0 -0.18959949153E+02  0.50150310141E+02  0.14875833652E+03  0.15818042977E+03  0.41800000000E+01 0. -1.
         -5    1    3    3    0  502 -0.53189218692E+01 -0.62586392816E+02  0.61600247286E+02  0.88076162276E+02  0.41800000000E+01 0. -1.
        -11    1    1    2    0    0 -0.38053191295E+01 -0.29860473802E+02  0.81785373836E+02  0.87149157901E+02  0.00000000000E+00 0.  1.
         11    1    1    2    0    0  0.28084190151E+02  0.42296556477E+02  0.21649343129E+02  0.55194333805E+02  0.00000000000E+00 0. -1.
</event>
<event>
 7    1  0.2619826E-009  0.9164795E+02  0.7561462E-02  0.1298909E+00
         -2   -1    0    0    0  501 -0.00000000000E+00  0.00000000000E+00  0.48959799844E+02  0.48959799844E+02  0.00000000000E+00 0.  1.
          2   -1    0    0  501    0  0.00000000000E+00 -0.00000000000E+00 -0.37099866730E+03  0.37099866730E+03  0.00000000000E+00 0. -1.
         25    2    1    2    0    0  0.51561344774E+02 -0.33847194895E+02 -0.25735150150E+03  0.29271423445E+03  0.12509045866E+03 0.  0.
          5    1    3    3  502    0  0.53040960982E+02 -0.40973906096E+02 -0.46467748010E+02  0.81663507932E+02  0.41800000000E+01 0.  1.
         -5    1    3    3    0  502 -0.14796162073E+01  0.71267112009E+01 -0.21088375349E+03  0.21105072652E+03  0.41800000000E+01 0.  1.
        -11    1    1    2    0    0 -0.45256624978E+02 -0.22852484553E+02 -0.18951672969E+02  0.54125447462E+02  0.00000000000E+00 0.  1.
         11    1    1    2    0    0 -0.63047197959E+01  0.56699679448E+02 -0.45735692985E+02  0.73118785234E+02  0.00000000000E+00 0. -1.
</event>
<event>
 7    1  0.2619826E-009  0.7365529E+02  0.7561462E-02  0.1348086E+00
         -2   -1    0    0    0  501 -0.00000000000E+00  0.00000000000E+00  0.20863613954E+03  0.20863613954E+03  0.00000000000E+00 0.  1.
          2   -1    0    0  501    0  0.00000000000E+00 -0.00000000000E+00 -0.72759601638E+02  0.72759601638E+02  0.00000000000E+00 0. -1.
         25    2    1    2    0    0  0.36232308705E+02 -0.34277711731E+02  0.36749527823E+02  0.13961026333E+03  0.12511097520E+03 0.  0.
          5    1    3    3  502    0 -0.23559614958E+01 -0.19142129236E+02 -0.44290974960E+02  0.48488498937E+02  0.41800000000E+01 0. -1.
         -5    1    3    3    0  502  0.38588270200E+02 -0.15135582495E+02  0.81040502783E+02  0.91121764392E+02  0.41800000000E+01 0. -1.
        -11    1    1    2    0    0 -0.23105058993E+02  0.55975041012E+02  0.99436138820E+02  0.11642420140E+03  0.00000000000E+00 0.  1.
         11    1    1    2    0    0 -0.13127249712E+02 -0.21697329281E+02 -0.30912873755E+00  0.25361276456E+02  0.00000000000E+00 0. -1.
</event>
<event>
 7    1  0.4327305E-009  0.1774861E+03  0.7561462E-02  0.1170258E+00
         -2   -1    0    0    0  501 -0.00000000000E+00  0.00000000000E+00  0.71245240654E+02  0.71245240654E+02  0.00000000000E+00 0. -1.
          2   -1    0    0  501    0  0.00000000000E+00 -0.00000000000E+00 -0.57097281830E+03  0.57097281830E+03  0.00000000000E+00 0.  1.
         25    2    1    2    0    0 -0.27408544041E+02  0.14765613994E+03 -0.13568116464E+03  0.23793078507E+03  0.12509243021E+03 0.  0.
          5    1    3    3  502    0  0.12549704160E+02 -0.19358252166E+02 -0.20154630176E+02  0.30917931996E+02  0.41800000000E+01 0.  1.
         -5    1    3    3    0  502 -0.39958248200E+02  0.16701439211E+03 -0.11552653446E+03  0.20701285307E+03  0.41800000000E+01 0.  1.
        -11    1    1    2    0    0 -0.15967006380E+02 -0.57879970446E+02 -0.62425805476E+02  0.86614187411E+02  0.00000000000E+00 0. -1.
         11    1    1    2    0    0  0.43375550421E+02 -0.89776169498E+02 -0.30162060753E+03  0.31767308648E+03  0.00000000000E+00 0.  1.
</event>
<event>
 7    1  0.2619826E-009  0.1029383E+03  0.7561462E-02  0.1274236E+00
          2   -1    0    0  501    0  0.00000000000E+00  0.00000000000E+00  0.51556768716E+03  0.51556768716E+03  0.00000000000E+00 0.  1.
         -2   -1    0    0    0  501 -0.00000000000E+00 -0.00000000000E+00 -0.30183094287E+02  0.30183094287E+02  0.00000000000E+00 0. -1.
         25    2    1    2    0    0  0.22622561196E+02 -0.52166094509E+02  0.22702257607E+03  0.26537097796E+03  0.12509765868E+03 0.  0.
          5    1    3    3  502    0 -0.94296417239E+01 -0.88038566351E+02  0.15738275232E+03  0.18062809979E+03  0.41800000000E+01 0.  1.
         -5    1    3    3    0  502  0.32052202920E+02  0.35872471842E+02  0.69639823750E+02  0.84742878167E+02  0.41800000000E+01 0.  1.
        -11    1    1    2    0    0 -0.33580192134E+02  0.43642032255E+02  0.26056794123E+03  0.26632293983E+03  0.00000000000E+00 0.  1.
         11    1    1    2    0    0  0.10957630938E+02  0.85240622539E+01 -0.22059244301E+01  0.14056863650E+02  0.00000000000E+00 0. -1.
</event>
<event>
 7    1  0.2692951E-009  0.9942965E+02  0.7561462E-02  0.1281500E+00
          2   -1    0    0  501    0  0.00000000000E+00  0.00000000000E+00  0.31429878044E+03  0.31429878044E+03  0.00000000000E+00 0. -1.
         -2   -1    0    0    0  501 -0.00000000000E+00 -0.00000000000E+00 -0.61418325436E+02  0.61418325436E+02  0.00000000000E+00 0.  1.
         25    2    1    2    0    0 -0.17483847202E+02 -0.77781470365E+01  0.24452178295E+02  0.12888556414E+03  0.12508954847E+03 0.  0.
          5    1    3    3  502    0  0.21233593152E+02  0.39522444084E+02 -0.23743528832E+02  0.50932471234E+02  0.41800000000E+01 0. -1.
         -5    1    3    3    0  502 -0.38717440354E+02 -0.47300591121E+02  0.48195707127E+02  0.77953092905E+02  0.41800000000E+01 0. -1.
        -11    1    1    2    0    0 -0.26067496689E+02 -0.26451840806E+02  0.74583162432E+02  0.83317839531E+02  0.00000000000E+00 0.  1.
         11    1    1    2    0    0  0.43551343891E+02  0.34229987842E+02  0.15384511428E+03  0.16351370221E+03  0.00000000000E+00 0. -1.
</event>
<event>
 7    1  0.2619826E-009  0.1389767E+03  0.7561462E-02  0.1214713E+00
         -1   -1    0    0    0  501 -0.00000000000E+00  0.00000000000E+00  0.24765548819E+03  0.24765548819E+03  0.00000000000E+00 0.  1.
          1   -1    0    0  501    0  0.00000000000E+00 -0.00000000000E+00 -0.10352506822E+03  0.10352506822E+03  0.00000000000E+00 0. -1.
         25    2    1    2    0    0 -0.10699681487E+03 -0.48537651349E+02  0.77350646569E+02  0.18824345438E+03  0.12509297982E+03 0.  0.
          5    1    3    3  502    0 -0.73716525816E+02  0.21155581235E+02 -0.28036881517E+01  0.76857126300E+02  0.41800000000E+01 0. -1.
         -5    1    3    3    0  502 -0.33280289056E+02 -0.69693232585E+02  0.80154334721E+02  0.11138632808E+03  0.41800000000E+01 0. -1.
        -11    1    1    2    0    0  0.90985793822E+02  0.23311656373E+02  0.47008209534E+01  0.94042254960E+02  0.00000000000E+00 0. -1.
         11    1    1    2    0    0  0.16011021049E+02  0.25225994976E+02  0.62078952447E+02  0.68894847082E+02  0.00000000000E+00 0.  1.
</event>
<event>
 7    1  0.2619826E-009  0.1321589E+03  0.7561462E-02  0.1224287E+00
          1   -1    0    0  501    0  0.00000000000E+00  0.00000000000E+00  0.19817251312E+03  0.19817251312E+03  0.00000000000E+00 0. -1.
         -1   -1    0    0    0  501 -0.00000000000E+00 -0.00000000000E+00 -0.99878677479E+02  0.99878677479E+02  0.00000000000E+00 0.  1.
         25    2    1    2    0    0  0.74137231974E+02 -0.39384760688E+02  0.85771753217E+02  0.17335375773E+03  0.12508894088E+03 0.  0.
          5    1    3    3  502    0  0.37699634636E+02  0.38612241298E+02  0.65207287391E+02  0.84744500462E+02  0.41800000000E+01 0.  1.
         -5    1    3    3    0  502  0.36437597339E+02 -0.77997001987E+02  0.20564465826E+02  0.88609257267E+02  0.41800000000E+01 0.  1.
        -11    1    1    2    0    0 -0.59297812982E+01  0.53934597340E+02  0.74894549998E+01  0.54774036118E+02  0.00000000000E+00 0.  1.
         11    1    1    2    0    0 -0.68207450676E+02 -0.14549836651E+02  0.50326274225E+01  0.69923396750E+02  0.00000000000E+00 0. -1.
</event>
<event>
 7    1  0.2619826E-009  0.1164813E+03  0.7561462E-02  0.1249017E+00
         -1   -1    0    0    0  501 -0.00000000000E+00  0.00000000000E+00  0.52087327871E+02  0.52087327871E+02  0.00000000000E+00 0.  1.
          1   -1    0    0  501    0  0.00000000000E+00 -0.00000000000E+00 -0.29678970857E+03  0.29678970857E+03  0.00000000000E+00 0. -1.
         25    2    1    2    0    0  0.97001657698E+01 -0.60211933069E+02 -0.13024698878E+03  0.19060846970E+03  0.12509092907E+03 0.  0.
          5    1    3    3  502    0  0.41969106618E+02 -0.77931633362E+02 -0.48873264382E+02  0.10119690588E+03  0.41800000000E+01 0.  1.
         -5    1    3    3    0  502 -0.32268940848E+02  0.17719700293E+02 -0.81373724401E+02  0.89411563821E+02  0.41800000000E+01 0.  1.
        -11    1    1    2    0    0 -0.45215444408E+02  0.10868020611E+02 -0.64865250045E+02  0.79812598933E+02  0.00000000000E+00 0. -1.
         11    1    1    2    0    0  0.35515278638E+02  0.49343912458E+02 -0.49590141870E+02  0.78455967804E+02  0.00000000000E+00 0.  1.
</event>
<event>
 7    1  0.2619826E-009  0.1159886E+03  0.7561462E-02  0.1249865E+00
         -1   -1    0    0    0  501 -0.00000000000E+00  0.00000000000E+00  0.61081558003E+02  0.61081558003E+02  0.00000000000E+00 0.  1.
          1   -1    0    0  501    0  0.00000000000E+00 -0.00000000000E+00 -0.33713663005E+03  0.33713663005E+03  0.00000000000E+00 0. -1.
         25    2    1    2    0    0 -0.88449581673E+02  0.17270387971E+02 -0.11739962793E+03  0.19378485623E+03  0.12509317755E+03 0.  0.
          5    1    3    3  502    0  0.17049584548E+01  0.27250259312E+02 -0.96816530242E+02  0.10067967245E+03  0.41800000000E+01 0. -1.
         -5    1    3    3    0  502 -0.90154540127E+02 -0.99798713407E+01 -0.20583097686E+02  0.93105183787E+02  0.41800000000E+01 0. -1.
        -11    1    1    2    0    0  0.45459518715E+02  0.26156316920E+02 -0.12292747258E+03  0.13364836053E+03  0.00000000000E+00 0. -1.
         11    1    1    2    0    0  0.42990062958E+02 -0.43426704892E+02 -0.35727971543E+02  0.70784971296E+02  0.00000000000E+00 0.  1.
</event>
<event>
 7    1  0.2619826E-009  0.1477799E+03  0.7561462E-02  0.1203228E+00
         -1   -1    0    0    0  501 -0.00000000000E+00  0.00000000000E+00  0.20175396218E+03  0.20175396218E+03  0.00000000000E+00 0.  1.
          1   -1    0    0  501    0  0.00000000000E+00 -0.00000000000E+00 -0.12289923533E+03  0.12289923533E+03  0.00000000000E+00 0. -1.
         25    2    1    2    0    0 -0.11880905795E+02  0.11166989636E+03  0.26830942967E+02  0.17021896851E+03  0.12507308290E+03 0.  0.
          5    1    3    3  502    0 -0.54980734733E+02  0.10665979395E+03  0.36644997879E+02  0.12553693125E+03  0.41800000000E+01 0. -1.
         -5    1    3    3    0  502  0.43099828938E+02  0.50101024069E+01 -0.98140549118E+01  0.44682037268E+02  0.41800000000E+01 0. -1.
        -11    1    1    2    0    0 -0.69027852476E+01 -0.11286686900E+03  0.66055512240E+02  0.13095766209E+03  0.00000000000E+00 0.  1.
         11    1    1    2    0    0  0.18783691043E+02  0.11969726496E+01 -0.14031728360E+02  0.23476566901E+02  0.00000000000E+00 0. -1.
</event>
<event>
 7    1  0.2619826E-009  0.9443327E+02  0.7561462E-02  0.1292458E+00
          2   -1    0    0  501    0  0.00000000000E+00  0.00000000000E+00  0.35293878538E+03  0.35293878538E+03  0.00000000000E+00 0. -1.
         -2   -1    0    0    0  501 -0.00000000000E+00 -0.00000000000E+00 -0.40621701443E+02  0.40621701443E+02  0.00000000000E+00 0.  1.
         25    2    1    2    0    0  0.29354563112E+02  0.25299623277E+02  0.20015627216E+03  0.23918998865E+03  0.12509019176E+03 0.  0.
          5    1    3    3  502    0  0.59698593185E+02  0.27303537658E+02  0.19774591762E+03  0.20839943746E+03  0.41800000000E+01 0. -1.
         -5    1    3    3    0  502 -0.30344030073E+02 -0.20039143806E+01  0.24103545384E+01  0.30790551195E+02  0.41800000000E+01 0. -1.
        -11    1    1    2    0    0 -0.58361452603E+02 -0.24714306642E+02  0.10777339332E+03  0.12502783854E+03  0.00000000000E+00 0. -1.
         11    1    1    2    0    0  0.29006889491E+02 -0.58531663520E+00  0.43874184606E+01  0.29342659631E+02  0.00000000000E+00 0.  1.
</event>
<event>
 7    1  0.2619826E-009  0.1243516E+03  0.7561462E-02  0.1236086E+00
         -2   -1    0    0    0  501 -0.00000000000E+00  0.00000000000E+00  0.12699302479E+03  0.12699302479E+03  0.00000000000E+00 0.  1.
          2   -1    0    0  501    0  0.00000000000E+00 -0.00000000000E+00 -0.19278495567E+03  0.19278495567E+03  0.00000000000E+00 0. -1.
         25    2    1    2    0    0 -0.95266670638E+02  0.57767852877E+02 -0.30814546384E+02  0.17031786532E+03  0.12508307487E+03 0.  0.
          5    1    3    3  502    0 -0.10568163323E+03  0.34177870044E+02 -0.63864121345E+02  0.12819061119E+03  0.41800000000E+01 0. -1.
         -5    1    3    3    0  502  0.10414962589E+02  0.23589982832E+02  0.33049574961E+02  0.42127254134E+02  0.41800000000E+01 0. -1.
        -11    1    1    2    0    0  0.20587367586E+02 -0.13435103582E+02  0.31595560645E+02  0.40032751152E+02  0.00000000000E+00 0.  1.
         11    1    1    2    0    0  0.74679303053E+02 -0.44332749295E+02 -0.66572945134E+02  0.10942736398E+03  0.00000000000E+00 0. -1.
</event>
<event>
 7    1  0.2619826E-009  0.2708298E+03  0.7561462E-02  0.1100806E+00
         -2   -1    0    0    0  501 -0.00000000000E+00  0.00000000000E+00  0.25959053340E+02  0.25959053340E+02  0.00000000000E+00 0.  1.
          2   -1    0    0  501    0  0.00000000000E+00 -0.00000000000E+00 -0.33342357776E+04  0.33342357776E+04  0.00000000000E+00 0. -1.
         25    2    1    2    0    0 -0.25995004286E+03  0.64822543568E+01 -0.21699422635E+04  0.21890437837E+04  0.12508883023E+03 0.  0.
          5    1    3    3  502    0 -0.14318656495E+02 -0.29764029781E+02 -0.13682006420E+03  0.14081237076E+03  0.41800000000E+01 0.  1.
         -5    1    3    3    0  502 -0.24563138637E+03  0.36246284138E+02 -0.20331221993E+04  0.20482314129E+04  0.41800000000E+01 0.  1.
        -11    1    1    2    0    0  0.92829973741E+02 -0.12333032319E+01 -0.23884978219E+03  0.25625796283E+03  0.00000000000E+00 0.  1.
         11    1    1    2    0    0  0.16712006912E+03 -0.52489511249E+01 -0.89948467854E+03  0.91489308442E+03  0.00000000000E+00 0. -1.
</event>
<event>
 7    1  0.2619826E-009  0.1261936E+03  0.7561462E-02  0.1233216E+00
          2   -1    0    0  501    0  0.00000000000E+00  0.00000000000E+00  0.69084475868E+03  0.69084475868E+03  0.00000000000E+00 0. -1.
         -2   -1    0    0    0  501 -0.00000000000E+00 -0.00000000000E+00 -0.38846001536E+02  0.38846001536E+02  0.00000000000E+00 0.  1.
         25    2    1    2    0    0  0.28606374273E+02  0.10787334450E+03  0.45469420190E+03  0.48461175731E+03  0.12508698963E+03 0.  0.
          5    1    3    3  502    0 -0.16382091808E+02  0.75751123195E+02  0.39732171241E+03  0.40483159603E+03  0.41800000000E+01 0.  1.
         -5    1    3    3    0  502  0.44988466081E+02  0.32122221303E+02  0.57372489496E+02  0.79780161273E+02  0.41800000000E+01 0.  1.
        -11    1    1    2    0    0  0.82648588574E+01 -0.50249264190E+02  0.19434645246E+02  0.54506897539E+02  0.00000000000E+00 0.  1.
         11    1    1    2    0    0 -0.36871233130E+02 -0.57624080308E+02  0.17786991000E+03  0.19057210537E+03  0.00000000000E+00 0. -1.
</event>
<event>
 7    1  0.2619826E-009  0.1340496E+03  0.7561462E-02  0.1221568E+00
          1   -1    0    0  501    0  0.00000000000E+00  0.00000000000E+00  0.11149043928E+04  0.11149043928E+04  0.00000000000E+00 0. -1.
         -1   -1    0    0    0  501 -0.00000000000E+00 -0.00000000000E+00 -0.16707507740E+02  0.16707507740E+02  0.00000000000E+00 0.  1.
         25    2    1    2    0    0  0.75475030756E+02  0.35038102066E+02  0.63303354433E+03  0.65061625183E+03  0.12508353220E+03 0.  0.
          5    1    3    3  502    0 -0.25256619648E+02  0.40200756313E+02  0.25004108675E+03  0.25454275694E+03  0.41800000000E+01 0. -1.
         -5    1    3    3    0  502  0.10073165040E+03 -0.51626542469E+01  0.38299245758E+03  0.39607349489E+03  0.41800000000E+01 0. -1.
        -11    1    1    2    0    0 -0.50416316433E+02 -0.63817019133E+02  0.36139733503E+03  0.37043548785E+03  0.00000000000E+00 0.  1.
         11    1    1    2    0    0 -0.25058714323E+02  0.28778917068E+02  0.10376600569E+03  0.11056016085E+03  0.00000000000E+00 0. -1.
</event>
<event>
 7    1  0.2619826E-009  0.1127859E+03  0.7561462E-02  0.1255496E+00
          2   -1    0    0  501    0  0.00000000000E+00  0.00000000000E+00  0.36760247230E+02  0.36760247230E+02  0.00000000000E+00 0. -1.
         -2   -1    0    0    0  501 -0.00000000000E+00 -0.00000000000E+00 -0.37092453551E+03  0.37092453551E+03  0.00000000000E+00 0.  1.
         25    2    1    2    0    0 -0.39165342266E+02  0.15973537809E+02 -0.20391715585E+03  0.24293872151E+03  0.12509171839E+03 0.  0.
          5    1    3    3  502    0  0.11935911799E+02  0.60350130837E+02 -0.12116808640E+03  0.13595507289E+03  0.41800000000E+01 0. -1.
         -5    1    3    3    0  502 -0.51101254065E+02 -0.44376593028E+02 -0.82749069451E+02  0.10698364861E+03  0.41800000000E+01 0. -1.
        -11    1    1    2    0    0  0.23414056506E+02  0.35358046498E+02 -0.83079373302E+02  0.93276962657E+02  0.00000000000E+00 0.  1.
         11    1    1    2    0    0  0.15751285761E+02 -0.51331584308E+02 -0.47167759125E+02  0.71469098578E+02  0.00000000000E+00 0. -1.
</event>
<event>
 7    1  0.2619826E-009  0.2262742E+03  0.7561462E-02  0.1129290E+00
         -4   -1    0    0    0  501 -0.00000000000E+00  0.00000000000E+00  0.68783218975E+03  0.68783218975E+03  0.00000000000E+00 0.  1.
          4   -1    0    0  501    0  0.00000000000E+00 -0.00000000000E+00 -0.99826787125E+02  0.99826787125E+02  0.00000000000E+00 0. -1.
         25    2    1    2    0    0  0.13074185934E+03 -0.17743023658E+03  0.16651662086E+03  0.30323358342E+03  0.12509156029E+03 0.  0.
          5    1    3    3  502    0  0.11518386653E+03 -0.11444541621E+03  0.17371688435E+03  0.23782368408E+03  0.41800000000E+01 0.  1.
         -5    1    3    3    0  502  0.15557992809E+02 -0.62984820372E+02 -0.72002634929E+01  0.65409899342E+02  0.41800000000E+01 0.  1.
        -11    1    1    2    0    0 -0.11458762623E+03  0.12200918945E+03  0.23022860686E+03  0.28464324656E+03  0.00000000000E+00 0. -1.
         11    1    1    2    0    0 -0.16154233103E+02  0.55421047135E+02  0.19126017490E+03  0.19978214689E+03  0.00000000000E+00 0.  1.
</event>
<event>
 7    1  0.2619826E-009  0.1206157E+03  0.7561462E-02  0.1242085E+00
         -1   -1    0    0    0  501 -0.00000000000E+00  0.00000000000E+00  0.22790402137E+02  0.22790402137E+02  0.00000000000E+00 0.  1.
          1   -1    0    0  501    0  0.00000000000E+00 -0.00000000000E+00 -0.11868724011E+04  0.11868724011E+04  0.00000000000E+00 0. -1.
         25    2    1    2    0    0  0.72062440837E+02  0.84666010118E+02 -0.81191457961E+03  0.82898407183E+03  0.12509187873E+03 0.  0.
          5    1    3    3  502    0  0.39833855971E+02  0.55356741223E+02 -0.14140250227E+03  0.15704535946E+03  0.41800000000E+01 0. -1.
         -5    1    3    3    0  502  0.32228584866E+02  0.29309268895E+02 -0.67051207734E+03  0.67193871237E+03  0.41800000000E+01 0. -1.
        -11    1    1    2    0    0 -0.79297988226E+02 -0.50037699315E+02 -0.16140777738E+03  0.18666658214E+03  0.00000000000E+00 0.  1.
         11    1    1    2    0    0  0.72355473895E+01 -0.34628310803E+02 -0.19075964197E+03  0.19401214926E+03  0.00000000000E+00 0. -1.
</event>
<event>
 7    1  0.2619826E-009  0.1116580E+03  0.7561462E-02  0.1257530E+00
         -3   -1    0    0    0  501 -0.00000000000E+00  0.00000000000E+00  0.59419752049E+03  0.59419752049E+03  0.00000000000E+00 0.  1.
          3   -1    0    0  501    0  0.00000000000E+00 -0.00000000000E+00 -0.23787799398E+02  0.23787799398E+02  0.00000000000E+00 0. -1.
         25    2    1    2    0    0  0.29436696875E+02  0.51802782102E+02  0.33969801517E+03  0.36686682475E+03  0.12508588345E+03 0.  0.
          5    1    3    3  502    0 -0.16711868933E+02  0.72741709502E+02  0.12014526618E+03  0.14150265104E+03  0.41800000000E+01 0. -1.
         -5    1    3    3    0  502  0.46148565807E+02 -0.20938927400E+02  0.21955274898E+03  0.22536417371E+03  0.41800000000E+01 0. -1.
        -11    1    1    2    0    0  0.26705803001E+02 -0.16292487173E+02  0.95042469495E+02  0.10005856315E+03  0.00000000000E+00 0.  1.
         11    1    1    2    0    0 -0.56142499876E+02 -0.35510294929E+02  0.13566923643E+03  0.15105993198E+03  0.00000000000E+00 0. -1.
</event>
<event>
 7    1  0.2619826E-009  0.8711533E+02  0.7561462E-02  0.1309992E+00
          1   -1    0    0  501    0  0.00000000000E+00  0.00000000000E+00  0.76741015937E+02  0.76741015937E+02  0.00000000000E+00 0. -1.
         -1   -1    0    0    0  501 -0.00000000000E+00 -0.00000000000E+00 -0.16844176995E+03  0.16844176995E+03  0.00000000000E+00 0.  1.
         25    2    1    2    0    0  0.19893184218E+02 -0.17994113293E+02 -0.72560695179E+02  0.14708119376E+03  0.12509315002E+03 0.  0.
          5    1    3    3  502    0 -0.30466339799E+02 -0.54082554404E+02 -0.18927131537E+02  0.65029449174E+02  0.41800000000E+01 0. -1.
         -5    1    3    3    0  502  0.50359524017E+02  0.36088441112E+02 -0.53633563642E+02  0.82051744589E+02  0.41800000000E+01 0. -1.
        -11    1    1    2    0    0 -0.48203559143E+01  0.30164709809E+02 -0.51795189430E+02  0.60132247564E+02  0.00000000000E+00 0.  1.
         11    1    1    2    0    0 -0.15072828304E+02 -0.12170596516E+02  0.32655130592E+02  0.37969344564E+02  0.00000000000E+00 0. -1.
</event>
<event>
 7    1  0.2619826E-009  0.1022648E+03  0.7561462E-02  0.1275604E+00
          1   -1    0    0  501    0  0.00000000000E+00  0.00000000000E+00  0.41574184269E+03  0.41574184269E+03  0.00000000000E+00 0. -1.
         -1   -1    0    0    0  501 -0.00000000000E+00 -0.00000000000E+00 -0.51649077876E+02  0.51649077876E+02  0.00000000000E+00 0.  1.
         25    2    1    2    0    0  0.59236572109E+02  0.10881843966E+02  0.70539624788E+02  0.15573070030E+03  0.12509526909E+03 0.  0.
          5    1    3    3  502    0  0.52651202408E+02 -0.28409451790E+02  0.92354030132E+02  0.11011805187E+03  0.41800000000E+01 0. -1.
         -5    1    3    3    0  502  0.65853697007E+01  0.39291295757E+02 -0.21814405345E+02  0.45612648431E+02  0.41800000000E+01 0. -1.
        -11    1    1    2    0    0  0.70687286208E+01  0.27153731606E+02  0.87265342381E+02  0.91665326298E+02  0.00000000000E+00 0.  1.
         11    1    1    2    0    0 -0.66305300730E+02 -0.38035575573E+02  0.20628779764E+03  0.21999489397E+03  0.00000000000E+00 0. -1.
</event>
<event>
 7    1  0.2619826E-009  0.1935223E+03  0.7561462E-02  0.1155322E+00
          1   -1    0    0  501    0  0.00000000000E+00  0.00000000000E+00  0.42821180791E+03  0.42821180791E+03  0.00000000000E+00 0. -1.
         -1   -1    0    0    0  501 -0.00000000000E+00 -0.00000000000E+00 -0.10696165082E+03  0.10696165082E+03  0.00000000000E+00 0.  1.
         25    2    1    2    0    0 -0.17545066616E+03  0.19797400025E+02  0.23164650904E+03  0.31699040459E+03  0.12509171896E+03 0.  0.
          5    1    3    3  502    0 -0.80396523880E+02  0.66413440100E+02  0.15227317840E+03  0.18460481938E+03  0.41800000000E+01 0. -1.
         -5    1    3    3    0  502 -0.95054142280E+02 -0.46616040074E+02  0.79373330633E+02  0.13238558521E+03  0.41800000000E+01 0. -1.
        -11    1    1    2    0    0  0.70069813259E+02 -0.11670865539E+02 -0.11452077707E+02  0.71952330861E+02  0.00000000000E+00 0.  1.
         11    1    1    2    0    0  0.10538085290E+03 -0.81265344864E+01  0.10105572576E+03  0.14623072328E+03  0.00000000000E+00 0. -1.
</event>
<event>
 7    1  0.2619826E-009  0.1464625E+03  0.7561462E-02  0.1204888E+00
          2   -1    0    0  501    0  0.00000000000E+00  0.00000000000E+00  0.95862996802E+03  0.95862996802E+03  0.00000000000E+00 0. -1.
         -2   -1    0    0    0  501 -0.00000000000E+00 -0.00000000000E+00 -0.22443650627E+02  0.22443650627E+02  0.00000000000E+00 0.  1.
         25    2    1    2    0    0  0.86200883893E+02 -0.47035458449E+02  0.50214690241E+03  0.52672748295E+03  0.12508957975E+03 0.  0.
          5    1    3    3  502    0  0.33541029264E+02 -0.86609860440E+02  0.30030712089E+03  0.31436938118E+03  0.41800000000E+01 0. -1.
         -5    1    3    3    0  502  0.52659854629E+02  0.39574401991E+02  0.20183978152E+03  0.21235810177E+03  0.41800000000E+01 0. -1.
        -11    1    1    2    0    0  0.52625284054E+01 -0.19915693144E+02  0.55452254915E+02  0.59154726048E+02  0.00000000000E+00 0. -1.
         11    1    1    2    0    0 -0.91463412298E+02  0.66951151593E+02  0.37858716007E+03  0.39519140965E+03  0.00000000000E+00 0.  1.
</event>
<event>
 7    1  0.3233946E-009  0.9361878E+02  0.7561462E-02  0.1294318E+00
         -1   -1    0    0    0  501 -0.00000000000E+00  0.00000000000E+00  0.39388211539E+02  0.39388211539E+02  0.00000000000E+00 0.  1.
          1   -1    0    0  501    0  0.00000000000E+00 -0.00000000000E+00 -0.40882664440E+03  0.40882664440E+03  0.00000000000E+00 0. -1.
         25    2    1    2    0    0 -0.59054608459E+02  0.28101955637E+02 -0.22511992805E+03  0.26571145385E+03  0.12508568268E+03 0.  0.
          5    1    3    3  502    0  0.17699610518E+02 -0.87143832270E+01 -0.15224162344E+03  0.15357148497E+03  0.41800000000E+01 0.  1.
         -5    1    3    3    0  502 -0.76754218977E+02  0.36816338864E+02 -0.72878304604E+02  0.11213996888E+03  0.41800000000E+01 0.  1.
        -11    1    1    2    0    0  0.55537520512E+02 -0.20735352301E+01 -0.26095219668E+02  0.61397689065E+02  0.00000000000E+00 0.  1.
         11    1    1    2    0    0  0.35170879469E+01 -0.26028420407E+02 -0.11822328515E+03  0.12110571303E+03  0.00000000000E+00 0. -1.
</event>
<event>
 7    1  0.2619826E-009  0.1114948E+03  0.7561462E-02  0.1257827E+00
          1   -1    0    0  501    0  0.00000000000E+00  0.00000000000E+00  0.53518163956E+02  0.53518163956E+02  0.00000000000E+00 0. -1.
         -1   -1    0    0    0  501 -0.00000000000E+00 -0.00000000000E+00 -0.38982988987E+03  0.38982988987E+03  0.00000000000E+00 0.  1.
         25    2    1    2    0    0  0.22075482984E+02 -0.65898307790E+02 -0.28617968432E+03  0.31996153968E+03  0.12508661496E+03 0.  0.
          5    1    3    3  502    0 -0.44498531666E+02 -0.11157892770E+02 -0.47530445160E+02  0.66190886900E+02  0.41800000000E+01 0.  1.
         -5    1    3    3    0  502  0.66574014650E+02 -0.54740415020E+02 -0.23864923916E+03  0.25377065278E+03  0.41800000000E+01 0.  1.
        -11    1    1    2    0    0 -0.36527354242E+02  0.18233706724E+02 -0.60038091622E+02  0.72603637060E+02  0.00000000000E+00 0.  1.
         11    1    1    2    0    0  0.14451871258E+02  0.47664601066E+02  0.99060500256E+01  0.50782877083E+02  0.00000000000E+00 0. -1.
</event>
<event>
 7    1  0.2619826E-009  0.8998717E+02  0.7561462E-02  0.1302883E+00
         -2   -1    0    0    0  501 -0.00000000000E+00  0.00000000000E+00  0.14712392169E+02  0.14712392169E+02  0.00000000000E+00 0.  1.
          2   -1    0    0  501    0  0.00000000000E+00 -0.00000000000E+00 -0.88181742033E+03  0.88181742033E+03  0.00000000000E+00 0. -1.
         25    2    1    2    0    0 -0.10930877623E+02  0.25212545806E+02 -0.56772037191E+03  0.58198506286E+03  0.12508011893E+03 0.  0.
          5    1    3    3  502    0 -0.25524084557E+02  0.49159259544E+02 -0.53818267956E+03  0.54104175501E+03  0.41800000000E+01 0. -1.
         -5    1    3    3    0  502  0.14593206934E+02 -0.23946713738E+02 -0.29537692355E+02  0.40943307843E+02  0.41800000000E+01 0. -1.
        -11    1    1    2    0    0  0.51575877868E+02 -0.18959864643E+02 -0.15689154439E+03  0.16623629070E+03  0.00000000000E+00 0.  1.
         11    1    1    2    0    0 -0.40645000245E+02 -0.62526811630E+01 -0.14249311186E+03  0.14830845895E+03  0.00000000000E+00 0. -1.
</event>
<event>
 7    1  0.2619826E-009  0.4835689E+03  0.7561462E-02  0.1018159E+00
          2   -1    0    0  501    0  0.00000000000E+00  0.00000000000E+00  0.55163016231E+03  0.55163016231E+03  0.00000000000E+00 0.  1.
         -2   -1    0    0    0  501 -0.00000000000E+00 -0.00000000000E+00 -0.47141147671E+03  0.47141147671E+03  0.00000000000E+00 0. -1.
         25    2    1    2    0    0  0.47732699957E+03 -0.36939672311E+02 -0.97688953207E+02  0.50437669568E+03  0.12508843134E+03 0.  0.
          5    1    3    3  502    0  0.26957212782E+03  0.20703577842E+02 -0.71377779751E+01  0.27049249621E+03  0.41800000000E+01 0.  1.
         -5    1    3    3    0  502  0.20775487175E+03 -0.57643250153E+02 -0.90551175232E+02  0.23388419946E+03  0.41800000000E+01 0.  1.
        -11    1    1    2    0    0 -0.44565462849E+03  0.46340329774E+02  0.18521249168E+03  0.48482898132E+03  0.00000000000E+00 0.  1.
         11    1    1    2    0    0 -0.31672371078E+02 -0.94006574637E+01 -0.73048528669E+01  0.33835962021E+02  0.00000000000E+00 0. -1.
</event>
<event>
 7    1  0.2619826E-009  0.8565609E+02  0.7561462E-02  0.1313726E+00
         -1   -1    0    0    0  501 -0.00000000000E+00  0.00000000000E+00  0.24415989779E+02  0.24415989779E+02  0.00000000000E+00 0.  1.
          1   -1    0    0  501    0  0.00000000000E+00 -0.00000000000E+00 -0.58041490757E+03  0.58041490757E+03  0.00000000000E+00 0. -1.
         25    2    1    2    0    0  0.38381274249E+02 -0.29155793912E+02 -0.27359436177E+03  0.30467288643E+03  0.12509400625E+03 0.  0.
          5    1    3    3  502    0  0.12987999027E+02  0.20163859392E+02  0.11301980049E+01  0.24372506885E+02  0.41800000000E+01 0.  1.
         -5    1    3    3    0  502  0.25393275221E+02 -0.49319653303E+02 -0.27472455977E+03  0.28030037954E+03  0.41800000000E+01 0.  1.
        -11    1    1    2    0    0  0.11542308425E+02  0.38807568852E+02 -0.62625147724E+02  0.74573194993E+02  0.00000000000E+00 0.  1.
         11    1    1    2    0    0 -0.49923582673E+02 -0.96517749406E+01 -0.21977940830E+03  0.22558481593E+03  0.00000000000E+00 0. -1.
</event>
<event>
 7    1  0.2619826E-009  0.7002439E+02  0.7561462E-02  0.1360010E+00
          2   -1    0    0  501    0  0.00000000000E+00  0.00000000000E+00  0.14742403037E+03  0.14742403037E+03  0.00000000000E+00 0. -1.
         -2   -1    0    0    0  501 -0.00000000000E+00 -0.00000000000E+00 -0.10015944378E+03  0.10015944378E+03  0.00000000000E+00 0.  1.
         25    2    1    2    0    0 -0.53837994448E+01 -0.26419163765E+02  0.76139865005E+02  0.14890167325E+03  0.12508985468E+03 0.  0.
          5    1    3    3  502    0 -0.20348627820E+02 -0.20400405488E+02 -0.29798255421E+02  0.41661152461E+02  0.41800000000E+01 0. -1.
         -5    1    3    3    0  502  0.14964828375E+02 -0.60187582768E+01  0.10593812043E+03  0.10724052079E+03  0.41800000000E+01 0. -1.
        -11    1    1    2    0    0  0.19606114215E+02 -0.30137152506E+02 -0.13136805651E+02  0.38278235833E+02  0.00000000000E+00 0.  1.
         11    1    1    2    0    0 -0.14222314770E+02  0.56556316271E+02 -0.15738472771E+02  0.60403565066E+02  0.00000000000E+00 0. -1.
</event>
<event>
 7    1  0.2619826E-009  0.1177881E+03  0.7561462E-02  0.1246791E+00
         -1   -1    0    0    0  501 -0.00000000000E+00  0.00000000000E+00  0.10113474563E+03  0.10113474563E+03  0.00000000000E+00 0.  1.
          1   -1    0    0  501    0  0.00000000000E+00 -0.00000000000E+00 -0.25519812254E+03  0.25519812254E+03  0.00000000000E+00 0. -1.
         25    2    1    2    0    0  0.20253056212E+02  0.82027178216E+02  0.10065349540E+02  0.15128613698E+03  0.12509012643E+03 0.  0.
          5    1    3    3  502    0  0.59646184868E+02  0.91499776603E+02 -0.10717582477E+00  0.10930398151E+03  0.41800000000E+01 0.  1.
         -5    1    3    3    0  502 -0.39393128656E+02 -0.94725983870E+01  0.10172525364E+02  0.41982155469E+02  0.41800000000E+01 0.  1.
        -11    1    1    2    0    0 -0.21900310022E+02 -0.68540232312E+02 -0.17397458828E+03  0.18826721540E+03  0.00000000000E+00 0. -1.
         11    1    1    2    0    0  0.16472538108E+01 -0.13486945904E+02  0.98458618388E+01  0.16779515794E+02  0.00000000000E+00 0.  1.
</event>
<event>
 7    1  0.2619826E-009  0.2028002E+03  0.7561462E-02  0.1147398E+00
         -4   -1    0    0    0  501 -0.00000000000E+00  0.00000000000E+00  0.55620059904E+02  0.55620059904E+02  0.00000000000E+00 0.  1.
          4   -1    0    0  501    0  0.00000000000E+00 -0.00000000000E+00 -0.93902691971E+03  0.93902691971E+03  0.00000000000E+00 0. -1.
         25    2    1    2    0    0 -0.86692874199E+02  0.17101030264E+03 -0.58452980273E+03  0.62776097427E+03  0.12509425439E+03 0.  0.
          5    1    3    3  502    0 -0.97134846201E+02  0.10011241258E+03 -0.48738924733E+03  0.50697477680E+03  0.41800000000E+01 0.  1.
         -5    1    3    3    0  502  0.10441972002E+02  0.70897890060E+02 -0.97140555407E+02  0.12078619747E+03  0.41800000000E+01 0.  1.
        -11    1    1    2    0    0  0.41300683226E+02 -0.49011552168E+02 -0.17823068320E+03  0.18940447491E+03  0.00000000000E+00 0. -1.
         11    1    1    2    0    0  0.45392190973E+02 -0.12199875047E+03 -0.12064637387E+03  0.17748153044E+03  0.00000000000E+00 0.  1.
</event>
<event>
 7    1  0.2619826E-009  0.9284134E+02  0.7561462E-02  0.1296113E+00
          2   -1    0    0  501    0  0.00000000000E+00  0.00000000000E+00  0.44338913135E+02  0.44338913135E+02  0.00000000000E+00 0. -1.
         -2   -1    0    0    0  501 -0.00000000000E+00 -0.00000000000E+00 -0.31160458814E+03  0.31160458814E+03  0.00000000000E+00 0.  1.
         25    2    1    2    0    0 -0.36385074542E+02  0.26355842369E+02 -0.14406980074E+03  0.19601737457E+03  0.12509276386E+03 0.  0.
          5    1    3    3  502    0  0.31920664092E+02 -0.19899125012E+02 -0.89083079905E+02  0.96789314997E+02  0.41800000000E+01 0. -1.
         -5    1    3    3    0  502 -0.68305738634E+02  0.46254967381E+02 -0.54986720837E+02  0.99228059571E+02  0.41800000000E+01 0. -1.
        -11    1    1    2    0    0 -0.10395560575E+00 -0.28673713779E+02 -0.11982550406E+03  0.12320853904E+03  0.00000000000E+00 0.  1.
         11    1    1    2    0    0  0.36489030148E+02  0.23178714103E+01 -0.33703702035E+01  0.36717587670E+02  0.00000000000E+00 0. -1.
</event>
<event>
 7    1  0.2619826E-009  0.1078483E+03  0.7561462E-02  0.1264607E+00
          1   -1    0    0  501    0  0.00000000000E+00  0.00000000000E+00  0.48253188090E+03  0.48253188090E+03  0.00000000000E+00 0. -1.
         -1   -1    0    0    0  501 -0.00000000000E+00 -0.00000000000E+00 -0.35403425129E+02  0.35403425129E+02  0.00000000000E+00 0.  1.
         25    2    1    2    0    0  0.21858777982E+02 -0.73774420751E+02  0.28655099675E+03  0.32199323869E+03  0.12509076980E+03 0.  0.
          5    1    3    3  502    0  0.50351194069E+02 -0.56538018055E+02  0.27686756449E+03  0.28706255572E+03  0.41800000000E+01 0.  1.
         -5    1    3    3    0  502 -0.28492416086E+02 -0.17236402696E+02  0.96834322612E+01  0.34930682969E+02  0.41800000000E+01 0.  1.
        -11    1    1    2    0    0 -0.46920244066E+02  0.29463762203E+02  0.51825664910E+02  0.75865157548E+02  0.00000000000E+00 0.  1.
         11    1    1    2    0    0  0.25061466084E+02  0.44310658548E+02  0.10875179411E+03  0.12007690980E+03  0.00000000000E+00 0. -1.
</event>
<event>
 7    1  0.2619826E-009  0.2526410E+03  0.7561462E-02  0.1111647E+00
         -1   -1    0    0    0  501 -0.00000000000E+00  0.00000000000E+00  0.78754267161E+03  0.78754267161E+03  0.00000000000E+00 0.  1.
          1   -1    0    0  501    0  0.00000000000E+00 -0.00000000000E+00 -0.92815288446E+02  0.92815288446E+02  0.00000000000E+00 0. -1.
         25    2    1    2    0    0 -0.94653154828E+02  0.22724052517E+03  0.31846522185E+03  0.42150298999E+03  0.12508875666E+03 0.  0.
          5    1    3    3  502    0 -0.92879191687E+02  0.16690817419E+03  0.15124805459E+03  0.24367669006E+03  0.41800000000E+01 0. -1.
         -5    1    3    3    0  502 -0.17739631414E+01  0.60332350979E+02  0.16721716727E+03  0.17782629993E+03  0.41800000000E+01 0. -1.
        -11    1    1    2    0    0  0.31650959613E+02 -0.15352056192E+03  0.17180892283E+03  0.23256967158E+03  0.00000000000E+00 0. -1.
         11    1    1    2    0    0  0.63002195215E+02 -0.73719963253E+02  0.20445323848E+03  0.22628529849E+03  0.00000000000E+00 0.  1.
</event>
<event>
 7    1  0.2619826E-009  0.1120664E+03  0.7561462E-02  0.1256790E+00
          2   -1    0    0  501    0  0.00000000000E+00  0.00000000000E+00  0.32964861935E+03  0.32964861935E+03  0.00000000000E+00 0. -1.
         -2   -1    0    0    0  501 -0.00000000000E+00 -0.00000000000E+00 -0.60955930194E+02  0.60955930194E+02  0.00000000000E+00 0.  1.
         25    2    1    2    0    0  0.21347033097E+02 -0.42003552151E+02  0.25903135434E+03  0.29148592833E+03  0.12508720823E+03 0.  0.
          5    1    3    3  502    0  0.62416188686E+02  0.93434884176E+01  0.16467642227E+03  0.17640543596E+03  0.41800000000E+01 0. -1.
         -5    1    3    3    0  502 -0.41069155588E+02 -0.51347040568E+02  0.94354932075E+02  0.11508049236E+03  0.41800000000E+01 0. -1.
        -11    1    1    2    0    0 -0.23853630069E+02  0.66358455686E+02 -0.48077412829E+01  0.70679238003E+02  0.00000000000E+00 0.  1.
         11    1    1    2    0    0  0.25065969715E+01 -0.24354903535E+02  0.14469076094E+02  0.28439383214E+02  0.00000000000E+00 0. -1.
</event>
<event>
 7    1  0.2619826E-009  0.1120005E+03  0.7561462E-02  0.1256909E+00
          2   -1    0    0  501    0  0.00000000000E+00  0.00000000000E+00  0.28827256972E+02  0.28827256972E+02  0.00000000000E+00 0. -1.
         -2   -1    0    0    0  501 -0.00000000000E+00 -0.00000000000E+00 -0.55943874400E+03  0.55943874400E+03  0.00000000000E+00 0.  1.
         25    2    1    2    0    0 -0.56865320309E+02 -0.33853956097E+02 -0.30193677072E+03  0.33346276485E+03  0.12510734203E+03 0.  0.
          5    1    3    3  502    0 -0.83578131689E+02 -0.54610996334E+02 -0.26493636593E+03  0.28315440207E+03  0.41800000000E+01 0. -1.
         -5    1    3    3    0  502  0.26712811380E+02  0.20757040237E+02 -0.37000404788E+02  0.50308362781E+02  0.41800000000E+01 0. -1.
        -11    1    1    2    0    0  0.18475284383E+02  0.46123081490E+02 -0.45915409222E+02  0.67652786958E+02  0.00000000000E+00 0. -1.
         11    1    1    2    0    0  0.38390035926E+02 -0.12269125393E+02 -0.18275930708E+03  0.18715044916E+03  0.00000000000E+00 0.  1.
</event>
<event>
 7    1  0.2619826E-009  0.9769549E+02  0.7561462E-02  0.1285218E+00
         -4   -1    0    0    0  501 -0.00000000000E+00  0.00000000000E+00  0.45489419486E+02  0.45489419486E+02  0.00000000000E+00 0.  1.
          4   -1    0    0  501    0  0.00000000000E+00 -0.00000000000E+00 -0.44434690427E+03  0.44434690427E+03  0.00000000000E+00 0. -1.
         25    2    1    2    0    0 -0.77859992767E+02  0.11623575158E+02 -0.30600678529E+03  0.33982665658E+03  0.12507884675E+03 0.  0.
          5    1    3    3  502    0 -0.94969384383E+02  0.19981329390E+02 -0.12764740491E+03  0.16040501823E+03  0.41800000000E+01 0. -1.
         -5    1    3    3    0  502  0.17109391615E+02 -0.83577542319E+01 -0.17835938038E+03  0.17942163835E+03  0.41800000000E+01 0. -1.
        -11    1    1    2    0    0  0.30773837459E+02 -0.34428905415E+01 -0.97206997607E+02  0.10202001250E+03  0.00000000000E+00 0. -1.
         11    1    1    2    0    0  0.47086155308E+02 -0.81806846163E+01  0.43562981134E+01  0.47989654674E+02  0.00000000000E+00 0.  1.
</event>
<event>
 7    1  0.2619826E-009  0.1286802E+03  0.7561462E-02  0.1229427E+00
          1   -1    0    0  501    0  0.00000000000E+00  0.00000000000E+00  0.50751532862E+03  0.50751532862E+03  0.00000000000E+00 0. -1.
         -1   -1    0    0    0  501 -0.00000000000E+00 -0.00000000000E+00 -0.33531557794E+02  0.33531557794E+02  0.00000000000E+00 0.  1.
         25    2    1    2    0    0 -0.51820324506E+02 -0.47155301384E+02  0.22472220067E+03  0.26656676460E+03  0.12509517990E+03 0.  0.
          5    1    3    3  502    0 -0.27359776218E+02  0.42247215584E+02  0.83795086753E+02  0.97839018511E+02  0.41800000000E+01 0. -1.
         -5    1    3    3    0  502 -0.24460548288E+02 -0.89402516969E+02  0.14092711392E+03  0.16872774609E+03  0.41800000000E+01 0. -1.
        -11    1    1    2    0    0  0.31470982153E+01 -0.26007767998E+02  0.72335187065E+02  0.76933006643E+02  0.00000000000E+00 0. -1.
         11    1    1    2    0    0  0.48673226290E+02  0.73163069382E+02  0.17692638309E+03  0.19754711517E+03  0.00000000000E+00 0.  1.
</event>
<event>
 7    1  0.2619826E-009  0.1201215E+03  0.7561462E-02  0.1242897E+00
          1   -1    0    0  501    0  0.00000000000E+00  0.00000000000E+00  0.30702284281E+02  0.30702284281E+02  0.00000000000E+00 0. -1.
         -1   -1    0    0    0  501 -0.00000000000E+00 -0.00000000000E+00 -0.57956903911E+03  0.57956903911E+03  0.00000000000E+00 0.  1.
         25    2    1    2    0    0 -0.59309162401E+02 -0.52575017784E+02 -0.25602559077E+03  0.29576698824E+03  0.12508916405E+03 0.  0.
          5    1    3    3  502    0  0.23329234663E+02  0.23646543628E+02 -0.39662634751E+02  0.51903845820E+02  0.41800000000E+01 0.  1.
         -5    1    3    3    0  502 -0.82638397064E+02 -0.76221561412E+02 -0.21636295602E+03  0.24386314242E+03  0.41800000000E+01 0.  1.
        -11    1    1    2    0    0  0.68104053136E+02  0.40207485400E+02 -0.28786802082E+03  0.29853442238E+03  0.00000000000E+00 0.  1.
         11    1    1    2    0    0 -0.87948907352E+01  0.12367532383E+02 -0.49731432441E+01  0.15969912775E+02  0.00000000000E+00 0. -1.
</event>
<event>
 7    1  0.3172472E-009  0.1183831E+03  0.7561462E-02  0.1245788E+00
         -3   -1    0    0    0  501 -0.00000000000E+00  0.00000000000E+00  0.58474075370E+02  0.58474075370E+02  0.00000000000E+00 0.  1.
          3   -1    0    0  501    0  0.00000000000E+00 -0.00000000000E+00 -0.31327591289E+03  0.31327591289E+03  0.00000000000E+00 0. -1.
         25    2    1    2    0    0  0.61468426538E+02 -0.46405784712E+02 -0.10565600538E+03  0.18094704709E+03  0.12508708191E+03 0.  0.
          5    1    3    3  502    0  0.40717622253E+01 -0.79595832349E+02 -0.49127046009E+02  0.93717740180E+02  0.41800000000E+01 0. -1.
         -5    1    3    3    0  502  0.57396664312E+02  0.33190047636E+02 -0.56528959374E+02  0.87229306911E+02  0.41800000000E+01 0. -1.
        -11    1    1    2    0    0 -0.97543442684E+01  0.36612949620E+02 -0.60956710727E+01  0.38377239580E+02  0.00000000000E+00 0.  1.
         11    1    1    2    0    0 -0.51714082269E+02  0.97928350927E+01 -0.14305016106E+03  0.15242570159E+03  0.00000000000E+00 0. -1.
</event>
<event>
 7    1  0.2619826E-009  0.1519287E+03  0.7561462E-02  0.1198123E+00
         -1   -1    0    0    0  501 -0.00000000000E+00  0.00000000000E+00  0.15393392268E+02  0.15393392268E+02  0.00000000000E+00 0.  1.
          1   -1    0    0  501    0  0.00000000000E+00 -0.00000000000E+00 -0.18222064873E+04  0.18222064873E+04  0.00000000000E+00 0. -1.
         25    2    1    2    0    0  0.13060763252E+03 -0.43237462254E+02 -0.11317842351E+04  0.11469569883E+04  0.12508775429E+03 0.  0.
          5    1    3    3  502    0  0.13167486440E+03 -0.16460782067E+02 -0.60142924720E+03  0.61590895354E+03  0.41800000000E+01 0.  1.
         -5    1    3    3    0  502 -0.10672318855E+01 -0.26776680187E+02 -0.53035498793E+03  0.53104803475E+03  0.41800000000E+01 0.  1.
        -11    1    1    2    0    0 -0.29576201396E+02  0.29909016161E+02 -0.25381896436E+03  0.25728071752E+03  0.00000000000E+00 0.  1.
         11    1    1    2    0    0 -0.10103143112E+03  0.13328446093E+02 -0.42120989552E+03  0.43336217374E+03  0.00000000000E+00 0. -1.
</event>
<event>
 7    1  0.2619826E-009  0.1070918E+03  0.7561462E-02  0.1266052E+00
         -3   -1    0    0    0  501 -0.00000000000E+00  0.00000000000E+00  0.34191765387E+03  0.34191765387E+03  0.00000000000E+00 0.  1.
          3   -1    0    0  501    0  0.00000000000E+00 -0.00000000000E+00 -0.48583072517E+02  0.48583072517E+02  0.00000000000E+00 0. -1.
         25    2    1    2    0    0 -0.26859711721E+02 -0.38713472690E+02  0.23990732005E+03  0.27463198269E+03  0.12508807547E+03 0.  0.
          5    1    3    3  502    0 -0.19902527945E+02  0.43343809050E+02  0.11913060644E+03  0.12839147243E+03  0.41800000000E+01 0.  1.
         -5    1    3    3    0  502 -0.69571837766E+01 -0.82057281740E+02  0.12077671361E+03  0.14624051026E+03  0.41800000000E+01 0.  1.
        -11    1    1    2    0    0 -0.10911672914E+02  0.44337472161E+02 -0.51427288992E+01  0.45949142581E+02  0.00000000000E+00 0.  1.
         11    1    1    2    0    0  0.37771384635E+02 -0.56239994711E+01  0.58569990204E+02  0.69919601113E+02  0.00000000000E+00 0. -1.
</event>
<event>
 7    1  0.2619826E-009  0.9288650E+02  0.7561462E-02  0.1296008E+00
         -2   -1    0    0    0  501 -0.00000000000E+00  0.00000000000E+00  0.45714194218E+02  0.45714194218E+02  0.00000000000E+00 0.  1.
          2   -1    0    0  501    0  0.00000000000E+00 -0.00000000000E+00 -0.43966260882E+03  0.43966260882E+03  0.00000000000E+00 0. -1.
         25    2    1    2    0    0  0.26472114497E+01 -0.20644667822E+02 -0.36441715065E+03  0.38584885885E+03  0.12508505964E+03 0.  0.
          5    1    3    3  502    0  0.53166016348E+02  0.15803954656E+02 -0.10278361424E+03  0.11686887539E+03  0.41800000000E+01 0.  1.
         -5    1    3    3    0  502 -0.50518804898E+02 -0.36448622478E+02 -0.26163353641E+03  0.26897998346E+03  0.41800000000E+01 0.  1.
        -11    1    1    2    0    0 -0.64841704911E+01 -0.23003066640E+02  0.21583928342E+02  0.32203284063E+02  0.00000000000E+00 0.  1.
         11    1    1    2    0    0  0.38369590414E+01  0.43647734462E+02 -0.51115192292E+02  0.67324660128E+02  0.00000000000E+00 0. -1.
</event>
<event>
 7    1  0.2619826E-009  0.1073799E+03  0.7561462E-02  0.1265500E+00
         -1   -1    0    0    0  501 -0.00000000000E+00  0.00000000000E+00  0.97803824135E+02  0.97803824135E+02  0.00000000000E+00 0.  1.
          1   -1    0    0  501    0  0.00000000000E+00 -0.00000000000E+00 -0.13132635860E+03  0.13132635860E+03  0.00000000000E+00 0. -1.
         25    2    1    2    0    0 -0.21961515455E+01  0.19216243950E+02 -0.36295740713E+02  0.13167780715E+03  0.12509027536E+03 0.  0.
          5    1    3    3  502    0 -0.62431582362E+02  0.81762063696E+01 -0.30310611294E+02  0.70005416818E+02  0.41800000000E+01 0.  1.
         -5    1    3    3    0  502  0.60235430817E+02  0.11040037580E+02 -0.59851294192E+01  0.61672390335E+02  0.41800000000E+01 0.  1.
        -11    1    1    2    0    0 -0.12538212547E+02  0.33378431030E+02 -0.16821311913E+02  0.39424395574E+02  0.00000000000E+00 0. -1.
         11    1    1    2    0    0  0.14734364092E+02 -0.52594674980E+02  0.19594518164E+02  0.58027980006E+02  0.00000000000E+00 0.  1.
</event>
<event>
 7    1  0.2619826E-009  0.1071363E+03  0.7561462E-02  0.1265967E+00
         -1   -1    0    0    0  501 -0.00000000000E+00  0.00000000000E+00  0.67532122725E+03  0.67532122725E+03  0.00000000000E+00 0.  1.
          1   -1    0    0  501    0  0.00000000000E+00 -0.00000000000E+00 -0.20720196369E+02  0.20720196369E+02  0.00000000000E+00 0. -1.
         25    2    1    2    0    0 -0.30955914556E+02 -0.26880915075E+02  0.47393803941E+03  0.49187783872E+03  0.12508273576E+03 0.  0.
          5    1    3    3  502    0 -0.31431158309E+02 -0.75935899640E+02  0.28691159975E+03  0.29847934106E+03  0.41800000000E+01 0.  1.
         -5    1    3    3    0  502  0.47524375241E+00  0.49054984565E+02  0.18702643966E+03  0.19339849766E+03  0.41800000000E+01 0.  1.
        -11    1    1    2    0    0  0.91255332951E+01 -0.24917956896E+02  0.11360153311E+03  0.11665971138E+03  0.00000000000E+00 0.  1.
         11    1    1    2    0    0  0.21830381261E+02  0.51798871971E+02  0.67061458363E+02  0.87503873522E+02  0.00000000000E+00 0. -1.
</event>
<event>
 7    1  0.2619826E-009  0.1530535E+03  0.7561462E-02  0.1196770E+00
         -2   -1    0    0    0  501 -0.00000000000E+00  0.00000000000E+00  0.98330179554E+02  0.98330179554E+02  0.00000000000E+00 0.  1.
          2   -1    0    0  501    0  0.00000000000E+00 -0.00000000000E+00 -0.25319172531E+03  0.25319172531E+03  0.00000000000E+00 0. -1.
         25    2    1    2    0    0  0.10624591049E+03 -0.39174434201E+02 -0.10077183334E+03  0.19653367772E+03  0.12509074423E+03 0.  0.
          5    1    3    3  502    0  0.35297259313E+01  0.38090114632E+02 -0.12144005283E+02  0.40351766530E+02  0.41800000000E+01 0.  1.
         -5    1    3    3    0  502  0.10271618456E+03 -0.77264548833E+02 -0.88627828055E+02  0.15618191119E+03  0.41800000000E+01 0.  1.
        -11    1    1    2    0    0  0.12664042980E+02  0.11116082678E+02  0.71726363972E+01  0.18313710481E+02  0.00000000000E+00 0.  1.
         11    1    1    2    0    0 -0.11890995347E+03  0.28058351523E+02 -0.61262348816E+02  0.13667451667E+03  0.00000000000E+00 0. -1.
</event>
<event>
 7    1  0.2619826E-009  0.1252599E+03  0.7561462E-02  0.1234664E+00
         -2   -1    0    0    0  501 -0.00000000000E+00  0.00000000000E+00  0.17763466551E+03  0.17763466551E+03  0.00000000000E+00 0.  1.
          2   -1    0    0  501    0  0.00000000000E+00 -0.00000000000E+00 -0.12465177272E+03  0.12465177272E+03  0.00000000000E+00 0. -1.
         25    2    1    2    0    0  0.94768284276E+02 -0.10671279331E+02  0.65378376272E+02  0.17033640968E+03  0.12508099964E+03 0.  0.
          5    1    3    3  502    0 -0.17195270925E+02  0.20007760114E+02 -0.13493292145E+02  0.29925392895E+02  0.41800000000E+01 0. -1.
         -5    1    3    3    0  502  0.11196355520E+03 -0.30679039445E+02  0.78871668417E+02  0.14041101678E+03  0.41800000000E+01 0. -1.
        -11    1    1    2    0    0 -0.22949233440E+02  0.25503331364E+02 -0.40798923941E+02  0.53307029751E+02  0.00000000000E+00 0.  1.
         11    1    1    2    0    0 -0.71819050836E+02 -0.14832052034E+02  0.28403440460E+02  0.78642998801E+02  0.00000000000E+00 0. -1.
</event>
<event>
 7    1  0.2619826E-009  0.1506596E+03  0.7561462E-02  0.1199665E+00
         -3   -1    0    0    0  501 -0.00000000000E+00  0.00000000000E+00  0.70345144782E+03  0.70345144782E+03  0.00000000000E+00 0.  1.
          3   -1    0    0  501    0  0.00000000000E+00 -0.00000000000E+00 -0.40632809328E+02  0.40632809328E+02  0.00000000000E+00 0. -1.
         25    2    1    2    0    0 -0.22315500615E+01  0.12395044436E+03  0.26985124467E+03  0.32223654487E+03  0.12509198268E+03 0.  0.
          5    1    3    3  502    0 -0.50562069349E+02  0.56043522382E+02  0.19860650832E+03  0.21250745117E+03  0.41800000000E+01 0. -1.
         -5    1    3    3    0  502  0.48330519287E+02  0.67906921980E+02  0.71244736349E+02  0.10972909370E+03  0.41800000000E+01 0. -1.
        -11    1    1    2    0    0  0.35779403275E+02 -0.55413590644E+02  0.26290442040E+03  0.27105269965E+03  0.00000000000E+00 0. -1.
         11    1    1    2    0    0 -0.33547853213E+02 -0.68536853719E+02  0.13006297343E+03  0.15079501262E+03  0.00000000000E+00 0.  1.
</event>
<event>
 7    1  0.2619826E-009  0.1636659E+03  0.7561462E-02  0.1184619E+00
          1   -1    0    0  501    0  0.00000000000E+00  0.00000000000E+00  0.99830812993E+03  0.99830812993E+03  0.00000000000E+00 0. -1.
         -1   -1    0    0    0  501 -0.00000000000E+00 -0.00000000000E+00 -0.44881257432E+02  0.44881257432E+02  0.00000000000E+00 0.  1.
         25    2    1    2    0    0  0.11304783556E+02  0.12900640710E+03  0.80997290234E+03  0.82974342854E+03  0.12509038125E+03 0.  0.
          5    1    3    3  502    0 -0.32715175503E+02 -0.46987420770E+01  0.25564942299E+03  0.25781090117E+03  0.41800000000E+01 0.  1.
         -5    1    3    3    0  502  0.44019959059E+02  0.13370514917E+03  0.55432347935E+03  0.57193252737E+03  0.41800000000E+01 0.  1.
        -11    1    1    2    0    0 -0.43432325401E+02 -0.41903164321E+02  0.31733557495E+02  0.68185487760E+02  0.00000000000E+00 0.  1.
         11    1    1    2    0    0  0.32127541844E+02 -0.87103242777E+02  0.11172041267E+03  0.14526047106E+03  0.00000000000E+00 0. -1.
</event>
<event>
 7    1  0.2619826E-009  0.1733305E+03  0.7561462E-02  0.1174419E+00
         -1   -1    0    0    0  501 -0.00000000000E+00  0.00000000000E+00  0.80573803515E+02  0.80573803515E+02  0.00000000000E+00 0.  1.
          1   -1    0    0  501    0  0.00000000000E+00 -0.00000000000E+00 -0.42772316673E+03  0.42772316673E+03  0.00000000000E+00 0. -1.
         25    2    1    2    0    0  0.79293049928E+02 -0.12795260374E+03 -0.17949749627E+03  0.26556845588E+03  0.12509195427E+03 0.  0.
          5    1    3    3  502    0  0.75850886045E+02 -0.18409117026E+02 -0.39067854851E+02  0.87384336046E+02  0.41800000000E+01 0.  1.
         -5    1    3    3    0  502  0.34421638824E+01 -0.10954348671E+03 -0.14042964142E+03  0.17818411984E+03  0.41800000000E+01 0.  1.
        -11    1    1    2    0    0 -0.83368114266E+02  0.98318485352E+02 -0.83925125402E+02  0.15381870404E+03  0.00000000000E+00 0.  1.
         11    1    1    2    0    0  0.40750643384E+01  0.29634118388E+02 -0.83726741547E+02  0.88909810325E+02  0.00000000000E+00 0. -1.
</event>
<event>
 7    1  0.2619826E-009  0.1091602E+03  0.7561462E-02  0.1262133E+00
          3   -1    0    0  501    0  0.00000000000E+00  0.00000000000E+00  0.13484843676E+03  0.13484843676E+03  0.00000000000E+00 0. -1.
         -3   -1    0    0    0  501 -0.00000000000E+00 -0.00000000000E+00 -0.13065300255E+03  0.13065300255E+03  0.00000000000E+00 0.  1.
         25    2    1    2    0    0  0.36358192792E+01  0.44467777487E+02 -0.59497242138E+02  0.14553222598E+03  0.12509638109E+03 0.  0.
          5    1    3    3  502    0  0.51328669194E+02 -0.86366239793E+01 -0.51912762287E+02  0.73631724435E+02  0.41800000000E+01 0.  1.
         -5    1    3    3    0  502 -0.47692849915E+02  0.53104401466E+02 -0.75844798510E+01  0.71900501547E+02  0.41800000000E+01 0.  1.
        -11    1    1    2    0    0  0.35637478432E+02 -0.48855500786E+00  0.36676421182E+01  0.35829040647E+02  0.00000000000E+00 0.  1.
         11    1    1    2    0    0 -0.39273297711E+02 -0.43979222479E+02  0.60025034231E+02  0.84140172673E+02  0.00000000000E+00 0. -1.
</event>
<event>
 7    1  0.2619826E-009  0.1184574E+03  0.7561462E-02  0.1245664E+00
          1   -1    0    0  501    0  0.00000000000E+00  0.00000000000E+00  0.43363169458E+03  0.43363169458E+03  0.00000000000E+00 0. -1.
         -1   -1    0    0    0  501 -0.00000000000E+00 -0.00000000000E+00 -0.46743727230E+02  0.46743727230E+02  0.00000000000E+00 0.  1.
         25    2    1    2    0    0  0.31450153327E+02  0.27623983122E+02  0.33520249291E+03  0.36022275522E+03  0.12509006969E+03 0.  0.
          5    1    3    3  502    0  0.13111487726E+02  0.75709305463E+02  0.15951971581E+03  0.17710963321E+03  0.41800000000E+01 0.  1.
         -5    1    3    3    0  502  0.18338665602E+02 -0.48085322341E+02  0.17568277710E+03  0.18311312201E+03  0.41800000000E+01 0.  1.
        -11    1    1    2    0    0  0.33053887667E+02 -0.28765106950E+02  0.17965531380E+02  0.47357694048E+02  0.00000000000E+00 0. -1.
         11    1    1    2    0    0 -0.64504040994E+02  0.11411238282E+01  0.33719943061E+02  0.72794972547E+02  0.00000000000E+00 0.  1.
</event>
<event>
 7    1  0.2619826E-009  0.1911126E+03  0.7561462E-02  0.1157462E+00
         -2   -1    0    0    0  501 -0.00000000000E+00  0.00000000000E+00  0.20951514154E+04  0.20951514154E+04  0.00000000000E+00 0. -1.
          2   -1    0    0  501    0  0.00000000000E+00 -0.00000000000E+00 -0.17944093255E+02  0.17944093255E+02  0.00000000000E+00 0.  1.
         25    2    1    2    0    0 -0.14148358146E+03 -0.76046533646E+02  0.11155913910E+04  0.11340141620E+04  0.12507313404E+03 0.  0.
          5    1    3    3  502    0 -0.11345748731E+02  0.28684238691E+02  0.98918248258E+02  0.10370054871E+03  0.41800000000E+01 0. -1.
         -5    1    3    3    0  502 -0.13013783273E+03 -0.10473077234E+03  0.10166731427E+04  0.10303136133E+04  0.41800000000E+01 0. -1.
        -11    1    1    2    0    0  0.15373433979E+03  0.63117051263E+02  0.85815225802E+03  0.87409570834E+03  0.00000000000E+00 0.  1.
         11    1    1    2    0    0 -0.12250758329E+02  0.12929482383E+02  0.10346367308E+03  0.10498563826E+03  0.00000000000E+00 0. -1.
</event>
<event>
 7    1  0.2619826E-009  0.1008230E+03  0.7561462E-02  0.1278575E+00
          2   -1    0    0  501    0  0.00000000000E+00  0.00000000000E+00  0.46338012731E+02  0.46338012731E+02  0.00000000000E+00 0. -1.
         -2   -1    0    0    0  501 -0.00000000000E+00 -0.00000000000E+00 -0.26419913818E+03  0.26419913818E+03  0.00000000000E+00 0.  1.
         25    2    1    2    0    0 -0.19031623924E+02 -0.27403037377E+01 -0.10380407447E+03  0.16368342874E+03  0.12508903626E+03 0.  0.
          5    1    3    3  502    0  0.69520398615E+01 -0.56432008514E+02 -0.82343625686E+02  0.10015411891E+03  0.41800000000E+01 0. -1.
         -5    1    3    3    0  502 -0.25983663785E+02  0.53691704776E+02 -0.21460448786E+02  0.63529309831E+02  0.41800000000E+01 0. -1.
        -11    1    1    2    0    0 -0.66183886508E+01  0.39480238912E+02 -0.83554355572E+02  0.92648921569E+02  0.00000000000E+00 0.  1.
         11    1    1    2    0    0  0.25650012574E+02 -0.36739935175E+02 -0.30502695409E+02  0.54204800608E+02  0.00000000000E+00 0. -1.
</event>
<event>
 7    1  0.2619826E-009  0.1865354E+03  0.7561462E-02  0.1161624E+00
         -2   -1    0    0    0  501 -0.00000000000E+00  0.00000000000E+00  0.38430634253E+02  0.38430634253E+02  0.00000000000E+00 0.  1.
          2   -1    0    0  501    0  0.00000000000E+00 -0.00000000000E+00 -0.16327064476E+04  0.16327064476E+04  0.00000000000E+00 0. -1.
         25    2    1    2    0    0  0.96197733008E+02  0.11780917586E+03 -0.13764297954E+04  0.13904471578E+04  0.12510520093E+03 0.  0.
          5    1    3    3  502    0 -0.30296621467E+02  0.26703170652E+02 -0.25038417348E+03  0.25365459058E+03  0.41800000000E+01 0. -1.
         -5    1    3    3    0  502  0.12649435448E+03  0.91106005205E+02 -0.11260456219E+04  0.11367925672E+04  0.41800000000E+01 0. -1.
        -11    1    1    2    0    0 -0.20421579406E+02 -0.95319811061E+02 -0.13047825158E+03  0.16287259260E+03  0.00000000000E+00 0. -1.
         11    1    1    2    0    0 -0.75776153602E+02 -0.22489364796E+02 -0.87367766381E+02  0.11781733143E+03  0.00000000000E+00 0.  1.
</event>
<event>
 7    1  0.2619826E-009  0.1034145E+03  0.7561462E-02  0.1273275E+00
         -3   -1    0    0    0  501 -0.00000000000E+00  0.00000000000E+00  0.46101740879E+03  0.46101740879E+03  0.00000000000E+00 0.  1.
          3   -1    0    0  501    0  0.00000000000E+00 -0.00000000000E+00 -0.26405762610E+02  0.26405762610E+02  0.00000000000E+00 0. -1.
         25    2    1    2    0    0  0.86715808245E+01 -0.81652092591E+01  0.21292801064E+03  0.24723796314E+03  0.12508559368E+03 0.  0.
          5    1    3    3  502    0 -0.41162094356E+02  0.30531782804E+02  0.14768781621E+03  0.15638309125E+03  0.41800000000E+01 0. -1.
         -5    1    3    3    0  502  0.49833675181E+02 -0.38696992063E+02  0.65240194432E+02  0.90854871891E+02  0.41800000000E+01 0. -1.
        -11    1    1    2    0    0 -0.22448922830E+01 -0.41769842338E+02  0.10968572550E+03  0.11739130142E+03  0.00000000000E+00 0. -1.
         11    1    1    2    0    0 -0.64266885415E+01  0.49935051597E+02  0.11199791004E+03  0.12279390684E+03  0.00000000000E+00 0.  1.
</event>
<event>
 7    1  0.2619826E-009  0.9434948E+02  0.7561462E-02  0.1292648E+00
          3   -1    0    0  501    0  0.00000000000E+00  0.00000000000E+00  0.60435897754E+03  0.60435897754E+03  0.00000000000E+00 0. -1.
         -3   -1    0    0    0  501 -0.00000000000E+00 -0.00000000000E+00 -0.24233990191E+02  0.24233990191E+02  0.00000000000E+00 0.  1.
         25    2    1    2    0    0 -0.16591464350E+02 -0.41118057720E+02  0.25948387318E+03  0.29145351614E+03  0.12508916928E+03 0.  0.
          5    1    3    3  502    0 -0.62801201116E+00  0.21576499829E+02 -0.19768273236E+01  0.22075325370E+02  0.41800000000E+01 0.  1.
         -5    1    3    3    0  502 -0.15963452339E+02 -0.62694557549E+02  0.26146070050E+03  0.26937819077E+03  0.41800000000E+01 0.  1.
        -11    1    1    2    0    0 -0.38256325721E+02  0.19366398721E+02  0.10131059360E+03  0.11001109141E+03  0.00000000000E+00 0.  1.
         11    1    1    2    0    0  0.54847790072E+02  0.21751659000E+02  0.21933052057E+03  0.22712836018E+03  0.00000000000E+00 0. -1.
</event>
<event>
 7    1  0.2619826E-009  0.1273941E+03  0.7561462E-02  0.1231374E+00
         -1   -1    0    0    0  501 -0.00000000000E+00  0.00000000000E+00  0.27498770341E+02  0.27498770341E+02  0.00000000000E+00 0.  1.
          1   -1    0    0  501    0  0.00000000000E+00 -0.00000000000E+00 -0.75771139529E+03  0.75771139529E+03  0.00000000000E+00 0. -1.
         25    2    1    2    0    0 -0.76917026358E+02  0.50601986925E+02 -0.32438004894E+03  0.35964672993E+03  0.12508622694E+03 0.  0.
          5    1    3    3  502    0 -0.10079310123E+03  0.63745803285E+02 -0.20572353532E+03  0.23782855606E+03  0.41800000000E+01 0.  1.
         -5    1    3    3    0  502  0.23876074871E+02 -0.13143816361E+02 -0.11865651362E+03  0.12181817387E+03  0.41800000000E+01 0.  1.
        -11    1    1    2    0    0 -0.38660906252E+01 -0.21766167072E+02 -0.18438654458E+02  0.28787091967E+02  0.00000000000E+00 0. -1.
         11    1    1    2    0    0  0.80783116984E+02 -0.28835819853E+02 -0.38739392155E+03  0.39677634374E+03  0.00000000000E+00 0.  1.
</event>
<event>
 7    1  0.2619826E-009  0.9425794E+02  0.7561462E-02  0.1292856E+00
          4   -1    0    0  501    0  0.00000000000E+00  0.00000000000E+00  0.24170499859E+03  0.24170499859E+03  0.00000000000E+00 0. -1.
         -4   -1    0    0    0  501 -0.00000000000E+00 -0.00000000000E+00 -0.81547051484E+02  0.81547051484E+02  0.00000000000E+00 0.  1.
         25    2    1    2    0    0 -0.40724321204E+02  0.70980374188E+01 -0.24859704859E+01  0.13176802259E+03  0.12509108384E+03 0.  0.
          5    1    3    3  502    0 -0.44179138305E+02  0.53517515178E+02 -0.31958030351E+02  0.76516068875E+02  0.41800000000E+01 0.  1.
         -5    1    3    3    0  502  0.34548171003E+01 -0.46419477759E+02  0.29472059865E+02  0.55251953714E+02  0.41800000000E+01 0.  1.
        -11    1    1    2    0    0  0.52564425889E+02 -0.18593033122E+02  0.16558649839E+03  0.17472151613E+03  0.00000000000E+00 0. -1.
         11    1    1    2    0    0 -0.11840104684E+02  0.11494995703E+02 -0.29425807987E+01  0.16762511354E+02  0.00000000000E+00 0.  1.
</event>
<event>
 7    1  0.2619826E-009  0.1688013E+03  0.7561462E-02  0.1179104E+00
          1   -1    0    0  501    0  0.00000000000E+00  0.00000000000E+00  0.39811056346E+03  0.39811056346E+03  0.00000000000E+00 0. -1.
         -1   -1    0    0    0  501 -0.00000000000E+00 -0.00000000000E+00 -0.11878700985E+03  0.11878700985E+03  0.00000000000E+00 0.  1.
         25    2    1    2    0    0  0.14364926257E+03 -0.53847179474E+02  0.16033422377E+02  0.19859367691E+03  0.12509096091E+03 0.  0.
          5    1    3    3  502    0 -0.78058112080E+00  0.13463154149E+02 -0.29596744719E+02  0.32791851496E+02  0.41800000000E+01 0. -1.
         -5    1    3    3    0  502  0.14442984370E+03 -0.67310333624E+02  0.45630167096E+02  0.16580182542E+03  0.41800000000E+01 0. -1.
        -11    1    1    2    0    0 -0.43095665121E+02  0.46292971378E+02  0.16821815522E+03  0.17971539527E+03  0.00000000000E+00 0. -1.
         11    1    1    2    0    0 -0.10055359745E+03  0.75542080969E+01  0.95071976022E+02  0.13858850113E+03  0.00000000000E+00 0.  1.
</event>
<event>
 7    1  0.2619826E-009  0.1189538E+03  0.7561462E-02  0.1244833E+00
          1   -1    0    0  501    0  0.00000000000E+00  0.00000000000E+00  0.50876314142E+03  0.50876314142E+03  0.00000000000E+00 0. -1.
         -1   -1    0    0    0  501 -0.00000000000E+00 -0.00000000000E+00 -0.45406618403E+02  0.45406618403E+02  0.00000000000E+00 0.  1.
         25    2    1    2    0    0  0.61137323168E+02 -0.32435623869E+02  0.39580765773E+03  0.42083365162E+03  0.12508964160E+03 0.  0.
          5    1    3    3  502    0  0.74828611994E+02  0.28469068486E+02  0.23392854153E+03  0.24728494491E+03  0.41800000000E+01 0. -1.
         -5    1    3    3    0  502 -0.13691288826E+02 -0.60904692355E+02  0.16187911620E+03  0.17354870671E+03  0.41800000000E+01 0. -1.
        -11    1    1    2    0    0 -0.59794619705E+02  0.49763354467E+02  0.16654394813E+02  0.79555998265E+02  0.00000000000E+00 0.  1.
         11    1    1    2    0    0 -0.13427034634E+01 -0.17327730598E+02  0.50894470476E+02  0.53780109941E+02  0.00000000000E+00 0. -1.
</event>
<event>
 7    1  0.2619826E-009  0.1446298E+03  0.7561462E-02  0.1207232E+00
          2   -1    0    0  501    0  0.00000000000E+00  0.00000000000E+00  0.10815357042E+04  0.10815357042E+04  0.00000000000E+00 0. -1.
         -2   -1    0    0    0  501 -0.00000000000E+00 -0.00000000000E+00 -0.21396762359E+02  0.21396762359E+02  0.00000000000E+00 0.  1.
         25    2    1    2    0    0  0.31256548426E+02  0.34419279205E+02  0.40211841079E+03  0.42368539454E+03  0.12509371948E+03 0.  0.
          5    1    3    3  502    0  0.22105445209E+02 -0.40310216563E+02  0.24620760547E+03  0.25049794741E+03  0.41800000000E+01 0.  1.
         -5    1    3    3    0  502  0.91511032161E+01  0.74729495768E+02  0.15591080532E+03  0.17318744713E+03  0.41800000000E+01 0.  1.
        -11    1    1    2    0    0  0.66357815703E+02 -0.17457416743E+02  0.23754836466E+03  0.24725967455E+03  0.00000000000E+00 0.  1.
         11    1    1    2    0    0 -0.97614364128E+02 -0.16961862462E+02  0.42047216641E+03  0.43198739748E+03  0.00000000000E+00 0. -1.
</event>
<event>
 7    1  0.2619826E-009  0.1349561E+03  0.7561462E-02  0.1220282E+00
         -2   -1    0    0    0  501 -0.00000000000E+00  0.00000000000E+00  0.44435274480E+02  0.44435274480E+02  0.00000000000E+00 0.  1.
          2   -1    0    0  501    0  0.00000000000E+00 -0.00000000000E+00 -0.53222007246E+03  0.53222007246E+03  0.00000000000E+00 0. -1.
         25    2    1    2    0    0 -0.10026783919E+03 -0.43198682849E+02 -0.25940608635E+03  0.30798351852E+03  0.12507023735E+03 0.  0.
          5    1    3    3  502    0 -0.99195490254E+02 -0.14589732779E+02 -0.85937374137E+02  0.13211854625E+03  0.41800000000E+01 0.  1.
         -5    1    3    3    0  502 -0.10723489380E+01 -0.28608950070E+02 -0.17346871221E+03  0.17586497227E+03  0.41800000000E+01 0.  1.
        -11    1    1    2    0    0  0.82357132329E+02  0.70208156243E+02 -0.18767479030E+03  0.21664189198E+03  0.00000000000E+00 0. -1.
         11    1    1    2    0    0  0.17910706863E+02 -0.27009473394E+02 -0.40703921329E+02  0.52029936430E+02  0.00000000000E+00 0.  1.
</event>
<event>
 7    1  0.2619826E-009  0.6491246E+02  0.7561462E-02  0.1378301E+00
          4   -1    0    0  501    0  0.00000000000E+00  0.00000000000E+00  0.10988581891E+03  0.10988581891E+03  0.00000000000E+00 0. -1.
         -4   -1    0    0    0  501 -0.00000000000E+00 -0.00000000000E+00 -0.13681951194E+03  0.13681951194E+03  0.00000000000E+00 0.  1.
         25    2    1    2    0    0  0.34604870615E+02  0.24464823687E+01 -0.52757783424E+02  0.14012785185E+03  0.12509575854E+03 0.  0.
          5    1    3    3  502    0  0.12935680667E+02  0.24269495159E+01 -0.93113589635E+02  0.94132007803E+02  0.41800000000E+01 0.  1.
         -5    1    3    3    0  502  0.21669189948E+02  0.19532852812E-01  0.40355806211E+02  0.45995844046E+02  0.41800000000E+01 0.  1.
        -11    1    1    2    0    0 -0.48722308439E+02 -0.33977555251E+02 -0.58767406698E+01  0.59689812207E+02  0.00000000000E+00 0.  1.
         11    1    1    2    0    0  0.14117437824E+02  0.31531072882E+02  0.31700831066E+02  0.46887666801E+02  0.00000000000E+00 0. -1.
</event>
<event>
 7    1  0.2619826E-009  0.1120593E+03  0.7561462E-02  0.1256803E+00
          1   -1    0    0  501    0  0.00000000000E+00  0.00000000000E+00  0.24570350504E+03  0.24570350504E+03  0.00000000000E+00 0. -1.
         -1   -1    0    0    0  501 -0.00000000000E+00 -0.00000000000E+00 -0.77229116297E+02  0.77229116297E+02  0.00000000000E+00 0.  1.
         25    2    1    2    0    0 -0.51876214104E+02 -0.48856820059E+02  0.14118165360E+03  0.20165413794E+03  0.12511595253E+03 0.  0.
          5    1    3    3  502    0  0.90446935906E+01  0.23410851769E+02 -0.65045134805E+01  0.26261293920E+02  0.41800000000E+01 0. -1.
         -5    1    3    3    0  502 -0.60920907694E+02 -0.72267671828E+02  0.14768616708E+03  0.17539284402E+03  0.41800000000E+01 0. -1.
        -11    1    1    2    0    0  0.10721191470E+02  0.60380977983E+02 -0.12835327481E+02  0.62654226356E+02  0.00000000000E+00 0.  1.
         11    1    1    2    0    0  0.41155022633E+02 -0.11524157924E+02  0.40128062625E+02  0.58624257043E+02  0.00000000000E+00 0. -1.
</event>
<event>
 6    1  0.2619826E-009  0.1224717E+03  0.7561462E-02  0.1239074E+00
         -2   -1    0    0    0  501 -0.00000000000E+00  0.00000000000E+00  0.10313982423E+02  0.10313982423E+02  0.00000000000E+00 0.  1.
          2   -1    0    0  501    0  0.00000000000E+00 -0.00000000000E+00 -0.20494772572E+04  0.20494772572E+04  0.00000000000E+00 0. -1.
          5    1    1    2  502    0 -0.40140272738E+02  0.39320368329E+01 -0.21574238873E+03  0.21951982394E+03  0.41800000000E+01 0. -1.
         -5    1    1    2    0  502  0.56634941608E+02  0.74998681760E+02 -0.13468434508E+04  0.13501248358E+04  0.41800000000E+01 0. -1.
        -11    1    1    2    0    0 -0.46280796606E+02 -0.39107753495E+02 -0.32559883057E+03  0.33118865769E+03  0.00000000000E+00 0. -1.
         11    1    1    2    0    0  0.29786127736E+02 -0.39822965098E+02 -0.15097860465E+03  0.15895792216E+03  0.00000000000E+00 0.  1.
</event>
<event>
 7    1  0.2619826E-009  0.1413069E+03  0.7561462E-02  0.1211581E+00
         -2   -1    0    0    0  501 -0.00000000000E+00  0.00000000000E+00  0.13748894708E+03  0.13748894708E+03  0.00000000000E+00 0.  1.
          2   -1    0    0  501    0  0.00000000000E+00 -0.00000000000E+00 -0.23330770570E+03  0.23330770570E+03  0.00000000000E+00 0. -1.
         25    2    1    2    0    0 -0.11084224315E+03  0.59058594071E+02  0.20874429131E+02  0.17848492651E+03  0.12508879566E+03 0.  0.
          5    1    3    3  502    0 -0.11358453133E+03  0.45300564148E+02 -0.29637623620E+02  0.12589459085E+03  0.41800000000E+01 0. -1.
         -5    1    3    3    0  502  0.27422881863E+01  0.13758029923E+02  0.50512052751E+02  0.52590335662E+02  0.41800000000E+01 0. -1.
        -11    1    1    2    0    0  0.10119602588E+03 -0.17179890857E+02 -0.53117513175E+02  0.11557358915E+03  0.00000000000E+00 0.  1.
         11    1    1    2    0    0  0.96462172689E+01 -0.41878703214E+02 -0.63575674572E+02  0.76738137114E+02  0.00000000000E+00 0. -1.
</event>
<event>
 7    1  0.2619826E-009  0.1037277E+03  0.7561462E-02  0.1272647E+00
         -1   -1    0    0    0  501 -0.00000000000E+00  0.00000000000E+00  0.18983658537E+03  0.18983658537E+03  0.00000000000E+00 0.  1.
          1   -1    0    0  501    0  0.00000000000E+00 -0.00000000000E+00 -0.79526949725E+02  0.79526949725E+02  0.00000000000E+00 0. -1.
         25    2    1    2    0    0 -0.42244101796E+02 -0.37118049581E+02  0.77358730552E+02  0.15746122162E+03  0.12508936558E+03 0.  0.
          5    1    3    3  502    0 -0.83624773462E+02 -0.66675042899E+01  0.59400188069E+02  0.10287571673E+03  0.41800000000E+01 0.  1.
         -5    1    3    3    0  502  0.41380671666E+02 -0.30450545291E+02  0.17958542484E+02  0.54585504891E+02  0.41800000000E+01 0.  1.
        -11    1    1    2    0    0  0.29538708542E+02  0.47209462686E+02 -0.17924179826E+02  0.58502520389E+02  0.00000000000E+00 0. -1.
         11    1    1    2    0    0  0.12705393254E+02 -0.10091413105E+02  0.50875084918E+02  0.53399793086E+02  0.00000000000E+00 0.  1.
</event>
<event>
 7    1  0.2619826E-009  0.1148725E+03  0.7561462E-02  0.1251804E+00
         -2   -1    0    0    0  501 -0.00000000000E+00  0.00000000000E+00  0.13384962348E+03  0.13384962348E+03  0.00000000000E+00 0.  1.
          2   -1    0    0  501    0  0.00000000000E+00 -0.00000000000E+00 -0.15015876136E+03  0.15015876136E+03  0.00000000000E+00 0. -1.
         25    2    1    2    0    0  0.90421786134E+02 -0.58873471736E+01  0.21640556336E+01  0.15450779489E+03  0.12512879478E+03 0.  0.
          5    1    3    3  502    0  0.77290317777E+02 -0.26448252253E+02  0.53345684167E+02  0.97655197960E+02  0.41800000000E+01 0.  1.
         -5    1    3    3    0  502  0.13131468357E+02  0.20560905079E+02 -0.51181628533E+02  0.56852596935E+02  0.41800000000E+01 0.  1.
        -11    1    1    2    0    0  0.16177852208E+02 -0.20190537660E+01  0.96829990639E+01  0.18962066107E+02  0.00000000000E+00 0.  1.
         11    1    1    2    0    0 -0.10659963834E+03  0.79064009396E+01 -0.28156192580E+02  0.11053852383E+03  0.00000000000E+00 0. -1.
</event>
<event>
 7    1  0.2619826E-009  0.1454438E+03  0.7561462E-02  0.1206186E+00
          2   -1    0    0  501    0  0.00000000000E+00  0.00000000000E+00  0.53016625527E+03  0.53016625527E+03  0.00000000000E+00 0. -1.
         -2   -1    0    0    0  501 -0.00000000000E+00 -0.00000000000E+00 -0.56135673856E+02  0.56135673856E+02  0.00000000000E+00 0.  1.
         25    2    1    2    0    0  0.11868744875E+03  0.57436027397E+02  0.19908049831E+03  0.26956574406E+03  0.12508812026E+03 0.  0.
          5    1    3    3  502    0  0.13309431253E+03  0.52990641335E+02  0.11419020665E+03  0.18324568151E+03  0.41800000000E+01 0.  1.
         -5    1    3    3    0  502 -0.14406863779E+02  0.44453860623E+01  0.84890291656E+02  0.86320062550E+02  0.41800000000E+01 0.  1.
        -11    1    1    2    0    0 -0.51092661346E+02 -0.22352613679E+02  0.37075470436E+02  0.66967827273E+02  0.00000000000E+00 0.  1.
         11    1    1    2    0    0 -0.67594787402E+02 -0.35083413718E+02  0.23787461267E+03  0.24976835779E+03  0.00000000000E+00 0. -1.
</event>
<event>
 7    1  0.2619826E-009  0.2483116E+03  0.7561462E-02  0.1114376E+00
          1   -1    0    0  501    0  0.00000000000E+00  0.00000000000E+00  0.42623131212E+03  0.42623131212E+03  0.00000000000E+00 0. -1.
         -1   -1    0    0    0  501 -0.00000000000E+00 -0.00000000000E+00 -0.18113283778E+03  0.18113283778E+03  0.00000000000E+00 0.  1.
         25    2    1    2    0    0  0.23492271353E+03 -0.56052367388E+02  0.21656916821E+03  0.34767849206E+03  0.12509028737E+03 0.  0.
          5    1    3    3  502    0  0.54106097797E+01 -0.16329855002E+02 -0.11940437979E+02  0.21353812815E+02  0.41800000000E+01 0.  1.
         -5    1    3    3    0  502  0.22951210376E+03 -0.39722512386E+02  0.22850960619E+03  0.32632467924E+03  0.41800000000E+01 0.  1.
        -11    1    1    2    0    0 -0.12640187813E+03  0.62527582978E+01 -0.24720319171E+02  0.12894815222E+03  0.00000000000E+00 0.  1.
         11    1    1    2    0    0 -0.10852083540E+03  0.49799609090E+02  0.53249625294E+02  0.13073750562E+03  0.00000000000E+00 0. -1.
</event>
<event>
 7    1  0.2619826E-009  0.1145507E+03  0.7561462E-02  0.1252367E+00
         -2   -1    0    0    0  501 -0.00000000000E+00  0.00000000000E+00  0.31684252686E+02  0.31684252686E+02  0.00000000000E+00 0.  1.
          2   -1    0    0  501    0  0.00000000000E+00 -0.00000000000E+00 -0.66920053313E+03  0.66920053313E+03  0.00000000000E+00 0. -1.
         25    2    1    2    0    0  0.93306123145E+02  0.27178727303E+02 -0.36470473990E+03  0.39761998641E+03  0.12508952977E+03 0.  0.
          5    1    3    3  502    0  0.27765236940E+02 -0.34502943372E+01 -0.26823356630E+01  0.28416196754E+02  0.41800000000E+01 0. -1.
         -5    1    3    3    0  502  0.65540886205E+02  0.30629021640E+02 -0.36202240423E+03  0.36920378966E+03  0.41800000000E+01 0. -1.
        -11    1    1    2    0    0  0.41571605149E+01 -0.30543895279E+02 -0.37486317994E+02  0.48532829704E+02  0.00000000000E+00 0.  1.
         11    1    1    2    0    0 -0.97463283659E+02  0.33651679758E+01 -0.23532522255E+03  0.25473196970E+03  0.00000000000E+00 0. -1.
</event>
<event>
 7    1  0.2619826E-009  0.9572985E+02  0.7561462E-02  0.1289541E+00
          1   -1    0    0  501    0  0.00000000000E+00  0.00000000000E+00  0.30060389405E+03  0.30060389405E+03  0.00000000000E+00 0. -1.
         -1   -1    0    0    0  501 -0.00000000000E+00 -0.00000000000E+00 -0.57618687176E+02  0.57618687176E+02  0.00000000000E+00 0.  1.
         25    2    1    2    0    0  0.60720482797E+02 -0.28508068565E+01  0.94145050517E+02  0.16794281843E+03  0.12508555310E+03 0.  0.
          5    1    3    3  502    0  0.61126489945E+02  0.35639842535E+02  0.53612481588E+01  0.71083482827E+02  0.41800000000E+01 0. -1.
         -5    1    3    3    0  502 -0.40600714850E+00 -0.38490649391E+02  0.88783802358E+02  0.96859335603E+02  0.41800000000E+01 0. -1.
        -11    1    1    2    0    0 -0.68864863752E+02 -0.68367405232E+01  0.15941447375E+03  0.17378747055E+03  0.00000000000E+00 0. -1.
         11    1    1    2    0    0  0.81443809550E+01  0.96875473798E+01 -0.10574317387E+02  0.16492292248E+02  0.00000000000E+00 0.  1.
</event>
<event>
 7    1  0.2619826E-009  0.2320246E+03  0.7561462E-02  0.1125223E+00
          1   -1    0    0  501    0  0.00000000000E+00  0.00000000000E+00  0.85084909209E+03  0.85084909209E+03  0.00000000000E+00 0. -1.
         -1   -1    0    0    0  501 -0.00000000000E+00 -0.00000000000E+00 -0.99104153535E+02  0.99104153535E+02  0.00000000000E+00 0.  1.
         25    2    1    2    0    0  0.81257867305E+02  0.19523572809E+03  0.66594480871E+03  0.70982079782E+03  0.12507296371E+03 0.  0.
          5    1    3    3  502    0  0.63943759439E+02  0.24135730184E+02  0.26140063563E+03  0.27022047027E+03  0.41800000000E+01 0. -1.
         -5    1    3    3    0  502  0.17314107866E+02  0.17109999791E+03  0.40454417308E+03  0.43960032756E+03  0.41800000000E+01 0. -1.
        -11    1    1    2    0    0 -0.90876779329E+02 -0.13619483666E+03  0.54125896436E+02  0.17244487588E+03  0.00000000000E+00 0.  1.
         11    1    1    2    0    0  0.96189120242E+01 -0.59040891439E+02  0.31674233410E+02  0.67687571921E+02  0.00000000000E+00 0. -1.
</event>
<event>
 7    1  0.2619826E-009  0.1555875E+03  0.7561462E-02  0.1193770E+00
         -1   -1    0    0    0  501 -0.00000000000E+00  0.00000000000E+00  0.69949735043E+02  0.69949735043E+02  0.00000000000E+00 0.  1.
          1   -1    0    0  501    0  0.00000000000E+00 -0.00000000000E+00 -0.45119179524E+03  0.45119179524E+03  0.00000000000E+00 0. -1.
         25    2    1    2    0    0  0.11652197422E+03  0.58182943515E+02 -0.14644433649E+03  0.23249860132E+03  0.12508809110E+03 0.  0.
          5    1    3    3  502    0  0.13754062547E+03  0.68738336140E+02 -0.13941602277E+03  0.20759740441E+03  0.41800000000E+01 0.  1.
         -5    1    3    3    0  502 -0.21018651255E+02 -0.10555392624E+02 -0.70283137124E+01  0.24901196912E+02  0.41800000000E+01 0.  1.
        -11    1    1    2    0    0 -0.53127578271E+02 -0.10529422358E+02 -0.16861332811E+02  0.56724887416E+02  0.00000000000E+00 0.  1.
         11    1    1    2    0    0 -0.63394395948E+02 -0.47653521157E+02 -0.21793639090E+03  0.23191804155E+03  0.00000000000E+00 0. -1.
</event>
<event>
 7    1  0.2619826E-009  0.1126756E+03  0.7561462E-02  0.1255694E+00
         -4   -1    0    0    0  501 -0.00000000000E+00  0.00000000000E+00  0.49575481917E+03  0.49575481917E+03  0.00000000000E+00 0. -1.
          4   -1    0    0  501    0  0.00000000000E+00 -0.00000000000E+00 -0.30952736543E+02  0.30952736543E+02  0.00000000000E+00 0.  1.
         25    2    1    2    0    0 -0.45453474767E+02 -0.45418867024E+02  0.27696518420E+03  0.31062318449E+03  0.12509259622E+03 0.  0.
          5    1    3    3  502    0 -0.68947055655E+02  0.14762487071E+01  0.22979965083E+03  0.23996088789E+03  0.41800000000E+01 0.  1.
         -5    1    3    3    0  502  0.23493580888E+02 -0.46895115731E+02  0.47165533372E+02  0.70662296599E+02  0.41800000000E+01 0.  1.
        -11    1    1    2    0    0  0.32642188448E+02 -0.19131289402E+02  0.95274155444E+02  0.10251186954E+03  0.00000000000E+00 0. -1.
         11    1    1    2    0    0  0.12811286319E+02  0.64550156426E+02  0.92562742981E+02  0.11357250169E+03  0.00000000000E+00 0.  1.
</event>
<event>
 7    1  0.2619826E-009  0.1043819E+03  0.7561462E-02  0.1271342E+00
         -3   -1    0    0    0  501 -0.00000000000E+00  0.00000000000E+00  0.18002740410E+03  0.18002740410E+03  0.00000000000E+00 0.  1.
          3   -1    0    0  501    0  0.00000000000E+00 -0.00000000000E+00 -0.91975083548E+02  0.91975083548E+02  0.00000000000E+00 0. -1.
         25    2    1    2    0    0 -0.31902687753E+02  0.57587050880E+02  0.27055820861E+02  0.14392254156E+03  0.12509048970E+03 0.  0.
          5    1    3    3  502    0 -0.23120287908E+02 -0.38316590939E+02  0.95662534741E+01  0.45953176817E+02  0.41800000000E+01 0. -1.
         -5    1    3    3    0  502 -0.87823998451E+01  0.95903641818E+02  0.17489567387E+02  0.97969364745E+02  0.41800000000E+01 0. -1.
        -11    1    1    2    0    0  0.68213360701E+01 -0.27090905549E+02 -0.22400212122E+02  0.35808061835E+02  0.00000000000E+00 0. -1.
         11    1    1    2    0    0  0.25081351683E+02 -0.30496145331E+02  0.83396711816E+02  0.92271884255E+02  0.00000000000E+00 0.  1.
</event>
<event>
 7    1  0.2619826E-009  0.1394167E+03  0.7561462E-02  0.1214116E+00
          1   -1    0    0  501    0  0.00000000000E+00  0.00000000000E+00  0.42099777812E+02  0.42099777812E+02  0.00000000000E+00 0. -1.
         -1   -1    0    0    0  501 -0.00000000000E+00 -0.00000000000E+00 -0.63734958118E+03  0.63734958118E+03  0.00000000000E+00 0.  1.
         25    2    1    2    0    0 -0.88433824995E+02 -0.69083298329E+02 -0.42050246884E+03  0.45283837637E+03  0.12508886962E+03 0.  0.
          5    1    3    3  502    0 -0.75212091308E+02  0.15848810021E+02 -0.14441310679E+03  0.16364797973E+03  0.41800000000E+01 0.  1.
         -5    1    3    3    0  502 -0.13221733687E+02 -0.84932108349E+02 -0.27608936205E+03  0.28919039664E+03  0.41800000000E+01 0.  1.
        -11    1    1    2    0    0  0.61303872782E+02  0.30073379114E+02 -0.16434978006E+03  0.17797028728E+03  0.00000000000E+00 0.  1.
         11    1    1    2    0    0  0.27129952213E+02  0.39009919215E+02 -0.10397554468E+02  0.48640695340E+02  0.00000000000E+00 0. -1.
</event>
<event>
 7    1  0.2619826E-009  0.1164552E+03  0.7561462E-02  0.1249062E+00
         -1   -1    0    0    0  501 -0.00000000000E+00  0.00000000000E+00  0.38450749022E+03  0.38450749022E+03  0.00000000000E+00 0.  1.
          1   -1    0    0  501    0  0.00000000000E+00 -0.00000000000E+00 -0.39266134786E+02  0.39266134786E+02  0.00000000000E+00 0. -1.
         25    2    1    2    0    0  0.13231145889E+02 -0.51407914267E+02  0.16570972134E+03  0.21430048205E+03  0.12508856058E+03 0.  0.
          5    1    3    3  502    0  0.53674080750E+02 -0.65601325772E+02  0.72472384298E+02  0.11159820685E+03  0.41800000000E+01 0.  1.
         -5    1    3    3    0  502 -0.40442934861E+02  0.14193411505E+02  0.93237337047E+02  0.10270227519E+03  0.41800000000E+01 0.  1.
        -11    1    1    2    0    0 -0.52045358217E+01  0.77504274639E+02  0.15200218684E+03  0.17070051138E+03  0.00000000000E+00 0. -1.
         11    1    1    2    0    0 -0.80266100671E+01 -0.26096360373E+02  0.27529447254E+02  0.38772631584E+02  0.00000000000E+00 0.  1.
</event>
<event>
 7    1  0.2619826E-009  0.1682438E+03  0.7561462E-02  0.1179692E+00
          2   -1    0    0  501    0  0.00000000000E+00  0.00000000000E+00  0.83040538074E+03  0.83040538074E+03  0.00000000000E+00 0. -1.
         -2   -1    0    0    0  501 -0.00000000000E+00 -0.00000000000E+00 -0.42749462331E+02  0.42749462331E+02  0.00000000000E+00 0.  1.
         25    2    1    2    0    0  0.66190044517E+01 -0.15655907952E+03  0.43008177263E+03  0.47452373922E+03  0.12509153183E+03 0.  0.
          5    1    3    3  502    0  0.16842486325E+02 -0.13546699822E+03  0.19404198248E+03  0.23728619917E+03  0.41800000000E+01 0.  1.
         -5    1    3    3    0  502 -0.10223481873E+02 -0.21092081298E+02  0.23603979014E+03  0.23723754005E+03  0.41800000000E+01 0.  1.
        -11    1    1    2    0    0  0.37005518377E+02  0.70828432013E+02  0.16890881476E+03  0.18685893845E+03  0.00000000000E+00 0.  1.
         11    1    1    2    0    0 -0.43624522829E+02  0.85730647503E+02  0.18866533102E+03  0.21177216541E+03  0.00000000000E+00 0. -1.
</event>
<event>
 7    1  0.2619826E-009  0.1541725E+03  0.7561462E-02  0.1195438E+00
          1   -1    0    0  501    0  0.00000000000E+00  0.00000000000E+00  0.20486910012E+04  0.20486910012E+04  0.00000000000E+00 0.  1.
         -1   -1    0    0    0  501 -0.00000000000E+00 -0.00000000000E+00 -0.14056542820E+02  0.14056542820E+02  0.00000000000E+00 0. -1.
         25    2    1    2    0    0  0.10522094884E+03 -0.62529494883E+02  0.15151417664E+04  0.15252160038E+04  0.12509156681E+03 0.  0.
          5    1    3    3  502    0 -0.27233273436E+02 -0.13242581335E+01  0.32169175046E+03  0.32287220313E+03  0.41800000000E+01 0.  1.
         -5    1    3    3    0  502  0.13245422228E+03 -0.61205236749E+02  0.11934500159E+04  0.12023438006E+04  0.41800000000E+01 0.  1.
        -11    1    1    2    0    0 -0.31170899014E+02 -0.83652429011E+01  0.18102228172E+03  0.18387677590E+03  0.00000000000E+00 0.  1.
         11    1    1    2    0    0 -0.74050049828E+02  0.70894737784E+02  0.33847041030E+03  0.35365476438E+03  0.00000000000E+00 0. -1.
</event>
<event>
 6    1  0.2619826E-009  0.8829480E+02  0.7561462E-02  0.1307034E+00
         -2   -1    0    0    0  501 -0.00000000000E+00  0.00000000000E+00  0.11916783774E+03  0.11916783774E+03  0.00000000000E+00 0.  1.
          2   -1    0    0  501    0  0.00000000000E+00 -0.00000000000E+00 -0.15763980179E+03  0.15763980179E+03  0.00000000000E+00 0. -1.
          5    1    1    2  502    0 -0.10289993440E+02 -0.21189631790E+02 -0.84774964033E+02  0.88086045360E+02  0.41800000000E+01 0. -1.
         -5    1    1    2    0  502  0.56027694666E+02  0.35813087269E+02  0.66354785994E+01  0.66956566262E+02  0.41800000000E+01 0. -1.
        -11    1    1    2    0    0 -0.56328933949E+02  0.11817626182E+02  0.62717107976E+02  0.85123678970E+02  0.00000000000E+00 0.  1.
         11    1    1    2    0    0  0.10591232723E+02 -0.26441081662E+02 -0.23049586589E+02  0.36641348937E+02  0.00000000000E+00 0. -1.
</event>
<event>
 7    1  0.2619826E-009  0.1443651E+03  0.7561462E-02  0.1207573E+00
          2   -1    0    0  501    0  0.00000000000E+00  0.00000000000E+00  0.18003554884E+03  0.18003554884E+03  0.00000000000E+00 0. -1.
         -2   -1    0    0    0  501 -0.00000000000E+00 -0.00000000000E+00 -0.13303046884E+03  0.13303046884E+03  0.00000000000E+00 0.  1.
         25    2    1    2    0    0 -0.49561666060E+00 -0.10238383846E+03  0.67359490625E+02  0.17512001589E+03  0.12508806088E+03 0.  0.
          5    1    3    3  502    0 -0.31735109233E+02 -0.11544335534E+03  0.27990280361E+02  0.12302525613E+03  0.41800000000E+01 0.  1.
         -5    1    3    3    0  502  0.31239492572E+02  0.13059516885E+02  0.39369210264E+02  0.52094759758E+02  0.41800000000E+01 0.  1.
        -11    1    1    2    0    0  0.31975719470E+02  0.97934114917E+02 -0.63860599875E+01  0.10321976198E+03  0.00000000000E+00 0. -1.
         11    1    1    2    0    0 -0.31480102810E+02  0.44497235402E+01 -0.13968350637E+02  0.34726239820E+02  0.00000000000E+00 0.  1.
</event>
<event>
 7    1  0.2619826E-009  0.6882651E+02  0.7561462E-02  0.1364130E+00
         -1   -1    0    0    0  501 -0.00000000000E+00  0.00000000000E+00  0.59763981504E+02  0.59763981504E+02  0.00000000000E+00 0.  1.
          1   -1    0    0  501    0  0.00000000000E+00 -0.00000000000E+00 -0.23243614299E+03  0.23243614299E+03  0.00000000000E+00 0. -1.
         25    2    1    2    0    0 -0.80105688865E+01 -0.98423619812E+00 -0.14517664394E+03  0.19179706493E+03  0.12507884807E+03 0.  0.
          5    1    3    3  502    0  0.26350056298E+02  0.40621915360E+01 -0.15348874536E+03  0.15584317187E+03  0.41800000000E+01 0. -1.
         -5    1    3    3    0  502 -0.34360625185E+02 -0.50464277341E+01  0.83121014170E+01  0.35953893057E+02  0.41800000000E+01 0. -1.
        -11    1    1    2    0    0  0.41817803429E+02 -0.88630516349E+00  0.16433505582E+02  0.44939674300E+02  0.00000000000E+00 0.  1.
         11    1    1    2    0    0 -0.33807234542E+02  0.18705413616E+01 -0.43929023128E+02  0.55463385267E+02  0.00000000000E+00 0. -1.
</event>
<event>
 7    1  0.2619826E-009  0.3683455E+03  0.7561462E-02  0.1055327E+00
         -2   -1    0    0    0  501 -0.00000000000E+00  0.00000000000E+00  0.12079090398E+03  0.12079090398E+03  0.00000000000E+00 0.  1.
          2   -1    0    0  501    0  0.00000000000E+00 -0.00000000000E+00 -0.14208411634E+04  0.14208411634E+04  0.00000000000E+00 0. -1.
         25    2    1    2    0    0 -0.32676437437E+03  0.14837570164E+03 -0.33111555779E+03  0.50405970177E+03  0.12509342567E+03 0.  0.
          5    1    3    3  502    0 -0.28142138171E+03  0.97995815219E+02 -0.20791581647E+03  0.36338358937E+03  0.41800000000E+01 0. -1.
         -5    1    3    3    0  502 -0.45342992657E+02  0.50379886419E+02 -0.12319974133E+03  0.14067611240E+03  0.41800000000E+01 0.  1.
        -11    1    1    2    0    0  0.17838816622E+03 -0.29883463361E+02 -0.49527663944E+03  0.52727062198E+03  0.00000000000E+00 0.  1.
         11    1    1    2    0    0  0.14837620815E+03 -0.11849223828E+03 -0.47365806222E+03  0.51030174366E+03  0.00000000000E+00 0. -1.
</event>
<event>
 7    1  0.2619826E-009  0.1212034E+03  0.7561462E-02  0.1241125E+00
         -1   -1    0    0    0  501 -0.00000000000E+00  0.00000000000E+00  0.36048812688E+03  0.36048812688E+03  0.00000000000E+00 0.  1.
          1   -1    0    0  501    0  0.00000000000E+00 -0.00000000000E+00 -0.55995686688E+02  0.55995686688E+02  0.00000000000E+00 0. -1.
         25    2    1    2    0    0  0.77087579789E+02  0.28744821876E+02  0.22444124240E+03  0.26979766372E+03  0.12509255900E+03 0.  0.
          5    1    3    3  502    0  0.48127399837E+02  0.69579270645E+02  0.19238117683E+03  0.21020349930E+03  0.41800000000E+01 0.  1.
         -5    1    3    3    0  502  0.28960179952E+02 -0.40834448769E+02  0.32060065574E+02  0.59594164427E+02  0.41800000000E+01 0.  1.
        -11    1    1    2    0    0 -0.17075916559E+02 -0.42583122150E+02  0.70862369942E+02  0.84417916891E+02  0.00000000000E+00 0.  1.
         11    1    1    2    0    0 -0.60011663230E+02  0.13838300274E+02  0.91888278493E+01  0.62268232955E+02  0.00000000000E+00 0. -1.
</event>
<event>
 7    1  0.2619826E-009  0.1553658E+03  0.7561462E-02  0.1194030E+00
          2   -1    0    0  501    0  0.00000000000E+00  0.00000000000E+00  0.73317165407E+02  0.73317165407E+02  0.00000000000E+00 0. -1.
         -2   -1    0    0    0  501 -0.00000000000E+00 -0.00000000000E+00 -0.44920946217E+03  0.44920946217E+03  0.00000000000E+00 0.  1.
         25    2    1    2    0    0 -0.57827654965E+02  0.11622767230E+03 -0.10458523489E+03  0.20841933502E+03  0.12509052068E+03 0.  0.
          5    1    3    3  502    0 -0.92785284003E+02  0.60034633805E+02 -0.45440802769E+02  0.11956423019E+03  0.41800000000E+01 0.  1.
         -5    1    3    3    0  502  0.34957629038E+02  0.56193038499E+02 -0.59144432122E+02  0.88855104833E+02  0.41800000000E+01 0.  1.
        -11    1    1    2    0    0  0.56980282097E+00 -0.31860250579E+02 -0.96636195633E+01  0.33298435178E+02  0.00000000000E+00 0. -1.
         11    1    1    2    0    0  0.57257852144E+02 -0.84367421725E+02 -0.26164344231E+03  0.28080885738E+03  0.00000000000E+00 0.  1.
</event>
<event>
 7    1  0.2619826E-009  0.1112427E+03  0.7561462E-02  0.1258286E+00
          2   -1    0    0  501    0  0.00000000000E+00  0.00000000000E+00  0.55239433102E+02  0.55239433102E+02  0.00000000000E+00 0. -1.
         -2   -1    0    0    0  501 -0.00000000000E+00 -0.00000000000E+00 -0.38451838876E+03  0.38451838876E+03  0.00000000000E+00 0.  1.
         25    2    1    2    0    0 -0.74205303355E+02  0.51792862562E+02 -0.13076628487E+03  0.20232633349E+03  0.12508875371E+03 0.  0.
          5    1    3    3  502    0 -0.64808229867E+02  0.38077490013E+02 -0.50556748492E+01  0.75452197797E+02  0.41800000000E+01 0. -1.
         -5    1    3    3    0  502 -0.93970734871E+01  0.13715372549E+02 -0.12571061002E+03  0.12687413569E+03  0.41800000000E+01 0. -1.
        -11    1    1    2    0    0  0.33693048796E+01  0.25208053092E+02 -0.44163771197E+02  0.50963092943E+02  0.00000000000E+00 0.  1.
         11    1    1    2    0    0  0.70835998475E+02 -0.77000915655E+02 -0.15434889959E+03  0.18646839544E+03  0.00000000000E+00 0. -1.
</event>
<event>
 7    1  0.2619826E-009  0.6948125E+02  0.7561462E-02  0.1361866E+00
          1   -1    0    0  501    0  0.00000000000E+00  0.00000000000E+00  0.48721188359E+03  0.48721188359E+03  0.00000000000E+00 0. -1.
         -1   -1    0    0    0  501 -0.00000000000E+00 -0.00000000000E+00 -0.30708427654E+02  0.30708427654E+02  0.00000000000E+00 0.  1.
         25    2    1    2    0    0 -0.47728483770E+02 -0.28910785554E+02  0.29325515014E+03  0.32366609912E+03  0.12508924394E+03 0.  0.
          5    1    3    3  502    0  0.75938815172E+01 -0.23248274112E+02  0.25461129950E+03  0.25581738705E+03  0.41800000000E+01 0. -1.
         -5    1    3    3    0  502 -0.55322365287E+02 -0.56625114416E+01  0.38643850646E+02  0.67848712069E+02  0.41800000000E+01 0. -1.
        -11    1    1    2    0    0  0.91578365016E+01  0.14616282479E+02 -0.73631078598E+01  0.18754120621E+02  0.00000000000E+00 0.  1.
         11    1    1    2    0    0  0.38570647268E+02  0.14294503075E+02  0.17061141365E+03  0.17550009150E+03  0.00000000000E+00 0. -1.
</event>
<event>
 7    1  0.2619826E-009  0.9188103E+02  0.7561462E-02  0.1298359E+00
         -1   -1    0    0    0  501 -0.00000000000E+00  0.00000000000E+00  0.12488670951E+03  0.12488670951E+03  0.00000000000E+00 0.  1.
          1   -1    0    0  501    0  0.00000000000E+00 -0.00000000000E+00 -0.10266789311E+03  0.10266789311E+03  0.00000000000E+00 0. -1.
         25    2    1    2    0    0  0.47435502174E+02  0.21744477669E+02 -0.19488411691E+01  0.13555022815E+03  0.12508843749E+03 0.  0.
          5    1    3    3  502    0 -0.13958923970E+02 -0.38743776125E+02  0.20783919548E+02  0.46318197921E+02  0.41800000000E+01 0.  1.
         -5    1    3    3    0  502  0.61394426144E+02  0.60488253795E+02 -0.22732760717E+02  0.89232030228E+02  0.41800000000E+01 0.  1.
        -11    1    1    2    0    0 -0.49816350661E+01 -0.11317569995E+02  0.42750620735E+02  0.44503029692E+02  0.00000000000E+00 0.  1.
         11    1    1    2    0    0 -0.42453867108E+02 -0.10426907674E+02 -0.18582963158E+02  0.47501344779E+02  0.00000000000E+00 0. -1.
</event>
<event>
 7    1  0.2619826E-009  0.9470786E+02  0.7561462E-02  0.1291835E+00
         -2   -1    0    0    0  501 -0.00000000000E+00  0.00000000000E+00  0.22028033951E+02  0.22028033951E+02  0.00000000000E+00 0.  1.
          2   -1    0    0  501    0  0.00000000000E+00 -0.00000000000E+00 -0.54098309910E+03  0.54098309910E+03  0.00000000000E+00 0. -1.
         25    2    1    2    0    0 -0.80693191095E+01 -0.80265388332E+01 -0.30986122447E+03  0.33435254468E+03  0.12509239173E+03 0.  0.
          5    1    3    3  502    0  0.17704313777E+02 -0.59196470761E+02 -0.10820520506E+03  0.12467358854E+03  0.41800000000E+01 0.  1.
         -5    1    3    3    0  502 -0.25773632886E+02  0.51169931928E+02 -0.20165601941E+03  0.20967895614E+03  0.41800000000E+01 0.  1.
        -11    1    1    2    0    0 -0.19778854000E+02  0.29052632505E+02 -0.17948890884E+03  0.18289758587E+03  0.00000000000E+00 0. -1.
         11    1    1    2    0    0  0.27848173109E+02 -0.21026093671E+02 -0.29604931845E+02  0.45761002503E+02  0.00000000000E+00 0.  1.
</event>
<event>
 7    1  0.2619826E-009  0.1292157E+03  0.7561462E-02  0.1228624E+00
          1   -1    0    0  501    0  0.00000000000E+00  0.00000000000E+00  0.23635184520E+03  0.23635184520E+03  0.00000000000E+00 0. -1.
         -1   -1    0    0    0  501 -0.00000000000E+00 -0.00000000000E+00 -0.10698934197E+03  0.10698934197E+03  0.00000000000E+00 0.  1.
         25    2    1    2    0    0 -0.28541198808E+01  0.92382741987E+02  0.14332367029E+03  0.21150027034E+03  0.12509185773E+03 0.  0.
          5    1    3    3  502    0 -0.41206082178E+02  0.78573430309E+02  0.14549787855E+03  0.17046650763E+03  0.41800000000E+01 0. -1.
         -5    1    3    3    0  502  0.38351962297E+02  0.13809311678E+02 -0.21742082602E+01  0.41033762716E+02  0.41800000000E+01 0. -1.
        -11    1    1    2    0    0  0.18306748860E+02 -0.10628386440E+03 -0.20160599995E+01  0.10786779585E+03  0.00000000000E+00 0. -1.
         11    1    1    2    0    0 -0.15452628979E+02  0.13901122409E+02 -0.11945107057E+02  0.23973120973E+02  0.00000000000E+00 0.  1.
</event>
<event>
 7    1  0.2619826E-009  0.1047730E+03  0.7561462E-02  0.1270567E+00
         -2   -1    0    0    0  501 -0.00000000000E+00  0.00000000000E+00  0.60972132620E+02  0.60972132620E+02  0.00000000000E+00 0.  1.
          2   -1    0    0  501    0  0.00000000000E+00 -0.00000000000E+00 -0.19618122020E+03  0.19618122020E+03  0.00000000000E+00 0. -1.
         25    2    1    2    0    0  0.89142346134E+01 -0.23118360666E+02 -0.49183873041E+02  0.13666009491E+03  0.12507200324E+03 0.  0.
          5    1    3    3  502    0  0.75328789180E+01 -0.74866547739E+02 -0.25277224890E+02  0.79486821130E+02  0.41800000000E+01 0. -1.
         -5    1    3    3    0  502  0.13813556953E+01  0.51748187073E+02 -0.23906648150E+02  0.57173273780E+02  0.41800000000E+01 0. -1.
        -11    1    1    2    0    0  0.21492900250E+02 -0.20086590789E+02 -0.18483222570E+02  0.34742559020E+02  0.00000000000E+00 0.  1.
         11    1    1    2    0    0 -0.30407134863E+02  0.43204951455E+02 -0.67541991968E+02  0.85750698888E+02  0.00000000000E+00 0. -1.
</event>
<event>
 7    1  0.2619826E-009  0.9683835E+02  0.7561462E-02  0.1287089E+00
         -1   -1    0    0    0  501 -0.00000000000E+00  0.00000000000E+00  0.58460411251E+02  0.58460411251E+02  0.00000000000E+00 0.  1.
          1   -1    0    0  501    0  0.00000000000E+00 -0.00000000000E+00 -0.29473771720E+03  0.29473771720E+03  0.00000000000E+00 0. -1.
         25    2    1    2    0    0  0.38745274009E+02  0.61278186636E+01 -0.46844521673E+02  0.13921544505E+03  0.12509110485E+03 0.  0.
          5    1    3    3  502    0 -0.38567808663E+02  0.15602858482E+01 -0.47886054937E+02  0.61647846794E+02  0.41800000000E+01 0. -1.
         -5    1    3    3    0  502  0.77313082672E+02  0.45675328154E+01  0.10415332638E+01  0.77567598260E+02  0.41800000000E+01 0. -1.
        -11    1    1    2    0    0 -0.28253037691E+01 -0.32567295123E+02 -0.18999263977E+02  0.37809827885E+02  0.00000000000E+00 0.  1.
         11    1    1    2    0    0 -0.35919970240E+02  0.26439476460E+02 -0.17043352030E+03  0.17617285551E+03  0.00000000000E+00 0. -1.
</event>
<event>
 7    1  0.2619826E-009  0.1110748E+03  0.7561462E-02  0.1258592E+00
         -2   -1    0    0    0  501 -0.00000000000E+00  0.00000000000E+00  0.63244470160E+02  0.63244470160E+02  0.00000000000E+00 0.  1.
          2   -1    0    0  501    0  0.00000000000E+00 -0.00000000000E+00 -0.27867784942E+03  0.27867784942E+03  0.00000000000E+00 0. -1.
         25    2    1    2    0    0  0.41237349946E+01  0.45764170168E+02 -0.19757146567E+03  0.23831299772E+03  0.12508891387E+03 0.  0.
          5    1    3    3  502    0 -0.70639012023E+01  0.83353768367E+02 -0.86316541319E+02  0.12027371744E+03  0.41800000000E+01 0.  1.
         -5    1    3    3    0  502  0.11187636197E+02 -0.37589598199E+02 -0.11125492435E+03  0.11803928028E+03  0.41800000000E+01 0.  1.
        -11    1    1    2    0    0 -0.28085761234E+01  0.26513427242E+02 -0.16406081231E+02  0.31305102225E+02  0.00000000000E+00 0. -1.
         11    1    1    2    0    0 -0.13151588713E+01 -0.72277597410E+02 -0.14558323648E+01  0.72304219643E+02  0.00000000000E+00 0.  1.
</event>
<event>
 7    1  0.2619826E-009  0.1116205E+03  0.7561462E-02  0.1257598E+00
         -2   -1    0    0    0  501 -0.00000000000E+00  0.00000000000E+00  0.32330303321E+03  0.32330303321E+03  0.00000000000E+00 0.  1.
          2   -1    0    0  501    0  0.00000000000E+00 -0.00000000000E+00 -0.54230224449E+02  0.54230224449E+02  0.00000000000E+00 0. -1.
         25    2    1    2    0    0 -0.56247769077E+02 -0.11093674917E+02  0.77887261157E+02  0.15811923697E+03  0.12509351103E+03 0.  0.
          5    1    3    3  502    0 -0.93302302350E+02 -0.26765164484E+02  0.55304505052E+02  0.11179335549E+03  0.41800000000E+01 0. -1.
         -5    1    3    3    0  502  0.37054533273E+02  0.15671489568E+02  0.22582756105E+02  0.46325881477E+02  0.41800000000E+01 0. -1.
        -11    1    1    2    0    0  0.10633882424E+01  0.27923019517E+02  0.13847773270E+03  0.14126892180E+03  0.00000000000E+00 0.  1.
         11    1    1    2    0    0  0.55184380834E+02 -0.16829344600E+02  0.52707814902E+02  0.78145098883E+02  0.00000000000E+00 0. -1.
</event>
<event>
 7    1  0.2619826E-009  0.1170046E+03  0.7561462E-02  0.1248122E+00
          3   -1    0    0  501    0  0.00000000000E+00  0.00000000000E+00  0.29429103311E+02  0.29429103311E+02  0.00000000000E+00 0. -1.
         -3   -1    0    0    0  501 -0.00000000000E+00 -0.00000000000E+00 -0.66789904683E+03  0.66789904683E+03  0.00000000000E+00 0.  1.
         25    2    1    2    0    0  0.43462765373E+01  0.84836845184E+02 -0.40413594800E+03  0.43149755122E+03  0.12509233321E+03 0.  0.
          5    1    3    3  502    0  0.53951262712E+02  0.75226101143E+02 -0.32112640304E+03  0.33422947831E+03  0.41800000000E+01 0. -1.
         -5    1    3    3    0  502 -0.49604986175E+02  0.96107440410E+01 -0.83009544954E+02  0.97268072912E+02  0.41800000000E+01 0. -1.
        -11    1    1    2    0    0  0.13592777401E+02 -0.29754449597E+02 -0.19023054881E+03  0.19302267372E+03  0.00000000000E+00 0.  1.
         11    1    1    2    0    0 -0.17939053938E+02 -0.55082395587E+02 -0.44103446705E+02  0.72807925194E+02  0.00000000000E+00 0. -1.
</event>
<event>
 7    1  0.2619826E-009  0.8863525E+02  0.7561462E-02  0.1306191E+00
          1   -1    0    0  501    0  0.00000000000E+00  0.00000000000E+00  0.25346113985E+03  0.25346113985E+03  0.00000000000E+00 0. -1.
         -1   -1    0    0    0  501 -0.00000000000E+00 -0.00000000000E+00 -0.51919550884E+02  0.51919550884E+02  0.00000000000E+00 0.  1.
         25    2    1    2    0    0 -0.97619350003E+01  0.29648050392E+02  0.88591478497E+02  0.15642316674E+03  0.12508179229E+03 0.  0.
          5    1    3    3  502    0  0.39620075073E+02  0.13232739354E+02 -0.11506844561E+02  0.43528560870E+02  0.41800000000E+01 0.  1.
         -5    1    3    3    0  502 -0.49382010074E+02  0.16415311038E+02  0.10009832306E+03  0.11289460587E+03  0.41800000000E+01 0.  1.
        -11    1    1    2    0    0 -0.15496868636E+02  0.21227980810E+02  0.46854259004E+01  0.26697065806E+02  0.00000000000E+00 0.  1.
         11    1    1    2    0    0  0.25258803636E+02 -0.50876031201E+02  0.10826468457E+03  0.12226045819E+03  0.00000000000E+00 0. -1.
</event>
<event>
 7    1  0.2619826E-009  0.1242011E+03  0.7561462E-02  0.1236323E+00
         -2   -1    0    0    0  501 -0.00000000000E+00  0.00000000000E+00  0.19507961368E+03  0.19507961368E+03  0.00000000000E+00 0.  1.
          2   -1    0    0  501    0  0.00000000000E+00 -0.00000000000E+00 -0.15876016002E+03  0.15876016002E+03  0.00000000000E+00 0. -1.
         25    2    1    2    0    0 -0.61482323801E+02 -0.65880147912E+02  0.12287715893E+03  0.19714392801E+03  0.12508661853E+03 0.  0.
          5    1    3    3  502    0 -0.96238467968E+02 -0.35360641491E+02  0.59647588486E+02  0.11869087958E+03  0.41800000000E+01 0.  1.
         -5    1    3    3    0  502  0.34756144167E+02 -0.30519506421E+02  0.63229570447E+02  0.78453048433E+02  0.41800000000E+01 0.  1.
        -11    1    1    2    0    0  0.56552752442E+02  0.31739136807E+02 -0.14538488696E+01  0.64866788810E+02  0.00000000000E+00 0.  1.
         11    1    1    2    0    0  0.49295713587E+01  0.34141011105E+02 -0.85103856402E+02  0.91829056880E+02  0.00000000000E+00 0. -1.
</event>
<event>
 7    1  0.2619826E-009  0.7345847E+02  0.7561462E-02  0.1348712E+00
         -2   -1    0    0    0  501 -0.00000000000E+00  0.00000000000E+00  0.41045339886E+02  0.41045339886E+02  0.00000000000E+00 0.  1.
          2   -1    0    0  501    0  0.00000000000E+00 -0.00000000000E+00 -0.30221315399E+03  0.30221315399E+03  0.00000000000E+00 0. -1.
         25    2    1    2    0    0  0.30058239885E+01 -0.17197172340E+02 -0.11662733423E+03  0.17191254044E+03  0.12508880348E+03 0.  0.
          5    1    3    3  502    0 -0.15833214699E+02 -0.33351472521E+02 -0.13547069836E+03  0.14047346341E+03  0.41800000000E+01 0. -1.
         -5    1    3    3    0  502  0.18839038687E+02  0.16154300181E+02  0.18843364132E+02  0.31439077035E+02  0.41800000000E+01 0. -1.
        -11    1    1    2    0    0 -0.32590595433E+02 -0.19095269710E+02 -0.99283429241E+02  0.10622605875E+03  0.00000000000E+00 0. -1.
         11    1    1    2    0    0  0.29584771444E+02  0.36292442050E+02 -0.45257050633E+02  0.65119894681E+02  0.00000000000E+00 0.  1.
</event>
<event>
 7    1  0.2619826E-009  0.1760473E+03  0.7561462E-02  0.1171684E+00
          2   -1    0    0  501    0  0.00000000000E+00  0.00000000000E+00  0.89292782275E+03  0.89292782275E+03  0.00000000000E+00 0. -1.
         -2   -1    0    0    0  501 -0.00000000000E+00 -0.00000000000E+00 -0.42434176389E+02  0.42434176389E+02  0.00000000000E+00 0.  1.
         25    2    1    2    0    0 -0.33824065078E+02 -0.15700469520E+03  0.41692530791E+03  0.46397012317E+03  0.12508805347E+03 0.  0.
          5    1    3    3  502    0  0.14829055600E+02 -0.11364969883E+03  0.35831994622E+03  0.37622707398E+03  0.41800000000E+01 0. -1.
         -5    1    3    3    0  502 -0.48653120678E+02 -0.43354996372E+02  0.58605361692E+02  0.87743049190E+02  0.41800000000E+01 0. -1.
        -11    1    1    2    0    0  0.26347234826E+02  0.15841496299E+02  0.26883623145E+02  0.40839429249E+02  0.00000000000E+00 0.  1.
         11    1    1    2    0    0  0.74768302517E+01  0.14116319891E+03  0.40668471531E+03  0.43055244672E+03  0.00000000000E+00 0. -1.
</event>
<event>
 7    1  0.2734349E-009  0.1297985E+03  0.7561462E-02  0.1227755E+00
          2   -1    0    0  501    0  0.00000000000E+00  0.00000000000E+00  0.66219764673E+03  0.66219764673E+03  0.00000000000E+00 0.  1.
         -2   -1    0    0    0  501 -0.00000000000E+00 -0.00000000000E+00 -0.31686790619E+02  0.31686790619E+02  0.00000000000E+00 0. -1.
         25    2    1    2    0    0 -0.92075377184E+02  0.26386625316E+01  0.27728528764E+03  0.31783452327E+03  0.12508723283E+03 0.  0.
          5    1    3    3  502    0 -0.10126553378E+03 -0.27742904462E+02  0.26214188613E+03  0.28241851558E+03  0.41800000000E+01 0. -1.
         -5    1    3    3    0  502  0.91901565922E+01  0.30381566993E+02  0.15143401504E+02  0.35416007684E+02  0.41800000000E+01 0. -1.
        -11    1    1    2    0    0  0.71207583227E+02  0.35091895426E+02  0.16713940277E+03  0.18503389146E+03  0.00000000000E+00 0.  1.
         11    1    1    2    0    0  0.20867793957E+02 -0.37730557957E+02  0.18608616571E+03  0.19101602262E+03  0.00000000000E+00 0. -1.
</event>
<event>
 7    1  0.2619826E-009  0.1792628E+03  0.7561462E-02  0.1168518E+00
         -2   -1    0    0    0  501 -0.00000000000E+00  0.00000000000E+00  0.28894184837E+02  0.28894184837E+02  0.00000000000E+00 0.  1.
          2   -1    0    0  501    0  0.00000000000E+00 -0.00000000000E+00 -0.13126962511E+04  0.13126962511E+04  0.00000000000E+00 0. -1.
         25    2    1    2    0    0 -0.15750313797E+03 -0.25559577062E+02 -0.63484894463E+03  0.66644058055E+03  0.12509729994E+03 0.  0.
          5    1    3    3  502    0 -0.16138369082E+03 -0.31058984870E+02 -0.63728764219E+03  0.65815071791E+03  0.41800000000E+01 0. -1.
         -5    1    3    3    0  502  0.38805528549E+01  0.54994078082E+01  0.24386975576E+01  0.82898626332E+01  0.41800000000E+01 0. -1.
        -11    1    1    2    0    0  0.60868597120E+02  0.58190788467E+02 -0.30051994589E+03  0.31209516474E+03  0.00000000000E+00 0.  1.
         11    1    1    2    0    0  0.96634540850E+02 -0.32631211405E+02 -0.34843317572E+03  0.36305469063E+03  0.00000000000E+00 0. -1.
</event>
<event>
 7    1  0.2619826E-009  0.1680394E+03  0.7561462E-02  0.1179908E+00
          1   -1    0    0  501    0  0.00000000000E+00  0.00000000000E+00  0.11755425886E+04  0.11755425886E+04  0.00000000000E+00 0. -1.
         -1   -1    0    0    0  501 -0.00000000000E+00 -0.00000000000E+00 -0.31084720643E+02  0.31084720643E+02  0.00000000000E+00 0.  1.
         25    2    1    2    0    0 -0.15701878795E+02  0.15954164064E+03  0.58864643935E+03  0.62277023630E+03  0.12505219933E+03 0.  0.
          5    1    3    3  502    0  0.18775522993E+02  0.97120534206E+01  0.94997972015E+01  0.23549156931E+02  0.41800000000E+01 0. -1.
         -5    1    3    3    0  502 -0.34477401788E+02  0.14982958722E+03  0.57914664215E+03  0.59922107937E+03  0.41800000000E+01 0. -1.
        -11    1    1    2    0    0  0.11895445787E+02 -0.63067138645E+02  0.10694646160E+03  0.12472574416E+03  0.00000000000E+00 0.  1.
         11    1    1    2    0    0  0.38064330084E+01 -0.96474502000E+02  0.44886496700E+03  0.45913132878E+03  0.00000000000E+00 0. -1.
</event>
<event>
 7    1  0.2619826E-009  0.1821284E+03  0.7561462E-02  0.1165759E+00
          1   -1    0    0  501    0  0.00000000000E+00  0.00000000000E+00  0.78754561245E+02  0.78754561245E+02  0.00000000000E+00 0. -1.
         -1   -1    0    0    0  501 -0.00000000000E+00 -0.00000000000E+00 -0.50724032589E+03  0.50724032589E+03  0.00000000000E+00 0.  1.
         25    2    1    2    0    0  0.14338696252E+03 -0.72092221519E+02 -0.15229459763E+03  0.25416196750E+03  0.12509017481E+03 0.  0.
          5    1    3    3  502    0  0.11484234425E+03 -0.40637647843E+01 -0.13671588027E+03  0.17864485029E+03  0.41800000000E+01 0.  1.
         -5    1    3    3    0  502  0.28544618265E+02 -0.68028456734E+02 -0.15578717360E+02  0.75517117213E+02  0.41800000000E+01 0.  1.
        -11    1    1    2    0    0 -0.91886121441E+02  0.66910623415E+01 -0.19442249680E+03  0.21514631508E+03  0.00000000000E+00 0. -1.
         11    1    1    2    0    0 -0.51500841078E+02  0.65401159177E+02 -0.81768670212E+02  0.11668660455E+03  0.00000000000E+00 0.  1.
</event>
<event>
 7    1  0.2619826E-009  0.1060034E+03  0.7561462E-02  0.1268155E+00
          1   -1    0    0  501    0  0.00000000000E+00  0.00000000000E+00  0.21678111426E+02  0.21678111426E+02  0.00000000000E+00 0. -1.
         -1   -1    0    0    0  501 -0.00000000000E+00 -0.00000000000E+00 -0.64547533550E+03  0.64547533550E+03  0.00000000000E+00 0.  1.
         25    2    1    2    0    0 -0.10946018688E+02 -0.30753678423E+02 -0.44377650330E+03  0.46222328027E+03  0.12508865611E+03 0.  0.
          5    1    3    3  502    0  0.11068898057E+02  0.45964307844E+02 -0.12885996134E+03  0.13732297745E+03  0.41800000000E+01 0. -1.
         -5    1    3    3    0  502 -0.22014916744E+02 -0.76717986267E+02 -0.31491654196E+03  0.32490030282E+03  0.41800000000E+01 0. -1.
        -11    1    1    2    0    0 -0.33740889590E+02  0.90038269565E+01 -0.27299446346E+02  0.44325797241E+02  0.00000000000E+00 0. -1.
         11    1    1    2    0    0  0.44686908278E+02  0.21749851466E+02 -0.15272127443E+03  0.16060436941E+03  0.00000000000E+00 0.  1.
</event>
<event>
 7    1  0.2619826E-009  0.1113737E+03  0.7561462E-02  0.1258047E+00
         -2   -1    0    0    0  501 -0.00000000000E+00  0.00000000000E+00  0.16553539758E+04  0.16553539758E+04  0.00000000000E+00 0.  1.
          2   -1    0    0  501    0  0.00000000000E+00 -0.00000000000E+00 -0.39176912271E+02  0.39176912271E+02  0.00000000000E+00 0. -1.
         25    2    1    2    0    0 -0.62189780365E+02  0.71969572378E+02  0.15291848745E+04  0.15372382379E+04  0.12509129311E+03 0.  0.
          5    1    3    3  502    0 -0.36266517609E+02  0.31014020001E+02  0.15593161610E+03  0.16312348401E+03  0.41800000000E+01 0.  1.
         -5    1    3    3    0  502 -0.25923262756E+02  0.40955552378E+02  0.13732532584E+04  0.13741147539E+04  0.41800000000E+01 0.  1.
        -11    1    1    2    0    0  0.43492181282E+02  0.78674025138E+01  0.11113785274E+02  0.45573918837E+02  0.00000000000E+00 0.  1.
         11    1    1    2    0    0  0.18697599083E+02 -0.79836974892E+02  0.75878403789E+02  0.11171873134E+03  0.00000000000E+00 0. -1.
</event>
<event>
 7    1  0.2619826E-009  0.1451208E+03  0.7561462E-02  0.1206600E+00
          2   -1    0    0  501    0  0.00000000000E+00  0.00000000000E+00  0.27039982237E+03  0.27039982237E+03  0.00000000000E+00 0. -1.
         -2   -1    0    0    0  501 -0.00000000000E+00 -0.00000000000E+00 -0.10724506614E+03  0.10724506614E+03  0.00000000000E+00 0.  1.
         25    2    1    2    0    0 -0.11048257131E+03 -0.60081008193E+02  0.12834108582E+03  0.21893418924E+03  0.12507845058E+03 0.  0.
          5    1    3    3  502    0 -0.35178151821E+02 -0.74302495413E+02  0.17565450059E+02  0.84168762768E+02  0.41800000000E+01 0.  1.
         -5    1    3    3    0  502 -0.75304419487E+02  0.14221487220E+02  0.11077563576E+03  0.13476542647E+03  0.41800000000E+01 0.  1.
        -11    1    1    2    0    0  0.94945026580E+01  0.20715107215E+02 -0.25882226575E+02  0.34484067337E+02  0.00000000000E+00 0.  1.
         11    1    1    2    0    0  0.10098806865E+03  0.39365900978E+02  0.60695896985E+02  0.12422663193E+03  0.00000000000E+00 0. -1.
</event>
<event>
 7    1  0.2619826E-009  0.1206279E+03  0.7561462E-02  0.1242065E+00
         -1   -1    0    0    0  501 -0.00000000000E+00  0.00000000000E+00  0.18561097734E+02  0.18561097734E+02  0.00000000000E+00 0.  1.
          1   -1    0    0  501    0  0.00000000000E+00 -0.00000000000E+00 -0.12423545526E+04  0.12423545526E+04  0.00000000000E+00 0. -1.
         25    2    1    2    0    0  0.43763058609E+02 -0.91212962237E+02 -0.54100739373E+03  0.56442169669E+03  0.12509133399E+03 0.  0.
          5    1    3    3  502    0 -0.11173661384E+00 -0.28952663557E+02 -0.14930117937E+02  0.32842807945E+02  0.41800000000E+01 0. -1.
         -5    1    3    3    0  502  0.43874795223E+02 -0.62260298680E+02 -0.52607727580E+03  0.53157888874E+03  0.41800000000E+01 0. -1.
        -11    1    1    2    0    0  0.28076696253E+02  0.19280589468E+02 -0.12707017130E+03  0.13155557927E+03  0.00000000000E+00 0.  1.
         11    1    1    2    0    0 -0.71839754862E+02  0.71932372769E+02 -0.55571588984E+03  0.56493837438E+03  0.00000000000E+00 0. -1.
</event>
<event>
 7    1  0.2619826E-009  0.1558366E+03  0.7561462E-02  0.1193479E+00
          1   -1    0    0  501    0  0.00000000000E+00  0.00000000000E+00  0.33163582987E+03  0.33163582987E+03  0.00000000000E+00 0. -1.
         -1   -1    0    0    0  501 -0.00000000000E+00 -0.00000000000E+00 -0.84489386834E+02  0.84489386834E+02  0.00000000000E+00 0.  1.
         25    2    1    2    0    0  0.11445561256E+03  0.50461988717E+02  0.15933391776E+03  0.23807910281E+03  0.12509141576E+03 0.  0.
          5    1    3    3  502    0  0.11138475093E+01  0.49673802519E+02  0.95990357177E+02  0.10816814866E+03  0.41800000000E+01 0. -1.
         -5    1    3    3    0  502  0.11334176505E+03  0.78818619823E+00  0.63343560579E+02  0.12991095415E+03  0.41800000000E+01 0. -1.
        -11    1    1    2    0    0 -0.67172005412E+01  0.19032315176E+02  0.32849411874E+02  0.38554295021E+02  0.00000000000E+00 0. -1.
         11    1    1    2    0    0 -0.10773841202E+03 -0.69494303893E+02  0.54963113410E+02  0.13949181888E+03  0.00000000000E+00 0.  1.
</event>
<event>
 7    1  0.2619826E-009  0.1786513E+03  0.7561462E-02  0.1169115E+00
          2   -1    0    0  501    0  0.00000000000E+00  0.00000000000E+00  0.36090624207E+03  0.36090624207E+03  0.00000000000E+00 0. -1.
         -2   -1    0    0    0  501 -0.00000000000E+00 -0.00000000000E+00 -0.13886033089E+03  0.13886033089E+03  0.00000000000E+00 0.  1.
         25    2    1    2    0    0 -0.55059384259E+02  0.13560293296E+03  0.25830479159E+03  0.32216214229E+03  0.12508952534E+03 0.  0.
          5    1    3    3  502    0 -0.33863069569E+02  0.15248079017E+03  0.24749661975E+03  0.29269292447E+03  0.41800000000E+01 0.  1.
         -5    1    3    3    0  502 -0.21196314690E+02 -0.16877857209E+02  0.10808171840E+02  0.29469217820E+02  0.41800000000E+01 0.  1.
        -11    1    1    2    0    0  0.24771011388E+02  0.86492279293E+01 -0.87767326330E+01  0.27666643900E+02  0.00000000000E+00 0.  1.
         11    1    1    2    0    0  0.30288372871E+02 -0.14425216089E+03 -0.27482147773E+02  0.14993778676E+03  0.00000000000E+00 0. -1.
</event>
<event>
 7    1  0.2619826E-009  0.1225650E+03  0.7561462E-02  0.1238925E+00
         -2   -1    0    0    0  501 -0.00000000000E+00  0.00000000000E+00  0.24010801446E+02  0.24010801446E+02  0.00000000000E+00 0.  1.
          2   -1    0    0  501    0  0.00000000000E+00 -0.00000000000E+00 -0.98791257553E+03  0.98791257553E+03  0.00000000000E+00 0. -1.
         25    2    1    2    0    0 -0.10320858864E+03  0.15711584687E+02 -0.61448338077E+03  0.63571698919E+03  0.12508956167E+03 0.  0.
          5    1    3    3  502    0 -0.60805496639E+02 -0.99873371573E+00 -0.56513027486E+03  0.56840830910E+03  0.41800000000E+01 0. -1.
         -5    1    3    3    0  502 -0.42403092000E+02  0.16710318403E+02 -0.49353105909E+02  0.67308680088E+02  0.41800000000E+01 0. -1.
        -11    1    1    2    0    0  0.71796033106E+02  0.34125643378E+02 -0.22273079498E+03  0.23649151557E+03  0.00000000000E+00 0. -1.
         11    1    1    2    0    0  0.31412555534E+02 -0.49837228065E+02 -0.12668759834E+03  0.13971487222E+03  0.00000000000E+00 0.  1.
</event>
<event>
 7    1  0.2619826E-009  0.7962911E+02  0.7561462E-02  0.1330107E+00
          1   -1    0    0  501    0  0.00000000000E+00  0.00000000000E+00  0.38852389325E+03  0.38852389325E+03  0.00000000000E+00 0. -1.
         -1   -1    0    0    0  501 -0.00000000000E+00 -0.00000000000E+00 -0.32556098160E+02  0.32556098160E+02  0.00000000000E+00 0.  1.
         25    2    1    2    0    0  0.14173306563E+02 -0.21016442882E+02  0.23491298775E+03  0.26734383905E+03  0.12508414359E+03 0.  0.
          5    1    3    3  502    0  0.29406233623E+02 -0.38762593721E+02  0.22781876002E+02  0.53886468821E+02  0.41800000000E+01 0.  1.
         -5    1    3    3    0  502 -0.15232927059E+02  0.17746150839E+02  0.21213111175E+03  0.21345737023E+03  0.41800000000E+01 0.  1.
        -11    1    1    2    0    0 -0.29270103016E+02 -0.24839535283E+02  0.23827711086E+02  0.45182975325E+02  0.00000000000E+00 0.  1.
         11    1    1    2    0    0  0.15096796453E+02  0.45855978165E+02  0.97227096255E+02  0.10855317703E+03  0.00000000000E+00 0. -1.
</event>
<event>
 7    1  0.2619826E-009  0.1064637E+03  0.7561462E-02  0.1267262E+00
          2   -1    0    0  501    0  0.00000000000E+00  0.00000000000E+00  0.12966892873E+04  0.12966892873E+04  0.00000000000E+00 0. -1.
         -2   -1    0    0    0  501 -0.00000000000E+00 -0.00000000000E+00 -0.10560961204E+02  0.10560961204E+02  0.00000000000E+00 0.  1.
         25    2    1    2    0    0  0.32321373864E+02 -0.21710109719E+02  0.81866204402E+03  0.82907665412E+03  0.12507819963E+03 0.  0.
          5    1    3    3  502    0  0.37668043019E+00 -0.61564538244E+02  0.64679039080E+03  0.64972733995E+03  0.41800000000E+01 0.  1.
         -5    1    3    3    0  502  0.31944693434E+02  0.39854428525E+02  0.17187165322E+03  0.17934931417E+03  0.41800000000E+01 0.  1.
        -11    1    1    2    0    0 -0.54378965960E+02  0.42992812901E+02  0.34805934386E+03  0.35489542227E+03  0.00000000000E+00 0. -1.
         11    1    1    2    0    0  0.22057592096E+02 -0.21282703183E+02  0.11940693817E+03  0.12327817206E+03  0.00000000000E+00 0.  1.
</event>
<event>
 7    1  0.3268066E-009  0.2322194E+03  0.7561462E-02  0.1125087E+00
         -1   -1    0    0    0  501 -0.00000000000E+00  0.00000000000E+00  0.20195913357E+03  0.20195913357E+03  0.00000000000E+00 0.  1.
          1   -1    0    0  501    0  0.00000000000E+00 -0.00000000000E+00 -0.27499035921E+03  0.27499035921E+03  0.00000000000E+00 0. -1.
         25    2    1    2    0    0  0.18336466604E+03 -0.96745069047E+02 -0.63297254020E+02  0.25027382200E+03  0.12509290338E+03 0.  0.
          5    1    3    3  502    0  0.10462642103E+03 -0.11893332520E+03 -0.27266322581E+02  0.16078789932E+03  0.41800000000E+01 0.  1.
         -5    1    3    3    0  502  0.78738245008E+02  0.22188256152E+02 -0.36030931439E+02  0.89485922683E+02  0.41800000000E+01 0.  1.
        -11    1    1    2    0    0 -0.32282029677E+02  0.60691907675E+02 -0.18227677789E+02  0.71118811399E+02  0.00000000000E+00 0. -1.
         11    1    1    2    0    0 -0.15108263636E+03  0.36053161373E+02  0.84937061738E+01  0.15555685938E+03  0.00000000000E+00 0.  1.
</event>
<event>
 7    1  0.2619826E-009  0.1608146E+03  0.7561462E-02  0.1187780E+00
          2   -1    0    0  501    0  0.00000000000E+00  0.00000000000E+00  0.83532857775E+03  0.83532857775E+03  0.00000000000E+00 0. -1.
         -2   -1    0    0    0  501 -0.00000000000E+00 -0.00000000000E+00 -0.53650999178E+02  0.53650999178E+02  0.00000000000E+00 0.  1.
         25    2    1    2    0    0  0.10989466880E+03 -0.83966123030E+02  0.65404111794E+03  0.68010585638E+03  0.12508814440E+03 0.  0.
          5    1    3    3  502    0  0.13454346346E+03 -0.82635610892E+02  0.60168798163E+03  0.62207434233E+03  0.41800000000E+01 0.  1.
         -5    1    3    3    0  502 -0.24648794660E+02 -0.13305121377E+01  0.52353136310E+02  0.58031514044E+02  0.41800000000E+01 0.  1.
        -11    1    1    2    0    0 -0.22821640924E+02  0.12652795348E+02  0.84339091663E+02  0.88283650282E+02  0.00000000000E+00 0. -1.
         11    1    1    2    0    0 -0.87073027873E+02  0.71313327681E+02  0.43297368965E+02  0.12059007027E+03  0.00000000000E+00 0.  1.
</event>
<event>
 6    1  0.2619826E-009  0.9862336E+02  0.7561462E-02  0.1283218E+00
         -1   -1    0    0    0  501 -0.00000000000E+00  0.00000000000E+00  0.12672321843E+03  0.12672321843E+03  0.00000000000E+00 0.  1.
          1   -1    0    0  501    0  0.00000000000E+00 -0.00000000000E+00 -0.10557258834E+03  0.10557258834E+03  0.00000000000E+00 0. -1.
          5    1    1    2  502    0 -0.12801842327E+02  0.33470157129E+02 -0.28616983159E+02  0.46049350814E+02  0.41800000000E+01 0. -1.
         -5    1    1    2    0  502  0.38629198989E+02 -0.65071954398E+02  0.41304219271E+02  0.86313876018E+02  0.41800000000E+01 0. -1.
        -11    1    1    2    0    0 -0.23597379664E+02 -0.21683768199E+02  0.28572753690E+02  0.42935118304E+02  0.00000000000E+00 0.  1.
         11    1    1    2    0    0 -0.22299769983E+01  0.53285565467E+02 -0.20109359718E+02  0.56997461635E+02  0.00000000000E+00 0. -1.
</event>
<event>
 7    1  0.2619826E-009  0.1870939E+03  0.7561462E-02  0.1161109E+00
          2   -1    0    0  501    0  0.00000000000E+00  0.00000000000E+00  0.44154357257E+03  0.44154357257E+03  0.00000000000E+00 0. -1.
         -2   -1    0    0    0  501 -0.00000000000E+00 -0.00000000000E+00 -0.10661622509E+03  0.10661622509E+03  0.00000000000E+00 0.  1.
         25    2    1    2    0    0  0.14950961235E+03  0.56216070009E+02  0.29776755607E+03  0.36031445123E+03  0.12509042972E+03 0.  0.
          5    1    3    3  502    0  0.16371448845E+03  0.37404478852E+02  0.20775394211E+03  0.26717167071E+03  0.41800000000E+01 0.  1.
         -5    1    3    3    0  502 -0.14204876096E+02  0.18811591157E+02  0.90013613954E+02  0.93142780524E+02  0.41800000000E+01 0.  1.
        -11    1    1    2    0    0 -0.49552152423E+02 -0.65210509594E+02  0.30022378831E+02  0.87230554291E+02  0.00000000000E+00 0. -1.
         11    1    1    2    0    0 -0.99957459928E+02  0.89944395845E+01  0.71374125854E+01  0.10061479214E+03  0.00000000000E+00 0.  1.
</event>
<event>
 7    1  0.2619826E-009  0.1354663E+03  0.7561462E-02  0.1219563E+00
         -2   -1    0    0    0  501 -0.00000000000E+00  0.00000000000E+00  0.26920939459E+03  0.26920939459E+03  0.00000000000E+00 0. -1.
          2   -1    0    0  501    0  0.00000000000E+00 -0.00000000000E+00 -0.79325293472E+02  0.79325293472E+02  0.00000000000E+00 0.  1.
         25    2    1    2    0    0 -0.68989420492E+02 -0.47790663581E+02  0.45320269212E+02  0.15730962864E+03  0.12509558264E+03 0.  0.
          5    1    3    3  502    0  0.21068805728E+02 -0.54471296938E+02  0.29386603132E+02  0.65513827614E+02  0.41800000000E+01 0.  1.
         -5    1    3    3    0  502 -0.90058226220E+02  0.66806333571E+01  0.15933666080E+02  0.91795801030E+02  0.41800000000E+01 0.  1.
        -11    1    1    2    0    0  0.80610453964E+02  0.85628193345E+01  0.74541192280E+02  0.11012609368E+03  0.00000000000E+00 0.  1.
         11    1    1    2    0    0 -0.11621033472E+02  0.39227844247E+02  0.70022639624E+02  0.81098965734E+02  0.00000000000E+00 0. -1.
</event>
<event>
 7    1  0.2619826E-009  0.1085950E+03  0.7561462E-02  0.1263194E+00
         -1   -1    0    0    0  501 -0.00000000000E+00  0.00000000000E+00  0.30813258151E+02  0.30813258151E+02  0.00000000000E+00 0.  1.
          1   -1    0    0  501    0  0.00000000000E+00 -0.00000000000E+00 -0.49124228558E+03  0.49124228558E+03  0.00000000000E+00 0. -1.
         25    2    1    2    0    0 -0.88333844407E+00  0.66108337270E+02 -0.25851232489E+03  0.29469606102E+03  0.12508418653E+03 0.  0.
          5    1    3    3  502    0 -0.18297838477E+02  0.85604817735E+02 -0.25287249468E+03  0.26762841157E+03  0.41800000000E+01 0.  1.
         -5    1    3    3    0  502  0.17414500033E+02 -0.19496480466E+02 -0.56398302025E+01  0.27067649448E+02  0.41800000000E+01 0.  1.
        -11    1    1    2    0    0 -0.34002700657E+02 -0.58046928745E+02 -0.11306849778E+03  0.13156790938E+03  0.00000000000E+00 0.  1.
         11    1    1    2    0    0  0.34886039101E+02 -0.80614085244E+01 -0.88848204763E+02  0.95791573331E+02  0.00000000000E+00 0. -1.
</event>
<event>
 7    1  0.2619826E-009  0.1296695E+03  0.7561462E-02  0.1227947E+00
         -4   -1    0    0    0  501 -0.00000000000E+00  0.00000000000E+00  0.38142349416E+02  0.38142349416E+02  0.00000000000E+00 0.  1.
          4   -1    0    0  501    0  0.00000000000E+00 -0.00000000000E+00 -0.81440937900E+03  0.81440937900E+03  0.00000000000E+00 0. -1.
         25    2    1    2    0    0  0.63642937255E+02 -0.97413270017E+02 -0.59055366778E+03  0.61476924369E+03  0.12509124598E+03 0.  0.
          5    1    3    3  502    0  0.32991150945E+02  0.66641887779E+01 -0.35122918171E+02  0.48825395376E+02  0.41800000000E+01 0. -1.
         -5    1    3    3    0  502  0.30651786310E+02 -0.10407745880E+03 -0.55543074961E+03  0.56594384831E+03  0.41800000000E+01 0. -1.
        -11    1    1    2    0    0 -0.46815418445E+02  0.62509558195E+02 -0.18296656018E+03  0.19893690058E+03  0.00000000000E+00 0. -1.
         11    1    1    2    0    0 -0.16827518810E+02  0.34903711823E+02 -0.27468016249E+01  0.38845584144E+02  0.00000000000E+00 0.  1.
</event>
<event>
 7    1  0.2619826E-009  0.9927069E+02  0.7561462E-02  0.1281837E+00
         -1   -1    0    0    0  501 -0.00000000000E+00  0.00000000000E+00  0.12309610005E+03  0.12309610005E+03  0.00000000000E+00 0.  1.
          1   -1    0    0  501    0  0.00000000000E+00 -0.00000000000E+00 -0.11918524560E+03  0.11918524560E+03  0.00000000000E+00 0. -1.
         25    2    1    2    0    0  0.44921556603E+02  0.26380082348E+02  0.57042010093E+01  0.13561754716E+03  0.12508287732E+03 0.  0.
          5    1    3    3  502    0 -0.37828056664E+02  0.34938190072E+02  0.80595956674E+01  0.52288320673E+02  0.41800000000E+01 0. -1.
         -5    1    3    3    0  502  0.82749613267E+02 -0.85581077233E+01 -0.23553946581E+01  0.83329226492E+02  0.41800000000E+01 0. -1.
        -11    1    1    2    0    0 -0.25581817911E+02 -0.34210196887E+02 -0.42915221500E+02  0.60551492261E+02  0.00000000000E+00 0. -1.
         11    1    1    2    0    0 -0.19339738692E+02  0.78301145385E+01  0.41121874943E+02  0.46112306223E+02  0.00000000000E+00 0.  1.
</event>
<event>
 7    1  0.2619826E-009  0.1837364E+03  0.7561462E-02  0.1164235E+00
          2   -1    0    0  501    0  0.00000000000E+00  0.00000000000E+00  0.33487908177E+03  0.33487908177E+03  0.00000000000E+00 0. -1.
         -2   -1    0    0    0  501 -0.00000000000E+00 -0.00000000000E+00 -0.12081186850E+03  0.12081186850E+03  0.00000000000E+00 0.  1.
         25    2    1    2    0    0 -0.15018548649E+03 -0.84959438991E+01  0.19927430861E+03  0.27926032309E+03  0.12509283179E+03 0.  0.
          5    1    3    3  502    0 -0.75344521625E+02 -0.64614824403E+02  0.79564100009E+02  0.12727839912E+03  0.41800000000E+01 0. -1.
         -5    1    3    3    0  502 -0.74840964866E+02  0.56118880504E+02  0.11971020860E+03  0.15198192397E+03  0.41800000000E+01 0. -1.
        -11    1    1    2    0    0  0.12567441300E+03  0.42417972111E+02  0.19526250752E+01  0.13265426938E+03  0.00000000000E+00 0.  1.
         11    1    1    2    0    0  0.24511073490E+02 -0.33922028212E+02  0.12840279588E+02  0.43776357792E+02  0.00000000000E+00 0. -1.
</event>
<event>
 7    1  0.2619826E-009  0.1782014E+03  0.7561462E-02  0.1169555E+00
          3   -1    0    0  501    0  0.00000000000E+00  0.00000000000E+00  0.35064597508E+03  0.35064597508E+03  0.00000000000E+00 0. -1.
         -3   -1    0    0    0  501 -0.00000000000E+00 -0.00000000000E+00 -0.12208212363E+03  0.12208212363E+03  0.00000000000E+00 0.  1.
         25    2    1    2    0    0  0.15417885125E+03 -0.79200551975E+02  0.92213021783E+02  0.23278821076E+03  0.12507303497E+03 0.  0.
          5    1    3    3  502    0  0.39363134626E+02  0.21695125065E+01  0.82661958383E+02  0.91676795951E+02  0.41800000000E+01 0. -1.
         -5    1    3    3    0  502  0.11481571663E+03 -0.81370064482E+02  0.95510633996E+01  0.14111141481E+03  0.41800000000E+01 0. -1.
        -11    1    1    2    0    0 -0.77524176266E+02  0.56816741379E+02  0.18967832867E+02  0.97968967997E+02  0.00000000000E+00 0.  1.
         11    1    1    2    0    0 -0.76654674986E+02  0.22383810596E+02  0.11738299680E+03  0.14197091995E+03  0.00000000000E+00 0. -1.
</event>
<event>
 7    1  0.2619826E-009  0.1074350E+03  0.7561462E-02  0.1265395E+00
          1   -1    0    0  501    0  0.00000000000E+00  0.00000000000E+00  0.60343022157E+02  0.60343022157E+02  0.00000000000E+00 0. -1.
         -1   -1    0    0    0  501 -0.00000000000E+00 -0.00000000000E+00 -0.27867248531E+03  0.27867248531E+03  0.00000000000E+00 0.  1.
         25    2    1    2    0    0 -0.35330456392E+02 -0.51677733436E+02 -0.71999620093E+02  0.15732213189E+03  0.12508988212E+03 0.  0.
          5    1    3    3  502    0 -0.58158996946E+01  0.24961360780E+02  0.20842854069E+02  0.33298516288E+02  0.41800000000E+01 0.  1.
         -5    1    3    3    0  502 -0.29514556698E+02 -0.76639094216E+02 -0.92842474162E+02  0.12402361561E+03  0.41800000000E+01 0.  1.
        -11    1    1    2    0    0  0.23007595831E+02  0.75998506324E+02 -0.97254712621E+02  0.12555318218E+03  0.00000000000E+00 0.  1.
         11    1    1    2    0    0  0.12322860561E+02 -0.24320772888E+02 -0.49075130442E+02  0.56140193392E+02  0.00000000000E+00 0. -1.
</event>
<event>
 7    1  0.2619826E-009  0.1498959E+03  0.7561462E-02  0.1200601E+00
          1   -1    0    0  501    0  0.00000000000E+00  0.00000000000E+00  0.55641845316E+03  0.55641845316E+03  0.00000000000E+00 0. -1.
         -1   -1    0    0    0  501 -0.00000000000E+00 -0.00000000000E+00 -0.53925628839E+02  0.53925628839E+02  0.00000000000E+00 0.  1.
         25    2    1    2    0    0 -0.12580845431E+03  0.27383210510E+02  0.33823699135E+03  0.38292161246E+03  0.12508833508E+03 0.  0.
          5    1    3    3  502    0 -0.97205602523E+02 -0.32463736275E+02  0.26429563957E+03  0.28350040710E+03  0.41800000000E+01 0. -1.
         -5    1    3    3    0  502 -0.28602851787E+02  0.59846946785E+02  0.73941351787E+02  0.99421205353E+02  0.41800000000E+01 0. -1.
        -11    1    1    2    0    0  0.10255440979E+03 -0.31200855268E+02  0.17195504405E+03  0.20263128463E+03  0.00000000000E+00 0. -1.
         11    1    1    2    0    0  0.23254044524E+02  0.38176447582E+01 -0.76992110803E+01  0.24791184914E+02  0.00000000000E+00 0.  1.
</event>
<event>
 7    1  0.2619826E-009  0.1668756E+03  0.7561462E-02  0.1181146E+00
         -1   -1    0    0    0  501 -0.00000000000E+00  0.00000000000E+00  0.16866229197E+03  0.16866229197E+03  0.00000000000E+00 0.  1.
          1   -1    0    0  501    0  0.00000000000E+00 -0.00000000000E+00 -0.23465432593E+03  0.23465432593E+03  0.00000000000E+00 0. -1.
         25    2    1    2    0    0  0.10152560551E+03 -0.11012895524E+03  0.39026807738E+02  0.19901681595E+03  0.12509502768E+03 0.  0.
          5    1    3    3  502    0  0.75532713971E+02 -0.12776767622E+03  0.60925868994E+02  0.16049674102E+03  0.41800000000E+01 0. -1.
         -5    1    3    3    0  502  0.25992891538E+02  0.17638720976E+02 -0.21899061256E+02  0.38520074923E+02  0.41800000000E+01 0. -1.
        -11    1    1    2    0    0 -0.58577281367E+02  0.38617595680E+02 -0.98084121200E+02  0.12059482335E+03  0.00000000000E+00 0. -1.
         11    1    1    2    0    0 -0.42948324142E+02  0.71511359563E+02 -0.69347205009E+01  0.83704978595E+02  0.00000000000E+00 0.  1.
</event>
<event>
 7    1  0.2619826E-009  0.1079697E+03  0.7561462E-02  0.1264377E+00
         -2   -1    0    0    0  501 -0.00000000000E+00  0.00000000000E+00  0.33166096763E+02  0.33166096763E+02  0.00000000000E+00 0.  1.
          2   -1    0    0  501    0  0.00000000000E+00 -0.00000000000E+00 -0.59095591980E+03  0.59095591980E+03  0.00000000000E+00 0. -1.
         25    2    1    2    0    0  0.31256478476E+02 -0.23547144162E+02 -0.12585318837E+03  0.18170804765E+03  0.12508938450E+03 0.  0.
          5    1    3    3  502    0 -0.41406672341E+02  0.76388260073E+01 -0.79224505689E+02  0.89815693945E+02  0.41800000000E+01 0. -1.
         -5    1    3    3    0  502  0.72663150817E+02 -0.31185970169E+02 -0.46628682678E+02  0.91892353710E+02  0.41800000000E+01 0. -1.
        -11    1    1    2    0    0  0.27729650132E+02 -0.61504877076E+01 -0.16517395869E+03  0.16759832525E+03  0.00000000000E+00 0. -1.
         11    1    1    2    0    0 -0.58986128607E+02  0.29697631869E+02 -0.26676267598E+03  0.27481564367E+03  0.00000000000E+00 0.  1.
</event>
<event>
 7    1  0.2619826E-009  0.9743690E+02  0.7561462E-02  0.1285780E+00
         -4   -1    0    0    0  501 -0.00000000000E+00  0.00000000000E+00  0.35720940690E+03  0.35720940690E+03  0.00000000000E+00 0.  1.
          4   -1    0    0  501    0  0.00000000000E+00 -0.00000000000E+00 -0.45824951133E+02  0.45824951133E+02  0.00000000000E+00 0. -1.
         25    2    1    2    0    0 -0.22229291163E+02  0.26731638644E+02  0.75450111584E+02  0.15016661790E+03  0.12509425208E+03 0.  0.
          5    1    3    3  502    0 -0.33647736211E+02 -0.36247283135E+02 -0.19142458923E+01  0.49670639458E+02  0.41800000000E+01 0. -1.
         -5    1    3    3    0  502  0.11418445049E+02  0.62978921778E+02  0.77364357476E+02  0.10049597844E+03  0.41800000000E+01 0. -1.
        -11    1    1    2    0    0  0.46672059003E+02 -0.25913125866E+01  0.18905633076E+03  0.19474930601E+03  0.00000000000E+00 0.  1.
         11    1    1    2    0    0 -0.24442767840E+02 -0.24140326057E+02  0.46878013421E+02  0.58118434116E+02  0.00000000000E+00 0. -1.
</event>
<event>
 7    1  0.2619826E-009  0.1114668E+03  0.7561462E-02  0.1257878E+00
         -3   -1    0    0    0  501 -0.00000000000E+00  0.00000000000E+00  0.66801036813E+03  0.66801036813E+03  0.00000000000E+00 0.  1.
          3   -1    0    0  501    0  0.00000000000E+00 -0.00000000000E+00 -0.21686783099E+02  0.21686783099E+02  0.00000000000E+00 0. -1.
         25    2    1    2    0    0 -0.28143923136E+02 -0.42811344247E+02  0.36005103929E+03  0.38459047330E+03  0.12509272423E+03 0.  0.
          5    1    3    3  502    0  0.47879169545E+02 -0.43057979938E+01  0.15964283874E+03  0.16677608682E+03  0.41800000000E+01 0. -1.
         -5    1    3    3    0  502 -0.76023092682E+02 -0.38505546253E+02  0.20040820055E+03  0.21781438648E+03  0.41800000000E+01 0. -1.
        -11    1    1    2    0    0  0.49245105905E+02  0.98481426819E+01  0.23658131368E+03  0.24185281547E+03  0.00000000000E+00 0.  1.
         11    1    1    2    0    0 -0.21101182769E+02  0.32963201565E+02  0.49691232067E+02  0.63253862459E+02  0.00000000000E+00 0. -1.
</event>
<event>
 7    1  0.2619826E-009  0.8868158E+02  0.7561462E-02  0.1306076E+00
          2   -1    0    0  501    0  0.00000000000E+00  0.00000000000E+00  0.62681247212E+03  0.62681247212E+03  0.00000000000E+00 0. -1.
         -2   -1    0    0    0  501 -0.00000000000E+00 -0.00000000000E+00 -0.24310344246E+02  0.24310344246E+02  0.00000000000E+00 0.  1.
         25    2    1    2    0    0  0.36742368058E+00  0.53657090450E+02  0.38979609370E+03  0.41287932552E+03  0.12509646047E+03 0.  0.
          5    1    3    3  502    0 -0.34325235274E+01 -0.15868056886E+02 -0.12809944210E+00  0.16765030766E+02  0.41800000000E+01 0.  1.
         -5    1    3    3    0  502  0.37999472079E+01  0.69525147336E+02  0.38992419314E+03  0.39611429475E+03  0.41800000000E+01 0.  1.
        -11    1    1    2    0    0  0.34841330378E+02 -0.40084479016E+02  0.56494689889E+02  0.77539240042E+02  0.00000000000E+00 0.  1.
         11    1    1    2    0    0 -0.35208754059E+02 -0.13572611433E+02  0.15621134428E+03  0.16070425080E+03  0.00000000000E+00 0. -1.
</event>
<event>
 7    1  0.2619826E-009  0.1710808E+03  0.7561462E-02  0.1176725E+00
         -1   -1    0    0    0  501 -0.00000000000E+00  0.00000000000E+00  0.10795221320E+03  0.10795221320E+03  0.00000000000E+00 0.  1.
          1   -1    0    0  501    0  0.00000000000E+00 -0.00000000000E+00 -0.47238951530E+03  0.47238951530E+03  0.00000000000E+00 0. -1.
         25    2    1    2    0    0 -0.14566128800E+03  0.65857317558E+02 -0.33298781772E+03  0.38997908246E+03  0.12509356862E+03 0.  0.
          5    1    3    3  502    0 -0.32905633368E+02  0.56470947039E+02 -0.22188963243E+03  0.23135304179E+03  0.41800000000E+01 0.  1.
         -5    1    3    3    0  502 -0.11275565463E+03  0.93863705199E+01 -0.11109818529E+03  0.15862604067E+03  0.41800000000E+01 0.  1.
        -11    1    1    2    0    0  0.58844669616E+02 -0.45214764179E+02 -0.61312331835E+02  0.96261477637E+02  0.00000000000E+00 0.  1.
         11    1    1    2    0    0  0.86816618385E+02 -0.20642553380E+02  0.29862847448E+02  0.94101168407E+02  0.00000000000E+00 0. -1.
</event>
<event>
 7    1  0.2619826E-009  0.1093081E+03  0.7561462E-02  0.1261857E+00
          1   -1    0    0  501    0  0.00000000000E+00  0.00000000000E+00  0.90958197550E+02  0.90958197550E+02  0.00000000000E+00 0. -1.
         -1   -1    0    0    0  501 -0.00000000000E+00 -0.00000000000E+00 -0.16127952789E+03  0.16127952789E+03  0.00000000000E+00 0.  1.
         25    2    1    2    0    0  0.47999493222E+02 -0.28384047570E+02 -0.34984775867E+02  0.14135457456E+03  0.12509027021E+03 0.  0.
          5    1    3    3  502    0 -0.80050599574E+01  0.35424754885E+02  0.18451720088E+02  0.40950367737E+02  0.41800000000E+01 0.  1.
         -5    1    3    3    0  502  0.56004553180E+02 -0.63808802455E+02 -0.53436495955E+02  0.10040420682E+03  0.41800000000E+01 0.  1.
        -11    1    1    2    0    0 -0.44308778824E+02  0.54749464245E+02 -0.51303037354E+01  0.70619343897E+02  0.00000000000E+00 0. -1.
         11    1    1    2    0    0 -0.36907143983E+01 -0.26365416675E+02 -0.30206250733E+02  0.40263806981E+02  0.00000000000E+00 0.  1.
</event>
<event>
 7    1  0.2619826E-009  0.1366403E+03  0.7561462E-02  0.1217923E+00
         -2   -1    0    0    0  501 -0.00000000000E+00  0.00000000000E+00  0.81128471765E+02  0.81128471765E+02  0.00000000000E+00 0.  1.
          2   -1    0    0  501    0  0.00000000000E+00 -0.00000000000E+00 -0.32856862987E+03  0.32856862987E+03  0.00000000000E+00 0. -1.
         25    2    1    2    0    0  0.89563525827E+02 -0.33290735771E+02 -0.38375480058E+02  0.16201820942E+03  0.12508926600E+03 0.  0.
          5    1    3    3  502    0  0.86902373990E+02 -0.66998542374E+02  0.11749966272E+01  0.10981657572E+03  0.41800000000E+01 0. -1.
         -5    1    3    3    0  502  0.26611518369E+01  0.33707806603E+02 -0.39550476685E+02  0.52201633702E+02  0.41800000000E+01 0. -1.
        -11    1    1    2    0    0 -0.47318031586E+02 -0.27984178338E+02 -0.62057097132E+02  0.82904726372E+02  0.00000000000E+00 0.  1.
         11    1    1    2    0    0 -0.42245494241E+02  0.61274914109E+02 -0.14700758092E+03  0.16477416584E+03  0.00000000000E+00 0. -1.
</event>
<event>
 7    1  0.2619826E-009  0.9727086E+02  0.7561462E-02  0.1286142E+00
          2   -1    0    0  501    0  0.00000000000E+00  0.00000000000E+00  0.25938592121E+03  0.25938592121E+03  0.00000000000E+00 0. -1.
         -2   -1    0    0    0  501 -0.00000000000E+00 -0.00000000000E+00 -0.47813109128E+02  0.47813109128E+02  0.00000000000E+00 0.  1.
         25    2    1    2    0    0  0.13163073756E+02  0.24144159411E+00  0.15785841862E+03  0.20183859412E+03  0.12508482299E+03 0.  0.
          5    1    3    3  502    0  0.57920074563E+01 -0.51963798255E+02  0.13384118395E+03  0.14375228207E+03  0.41800000000E+01 0. -1.
         -5    1    3    3    0  502  0.73710663001E+01  0.52205239849E+02  0.24017234663E+02  0.58086312045E+02  0.41800000000E+01 0. -1.
        -11    1    1    2    0    0  0.37870530999E+02 -0.36957095053E+01  0.32289059709E+02  0.49904095661E+02  0.00000000000E+00 0. -1.
         11    1    1    2    0    0 -0.51033604755E+02  0.34542679112E+01  0.21425333752E+02  0.55456340553E+02  0.00000000000E+00 0.  1.
</event>
<event>
 7    1  0.4110934E-009  0.1231993E+03  0.7561462E-02  0.1237911E+00
         -2   -1    0    0    0  501 -0.00000000000E+00  0.00000000000E+00  0.81943132227E+02  0.81943132227E+02  0.00000000000E+00 0.  1.
          2   -1    0    0  501    0  0.00000000000E+00 -0.00000000000E+00 -0.27677209524E+03  0.27677209524E+03  0.00000000000E+00 0. -1.
         25    2    1    2    0    0  0.90786476308E+02  0.34065721888E+02 -0.15245678193E+03  0.21975716958E+03  0.12508990981E+03 0.  0.
          5    1    3    3  502    0  0.20131751021E+02 -0.23981438683E+02  0.10129864561E+02  0.33173533977E+02  0.41800000000E+01 0.  1.
         -5    1    3    3    0  502  0.70654725287E+02  0.58047160571E+02 -0.16258664650E+03  0.18658363560E+03  0.41800000000E+01 0.  1.
        -11    1    1    2    0    0 -0.72102800048E+02  0.12427129747E+02  0.26444144251E+00  0.73166366985E+02  0.00000000000E+00 0.  1.
         11    1    1    2    0    0 -0.18683676260E+02 -0.46492851635E+02 -0.42636622516E+02  0.65791690899E+02  0.00000000000E+00 0. -1.
</event>
<event>
 7    1  0.2619826E-009  0.1137856E+03  0.7561462E-02  0.1253716E+00
          1   -1    0    0  501    0  0.00000000000E+00  0.00000000000E+00  0.21675504636E+03  0.21675504636E+03  0.00000000000E+00 0. -1.
         -1   -1    0    0    0  501 -0.00000000000E+00 -0.00000000000E+00 -0.85032137868E+02  0.85032137868E+02  0.00000000000E+00 0.  1.
         25    2    1    2    0    0 -0.97353739041E+01  0.77364036906E+02  0.98917471705E+02  0.17751618690E+03  0.12508940279E+03 0.  0.
          5    1    3    3  502    0  0.14084970475E+02  0.92158128419E+02  0.11242632599E+03  0.14611180035E+03  0.41800000000E+01 0. -1.
         -5    1    3    3    0  502 -0.23820344379E+02 -0.14794091513E+02 -0.13508854286E+02  0.31404386543E+02  0.41800000000E+01 0. -1.
        -11    1    1    2    0    0 -0.29992878432E+02 -0.47585958113E+02 -0.11861270645E+02  0.57486397587E+02  0.00000000000E+00 0.  1.
         11    1    1    2    0    0  0.39728252336E+02 -0.29778078792E+02  0.44666707433E+02  0.66784599745E+02  0.00000000000E+00 0. -1.
</event>
<event>
 7    1  0.2619826E-009  0.7285326E+02  0.7561462E-02  0.1350651E+00
          2   -1    0    0  501    0  0.00000000000E+00  0.00000000000E+00  0.29117603660E+03  0.29117603660E+03  0.00000000000E+00 0. -1.
         -2   -1    0    0    0  501 -0.00000000000E+00 -0.00000000000E+00 -0.63798272744E+02  0.63798272744E+02  0.00000000000E+00 0.  1.
         25    2    1    2    0    0  0.28983246403E+02 -0.52468837594E+02  0.19552322990E+03  0.23972567683E+03  0.12508420848E+03 0.  0.
          5    1    3    3  502    0  0.25077038638E+02 -0.62173893177E+01  0.19113168244E+03  0.19291528252E+03  0.41800000000E+01 0.  1.
         -5    1    3    3    0  502  0.39062077650E+01 -0.46251448276E+02  0.43915474636E+01  0.46810394314E+02  0.41800000000E+01 0.  1.
        -11    1    1    2    0    0 -0.33804283964E+01  0.46523689595E+02  0.60485070504E+02  0.76382751610E+02  0.00000000000E+00 0. -1.
         11    1    1    2    0    0 -0.25602818006E+02  0.59451479991E+01 -0.28630536555E+02  0.38865880899E+02  0.00000000000E+00 0.  1.
</event>
<event>
 7    1  0.2619826E-009  0.9344225E+02  0.7561462E-02  0.1294724E+00
          1   -1    0    0  501    0  0.00000000000E+00  0.00000000000E+00  0.24399427053E+03  0.24399427053E+03  0.00000000000E+00 0. -1.
         -1   -1    0    0    0  501 -0.00000000000E+00 -0.00000000000E+00 -0.75002943477E+02  0.75002943477E+02  0.00000000000E+00 0.  1.
         25    2    1    2    0    0  0.56899722339E+02  0.42584204125E+02  0.48719266682E+02  0.15189761242E+03  0.12509326469E+03 0.  0.
          5    1    3    3  502    0  0.35518894179E+02  0.62989983081E+01  0.87348329918E+02  0.94596365484E+02  0.41800000000E+01 0.  1.
         -5    1    3    3    0  502  0.21380828160E+02  0.36285205817E+02 -0.38629063235E+02  0.57301246936E+02  0.41800000000E+01 0.  1.
        -11    1    1    2    0    0 -0.85356598520E+01 -0.57113472446E+02  0.33662322639E+02  0.66842787116E+02  0.00000000000E+00 0.  1.
         11    1    1    2    0    0 -0.48364062487E+02  0.14529268321E+02  0.86609737735E+02  0.10025681447E+03  0.00000000000E+00 0. -1.
</event>
<event>
 7    1  0.2619826E-009  0.1179167E+03  0.7561462E-02  0.1246574E+00
         -2   -1    0    0    0  501 -0.00000000000E+00  0.00000000000E+00  0.21698678881E+02  0.21698678881E+02  0.00000000000E+00 0. -1.
          2   -1    0    0  501    0  0.00000000000E+00 -0.00000000000E+00 -0.80362745163E+03  0.80362745163E+03  0.00000000000E+00 0.  1.
         25    2    1    2    0    0 -0.69040500909E+02  0.17281823605E+02 -0.36683910704E+03  0.39405674235E+03  0.12507810977E+03 0.  0.
          5    1    3    3  502    0  0.11296371066E+02  0.48611081258E+02 -0.20036490827E+03  0.20652896670E+03  0.41800000000E+01 0. -1.
         -5    1    3    3    0  502 -0.80336871975E+02 -0.31329257653E+02 -0.16647419877E+03  0.18752777565E+03  0.41800000000E+01 0. -1.
        -11    1    1    2    0    0  0.59641745956E+02  0.18484862813E+02 -0.35691355533E+03  0.36233425727E+03  0.00000000000E+00 0.  1.
         11    1    1    2    0    0  0.93987549529E+01 -0.35766686418E+02 -0.58176110373E+02  0.68935130885E+02  0.00000000000E+00 0. -1.
</event>
<event>
 7    1  0.2619826E-009  0.2101852E+03  0.7561462E-02  0.1141419E+00
          1   -1    0    0  501    0  0.00000000000E+00  0.00000000000E+00  0.82028439437E+02  0.82028439437E+02  0.00000000000E+00 0. -1.
         -1   -1    0    0    0  501 -0.00000000000E+00 -0.00000000000E+00 -0.59564379038E+03  0.59564379038E+03  0.00000000000E+00 0.  1.
         25    2    1    2    0    0 -0.12701115597E+03  0.14318727919E+03 -0.29138858656E+03  0.37039062964E+03  0.12508988563E+03 0.  0.
          5    1    3    3  502    0  0.22363276751E+02  0.12850040822E+02 -0.14678092625E+02  0.29969292606E+02  0.41800000000E+01 0.  1.
         -5    1    3    3    0  502 -0.14937443272E+03  0.13033723837E+03 -0.27671049394E+03  0.34042133704E+03  0.41800000000E+01 0.  1.
        -11    1    1    2    0    0  0.10289712749E+03 -0.86768051035E+02 -0.20188740440E+03  0.24264178861E+03  0.00000000000E+00 0.  1.
         11    1    1    2    0    0  0.24114028475E+02 -0.56419228152E+02 -0.20339359983E+02  0.64639811564E+02  0.00000000000E+00 0. -1.
</event>
<event>
 7    1  0.2619826E-009  0.1048686E+03  0.7561462E-02  0.1270379E+00
         -1   -1    0    0    0  501 -0.00000000000E+00  0.00000000000E+00  0.31244949869E+02  0.31244949869E+02  0.00000000000E+00 0.  1.
          1   -1    0    0  501    0  0.00000000000E+00 -0.00000000000E+00 -0.40794214428E+03  0.40794214428E+03  0.00000000000E+00 0. -1.
         25    2    1    2    0    0  0.16766182989E+02 -0.13123270241E+02 -0.26601480500E+03  0.29472834423E+03  0.12509034853E+03 0.  0.
          5    1    3    3  502    0  0.69206301826E+02 -0.17643645484E+02 -0.18131366605E+03  0.19491774761E+03  0.41800000000E+01 0.  1.
         -5    1    3    3    0  502 -0.52440118837E+02  0.45203752439E+01 -0.84701138952E+02  0.99810596611E+02  0.41800000000E+01 0.  1.
        -11    1    1    2    0    0 -0.50041604595E+02  0.14471168151E+02 -0.37904047552E+02  0.64422773294E+02  0.00000000000E+00 0.  1.
         11    1    1    2    0    0  0.33275421605E+02 -0.13478979102E+01 -0.72778341851E+02  0.80035976625E+02  0.00000000000E+00 0. -1.
</event>
<event>
 7    1  0.2619826E-009  0.2335977E+03  0.7561462E-02  0.1124133E+00
          2   -1    0    0  501    0  0.00000000000E+00  0.00000000000E+00  0.25840940785E+03  0.25840940785E+03  0.00000000000E+00 0. -1.
         -2   -1    0    0    0  501 -0.00000000000E+00 -0.00000000000E+00 -0.23948213174E+03  0.23948213174E+03  0.00000000000E+00 0.  1.
         25    2    1    2    0    0  0.13205350143E+03 -0.17945319334E+03  0.29727870399E+02  0.25723954126E+03  0.12508740731E+03 0.  0.
          5    1    3    3  502    0  0.68775115585E+02 -0.31258357787E+02  0.55719484260E+02  0.93964007905E+02  0.41800000000E+01 0. -1.
         -5    1    3    3    0  502  0.63278385845E+02 -0.14819483556E+03 -0.25991613861E+02  0.16327553335E+03  0.41800000000E+01 0. -1.
        -11    1    1    2    0    0 -0.91254045274E+02  0.74722107807E+02  0.28928667344E+02  0.12143954038E+03  0.00000000000E+00 0. -1.
         11    1    1    2    0    0 -0.40799456156E+02  0.10473108554E+03 -0.39729261626E+02  0.11921245795E+03  0.00000000000E+00 0.  1.
</event>
<event>
 7    1  0.2619826E-009  0.1615886E+03  0.7561462E-02  0.1186915E+00
         -1   -1    0    0    0  501 -0.00000000000E+00  0.00000000000E+00  0.69316478897E+03  0.69316478897E+03  0.00000000000E+00 0.  1.
          1   -1    0    0  501    0  0.00000000000E+00 -0.00000000000E+00 -0.59637391716E+02  0.59637391716E+02  0.00000000000E+00 0. -1.
         25    2    1    2    0    0  0.11193756442E+03 -0.11239567106E+03  0.45338356689E+03  0.49635340210E+03  0.12508891178E+03 0.  0.
          5    1    3    3  502    0  0.82821468685E+02 -0.10043196751E+03  0.44477522293E+03  0.46345274528E+03  0.41800000000E+01 0.  1.
         -5    1    3    3    0  502  0.29116095730E+02 -0.11963703550E+02  0.86083439521E+01  0.32900656814E+02  0.41800000000E+01 0.  1.
        -11    1    1    2    0    0 -0.72634617580E+02  0.52830851324E+02  0.15797386814E+03  0.18172129632E+03  0.00000000000E+00 0.  1.
         11    1    1    2    0    0 -0.39302946835E+02  0.59564819738E+02  0.22169962225E+02  0.74727482263E+02  0.00000000000E+00 0. -1.
</event>
<event>
 7    1  0.2619826E-009  0.1115919E+03  0.7561462E-02  0.1257650E+00
          1   -1    0    0  501    0  0.00000000000E+00  0.00000000000E+00  0.63735844490E+02  0.63735844490E+02  0.00000000000E+00 0. -1.
         -1   -1    0    0    0  501 -0.00000000000E+00 -0.00000000000E+00 -0.24049587575E+03  0.24049587575E+03  0.00000000000E+00 0.  1.
         25    2    1    2    0    0 -0.48648761458E+02  0.48738555169E+01 -0.12404858160E+03  0.18282823059E+03  0.12509058655E+03 0.  0.
          5    1    3    3  502    0  0.35615087104E+02 -0.96062269678E+01 -0.76199044938E+02  0.84761317093E+02  0.41800000000E+01 0. -1.
         -5    1    3    3    0  502 -0.84263848562E+02  0.14480082485E+02 -0.47849536659E+02  0.98066913492E+02  0.41800000000E+01 0. -1.
        -11    1    1    2    0    0 -0.24278770850E+02 -0.12186574998E+02  0.56085352510E+01  0.27738547039E+02  0.00000000000E+00 0. -1.
         11    1    1    2    0    0  0.72927532308E+02  0.73127194813E+01 -0.58319984914E+02  0.93664942615E+02  0.00000000000E+00 0.  1.
</event>
<event>
 7    1  0.2619826E-009  0.1045561E+03  0.7561462E-02  0.1270997E+00
         -1   -1    0    0    0  501 -0.00000000000E+00  0.00000000000E+00  0.47699761615E+02  0.47699761615E+02  0.00000000000E+00 0.  1.
          1   -1    0    0  501    0  0.00000000000E+00 -0.00000000000E+00 -0.29856196144E+03  0.29856196144E+03  0.00000000000E+00 0. -1.
         25    2    1    2    0    0  0.49889595934E+02 -0.60630029665E+01 -0.14743064122E+03  0.19977542356E+03  0.12509474051E+03 0.  0.
          5    1    3    3  502    0 -0.22763979473E+02 -0.45936093664E+02 -0.63937585652E+02  0.82059799669E+02  0.41800000000E+01 0. -1.
         -5    1    3    3    0  502  0.72653575407E+02  0.39873090698E+02 -0.83493055567E+02  0.11771562390E+03  0.41800000000E+01 0. -1.
        -11    1    1    2    0    0 -0.78402436334E+01  0.26718416131E+02  0.50698415609E+01  0.28302764427E+02  0.00000000000E+00 0.  1.
         11    1    1    2    0    0 -0.42049352300E+02 -0.20655413165E+02 -0.10850140016E+03  0.11818353506E+03  0.00000000000E+00 0. -1.
</event>
<event>
 6    1  0.2619826E-009  0.8926852E+02  0.7561462E-02  0.1304633E+00
         -3   -1    0    0    0  501 -0.00000000000E+00  0.00000000000E+00  0.31403917620E+02  0.31403917620E+02  0.00000000000E+00 0.  1.
          3   -1    0    0  501    0  0.00000000000E+00 -0.00000000000E+00 -0.59022568444E+03  0.59022568444E+03  0.00000000000E+00 0. -1.
          5    1    1    2  502    0 -0.42123826447E+02 -0.33176098041E+02 -0.14141591188E+03  0.15129772889E+03  0.41800000000E+01 0. -1.
         -5    1    1    2    0  502  0.26685176248E+02  0.67294024065E+02 -0.33156693621E+03  0.33940343235E+03  0.41800000000E+01 0. -1.
        -11    1    1    2    0    0 -0.11021152009E+02 -0.30534840585E+01  0.16886699258E+02  0.20394856419E+02  0.00000000000E+00 0.  1.
         11    1    1    2    0    0  0.26459802207E+02 -0.31064441966E+02 -0.10272561799E+03  0.11053358439E+03  0.00000000000E+00 0. -1.
</event>
<event>
 7    1  0.2619826E-009  0.1457743E+03  0.7561462E-02  0.1205764E+00
         -1   -1    0    0    0  501 -0.00000000000E+00  0.00000000000E+00  0.27132808504E+02  0.27132808504E+02  0.00000000000E+00 0.  1.
          1   -1    0    0  501    0  0.00000000000E+00 -0.00000000000E+00 -0.10922467928E+04  0.10922467928E+04  0.00000000000E+00 0. -1.
         25    2    1    2    0    0  0.63630454568E+02  0.88393840607E+02 -0.81146902005E+03  0.82824717058E+03  0.12509635990E+03 0.  0.
          5    1    3    3  502    0  0.82830308442E+02  0.31241338013E+02 -0.64669337746E+03  0.65273783256E+03  0.41800000000E+01 0.  1.
         -5    1    3    3    0  502 -0.19199853874E+02  0.57152502594E+02 -0.16477564259E+03  0.17550933802E+03  0.41800000000E+01 0.  1.
        -11    1    1    2    0    0  0.18550670378E+02 -0.46879153797E+02 -0.10061681934E+03  0.11254122252E+03  0.00000000000E+00 0. -1.
         11    1    1    2    0    0 -0.82181124946E+02 -0.41514686810E+02 -0.15302814496E+03  0.17859120826E+03  0.00000000000E+00 0.  1.
</event>
<event>
 7    1  0.2619826E-009  0.1240294E+03  0.7561462E-02  0.1236594E+00
          1   -1    0    0  501    0  0.00000000000E+00  0.00000000000E+00  0.18113254674E+03  0.18113254674E+03  0.00000000000E+00 0. -1.
         -1   -1    0    0    0  501 -0.00000000000E+00 -0.00000000000E+00 -0.13371572572E+03  0.13371572572E+03  0.00000000000E+00 0.  1.
         25    2    1    2    0    0  0.35644861463E+02  0.80473946674E+02 -0.42775913758E+02  0.15882023904E+03  0.12508987685E+03 0.  0.
          5    1    3    3  502    0  0.39121441704E+02  0.10987964910E+03 -0.51647104672E+02  0.12762805455E+03  0.41800000000E+01 0.  1.
         -5    1    3    3    0  502 -0.34765802415E+01 -0.29405702425E+02  0.88711909137E+01  0.31192184494E+02  0.41800000000E+01 0.  1.
        -11    1    1    2    0    0 -0.31329483131E+02 -0.13143143905E+02 -0.98382163982E+01  0.35370457261E+02  0.00000000000E+00 0.  1.
         11    1    1    2    0    0 -0.43153783316E+01 -0.67330802769E+02  0.10003095117E+03  0.12065757616E+03  0.00000000000E+00 0. -1.
</event>
<event>
 7    1  0.2619826E-009  0.1399171E+03  0.7561462E-02  0.1213441E+00
         -2   -1    0    0    0  501 -0.00000000000E+00  0.00000000000E+00  0.15813042392E+02  0.15813042392E+02  0.00000000000E+00 0.  1.
          2   -1    0    0  501    0  0.00000000000E+00 -0.00000000000E+00 -0.15085577320E+04  0.15085577320E+04  0.00000000000E+00 0. -1.
         25    2    1    2    0    0  0.80848500703E+02 -0.55064091965E+02 -0.10869530484E+04  0.10984911475E+04  0.12508931854E+03 0.  0.
          5    1    3    3  502    0 -0.17636153842E+02  0.19798808697E+02 -0.36656769081E+03  0.36754914106E+03  0.41800000000E+01 0.  1.
         -5    1    3    3    0  502  0.98484654545E+02 -0.74862900662E+02 -0.72038535754E+03  0.73094200648E+03  0.41800000000E+01 0.  1.
        -11    1    1    2    0    0 -0.25655942022E+02  0.67867770284E+02 -0.23313683083E+03  0.24416601626E+03  0.00000000000E+00 0. -1.
         11    1    1    2    0    0 -0.55192558681E+02 -0.12803678319E+02 -0.17265481037E+03  0.18171361054E+03  0.00000000000E+00 0.  1.
</event>
<event>
 7    1  0.2619826E-009  0.9986839E+02  0.7561462E-02  0.1280573E+00
         -1   -1    0    0    0  501 -0.00000000000E+00  0.00000000000E+00  0.54180937699E+02  0.54180937699E+02  0.00000000000E+00 0.  1.
          1   -1    0    0  501    0  0.00000000000E+00 -0.00000000000E+00 -0.38349322463E+03  0.38349322463E+03  0.00000000000E+00 0. -1.
         25    2    1    2    0    0 -0.18436393585E+02 -0.75709174670E+02 -0.10262875900E+03  0.17958573066E+03  0.12508634117E+03 0.  0.
          5    1    3    3  502    0  0.16155391138E+02 -0.36308564496E+02 -0.11816757654E+03  0.12474116026E+03  0.41800000000E+01 0.  1.
         -5    1    3    3    0  502 -0.34591784723E+02 -0.39400610174E+02  0.15538817535E+02  0.54844570404E+02  0.41800000000E+01 0.  1.
        -11    1    1    2    0    0  0.47140108423E+02  0.45798841619E+02 -0.19538994000E+03  0.20614788956E+03  0.00000000000E+00 0. -1.
         11    1    1    2    0    0 -0.28703714838E+02  0.29910333051E+02 -0.31293587927E+02  0.51940542104E+02  0.00000000000E+00 0.  1.
</event>
<event>
 7    1  0.2619826E-009  0.1173015E+03  0.7561462E-02  0.1247616E+00
          1   -1    0    0  501    0  0.00000000000E+00  0.00000000000E+00  0.99853613696E+02  0.99853613696E+02  0.00000000000E+00 0. -1.
         -1   -1    0    0    0  501 -0.00000000000E+00 -0.00000000000E+00 -0.24057976482E+03  0.24057976482E+03  0.00000000000E+00 0.  1.
         25    2    1    2    0    0 -0.18408176563E+02  0.10834061350E+03 -0.63375465380E+02  0.17816038377E+03  0.12509245875E+03 0.  0.
          5    1    3    3  502    0 -0.31109356191E+02  0.10594003049E+03 -0.93737634008E+02  0.14489754495E+03  0.41800000000E+01 0. -1.
         -5    1    3    3    0  502  0.12701179628E+02  0.24005830060E+01  0.30362168627E+02  0.33262838821E+02  0.41800000000E+01 0. -1.
        -11    1    1    2    0    0  0.18061867171E+02 -0.73620224628E+02  0.18173883202E+01  0.75825269009E+02  0.00000000000E+00 0. -1.
         11    1    1    2    0    0  0.34630939181E+00 -0.34720388872E+02 -0.79168074068E+02  0.86447725738E+02  0.00000000000E+00 0.  1.
</event>
<event>
 7    1  0.2619826E-009  0.3250834E+03  0.7561462E-02  0.1073333E+00
         -3   -1    0    0    0  501 -0.00000000000E+00  0.00000000000E+00  0.85380359377E+03  0.85380359377E+03  0.00000000000E+00 0.  1.
          3   -1    0    0  501    0  0.00000000000E+00 -0.00000000000E+00 -0.15013487767E+03  0.15013487767E+03  0.00000000000E+00 0. -1.
         25    2    1    2    0    0  0.15869821675E+03 -0.27524896908E+03  0.18347360846E+03  0.38762984329E+03  0.12508881416E+03 0.  0.
          5    1    3    3  502    0  0.51221834271E+01  0.11223205593E+01 -0.13514377704E+02  0.15086655403E+02  0.41800000000E+01 0.  1.
         -5    1    3    3    0  502  0.15357603332E+03 -0.27637128964E+03  0.19698798616E+03  0.37254318789E+03  0.41800000000E+01 0.  1.
        -11    1    1    2    0    0 -0.15708375084E+03  0.21131910311E+03  0.44981032614E+03  0.52121051181E+03  0.00000000000E+00 0.  1.
         11    1    1    2    0    0 -0.16144659108E+01  0.63929865970E+02  0.70384781499E+02  0.95098116331E+02  0.00000000000E+00 0. -1.
</event>
<event>
 7    1  0.2619826E-009  0.7704057E+02  0.7561462E-02  0.1337666E+00
          1   -1    0    0  501    0  0.00000000000E+00  0.00000000000E+00  0.43526663990E+02  0.43526663990E+02  0.00000000000E+00 0. -1.
         -1   -1    0    0    0  501 -0.00000000000E+00 -0.00000000000E+00 -0.52477183874E+03  0.52477183874E+03  0.00000000000E+00 0.  1.
         25    2    1    2    0    0  0.39024708600E+02 -0.25111192733E+02 -0.43735954820E+03  0.45725671376E+03  0.12508728149E+03 0.  0.
          5    1    3    3  502    0 -0.64130460810E+01 -0.37079038010E+02 -0.33206555227E+02  0.50360003275E+02  0.41800000000E+01 0. -1.
         -5    1    3    3    0  502  0.45437754681E+02  0.11967845277E+02 -0.40415299298E+03  0.40689671048E+03  0.41800000000E+01 0.  1.
        -11    1    1    2    0    0 -0.18793523788E+00  0.29913945429E+02  0.20098725154E+02  0.36039397936E+02  0.00000000000E+00 0. -1.
         11    1    1    2    0    0 -0.38836773362E+02 -0.48027526961E+01 -0.63984351704E+02  0.75002391040E+02  0.00000000000E+00 0.  1.
</event>
<event>
 7    1  0.2619826E-009  0.9390269E+02  0.7561462E-02  0.1293667E+00
          2   -1    0    0  501    0  0.00000000000E+00  0.00000000000E+00  0.84329069103E+03  0.84329069103E+03  0.00000000000E+00 0. -1.
         -2   -1    0    0    0  501 -0.00000000000E+00 -0.00000000000E+00 -0.22049303547E+02  0.22049303547E+02  0.00000000000E+00 0.  1.
         25    2    1    2    0    0  0.15219306374E+02 -0.53607972526E+02  0.63993110633E+03  0.65441905442E+03  0.12508811268E+03 0.  0.
          5    1    3    3  502    0  0.41059595101E+02 -0.46156229867E+02  0.61303935976E+03  0.61615827262E+03  0.41800000000E+01 0. -1.
         -5    1    3    3    0  502 -0.25840288727E+02 -0.74517426586E+01  0.26891746565E+02  0.38260781794E+02  0.41800000000E+01 0. -1.
        -11    1    1    2    0    0 -0.34761040743E+02 -0.65910666416E+01  0.11012009542E+03  0.11566420159E+03  0.00000000000E+00 0.  1.
         11    1    1    2    0    0  0.19541734369E+02  0.60199039167E+02  0.71190185740E+02  0.95256738578E+02  0.00000000000E+00 0. -1.
</event>
<event>
 7    1  0.2619826E-009  0.9775288E+02  0.7561462E-02  0.1285094E+00
          2   -1    0    0  501    0  0.00000000000E+00  0.00000000000E+00  0.75276158850E+02  0.75276158850E+02  0.00000000000E+00 0. -1.
         -2   -1    0    0    0  501 -0.00000000000E+00 -0.00000000000E+00 -0.20010528361E+03  0.20010528361E+03  0.00000000000E+00 0.  1.
         25    2    1    2    0    0 -0.52494987876E+02 -0.99625335625E+01 -0.40112766343E+02  0.14180373968E+03  0.12507713915E+03 0.  0.
          5    1    3    3  502    0 -0.76614167525E+02 -0.11053664766E+02  0.17259218518E+02  0.79418305158E+02  0.41800000000E+01 0. -1.
         -5    1    3    3    0  502  0.24119179649E+02  0.10911312038E+01 -0.57371984861E+02  0.62385434527E+02  0.41800000000E+01 0. -1.
        -11    1    1    2    0    0  0.65588244932E+02 -0.13173851474E+02 -0.31187093447E+02  0.73810588899E+02  0.00000000000E+00 0.  1.
         11    1    1    2    0    0 -0.13093257056E+02  0.23136385036E+02 -0.53529264968E+02  0.59767113874E+02  0.00000000000E+00 0. -1.
</event>
<event>
 7    1  0.2619826E-009  0.1092360E+03  0.7561462E-02  0.1261991E+00
          2   -1    0    0  501    0  0.00000000000E+00  0.00000000000E+00  0.10010195575E+04  0.10010195575E+04  0.00000000000E+00 0. -1.
         -2   -1    0    0    0  501 -0.00000000000E+00 -0.00000000000E+00 -0.13285725782E+02  0.13285725782E+02  0.00000000000E+00 0.  1.
         25    2    1    2    0    0 -0.75354105900E+01 -0.34618848625E+02  0.62431036320E+03  0.63769963231E+03  0.12506855863E+03 0.  0.
          5    1    3    3  502    0 -0.60311222772E+02 -0.27058282826E+02  0.46402322994E+03  0.46872659898E+03  0.41800000000E+01 0.  1.
         -5    1    3    3    0  502  0.52775812182E+02 -0.75605657993E+01  0.16028713326E+03  0.16897303334E+03  0.41800000000E+01 0.  1.
        -11    1    1    2    0    0  0.27649388877E+02 -0.24107586605E+02  0.13246029608E+03  0.13744596930E+03  0.00000000000E+00 0.  1.
         11    1    1    2    0    0 -0.20113978287E+02  0.58726435230E+02  0.23096317242E+03  0.23915968166E+03  0.00000000000E+00 0. -1.
</event>
<event>
 7    1  0.2619826E-009  0.1345956E+03  0.7561462E-02  0.1220792E+00
          1   -1    0    0  501    0  0.00000000000E+00  0.00000000000E+00  0.12941069408E+04  0.12941069408E+04  0.00000000000E+00 0. -1.
         -1   -1    0    0    0  501 -0.00000000000E+00 -0.00000000000E+00 -0.20454311175E+02  0.20454311175E+02  0.00000000000E+00 0.  1.
         25    2    1    2    0    0  0.34981020982E+02 -0.10869966543E+03  0.74063104369E+03  0.75975088256E+03  0.12509105314E+03 0.  0.
          5    1    3    3  502    0  0.12028976517E+02 -0.63795435576E+02  0.11538352608E+03  0.13245899127E+03  0.41800000000E+01 0.  1.
         -5    1    3    3    0  502  0.22952044465E+02 -0.44904229858E+02  0.62524751761E+03  0.62729189129E+03  0.41800000000E+01 0.  1.
        -11    1    1    2    0    0 -0.56228600156E+02  0.16042896043E+02  0.18340696867E+03  0.19250232764E+03  0.00000000000E+00 0. -1.
         11    1    1    2    0    0  0.21247579174E+02  0.92656769391E+02  0.34961461730E+03  0.36230804181E+03  0.00000000000E+00 0.  1.
</event>
<event>
 7    1  0.2619826E-009  0.1908381E+03  0.7561462E-02  0.1157708E+00
         -2   -1    0    0    0  501 -0.00000000000E+00  0.00000000000E+00  0.17292967387E+03  0.17292967387E+03  0.00000000000E+00 0.  1.
          2   -1    0    0  501    0  0.00000000000E+00 -0.00000000000E+00 -0.27640639614E+03  0.27640639614E+03  0.00000000000E+00 0. -1.
         25    2    1    2    0    0 -0.18774261335E+03 -0.69442723393E+01 -0.26927446980E+02  0.22730324609E+03  0.12508463733E+03 0.  0.
          5    1    3    3  502    0 -0.11310055885E+03  0.18791865259E+02  0.42237648436E+02  0.12225531464E+03  0.41800000000E+01 0. -1.
         -5    1    3    3    0  502 -0.74642054500E+02 -0.25736137599E+02 -0.69165095416E+02  0.10504793145E+03  0.41800000000E+01 0. -1.
        -11    1    1    2    0    0  0.14842233977E+03  0.45850671040E+01 -0.15393492136E+02  0.14928889236E+03  0.00000000000E+00 0.  1.
         11    1    1    2    0    0  0.39320273585E+02  0.23592052353E+01 -0.61155783159E+02  0.72743931554E+02  0.00000000000E+00 0. -1.
</event>
<event>
 7    1  0.2619826E-009  0.1736304E+03  0.7561462E-02  0.1174114E+00
          2   -1    0    0  501    0  0.00000000000E+00  0.00000000000E+00  0.69633164788E+03  0.69633164788E+03  0.00000000000E+00 0. -1.
         -2   -1    0    0    0  501 -0.00000000000E+00 -0.00000000000E+00 -0.46406695616E+02  0.46406695616E+02  0.00000000000E+00 0.  1.
         25    2    1    2    0    0  0.57711322964E+02 -0.12267347881E+03  0.43952900883E+03  0.47666961465E+03  0.12509513467E+03 0.  0.
          5    1    3    3  502    0  0.61625340633E+02 -0.14698813691E+03  0.37615687564E+03  0.40855190918E+03  0.41800000000E+01 0. -1.
         -5    1    3    3    0  502 -0.39140176698E+01  0.24314658100E+02  0.63372133191E+02  0.68117705466E+02  0.41800000000E+01 0. -1.
        -11    1    1    2    0    0 -0.81049229727E+02  0.78235914601E+02  0.14333493089E+03  0.18230397249E+03  0.00000000000E+00 0. -1.
         11    1    1    2    0    0  0.23337906763E+02  0.44437564210E+02  0.67061012539E+02  0.83764756359E+02  0.00000000000E+00 0.  1.
</event>
<event>
 7    1  0.2619826E-009  0.1587272E+03  0.7561462E-02  0.1190141E+00
          2   -1    0    0  501    0  0.00000000000E+00  0.00000000000E+00  0.21173218328E+04  0.21173218328E+04  0.00000000000E+00 0. -1.
         -2   -1    0    0    0  501 -0.00000000000E+00 -0.00000000000E+00 -0.13766660993E+02  0.13766660993E+02  0.00000000000E+00 0.  1.
         25    2    1    2    0    0 -0.62997998537E+02  0.10391496407E+03  0.14436894967E+04  0.14541852004E+04  0.12509263260E+03 0.  0.
          5    1    3    3  502    0  0.17963809335E+02 -0.16925874529E+02  0.12431425932E+03  0.12680966503E+03  0.41800000000E+01 0. -1.
         -5    1    3    3    0  502 -0.80961807872E+02  0.12084083860E+03  0.13193752373E+04  0.13273755354E+04  0.41800000000E+01 0. -1.
        -11    1    1    2    0    0 -0.19367758701E+02 -0.32780323971E+02  0.11090226251E+03  0.11725600858E+03  0.00000000000E+00 0.  1.
         11    1    1    2    0    0  0.82365757237E+02 -0.71134640098E+02  0.54896341260E+03  0.55964728478E+03  0.00000000000E+00 0. -1.
</event>
<event>
 7    1  0.2619826E-009  0.1094620E+03  0.7561462E-02  0.1261569E+00
         -2   -1    0    0    0  501 -0.00000000000E+00  0.00000000000E+00  0.16657648086E+03  0.16657648086E+03  0.00000000000E+00 0.  1.
          2   -1    0    0  501    0  0.00000000000E+00 -0.00000000000E+00 -0.12199810900E+03  0.12199810900E+03  0.00000000000E+00 0. -1.
         25    2    1    2    0    0  0.41513163632E+02  0.80561792712E+02  0.27738932552E+02  0.15693744467E+03  0.12508544264E+03 0.  0.
          5    1    3    3  502    0  0.10556966082E+02  0.45483970595E+02 -0.48460173185E+02  0.67424786978E+02  0.41800000000E+01 0.  1.
         -5    1    3    3    0  502  0.30956197551E+02  0.35077822118E+02  0.76199105738E+02  0.89512657689E+02  0.41800000000E+01 0.  1.
        -11    1    1    2    0    0 -0.68509087770E+02 -0.54393348948E+02  0.28941772981E+02  0.92139881377E+02  0.00000000000E+00 0.  1.
         11    1    1    2    0    0  0.26995924138E+02 -0.26168443764E+02 -0.12102333669E+02  0.39497263821E+02  0.00000000000E+00 0. -1.
</event>
<event>
 7    1  0.2619826E-009  0.1065325E+03  0.7561462E-02  0.1267129E+00
         -2   -1    0    0    0  501 -0.00000000000E+00  0.00000000000E+00  0.15994061500E+03  0.15994061500E+03  0.00000000000E+00 0.  1.
          2   -1    0    0  501    0  0.00000000000E+00 -0.00000000000E+00 -0.14152531051E+03  0.14152531051E+03  0.00000000000E+00 0. -1.
         25    2    1    2    0    0  0.21555722266E+02 -0.13484867515E+02  0.11160707282E+03  0.16955953461E+03  0.12509119178E+03 0.  0.
          5    1    3    3  502    0  0.73975145577E+02 -0.39528808161E+01  0.63948672950E+02  0.97953318484E+02  0.41800000000E+01 0.  1.
         -5    1    3    3    0  502 -0.52419423311E+02 -0.95319866991E+01  0.47658399867E+02  0.71606216131E+02  0.41800000000E+01 0.  1.
        -11    1    1    2    0    0  0.24387036370E+02  0.28105349453E+02 -0.15157620725E+02  0.40179493238E+02  0.00000000000E+00 0.  1.
         11    1    1    2    0    0 -0.45942758636E+02 -0.14620481938E+02 -0.78034147594E+02  0.91726897658E+02  0.00000000000E+00 0. -1.
</event>
<event>
 7    1  0.2622300E-009  0.1042378E+03  0.7561462E-02  0.1271629E+00
          2   -1    0    0  501    0  0.00000000000E+00  0.00000000000E+00  0.57385492974E+03  0.57385492974E+03  0.00000000000E+00 0. -1.
         -2   -1    0    0    0  501 -0.00000000000E+00 -0.00000000000E+00 -0.23118127716E+02  0.23118127716E+02  0.00000000000E+00 0.  1.
         25    2    1    2    0    0 -0.32256662598E+02 -0.58360482615E+01  0.36423606553E+03  0.38651023269E+03  0.12509075424E+03 0.  0.
          5    1    3    3  502    0 -0.32507046102E+02  0.56206614184E+02  0.15170811758E+03  0.16507185364E+03  0.41800000000E+01 0. -1.
         -5    1    3    3    0  502  0.25038350400E+00 -0.62042662445E+02  0.21252794795E+03  0.22143837905E+03  0.41800000000E+01 0. -1.
        -11    1    1    2    0    0  0.21465103275E+02  0.40002265112E+02  0.42904022130E+02  0.62463485234E+02  0.00000000000E+00 0.  1.
         11    1    1    2    0    0  0.10791559322E+02 -0.34166216850E+02  0.14359671436E+03  0.14799933953E+03  0.00000000000E+00 0. -1.
</event>
<event>
 7    1  0.2619826E-009  0.1157395E+03  0.7561462E-02  0.1250296E+00
          3   -1    0    0  501    0  0.00000000000E+00  0.00000000000E+00  0.39117712336E+03  0.39117712336E+03  0.00000000000E+00 0. -1.
         -3   -1    0    0    0  501 -0.00000000000E+00 -0.00000000000E+00 -0.49629909124E+02  0.49629909124E+02  0.00000000000E+00 0.  1.
         25    2    1    2    0    0 -0.60443577556E+02 -0.36335301665E+02  0.27434299083E+03  0.30965371855E+03  0.12509064145E+03 0.  0.
          5    1    3    3  502    0 -0.73850758666E+02  0.19811010986E+02  0.99978186859E+02  0.12593459000E+03  0.41800000000E+01 0. -1.
         -5    1    3    3    0  502  0.13407181110E+02 -0.56146312651E+02  0.17436480397E+03  0.18371912855E+03  0.41800000000E+01 0. -1.
        -11    1    1    2    0    0  0.54881403260E+02  0.54911912113E+02  0.20072688230E+02  0.80188523671E+02  0.00000000000E+00 0.  1.
         11    1    1    2    0    0  0.55621742967E+01 -0.18576610448E+02  0.47131535179E+02  0.50964790267E+02  0.00000000000E+00 0. -1.
</event>
<event>
 7    1  0.2619826E-009  0.1465983E+03  0.7561462E-02  0.1204716E+00
         -3   -1    0    0    0  501 -0.00000000000E+00  0.00000000000E+00  0.12311713111E+03  0.12311713111E+03  0.00000000000E+00 0.  1.
          3   -1    0    0  501    0  0.00000000000E+00 -0.00000000000E+00 -0.27138784050E+03  0.27138784050E+03  0.00000000000E+00 0. -1.
         25    2    1    2    0    0 -0.27384386967E+02 -0.12788247731E+03 -0.70606306239E+01  0.18110481614E+03  0.12508105081E+03 0.  0.
          5    1    3    3  502    0  0.21341275975E+02  0.26750435685E+01  0.29714967924E+02  0.36919610467E+02  0.41800000000E+01 0.  1.
         -5    1    3    3    0  502 -0.48725662942E+02 -0.13055752088E+03 -0.36775598548E+02  0.14418520568E+03  0.41800000000E+01 0.  1.
        -11    1    1    2    0    0  0.27548198092E+02  0.93188702473E+02 -0.14895691234E+03  0.17785162136E+03  0.00000000000E+00 0. -1.
         11    1    1    2    0    0 -0.16381112442E+00  0.34693774839E+02  0.77468335648E+01  0.35548534104E+02  0.00000000000E+00 0.  1.
</event>
<event>
 7    1  0.2619826E-009  0.4937329E+02  0.7561462E-02  0.1448751E+00
          2   -1    0    0  501    0  0.00000000000E+00  0.00000000000E+00  0.58157110719E+02  0.58157110719E+02  0.00000000000E+00 0. -1.
         -2   -1    0    0    0  501 -0.00000000000E+00 -0.00000000000E+00 -0.21004900860E+03  0.21004900860E+03  0.00000000000E+00 0.  1.
         25    2    1    2    0    0  0.20435964392E+02  0.19199464959E+02 -0.14095373253E+03  0.19053015115E+03  0.12509011026E+03 0.  0.
          5    1    3    3  502    0  0.13103933734E+02  0.25215199792E+02  0.16239469118E+02  0.32995638152E+02  0.41800000000E+01 0. -1.
         -5    1    3    3    0  502  0.73320306587E+01 -0.60157348333E+01 -0.15719320165E+03  0.15753451299E+03  0.41800000000E+01 0. -1.
        -11    1    1    2    0    0 -0.93010671626E+01 -0.37281416335E+02  0.17469145974E+02  0.42208825089E+02  0.00000000000E+00 0. -1.
         11    1    1    2    0    0 -0.11134897230E+02  0.18081951376E+02 -0.28407311317E+02  0.35467143079E+02  0.00000000000E+00 0.  1.
</event>
<event>
 7    1  0.2635569E-009  0.1116572E+03  0.7561462E-02  0.1257531E+00
         -3   -1    0    0    0  501 -0.00000000000E+00  0.00000000000E+00  0.39254992851E+02  0.39254992851E+02  0.00000000000E+00 0.  1.
          3   -1    0    0  501    0  0.00000000000E+00 -0.00000000000E+00 -0.60623422664E+03  0.60623422664E+03  0.00000000000E+00 0. -1.
         25    2    1    2    0    0  0.93660171857E+02  0.56073505959E+02 -0.30021840809E+03  0.34306699390E+03  0.12508958343E+03 0.  0.
          5    1    3    3  502    0  0.41183846276E+01  0.57931082166E+01  0.11891158537E+02  0.14470426604E+02  0.41800000000E+01 0. -1.
         -5    1    3    3    0  502  0.89541787229E+02  0.50280397743E+02 -0.31210956663E+03  0.32859656730E+03  0.41800000000E+01 0. -1.
        -11    1    1    2    0    0 -0.83307019105E+02 -0.38228209605E+02 -0.26646498167E+03  0.28178900244E+03  0.00000000000E+00 0. -1.
         11    1    1    2    0    0 -0.10353152752E+02 -0.17845296354E+02 -0.29584402867E+00  0.20633223150E+02  0.00000000000E+00 0.  1.
</event>
<event>
 7    1  0.2619826E-009  0.1387925E+03  0.7561462E-02  0.1214963E+00
          1   -1    0    0  501    0  0.00000000000E+00  0.00000000000E+00  0.34123605812E+02  0.34123605812E+02  0.00000000000E+00 0. -1.
         -1   -1    0    0    0  501 -0.00000000000E+00 -0.00000000000E+00 -0.60565797850E+03  0.60565797850E+03  0.00000000000E+00 0.  1.
         25    2    1    2    0    0  0.87271837036E+02  0.13513361055E+02 -0.23788020004E+03  0.28290132761E+03  0.12508871702E+03 0.  0.
          5    1    3    3  502    0  0.11138806010E+03  0.37198947703E+02 -0.16626219916E+03  0.20359679003E+03  0.41800000000E+01 0. -1.
         -5    1    3    3    0  502 -0.24116223062E+02 -0.23685586648E+02 -0.71618000881E+02  0.79304537574E+02  0.41800000000E+01 0. -1.
        -11    1    1    2    0    0 -0.39586693456E+02  0.38660582177E+02 -0.12909775643E+03  0.14045631929E+03  0.00000000000E+00 0. -1.
         11    1    1    2    0    0 -0.47685143580E+02 -0.52173943231E+02 -0.20455641622E+03  0.21642393742E+03  0.00000000000E+00 0.  1.
</event>
<event>
 7    1  0.2619826E-009  0.1410128E+03  0.7561462E-02  0.1211973E+00
         -2   -1    0    0    0  501 -0.00000000000E+00  0.00000000000E+00  0.20293186378E+02  0.20293186378E+02  0.00000000000E+00 0.  1.
          2   -1    0    0  501    0  0.00000000000E+00 -0.00000000000E+00 -0.11166054777E+04  0.11166054777E+04  0.00000000000E+00 0. -1.
         25    2    1    2    0    0  0.25034245641E+02 -0.97325767132E+02 -0.69325696527E+03  0.71158448157E+03  0.12509290993E+03 0.  0.
          5    1    3    3  502    0  0.60640456585E+02 -0.10093471931E+03 -0.60295516633E+03  0.61435941235E+03  0.41800000000E+01 0. -1.
         -5    1    3    3    0  502 -0.35606210944E+02  0.36089521736E+01 -0.90301798942E+02  0.97225069225E+02  0.41800000000E+01 0. -1.
        -11    1    1    2    0    0  0.16991046825E+02  0.81517336192E+02 -0.32264723340E+03  0.33321916060E+03  0.00000000000E+00 0. -1.
         11    1    1    2    0    0 -0.42025292466E+02  0.15808430940E+02 -0.80408092645E+02  0.92095021899E+02  0.00000000000E+00 0.  1.
</event>
<event>
 7    1  0.2619826E-009  0.1285693E+03  0.7561462E-02  0.1229594E+00
         -3   -1    0    0    0  501 -0.00000000000E+00  0.00000000000E+00  0.15646031079E+03  0.15646031079E+03  0.00000000000E+00 0.  1.
          3   -1    0    0  501    0  0.00000000000E+00 -0.00000000000E+00 -0.11185905417E+03  0.11185905417E+03  0.00000000000E+00 0. -1.
         25    2    1    2    0    0  0.20627501208E+02  0.67726153713E+02  0.11817482800E+02  0.14422663452E+03  0.12509733611E+03 0.  0.
          5    1    3    3  502    0  0.18665296084E+02  0.10373872049E+03 -0.16545955537E+01  0.10550035778E+03  0.41800000000E+01 0. -1.
         -5    1    3    3    0  502  0.19622051233E+01 -0.36012566775E+02  0.13472078354E+02  0.38726276736E+02  0.41800000000E+01 0. -1.
        -11    1    1    2    0    0  0.36333128011E+02 -0.24162920314E+02  0.28781379761E+02  0.52271509736E+02  0.00000000000E+00 0.  1.
         11    1    1    2    0    0 -0.56960629219E+02 -0.43563233399E+02  0.40023940505E+01  0.71821220703E+02  0.00000000000E+00 0. -1.
</event>
<event>
 7    1  0.2619826E-009  0.1669545E+03  0.7561462E-02  0.1181062E+00
         -2   -1    0    0    0  501 -0.00000000000E+00  0.00000000000E+00  0.24734289580E+03  0.24734289580E+03  0.00000000000E+00 0.  1.
          2   -1    0    0  501    0  0.00000000000E+00 -0.00000000000E+00 -0.12582830977E+03  0.12582830977E+03  0.00000000000E+00 0. -1.
         25    2    1    2    0    0 -0.89052719585E+02  0.99756896280E+02  0.94769732877E+02  0.20616302299E+03  0.12506024371E+03 0.  0.
          5    1    3    3  502    0 -0.79565922248E+02  0.12531782690E+03  0.98687359274E+02  0.17830300335E+03  0.41800000000E+01 0.  1.
         -5    1    3    3    0  502 -0.94867973367E+01 -0.25560930618E+02 -0.39176263968E+01  0.27860019640E+02  0.41800000000E+01 0.  1.
        -11    1    1    2    0    0  0.10567418436E+03 -0.85802374775E+02  0.39624472197E+02  0.14177157527E+03  0.00000000000E+00 0.  1.
         11    1    1    2    0    0 -0.16621464780E+02 -0.13954521505E+02 -0.12879619041E+02  0.25236607310E+02  0.00000000000E+00 0. -1.
</event>
<event>
 7    1  0.2619826E-009  0.1406577E+03  0.7561462E-02  0.1212447E+00
          1   -1    0    0  501    0  0.00000000000E+00  0.00000000000E+00  0.16640483388E+03  0.16640483388E+03  0.00000000000E+00 0. -1.
         -1   -1    0    0    0  501 -0.00000000000E+00 -0.00000000000E+00 -0.18763823018E+03  0.18763823018E+03  0.00000000000E+00 0.  1.
         25    2    1    2    0    0  0.88592614348E+02  0.47106029435E+02  0.86126685567E+02  0.18202686199E+03  0.12509333793E+03 0.  0.
          5    1    3    3  502    0  0.25642383063E+02 -0.40402630960E+02  0.47186706188E+02  0.67334701592E+02  0.41800000000E+01 0. -1.
         -5    1    3    3    0  502  0.62950231284E+02  0.87508660395E+02  0.38939979379E+02  0.11469216040E+03  0.41800000000E+01 0. -1.
        -11    1    1    2    0    0 -0.85284618504E+02 -0.74526385212E+01 -0.99844377405E+02  0.13152151031E+03  0.00000000000E+00 0.  1.
         11    1    1    2    0    0 -0.33079958441E+01 -0.39653390914E+02 -0.75157044649E+01  0.40494691764E+02  0.00000000000E+00 0. -1.
</event>
<event>
 7    1  0.2619826E-009  0.1794019E+03  0.7561462E-02  0.1168383E+00
          2   -1    0    0  501    0  0.00000000000E+00  0.00000000000E+00  0.34233287353E+03  0.34233287353E+03  0.00000000000E+00 0. -1.
         -2   -1    0    0    0  501 -0.00000000000E+00 -0.00000000000E+00 -0.11150419778E+03  0.11150419778E+03  0.00000000000E+00 0.  1.
         25    2    1    2    0    0  0.15080382801E+03  0.53028913012E+02  0.15693019573E+03  0.25657062504E+03  0.12509012409E+03 0.  0.
          5    1    3    3  502    0  0.67196367272E+02 -0.16861033160E+02  0.12494011601E+03  0.14292358519E+03  0.41800000000E+01 0. -1.
         -5    1    3    3    0  502  0.83607460740E+02  0.69889946172E+02  0.31990079717E+02  0.11364703985E+03  0.41800000000E+01 0. -1.
        -11    1    1    2    0    0 -0.26023976698E+01 -0.30300973910E+02  0.25577372301E+02  0.39738186513E+02  0.00000000000E+00 0. -1.
         11    1    1    2    0    0 -0.14820143034E+03 -0.22727939102E+02  0.48321107714E+02  0.15752825976E+03  0.00000000000E+00 0.  1.
</event>
<event>
 7    1  0.2619826E-009  0.9979887E+02  0.7561462E-02  0.1280719E+00
          2   -1    0    0  501    0  0.00000000000E+00  0.00000000000E+00  0.47163571586E+03  0.47163571586E+03  0.00000000000E+00 0. -1.
         -2   -1    0    0    0  501 -0.00000000000E+00 -0.00000000000E+00 -0.30091372558E+02  0.30091372558E+02  0.00000000000E+00 0.  1.
         25    2    1    2    0    0 -0.27463959393E+01 -0.42429073590E+02  0.30187826252E+03  0.32952423250E+03  0.12509182804E+03 0.  0.
          5    1    3    3  502    0 -0.19865836755E+01  0.41866601780E+02  0.14962962861E+03  0.15544535058E+03  0.41800000000E+01 0.  1.
         -5    1    3    3    0  502 -0.75981226380E+00 -0.84295675370E+02  0.15224863391E+03  0.17407888192E+03  0.41800000000E+01 0.  1.
        -11    1    1    2    0    0  0.28435660292E+02  0.69539038968E+01  0.38826959669E+01  0.29529965858E+02  0.00000000000E+00 0.  1.
         11    1    1    2    0    0 -0.25689264352E+02  0.35475169693E+02  0.13578338482E+03  0.14267289007E+03  0.00000000000E+00 0. -1.
</event>
<event>
 7    1  0.2619826E-009  0.1676505E+03  0.7561462E-02  0.1180320E+00
         -1   -1    0    0    0  501 -0.00000000000E+00  0.00000000000E+00  0.53561109587E+02  0.53561109587E+02  0.00000000000E+00 0.  1.
          1   -1    0    0  501    0  0.00000000000E+00 -0.00000000000E+00 -0.61325947567E+03  0.61325947567E+03  0.00000000000E+00 0. -1.
         25    2    1    2    0    0 -0.50259225303E+02 -0.13296719533E+03 -0.34680148590E+03  0.39512571697E+03  0.12508715691E+03 0.  0.
          5    1    3    3  502    0 -0.75452999111E+02 -0.98346326354E+02 -0.32292391153E+03  0.34592265034E+03  0.41800000000E+01 0. -1.
         -5    1    3    3    0  502  0.25193773809E+02 -0.34620868980E+02 -0.23877574374E+02  0.49203066628E+02  0.41800000000E+01 0. -1.
        -11    1    1    2    0    0 -0.25215058714E+02  0.50610018730E+02 -0.61458981347E+02  0.83512750942E+02  0.00000000000E+00 0.  1.
         11    1    1    2    0    0  0.75474284016E+02  0.82357176604E+02 -0.15143789883E+03  0.18818211735E+03  0.00000000000E+00 0. -1.
</event>
<event>
 7    1  0.2619826E-009  0.1444063E+03  0.7561462E-02  0.1207520E+00
         -2   -1    0    0    0  501 -0.00000000000E+00  0.00000000000E+00  0.10927914464E+03  0.10927914464E+03  0.00000000000E+00 0.  1.
          2   -1    0    0  501    0  0.00000000000E+00 -0.00000000000E+00 -0.28447796634E+03  0.28447796634E+03  0.00000000000E+00 0. -1.
         25    2    1    2    0    0 -0.79126176464E+02 -0.66185812162E+02  0.96799841127E+01  0.16242885547E+03  0.12509163626E+03 0.  0.
          5    1    3    3  502    0 -0.24138990046E+02 -0.91144020741E+02  0.29259018290E+02  0.98810353246E+02  0.41800000000E+01 0.  1.
         -5    1    3    3    0  502 -0.54987186419E+02  0.24958208579E+02 -0.19579034178E+02  0.63618502223E+02  0.41800000000E+01 0.  1.
        -11    1    1    2    0    0 -0.11617470633E+01  0.52432602094E+02 -0.10433320425E+03  0.11677304881E+03  0.00000000000E+00 0. -1.
         11    1    1    2    0    0  0.80287923528E+02  0.13753210068E+02 -0.80545601554E+02  0.11455520670E+03  0.00000000000E+00 0.  1.
</event>
<event>
 7    1  0.2619826E-009  0.1100882E+03  0.7561462E-02  0.1260407E+00
          1   -1    0    0  501    0  0.00000000000E+00  0.00000000000E+00  0.27003680450E+03  0.27003680450E+03  0.00000000000E+00 0. -1.
         -1   -1    0    0    0  501 -0.00000000000E+00 -0.00000000000E+00 -0.63414148068E+02  0.63414148068E+02  0.00000000000E+00 0.  1.
         25    2    1    2    0    0  0.25735670041E+02 -0.68471292971E+02  0.83112780369E+02  0.16705131141E+03  0.12509102170E+03 0.  0.
          5    1    3    3  502    0  0.76066347638E+02 -0.47873919207E+02  0.57633941177E+02  0.10685104098E+03  0.41800000000E+01 0.  1.
         -5    1    3    3    0  502 -0.50330677597E+02 -0.20597373764E+02  0.25478839192E+02  0.60200270431E+02  0.41800000000E+01 0.  1.
        -11    1    1    2    0    0 -0.16031476420E+02  0.17341645149E+02 -0.80255986411E+01  0.24942957447E+02  0.00000000000E+00 0.  1.
         11    1    1    2    0    0 -0.97041936213E+01  0.51129647822E+02  0.13153547471E+03  0.14145668371E+03  0.00000000000E+00 0. -1.
</event>
<event>
 7    1  0.2619826E-009  0.1497422E+03  0.7561462E-02  0.1200790E+00
          2   -1    0    0  501    0  0.00000000000E+00  0.00000000000E+00  0.60606953221E+03  0.60606953221E+03  0.00000000000E+00 0. -1.
         -2   -1    0    0    0  501 -0.00000000000E+00 -0.00000000000E+00 -0.54030396167E+02  0.54030396167E+02  0.00000000000E+00 0.  1.
         25    2    1    2    0    0 -0.10917592238E+03 -0.91211175968E+02  0.33118994104E+03  0.38154049426E+03  0.12509001186E+03 0.  0.
          5    1    3    3  502    0 -0.98170361615E+02 -0.53189034587E+02  0.32179948166E+03  0.34064478874E+03  0.41800000000E+01 0. -1.
         -5    1    3    3    0  502 -0.11005560760E+02 -0.38022141381E+02  0.93904593821E+01  0.40895705524E+02  0.41800000000E+01 0. -1.
        -11    1    1    2    0    0  0.74751380172E+02  0.36200403502E+02  0.52805495033E+02  0.98420822782E+02  0.00000000000E+00 0.  1.
         11    1    1    2    0    0  0.34424542203E+02  0.55010772467E+02  0.16804369997E+03  0.18013861134E+03  0.00000000000E+00 0. -1.
</event>
<event>
 7    1  0.2619826E-009  0.8598821E+02  0.7561462E-02  0.1312868E+00
          2   -1    0    0  501    0  0.00000000000E+00  0.00000000000E+00  0.79757022019E+03  0.79757022019E+03  0.00000000000E+00 0. -1.
         -2   -1    0    0    0  501 -0.00000000000E+00 -0.00000000000E+00 -0.16581811959E+02  0.16581811959E+02  0.00000000000E+00 0.  1.
         25    2    1    2    0    0  0.35186123753E+02  0.10663748764E+02  0.43239467024E+03  0.45162445222E+03  0.12509083159E+03 0.  0.
          5    1    3    3  502    0  0.24526793241E+02  0.36544171840E+02  0.41713743895E+03  0.41947366479E+03  0.41800000000E+01 0.  1.
         -5    1    3    3    0  502  0.10659330512E+02 -0.25880423076E+02  0.15257231297E+02  0.32150787430E+02  0.41800000000E+01 0.  1.
        -11    1    1    2    0    0 -0.66284808656E+02 -0.15290590780E+02  0.23173605026E+03  0.24151413005E+03  0.00000000000E+00 0.  1.
         11    1    1    2    0    0  0.31098684903E+02  0.46268420164E+01  0.11685768772E+03  0.12101344987E+03  0.00000000000E+00 0. -1.
</event>
<event>
 7    1  0.2619826E-009  0.1403770E+03  0.7561462E-02  0.1212823E+00
         -2   -1    0    0    0  501 -0.00000000000E+00  0.00000000000E+00  0.65586370052E+02  0.65586370052E+02  0.00000000000E+00 0.  1.
          2   -1    0    0  501    0  0.00000000000E+00 -0.00000000000E+00 -0.66679478817E+03  0.66679478817E+03  0.00000000000E+00 0. -1.
         25    2    1    2    0    0 -0.68258253385E+02  0.42195874485E+02 -0.48716264693E+03  0.50932795644E+03  0.12509133329E+03 0.  0.
          5    1    3    3  502    0 -0.28210375386E+02 -0.24309386000E+02 -0.34724988323E+03  0.34926598078E+03  0.41800000000E+01 0. -1.
         -5    1    3    3    0  502 -0.40047877999E+02  0.66505260485E+02 -0.13991276370E+03  0.16006197566E+03  0.41800000000E+01 0. -1.
        -11    1    1    2    0    0  0.99976458869E+02  0.14054314212E+02 -0.12158607598E+03  0.15803793832E+03  0.00000000000E+00 0. -1.
         11    1    1    2    0    0 -0.31718205484E+02 -0.56250188697E+02  0.75403047904E+01  0.65015263468E+02  0.00000000000E+00 0.  1.
</event>
<event>
 7    1  0.2619826E-009  0.1840443E+03  0.7561462E-02  0.1163945E+00
          1   -1    0    0  501    0  0.00000000000E+00  0.00000000000E+00  0.34865559898E+03  0.34865559898E+03  0.00000000000E+00 0. -1.
         -1   -1    0    0    0  501 -0.00000000000E+00 -0.00000000000E+00 -0.14547607404E+03  0.14547607404E+03  0.00000000000E+00 0.  1.
         25    2    1    2    0    0  0.78802801554E+02 -0.15718164515E+03  0.20247185332E+03  0.29590281840E+03  0.12509066889E+03 0.  0.
          5    1    3    3  502    0  0.49263477085E+02 -0.38792194828E+02  0.15072071450E+03  0.16329706284E+03  0.41800000000E+01 0.  1.
         -5    1    3    3    0  502  0.29539324469E+02 -0.11838945032E+03  0.51751138828E+02  0.13260575556E+03  0.41800000000E+01 0.  1.
        -11    1    1    2    0    0 -0.27444975245E+02  0.13529496162E+02 -0.29732381694E+02  0.42664838612E+02  0.00000000000E+00 0.  1.
         11    1    1    2    0    0 -0.51357826308E+02  0.14365214899E+03  0.30440053304E+02  0.15556401601E+03  0.00000000000E+00 0. -1.
</event>
<event>
 7    1  0.2619826E-009  0.1353843E+03  0.7561462E-02  0.1219678E+00
         -1   -1    0    0    0  501 -0.00000000000E+00  0.00000000000E+00  0.21047431067E+03  0.21047431067E+03  0.00000000000E+00 0.  1.
          1   -1    0    0  501    0  0.00000000000E+00 -0.00000000000E+00 -0.12313000597E+03  0.12313000597E+03  0.00000000000E+00 0. -1.
         25    2    1    2    0    0  0.15328460556E+02 -0.11574012590E+03  0.65746832220E+02  0.18330460117E+03  0.12508873817E+03 0.  0.
          5    1    3    3  502    0  0.39406627904E+02 -0.14639955338E+02  0.67091514878E+02  0.79284010896E+02  0.41800000000E+01 0. -1.
         -5    1    3    3    0  502 -0.24078167349E+02 -0.10110017056E+03 -0.13446826578E+01  0.10402059028E+03  0.41800000000E+01 0. -1.
        -11    1    1    2    0    0  0.11434022730E+02  0.74339984503E+02 -0.28107149958E+02  0.80294346316E+02  0.00000000000E+00 0. -1.
         11    1    1    2    0    0 -0.26762483285E+02  0.41400141396E+02  0.49704622438E+02  0.70005369157E+02  0.00000000000E+00 0.  1.
</event>
<event>
 7    1  0.2619826E-009  0.1088746E+03  0.7561462E-02  0.1262668E+00
         -1   -1    0    0    0  501 -0.00000000000E+00  0.00000000000E+00  0.44995199670E+03  0.44995199670E+03  0.00000000000E+00 0.  1.
          1   -1    0    0  501    0  0.00000000000E+00 -0.00000000000E+00 -0.41169433718E+02  0.41169433718E+02  0.00000000000E+00 0. -1.
         25    2    1    2    0    0 -0.22383103505E+02 -0.59022460746E+02  0.31677701820E+03  0.34637918614E+03  0.12508479978E+03 0.  0.
          5    1    3    3  502    0  0.16060732499E+02  0.18341996346E+02  0.19750552575E+03  0.19904843898E+03  0.41800000000E+01 0.  1.
         -5    1    3    3    0  502 -0.38443836005E+02 -0.77364457092E+02  0.11927149245E+03  0.14733074716E+03  0.41800000000E+01 0.  1.
        -11    1    1    2    0    0  0.30563360304E+02  0.79123352240E+02  0.88807270423E+02  0.12280616899E+03  0.00000000000E+00 0.  1.
         11    1    1    2    0    0 -0.81802567991E+01 -0.20100891494E+02  0.31982743634E+01  0.21936075288E+02  0.00000000000E+00 0. -1.
</event>
<event>
 7    1  0.2619826E-009  0.1723550E+03  0.7561462E-02  0.1175414E+00
         -1   -1    0    0    0  501 -0.00000000000E+00  0.00000000000E+00  0.30621559446E+03  0.30621559446E+03  0.00000000000E+00 0.  1.
          1   -1    0    0  501    0  0.00000000000E+00 -0.00000000000E+00 -0.11951534182E+03  0.11951534182E+03  0.00000000000E+00 0. -1.
         25    2    1    2    0    0  0.88086497678E+02  0.12886845940E+03  0.11775347292E+03  0.23211978404E+03  0.12508957932E+03 0.  0.
          5    1    3    3  502    0  0.72881488302E+02  0.60185301083E+02 -0.32346500902E+00  0.94612677972E+02  0.41800000000E+01 0.  1.
         -5    1    3    3    0  502  0.15205009376E+02  0.68683158322E+02  0.11807693793E+03  0.13750710607E+03  0.41800000000E+01 0.  1.
        -11    1    1    2    0    0 -0.28693606629E+02 -0.11515000187E+03  0.34451172513E+02  0.12357074605E+03  0.00000000000E+00 0.  1.
         11    1    1    2    0    0 -0.59392891049E+02 -0.13718457539E+02  0.34495607199E+02  0.70040406199E+02  0.00000000000E+00 0. -1.
</event>
<event>
 7    1  0.2619826E-009  0.1095131E+03  0.7561462E-02  0.1261474E+00
          1   -1    0    0  501    0  0.00000000000E+00  0.00000000000E+00  0.10374573347E+03  0.10374573347E+03  0.00000000000E+00 0. -1.
         -1   -1    0    0    0  501 -0.00000000000E+00 -0.00000000000E+00 -0.16021345146E+03  0.16021345146E+03  0.00000000000E+00 0.  1.
         25    2    1    2    0    0 -0.54950470060E+02  0.27757627798E+01  0.12666670771E+02  0.13724359499E+03  0.12509236907E+03 0.  0.
          5    1    3    3  502    0 -0.64952684228E+02 -0.49474453335E+02  0.17679494401E+02  0.83645738944E+02  0.41800000000E+01 0.  1.
         -5    1    3    3    0  502  0.10002214168E+02  0.52250216115E+02 -0.50128236300E+01  0.53597856049E+02  0.41800000000E+01 0.  1.
        -11    1    1    2    0    0  0.37337952284E+02  0.29201149366E+02  0.12606660844E+01  0.47417497657E+02  0.00000000000E+00 0. -1.
         11    1    1    2    0    0  0.17612517776E+02 -0.31976912146E+02 -0.70395054843E+02  0.79298092279E+02  0.00000000000E+00 0.  1.
</event>
<event>
 7    1  0.2838800E-009  0.1038110E+03  0.7561462E-02  0.1272480E+00
          1   -1    0    0  501    0  0.00000000000E+00  0.00000000000E+00  0.33970891889E+03  0.33970891889E+03  0.00000000000E+00 0. -1.
         -1   -1    0    0    0  501 -0.00000000000E+00 -0.00000000000E+00 -0.49134819452E+02  0.49134819452E+02  0.00000000000E+00 0.  1.
         25    2    1    2    0    0  0.36841304276E+02  0.30369737535E+02  0.83662263049E+02  0.15788206679E+03  0.12509104722E+03 0.  0.
          5    1    3    3  502    0  0.43012081816E+02 -0.39161336412E+02  0.15762903154E+02  0.60411844596E+02  0.41800000000E+01 0. -1.
         -5    1    3    3    0  502 -0.61707775393E+01  0.69531073947E+02  0.67899359895E+02  0.97470222190E+02  0.41800000000E+01 0. -1.
        -11    1    1    2    0    0  0.13532117692E+02 -0.25368899206E+02  0.14889354946E+02  0.32378884274E+02  0.00000000000E+00 0.  1.
         11    1    1    2    0    0 -0.50373421968E+02 -0.50008383298E+01  0.19202248144E+03  0.19858278728E+03  0.00000000000E+00 0. -1.
</event>
<event>
 7    1  0.2619826E-009  0.2767519E+03  0.7561462E-02  0.1097476E+00
         -2   -1    0    0    0  501 -0.00000000000E+00  0.00000000000E+00  0.14007659851E+03  0.14007659851E+03  0.00000000000E+00 0. -1.
          2   -1    0    0  501    0  0.00000000000E+00 -0.00000000000E+00 -0.62446878956E+03  0.62446878956E+03  0.00000000000E+00 0.  1.
         25    2    1    2    0    0  0.25596956053E+03 -0.49136412223E+02 -0.13520530598E+03  0.31915927877E+03  0.12508943814E+03 0.  0.
          5    1    3    3  502    0  0.12649178065E+03  0.23193136149E+02 -0.17669707474E+02  0.12987602973E+03  0.41800000000E+01 0.  1.
         -5    1    3    3    0  502  0.12947777988E+03 -0.72329548372E+02 -0.11753559851E+03  0.18928324904E+03  0.41800000000E+01 0.  1.
        -11    1    1    2    0    0 -0.10479246336E+03 -0.25526315700E+02 -0.13779861184E+03  0.17499002999E+03  0.00000000000E+00 0.  1.
         11    1    1    2    0    0 -0.15117709717E+03  0.74662727923E+02 -0.21138827322E+03  0.27039607931E+03  0.00000000000E+00 0. -1.
</event>
<event>
 7    1  0.2619826E-009  0.1260703E+03  0.7561462E-02  0.1233406E+00
         -1   -1    0    0    0  501 -0.00000000000E+00  0.00000000000E+00  0.34353554996E+03  0.34353554996E+03  0.00000000000E+00 0.  1.
          1   -1    0    0  501    0  0.00000000000E+00 -0.00000000000E+00 -0.59987215307E+02  0.59987215307E+02  0.00000000000E+00 0. -1.
         25    2    1    2    0    0  0.11327204417E+02  0.85831188796E+02  0.20337680693E+03  0.25397793838E+03  0.12508944422E+03 0.  0.
          5    1    3    3  502    0 -0.92187483970E+00  0.10865805031E+03  0.10141622348E+03  0.14869480332E+03  0.41800000000E+01 0.  1.
         -5    1    3    3    0  502  0.12249079256E+02 -0.22826861515E+02  0.10196058346E+03  0.10528313506E+03  0.41800000000E+01 0.  1.
        -11    1    1    2    0    0  0.34205279770E+02 -0.36181232085E+02  0.62481527583E+02  0.79893829602E+02  0.00000000000E+00 0.  1.
         11    1    1    2    0    0 -0.45532484187E+02 -0.49649956711E+02  0.17690000135E+02  0.69650997282E+02  0.00000000000E+00 0. -1.
</event>
<event>
 7    1  0.2619826E-009  0.9578130E+02  0.7561462E-02  0.1289426E+00
          1   -1    0    0  501    0  0.00000000000E+00  0.00000000000E+00  0.23032045993E+03  0.23032045993E+03  0.00000000000E+00 0. -1.
         -1   -1    0    0    0  501 -0.00000000000E+00 -0.00000000000E+00 -0.63317166233E+02  0.63317166233E+02  0.00000000000E+00 0.  1.
         25    2    1    2    0    0 -0.34732772376E+02  0.32648163777E+02  0.68207983979E+02  0.15023924772E+03  0.12508890599E+03 0.  0.
          5    1    3    3  502    0  0.23014494638E+01  0.74369172581E+02  0.55373286541E+02  0.92842575160E+02  0.41800000000E+01 0. -1.
         -5    1    3    3    0  502 -0.37034221840E+02 -0.41721008804E+02  0.12834697438E+02  0.57396672562E+02  0.41800000000E+01 0. -1.
        -11    1    1    2    0    0  0.39001377634E+02 -0.13182422334E+02 -0.14469957457E+01  0.41194386906E+02  0.00000000000E+00 0.  1.
         11    1    1    2    0    0 -0.42686052576E+01 -0.19465741444E+02  0.10024230547E+03  0.10220399154E+03  0.00000000000E+00 0. -1.
</event>
<event>
 7    1  0.4215035E-009  0.1696636E+03  0.7561462E-02  0.1178199E+00
          2   -1    0    0  501    0  0.00000000000E+00  0.00000000000E+00  0.67811535921E+03  0.67811535921E+03  0.00000000000E+00 0. -1.
         -2   -1    0    0    0  501 -0.00000000000E+00 -0.00000000000E+00 -0.90588916901E+02  0.90588916901E+02  0.00000000000E+00 0.  1.
         25    2    1    2    0    0 -0.25148102506E+02  0.16477564421E+03  0.74189751766E+02  0.22121345585E+03  0.12509130184E+03 0.  0.
          5    1    3    3  502    0  0.12713461534E+02  0.45385170030E+02 -0.31860304043E+02  0.57043817689E+02  0.41800000000E+01 0. -1.
         -5    1    3    3    0  502 -0.37861564040E+02  0.11939047418E+03  0.10605005581E+03  0.16416963816E+03  0.41800000000E+01 0. -1.
        -11    1    1    2    0    0  0.11691991853E+02 -0.71765273711E+02  0.10021364950E+03  0.12381329787E+03  0.00000000000E+00 0.  1.
         11    1    1    2    0    0  0.13456110653E+02 -0.93010370502E+02  0.41312304105E+03  0.42367752239E+03  0.00000000000E+00 0. -1.
</event>
<event>
 7    1  0.2619826E-009  0.1783754E+03  0.7561462E-02  0.1169385E+00
          1   -1    0    0  501    0  0.00000000000E+00  0.00000000000E+00  0.15374649323E+03  0.15374649323E+03  0.00000000000E+00 0. -1.
         -1   -1    0    0    0  501 -0.00000000000E+00 -0.00000000000E+00 -0.24569067054E+03  0.24569067054E+03  0.00000000000E+00 0.  1.
         25    2    1    2    0    0  0.15056772764E+03 -0.44481064937E+02 -0.84849190873E+02  0.21793768164E+03  0.12509293403E+03 0.  0.
          5    1    3    3  502    0  0.12479262509E+03  0.21057473863E+02 -0.34426608628E+02  0.13122225522E+03  0.41800000000E+01 0.  1.
         -5    1    3    3    0  502  0.25775102546E+02 -0.65538538800E+02 -0.50422582246E+02  0.86715426422E+02  0.41800000000E+01 0.  1.
        -11    1    1    2    0    0 -0.60491233774E+02  0.32608952056E+02  0.39634537668E+02  0.79331139497E+02  0.00000000000E+00 0.  1.
         11    1    1    2    0    0 -0.90076493865E+02  0.11872112880E+02 -0.46729524105E+02  0.10216834262E+03  0.00000000000E+00 0. -1.
</event>
<event>
 7    1  0.2619826E-009  0.1091720E+03  0.7561462E-02  0.1262111E+00
          1   -1    0    0  501    0  0.00000000000E+00  0.00000000000E+00  0.42931392681E+03  0.42931392681E+03  0.00000000000E+00 0. -1.
         -1   -1    0    0    0  501 -0.00000000000E+00 -0.00000000000E+00 -0.48569695348E+02  0.48569695348E+02  0.00000000000E+00 0.  1.
         25    2    1    2    0    0 -0.15724016644E+02 -0.47402049996E+02  0.33379497746E+03  0.35994575319E+03  0.12509060403E+03 0.  0.
          5    1    3    3  502    0 -0.59996302400E+02 -0.46224875666E+02  0.12300541932E+03  0.14451332469E+03  0.41800000000E+01 0.  1.
         -5    1    3    3    0  502  0.44272285756E+02 -0.11771743302E+01  0.21078955814E+03  0.21543242850E+03  0.41800000000E+01 0.  1.
        -11    1    1    2    0    0 -0.29534424887E+02 -0.36747735166E+01 -0.74328843129E+01  0.30676277203E+02  0.00000000000E+00 0.  1.
         11    1    1    2    0    0  0.45258441531E+02  0.51076823512E+02  0.54382138311E+02  0.87261591764E+02  0.00000000000E+00 0. -1.
</event>
<event>
 7    1  0.2619826E-009  0.1023330E+03  0.7561462E-02  0.1275465E+00
          1   -1    0    0  501    0  0.00000000000E+00  0.00000000000E+00  0.11079483650E+03  0.11079483650E+03  0.00000000000E+00 0. -1.
         -1   -1    0    0    0  501 -0.00000000000E+00 -0.00000000000E+00 -0.12293862829E+03  0.12293862829E+03  0.00000000000E+00 0.  1.
         25    2    1    2    0    0 -0.56761991395E+01 -0.31823625628E+02 -0.32435055492E+02  0.13319773778E+03  0.12507854388E+03 0.  0.
          5    1    3    3  502    0  0.29502724772E+02 -0.64601165638E+02  0.61482183760E+01  0.71407243050E+02  0.41800000000E+01 0.  1.
         -5    1    3    3    0  502 -0.35178923912E+02  0.32777540009E+02 -0.38583273868E+02  0.61790494730E+02  0.41800000000E+01 0.  1.
        -11    1    1    2    0    0 -0.36694659794E+02  0.13547989620E+02 -0.15564177069E+02  0.42098571092E+02  0.00000000000E+00 0.  1.
         11    1    1    2    0    0  0.42370858933E+02  0.18275636009E+02  0.35855440768E+02  0.58437155911E+02  0.00000000000E+00 0. -1.
</event>
<event>
 7    1  0.2619826E-009  0.7662793E+02  0.7561462E-02  0.1338903E+00
         -1   -1    0    0    0  501 -0.00000000000E+00  0.00000000000E+00  0.40091868066E+02  0.40091868066E+02  0.00000000000E+00 0.  1.
          1   -1    0    0  501    0  0.00000000000E+00 -0.00000000000E+00 -0.32448461327E+03  0.32448461327E+03  0.00000000000E+00 0. -1.
         25    2    1    2    0    0 -0.25817173419E+02  0.18495043017E+02 -0.13172129817E+03  0.18440956261E+03  0.12509114009E+03 0.  0.
          5    1    3    3  502    0  0.11510877976E+02  0.41302384588E+02  0.25254940660E+01  0.43153653435E+02  0.41800000000E+01 0.  1.
         -5    1    3    3    0  502 -0.37328051395E+02 -0.22807341571E+02 -0.13424679224E+03  0.14125590917E+03  0.41800000000E+01 0.  1.
        -11    1    1    2    0    0  0.12310711059E+02  0.21082673194E+02 -0.28040073059E+01  0.24574278682E+02  0.00000000000E+00 0.  1.
         11    1    1    2    0    0  0.13506462360E+02 -0.39577716211E+02 -0.14986743972E+03  0.15559264004E+03  0.00000000000E+00 0. -1.
</event>
<event>
 7    1  0.2619826E-009  0.1051574E+03  0.7561462E-02  0.1269810E+00
          2   -1    0    0  501    0  0.00000000000E+00  0.00000000000E+00  0.12656513365E+03  0.12656513365E+03  0.00000000000E+00 0. -1.
         -2   -1    0    0    0  501 -0.00000000000E+00 -0.00000000000E+00 -0.22003068092E+03  0.22003068092E+03  0.00000000000E+00 0.  1.
         25    2    1    2    0    0 -0.30623576447E+02 -0.89887133187E+02 -0.13610950776E+03  0.20782415740E+03  0.12509029597E+03 0.  0.
          5    1    3    3  502    0 -0.37749382964E+02 -0.67008448489E+02 -0.15756874016E+03  0.17538679642E+03  0.41800000000E+01 0. -1.
         -5    1    3    3    0  502  0.71258065168E+01 -0.22878684699E+02  0.21459232397E+02  0.32437360977E+02  0.41800000000E+01 0. -1.
        -11    1    1    2    0    0  0.36431596159E+02  0.25859626859E+02  0.57471135333E+02  0.72793632252E+02  0.00000000000E+00 0. -1.
         11    1    1    2    0    0 -0.58080197121E+01  0.64027506329E+02 -0.14827174842E+02  0.65978024928E+02  0.00000000000E+00 0.  1.
</event>
<event>
 7    1  0.2619826E-009  0.1551985E+03  0.7561462E-02  0.1194227E+00
         -4   -1    0    0    0  501 -0.00000000000E+00  0.00000000000E+00  0.42703801285E+02  0.42703801285E+02  0.00000000000E+00 0.  1.
          4   -1    0    0  501    0  0.00000000000E+00 -0.00000000000E+00 -0.69412866407E+03  0.69412866407E+03  0.00000000000E+00 0. -1.
         25    2    1    2    0    0  0.51801738109E+02  0.12220366639E+03 -0.32637423102E+03  0.37387759301E+03  0.12508860750E+03 0.  0.
          5    1    3    3  502    0  0.70586529554E+02  0.35852593225E+02 -0.82345901723E+02  0.11430742113E+03  0.41800000000E+01 0. -1.
         -5    1    3    3    0  502 -0.18784791445E+02  0.86351073169E+02 -0.24402832930E+03  0.25957017188E+03  0.41800000000E+01 0. -1.
        -11    1    1    2    0    0 -0.31696325892E+01 -0.74356182603E+02 -0.25304177837E+03  0.26375941701E+03  0.00000000000E+00 0. -1.
         11    1    1    2    0    0 -0.48632105520E+02 -0.47847483791E+02 -0.72008853401E+02  0.99195455342E+02  0.00000000000E+00 0.  1.
</event>
<event>
 7    1  0.2619826E-009  0.1128456E+03  0.7561462E-02  0.1255389E+00
         -1   -1    0    0    0  501 -0.00000000000E+00  0.00000000000E+00  0.66109333083E+02  0.66109333083E+02  0.00000000000E+00 0.  1.
          1   -1    0    0  501    0  0.00000000000E+00 -0.00000000000E+00 -0.24587464576E+03  0.24587464576E+03  0.00000000000E+00 0. -1.
         25    2    1    2    0    0 -0.16382077367E+02  0.59071133598E+02 -0.68133702757E+02  0.15507921213E+03  0.12509831853E+03 0.  0.
          5    1    3    3  502    0  0.52271319130E+02  0.15023854723E+02 -0.11658837834E+02  0.55779995643E+02  0.41800000000E+01 0.  1.
         -5    1    3    3    0  502 -0.68653396496E+02  0.44047278875E+02 -0.56474864924E+02  0.99299216487E+02  0.41800000000E+01 0.  1.
        -11    1    1    2    0    0  0.40625530466E+02 -0.25173315901E+02 -0.12546276173E+02  0.49411927759E+02  0.00000000000E+00 0.  1.
         11    1    1    2    0    0 -0.24243453099E+02 -0.33897817697E+02 -0.99085333747E+02  0.10749283895E+03  0.00000000000E+00 0. -1.
</event>
<event>
 7    1  0.2619826E-009  0.1134487E+03  0.7561462E-02  0.1254313E+00
         -3   -1    0    0    0  501 -0.00000000000E+00  0.00000000000E+00  0.11860004105E+03  0.11860004105E+03  0.00000000000E+00 0.  1.
          3   -1    0    0  501    0  0.00000000000E+00 -0.00000000000E+00 -0.14296087285E+03  0.14296087285E+03  0.00000000000E+00 0. -1.
         25    2    1    2    0    0  0.38588166551E+02 -0.11337417742E+02 -0.70655106609E+02  0.14917109546E+03  0.12506913285E+03 0.  0.
          5    1    3    3  502    0 -0.45399832015E+02 -0.12343372636E+02 -0.23530838496E+02  0.52770032739E+02  0.41800000000E+01 0. -1.
         -5    1    3    3    0  502  0.83987998566E+02  0.10059548944E+01 -0.47124268113E+02  0.96401062720E+02  0.41800000000E+01 0. -1.
        -11    1    1    2    0    0 -0.37274496127E+02 -0.33855347101E+02  0.44407435558E+02  0.67138609769E+02  0.00000000000E+00 0. -1.
         11    1    1    2    0    0 -0.13136704243E+01  0.45192764843E+02  0.18868392478E+01  0.45251208674E+02  0.00000000000E+00 0.  1.
</event>
<event>
 7    1  0.2619826E-009  0.8566474E+02  0.7561462E-02  0.1313703E+00
          2   -1    0    0  501    0  0.00000000000E+00  0.00000000000E+00  0.20821046746E+03  0.20821046746E+03  0.00000000000E+00 0. -1.
         -2   -1    0    0    0  501 -0.00000000000E+00 -0.00000000000E+00 -0.70256335966E+02  0.70256335966E+02  0.00000000000E+00 0.  1.
         25    2    1    2    0    0  0.34042072330E+02  0.25805312313E+02  0.11738050339E+03  0.17677956416E+03  0.12509218559E+03 0.  0.
          5    1    3    3  502    0 -0.54945176196E+01  0.50645858413E+02  0.11937504597E+03  0.12985787115E+03  0.41800000000E+01 0.  1.
         -5    1    3    3    0  502  0.39536589950E+02 -0.24840546100E+02 -0.19945425747E+01  0.46921693016E+02  0.41800000000E+01 0.  1.
        -11    1    1    2    0    0 -0.47990994890E+02 -0.32402528878E+02  0.44629067030E+02  0.73108228621E+02  0.00000000000E+00 0. -1.
         11    1    1    2    0    0  0.13948922560E+02  0.65972165642E+01 -0.24055438933E+02  0.28579010641E+02  0.00000000000E+00 0.  1.
</event>
<event>
 7    1  0.2619826E-009  0.1572723E+03  0.7561462E-02  0.1191811E+00
          1   -1    0    0  501    0  0.00000000000E+00  0.00000000000E+00  0.44808984600E+02  0.44808984600E+02  0.00000000000E+00 0. -1.
         -1   -1    0    0    0  501 -0.00000000000E+00 -0.00000000000E+00 -0.10934545117E+04  0.10934545117E+04  0.00000000000E+00 0.  1.
         25    2    1    2    0    0  0.93332544119E+02  0.71480188789E+02 -0.93527929979E+03  0.95090210206E+03  0.12508820050E+03 0.  0.
          5    1    3    3  502    0  0.22500917589E+02  0.90487441795E+02 -0.63192417193E+03  0.63878000899E+03  0.41800000000E+01 0. -1.
         -5    1    3    3    0  502  0.70831626530E+02 -0.19007253006E+02 -0.30335512786E+03  0.31212209307E+03  0.41800000000E+01 0. -1.
        -11    1    1    2    0    0 -0.11131442655E+03 -0.62275884015E+02 -0.88129074609E+02  0.15503522529E+03  0.00000000000E+00 0. -1.
         11    1    1    2    0    0  0.17981882435E+02 -0.92043047732E+01 -0.25237152679E+02  0.32326168929E+02  0.00000000000E+00 0.  1.
</event>
<event>
 7    1  0.2619826E-009  0.7235899E+02  0.7561462E-02  0.1352250E+00
         -3   -1    0    0    0  501 -0.00000000000E+00  0.00000000000E+00  0.18273917555E+03  0.18273917555E+03  0.00000000000E+00 0. -1.
          3   -1    0    0  501    0  0.00000000000E+00 -0.00000000000E+00 -0.12137969389E+03  0.12137969389E+03  0.00000000000E+00 0.  1.
         25    2    1    2    0    0 -0.43499665173E+02  0.21881020082E+02  0.12421291466E+03  0.18288654505E+03  0.12509052834E+03 0.  0.
          5    1    3    3  502    0 -0.28404983559E+00  0.15159805941E+02 -0.23779558800E+02  0.28510352807E+02  0.41800000000E+01 0. -1.
         -5    1    3    3    0  502 -0.43215615337E+02  0.67212141414E+01  0.14799247346E+03  0.15437619224E+03  0.41800000000E+01 0. -1.
        -11    1    1    2    0    0 -0.99116597464E+01 -0.29484251364E+02  0.80568205755E+01  0.32132140221E+02  0.00000000000E+00 0. -1.
         11    1    1    2    0    0  0.53411324919E+02  0.76032312815E+01 -0.70910253585E+02  0.89100184169E+02  0.00000000000E+00 0.  1.
</event>
<event>
 7    1  0.2619826E-009  0.1082757E+03  0.7561462E-02  0.1263797E+00
          2   -1    0    0  501    0  0.00000000000E+00  0.00000000000E+00  0.46934069420E+03  0.46934069420E+03  0.00000000000E+00 0. -1.
         -2   -1    0    0    0  501 -0.00000000000E+00 -0.00000000000E+00 -0.45610730954E+02  0.45610730954E+02  0.00000000000E+00 0.  1.
         25    2    1    2    0    0  0.43475947101E+02  0.40006728710E+02  0.37021722326E+03  0.39522159547E+03  0.12509444754E+03 0.  0.
          5    1    3    3  502    0 -0.44221287322E+02  0.15880962403E+02  0.11859138770E+03  0.12762882455E+03  0.41800000000E+01 0.  1.
         -5    1    3    3    0  502  0.87697234423E+02  0.24125766307E+02  0.25162583556E+03  0.26759277092E+03  0.41800000000E+01 0.  1.
        -11    1    1    2    0    0 -0.50024651829E+02 -0.14630164974E+02 -0.81269528948E+01  0.52749927783E+02  0.00000000000E+00 0.  1.
         11    1    1    2    0    0  0.65487047280E+01 -0.25376563736E+02  0.61639692885E+02  0.66979901908E+02  0.00000000000E+00 0. -1.
</event>
<event>
 6    1  0.2619826E-009  0.9691914E+02  0.7561462E-02  0.1286911E+00
          1   -1    0    0  501    0  0.00000000000E+00  0.00000000000E+00  0.12005227796E+03  0.12005227796E+03  0.00000000000E+00 0. -1.
         -1   -1    0    0    0  501 -0.00000000000E+00 -0.00000000000E+00 -0.10660951978E+03  0.10660951978E+03  0.00000000000E+00 0.  1.
          5    1    1    2  502    0  0.19889042035E+02 -0.31004414599E+02 -0.41577517092E+02  0.55704668074E+02  0.41800000000E+01 0. -1.
         -5    1    1    2    0  502 -0.59209338510E+02  0.24803524147E+02  0.39434396952E+02  0.75455315517E+02  0.41800000000E+01 0. -1.
        -11    1    1    2    0    0  0.64734509805E+02  0.13218896751E+02  0.26239671259E+01  0.66122471177E+02  0.00000000000E+00 0. -1.
         11    1    1    2    0    0 -0.25414213331E+02 -0.70180062984E+01  0.12961911201E+02  0.29379342974E+02  0.00000000000E+00 0.  1.
</event>
<event>
 7    1  0.2619826E-009  0.1152025E+03  0.7561462E-02  0.1251228E+00
         -4   -1    0    0    0  501 -0.00000000000E+00  0.00000000000E+00  0.35810182212E+03  0.35810182212E+03  0.00000000000E+00 0.  1.
          4   -1    0    0  501    0  0.00000000000E+00 -0.00000000000E+00 -0.54837608472E+02  0.54837608472E+02  0.00000000000E+00 0. -1.
         25    2    1    2    0    0 -0.19686884128E+02 -0.45099834858E+02  0.27226361114E+03  0.30363882311E+03  0.12508993739E+03 0.  0.
          5    1    3    3  502    0  0.50000982972E+01  0.39688209845E+02  0.48272875366E+02  0.62832299654E+02  0.41800000000E+01 0.  1.
         -5    1    3    3    0  502 -0.24686982425E+02 -0.84788044703E+02  0.22399073578E+03  0.24080652346E+03  0.41800000000E+01 0.  1.
        -11    1    1    2    0    0  0.53144503755E+02  0.42808595115E+02  0.81654423301E+01  0.68728367823E+02  0.00000000000E+00 0. -1.
         11    1    1    2    0    0 -0.33457619627E+02  0.22912397423E+01  0.22835160179E+02  0.40572239661E+02  0.00000000000E+00 0.  1.
</event>
<event>
 6    1  0.2619826E-009  0.2014652E+03  0.7561462E-02  0.1148509E+00
         -1   -1    0    0    0  501 -0.00000000000E+00  0.00000000000E+00  0.42646253541E+02  0.42646253541E+02  0.00000000000E+00 0.  1.
          1   -1    0    0  501    0  0.00000000000E+00 -0.00000000000E+00 -0.12984365072E+04  0.12984365072E+04  0.00000000000E+00 0. -1.
          5    1    1    2  502    0  0.70652841150E+02 -0.57486310300E+02 -0.64911791135E+03  0.65549068268E+03  0.41800000000E+01 0.  1.
         -5    1    1    2    0  502  0.10941739141E+02 -0.10710242273E+03 -0.28489783828E+03  0.30458972613E+03  0.41800000000E+01 0.  1.
        -11    1    1    2    0    0 -0.72306757734E+02  0.17542149056E+03 -0.30026363026E+03  0.35518898381E+03  0.00000000000E+00 0. -1.
         11    1    1    2    0    0 -0.92878225575E+01 -0.10832757530E+02 -0.21510873744E+02  0.25813368102E+02  0.00000000000E+00 0.  1.
</event>
<event>
 7    1  0.2619826E-009  0.1109896E+03  0.7561462E-02  0.1258748E+00
         -2   -1    0    0    0  501 -0.00000000000E+00  0.00000000000E+00  0.32705692848E+03  0.32705692848E+03  0.00000000000E+00 0.  1.
          2   -1    0    0  501    0  0.00000000000E+00 -0.00000000000E+00 -0.41947898072E+02  0.41947898072E+02  0.00000000000E+00 0. -1.
         25    2    1    2    0    0  0.17384852919E+02 -0.37480496853E+02  0.17215121504E+03  0.21677187732E+03  0.12508790990E+03 0.  0.
          5    1    3    3  502    0  0.48547127404E+02  0.21579359976E+02  0.12207473346E+03  0.13319986976E+03  0.41800000000E+01 0.  1.
         -5    1    3    3    0  502 -0.31162274484E+02 -0.59059856829E+02  0.50076481581E+02  0.83572007558E+02  0.41800000000E+01 0.  1.
        -11    1    1    2    0    0  0.38008811608E+02  0.23366123582E+02  0.55102379611E+02  0.70900759727E+02  0.00000000000E+00 0.  1.
         11    1    1    2    0    0 -0.55393664527E+02  0.14114373271E+02  0.57855435752E+02  0.81332189498E+02  0.00000000000E+00 0. -1.
</event>
<event>
 7    1  0.2619826E-009  0.1702101E+03  0.7561462E-02  0.1177629E+00
          2   -1    0    0  501    0  0.00000000000E+00  0.00000000000E+00  0.20578628575E+03  0.20578628575E+03  0.00000000000E+00 0.  1.
         -2   -1    0    0    0  501 -0.00000000000E+00 -0.00000000000E+00 -0.17478395210E+03  0.17478395210E+03  0.00000000000E+00 0. -1.
         25    2    1    2    0    0 -0.13857015723E+03  0.44583838554E+02  0.69906900650E+02  0.20426404734E+03  0.12508964442E+03 0.  0.
          5    1    3    3  502    0 -0.68210072379E+02  0.75151579256E+02  0.17966414109E+01  0.10159268753E+03  0.41800000000E+01 0.  1.
         -5    1    3    3    0  502 -0.70360084854E+02 -0.30567740701E+02  0.68110259240E+02  0.10267135981E+03  0.41800000000E+01 0.  1.
        -11    1    1    2    0    0  0.44179249440E+02  0.19120765707E+02  0.14852542756E+02  0.50378644172E+02  0.00000000000E+00 0.  1.
         11    1    1    2    0    0  0.94390907793E+02 -0.63704604261E+02 -0.53757109751E+02  0.12592754634E+03  0.00000000000E+00 0. -1.
</event>
<event>
 7    1  0.2619826E-009  0.1359644E+03  0.7561462E-02  0.1218865E+00
         -1   -1    0    0    0  501 -0.00000000000E+00  0.00000000000E+00  0.20143165948E+04  0.20143165948E+04  0.00000000000E+00 0.  1.
          1   -1    0    0  501    0  0.00000000000E+00 -0.00000000000E+00 -0.96584759236E+01  0.96584759236E+01  0.00000000000E+00 0. -1.
         25    2    1    2    0    0  0.27763802739E+02  0.77266221006E+02  0.13193514524E+04  0.13278087801E+04  0.12508798521E+03 0.  0.
          5    1    3    3  502    0  0.70890511564E+02  0.13180587224E+02  0.65254599190E+03  0.65653098666E+03  0.41800000000E+01 0. -1.
         -5    1    3    3    0  502 -0.43126708825E+02  0.64085633783E+02  0.66680546047E+03  0.67127779345E+03  0.41800000000E+01 0. -1.
        -11    1    1    2    0    0  0.10859596646E+01 -0.90568449421E+02  0.52157274184E+03  0.52937883256E+03  0.00000000000E+00 0.  1.
         11    1    1    2    0    0 -0.28849762403E+02  0.13302228414E+02  0.16373392466E+03  0.16678745803E+03  0.00000000000E+00 0. -1.
</event>
<event>
 7    1  0.2619826E-009  0.1021097E+03  0.7561462E-02  0.1275921E+00
         -1   -1    0    0    0  501 -0.00000000000E+00  0.00000000000E+00  0.19021686883E+02  0.19021686883E+02  0.00000000000E+00 0.  1.
          1   -1    0    0  501    0  0.00000000000E+00 -0.00000000000E+00 -0.81081016799E+03  0.81081016799E+03  0.00000000000E+00 0. -1.
         25    2    1    2    0    0  0.50415651689E+01 -0.13525384787E+01 -0.64568059586E+03  0.65770619792E+03  0.12508702642E+03 0.  0.
          5    1    3    3  502    0  0.40175143288E+02  0.41661569071E+02 -0.46579629982E+03  0.46939684042E+03  0.41800000000E+01 0.  1.
         -5    1    3    3    0  502 -0.35133578119E+02 -0.43014107550E+02 -0.17988429604E+03  0.18830935750E+03  0.41800000000E+01 0.  1.
        -11    1    1    2    0    0  0.86321670072E+01 -0.43116410899E+02 -0.79997912032E+02  0.91286390692E+02  0.00000000000E+00 0. -1.
         11    1    1    2    0    0 -0.13673732176E+02  0.44468949378E+02 -0.66109973220E+02  0.80839266261E+02  0.00000000000E+00 0.  1.
</event>
<event>
 7    1  0.2619826E-009  0.1240339E+03  0.7561462E-02  0.1236587E+00
          4   -1    0    0  501    0  0.00000000000E+00  0.00000000000E+00  0.12940107126E+03  0.12940107126E+03  0.00000000000E+00 0. -1.
         -4   -1    0    0    0  501 -0.00000000000E+00 -0.00000000000E+00 -0.14800979348E+03  0.14800979348E+03  0.00000000000E+00 0.  1.
         25    2    1    2    0    0 -0.78511751511E+02 -0.14192243451E+02 -0.43055697672E+02  0.15448906189E+03  0.12509021641E+03 0.  0.
          5    1    3    3  502    0 -0.22558504844E+02 -0.66296498683E+02 -0.91533547126E+01  0.70748626707E+02  0.41800000000E+01 0. -1.
         -5    1    3    3    0  502 -0.55953246667E+02  0.52104255232E+02 -0.33902342959E+02  0.83740435179E+02  0.41800000000E+01 0. -1.
        -11    1    1    2    0    0  0.95867665035E+01  0.29259748826E+02 -0.22536471586E+02  0.38156671040E+02  0.00000000000E+00 0.  1.
         11    1    1    2    0    0  0.68924985008E+02 -0.15067505375E+02  0.46983447037E+02  0.84765131817E+02  0.00000000000E+00 0. -1.
</event>
<event>
 7    1  0.2619826E-009  0.1226467E+03  0.7561462E-02  0.1238794E+00
         -2   -1    0    0    0  501 -0.00000000000E+00  0.00000000000E+00  0.25724049042E+03  0.25724049042E+03  0.00000000000E+00 0.  1.
          2   -1    0    0  501    0  0.00000000000E+00 -0.00000000000E+00 -0.87241121170E+02  0.87241121170E+02  0.00000000000E+00 0. -1.
         25    2    1    2    0    0  0.71358153586E+00  0.74542418091E+02  0.17521929436E+03  0.22783117344E+03  0.12509261043E+03 0.  0.
          5    1    3    3  502    0  0.93335745044E+01 -0.28245894157E+02  0.86991292398E+02  0.92032078662E+02  0.41800000000E+01 0.  1.
         -5    1    3    3    0  502 -0.86199929686E+01  0.10278831225E+03  0.88228001959E+02  0.13579909478E+03  0.41800000000E+01 0.  1.
        -11    1    1    2    0    0  0.22453869149E+02  0.98392836464E+01 -0.14779458259E+02  0.28625515347E+02  0.00000000000E+00 0. -1.
         11    1    1    2    0    0 -0.23167450685E+02 -0.84381701737E+02  0.95595331458E+01  0.88024922796E+02  0.00000000000E+00 0.  1.
</event>
<event>
 7    1  0.2619826E-009  0.1018370E+03  0.7561462E-02  0.1276480E+00
         -1   -1    0    0    0  501 -0.00000000000E+00  0.00000000000E+00  0.10883336449E+03  0.10883336449E+03  0.00000000000E+00 0.  1.
          1   -1    0    0  501    0  0.00000000000E+00 -0.00000000000E+00 -0.15593305427E+03  0.15593305427E+03  0.00000000000E+00 0. -1.
         25    2    1    2    0    0  0.49544374653E+02  0.81137884915E+01  0.27152814903E+02  0.13749249064E+03  0.12508569464E+03 0.  0.
          5    1    3    3  502    0  0.42964130769E+02 -0.55664248852E+02  0.11672920977E+02  0.71401362852E+02  0.41800000000E+01 0. -1.
         -5    1    3    3    0  502  0.65802438838E+01  0.63778037343E+02  0.15479893926E+02  0.66091127793E+02  0.41800000000E+01 0. -1.
        -11    1    1    2    0    0  0.10005335468E+00 -0.18301372315E+02 -0.74376186564E+02  0.76594825981E+02  0.00000000000E+00 0. -1.
         11    1    1    2    0    0 -0.49644428007E+02  0.10187583823E+02  0.12368187598E+00  0.50679102138E+02  0.00000000000E+00 0.  1.
</event>
<event>
 7    1  0.2619826E-009  0.1172799E+03  0.7561462E-02  0.1247653E+00
         -1   -1    0    0    0  501 -0.00000000000E+00  0.00000000000E+00  0.12122916173E+02  0.12122916173E+02  0.00000000000E+00 0.  1.
          1   -1    0    0  501    0  0.00000000000E+00 -0.00000000000E+00 -0.12897830426E+04  0.12897830426E+04  0.00000000000E+00 0. -1.
         25    2    1    2    0    0  0.57697082800E+02  0.12063859342E+02 -0.80273566556E+03  0.81455889874E+03  0.12508861134E+03 0.  0.
          5    1    3    3  502    0  0.61298501783E+02  0.56994499835E+02 -0.36543429777E+03  0.37492076192E+03  0.41800000000E+01 0.  1.
         -5    1    3    3    0  502 -0.36014189838E+01 -0.44930640493E+02 -0.43730136780E+03  0.43963813683E+03  0.41800000000E+01 0.  1.
        -11    1    1    2    0    0 -0.62687841456E+02 -0.41792332426E+02 -0.39051631966E+03  0.39771768937E+03  0.00000000000E+00 0. -1.
         11    1    1    2    0    0  0.49907586564E+01  0.29728473083E+02 -0.84408141211E+02  0.89629370669E+02  0.00000000000E+00 0.  1.
</event>
<event>
 7    1  0.2619826E-009  0.3475398E+03  0.7561462E-02  0.1063629E+00
          1   -1    0    0  501    0  0.00000000000E+00  0.00000000000E+00  0.23231756052E+04  0.23231756052E+04  0.00000000000E+00 0. -1.
         -1   -1    0    0    0  501 -0.00000000000E+00 -0.00000000000E+00 -0.60732610832E+02  0.60732610832E+02  0.00000000000E+00 0.  1.
         25    2    1    2    0    0  0.16926631140E+03 -0.29975431251E+03  0.80362634518E+03  0.88315719919E+03  0.12509038237E+03 0.  0.
          5    1    3    3  502    0  0.57207912832E+02 -0.94925979463E+02  0.13378910773E+03  0.17378344171E+03  0.41800000000E+01 0.  1.
         -5    1    3    3    0  502  0.11205839857E+03 -0.20482833304E+03  0.66983723746E+03  0.70937375747E+03  0.41800000000E+01 0.  1.
        -11    1    1    2    0    0 -0.16695264241E+03  0.24866316164E+03  0.12924732598E+04  0.13267229100E+04  0.00000000000E+00 0. -1.
         11    1    1    2    0    0 -0.23136689942E+01  0.51091150870E+02  0.16634338936E+03  0.17402810677E+03  0.00000000000E+00 0.  1.
</event>
<event>
 7    1  0.2619826E-009  0.8813786E+02  0.7561462E-02  0.1307425E+00
          2   -1    0    0  501    0  0.00000000000E+00  0.00000000000E+00  0.31839732276E+03  0.31839732276E+03  0.00000000000E+00 0. -1.
         -2   -1    0    0    0  501 -0.00000000000E+00 -0.00000000000E+00 -0.51613447657E+02  0.51613447657E+02  0.00000000000E+00 0.  1.
         25    2    1    2    0    0  0.50364258567E+02  0.46955471063E+02  0.15831378164E+03  0.21319629662E+03  0.12509209660E+03 0.  0.
          5    1    3    3  502    0  0.20009753151E+02 -0.73158333326E+01  0.14853106281E+03  0.15010949556E+03  0.41800000000E+01 0.  1.
         -5    1    3    3    0  502  0.30354505416E+02  0.54271304396E+02  0.97827188298E+01  0.63086801057E+02  0.41800000000E+01 0.  1.
        -11    1    1    2    0    0 -0.10756629266E+02  0.15149974411E+02  0.72495647313E+02  0.74838797940E+02  0.00000000000E+00 0. -1.
         11    1    1    2    0    0 -0.39607629302E+02 -0.62105445475E+02  0.35974446153E+02  0.81975675859E+02  0.00000000000E+00 0.  1.
</event>
<event>
 7    1  0.2619826E-009  0.9352968E+02  0.7561462E-02  0.1294522E+00
         -1   -1    0    0    0  501 -0.00000000000E+00  0.00000000000E+00  0.79857160122E+02  0.79857160122E+02  0.00000000000E+00 0.  1.
          1   -1    0    0  501    0  0.00000000000E+00 -0.00000000000E+00 -0.18264929776E+03  0.18264929776E+03  0.00000000000E+00 0. -1.
         25    2    1    2    0    0 -0.80474881228E+00  0.30463680641E+02 -0.10450778233E+03  0.16582775588E+03  0.12509310370E+03 0.  0.
          5    1    3    3  502    0 -0.55482199159E+02  0.11717252865E+02 -0.89379907637E+02  0.10593303888E+03  0.41800000000E+01 0.  1.
         -5    1    3    3    0  502  0.54677450347E+02  0.18746427776E+02 -0.15127874692E+02  0.59894716992E+02  0.41800000000E+01 0.  1.
        -11    1    1    2    0    0  0.16025611902E+02  0.16425999802E+02  0.31582001324E+02  0.39039166409E+02  0.00000000000E+00 0.  1.
         11    1    1    2    0    0 -0.15220863089E+02 -0.46889680443E+02 -0.29866356631E+02  0.57639535596E+02  0.00000000000E+00 0. -1.
</event>
<event>
 7    1  0.2619826E-009  0.9701663E+02  0.7561462E-02  0.1286698E+00
         -1   -1    0    0    0  501 -0.00000000000E+00  0.00000000000E+00  0.67092736588E+02  0.67092736588E+02  0.00000000000E+00 0.  1.
          1   -1    0    0  501    0  0.00000000000E+00 -0.00000000000E+00 -0.20840208229E+03  0.20840208229E+03  0.00000000000E+00 0. -1.
         25    2    1    2    0    0 -0.44861678766E+02 -0.12781167254E+02 -0.77911466493E+02  0.15457580289E+03  0.12509018255E+03 0.  0.
          5    1    3    3  502    0 -0.62545290458E+02 -0.28971526595E+02  0.39541963695E+01  0.69169146162E+02  0.41800000000E+01 0.  1.
         -5    1    3    3    0  502  0.17683611692E+02  0.16190359341E+02 -0.81865662862E+02  0.85406656731E+02  0.41800000000E+01 0.  1.
        -11    1    1    2    0    0  0.59190693531E+02  0.38913766770E+02 -0.55767476361E+02  0.90154483330E+02  0.00000000000E+00 0. -1.
         11    1    1    2    0    0 -0.14329014765E+02 -0.26132599516E+02 -0.76304028443E+01  0.30764532650E+02  0.00000000000E+00 0.  1.
</event>
<event>
 7    1  0.2619826E-009  0.9302926E+02  0.7561462E-02  0.1295677E+00
          2   -1    0    0  501    0  0.00000000000E+00  0.00000000000E+00  0.72435254497E+03  0.72435254497E+03  0.00000000000E+00 0. -1.
         -2   -1    0    0    0  501 -0.00000000000E+00 -0.00000000000E+00 -0.23373406690E+02  0.23373406690E+02  0.00000000000E+00 0.  1.
         25    2    1    2    0    0  0.44097730910E+02 -0.28091236584E+02  0.53343083933E+03  0.55039052718E+03  0.12509014595E+03 0.  0.
          5    1    3    3  502    0  0.24140792982E+02  0.18721913819E+02  0.25818013748E+02  0.40216043773E+02  0.41800000000E+01 0.  1.
         -5    1    3    3    0  502  0.19956937928E+02 -0.46813150404E+02  0.50761282558E+03  0.51017448341E+03  0.41800000000E+01 0.  1.
        -11    1    1    2    0    0 -0.71777302284E+02  0.26234378666E+02  0.12649335662E+03  0.14778630862E+03  0.00000000000E+00 0. -1.
         11    1    1    2    0    0  0.27679571374E+02  0.18568579183E+01  0.41054942324E+02  0.49549115855E+02  0.00000000000E+00 0.  1.
</event>
<event>
 7    1  0.2619826E-009  0.1180806E+03  0.7561462E-02  0.1246297E+00
         -2   -1    0    0    0  501 -0.00000000000E+00  0.00000000000E+00  0.17827355328E+02  0.17827355328E+02  0.00000000000E+00 0.  1.
          2   -1    0    0  501    0  0.00000000000E+00 -0.00000000000E+00 -0.85660451309E+03  0.85660451309E+03  0.00000000000E+00 0. -1.
         25    2    1    2    0    0  0.44442315438E+02 -0.32002667271E+02 -0.38903365830E+03  0.41230067112E+03  0.12508143748E+03 0.  0.
          5    1    3    3  502    0  0.73077519054E+02 -0.56452307583E+02 -0.21228364987E+03  0.23153618988E+03  0.41800000000E+01 0.  1.
         -5    1    3    3    0  502 -0.28635203616E+02  0.24449640312E+02 -0.17675000843E+03  0.18076448124E+03  0.41800000000E+01 0.  1.
        -11    1    1    2    0    0 -0.56867781359E+02  0.55371755136E+02 -0.35462595109E+03  0.36339997387E+03  0.00000000000E+00 0. -1.
         11    1    1    2    0    0  0.12425465921E+02 -0.23369087865E+02 -0.95117548383E+02  0.98731223437E+02  0.00000000000E+00 0.  1.
</event>
<event>
 7    1  0.2619826E-009  0.1091505E+03  0.7561462E-02  0.1262151E+00
          1   -1    0    0  501    0  0.00000000000E+00  0.00000000000E+00  0.46597147163E+03  0.46597147163E+03  0.00000000000E+00 0. -1.
         -1   -1    0    0    0  501 -0.00000000000E+00 -0.00000000000E+00 -0.26574231168E+02  0.26574231168E+02  0.00000000000E+00 0.  1.
         25    2    1    2    0    0 -0.12851627001E+02 -0.12386489608E+02  0.21361052064E+03  0.24818398288E+03  0.12508894991E+03 0.  0.
          5    1    3    3  502    0  0.38938129297E+02  0.37420236906E+02  0.98950249439E+02  0.11280547995E+03  0.41800000000E+01 0. -1.
         -5    1    3    3    0  502 -0.51789756297E+02 -0.49806726514E+02  0.11466027120E+03  0.13537850293E+03  0.41800000000E+01 0. -1.
        -11    1    1    2    0    0  0.15268177822E+02 -0.38396182566E+02  0.81426697977E+02  0.91310958998E+02  0.00000000000E+00 0. -1.
         11    1    1    2    0    0 -0.24165508214E+01  0.50782672174E+02  0.14436002184E+03  0.15305076091E+03  0.00000000000E+00 0.  1.
</event>
<event>
 7    1  0.2619826E-009  0.9796486E+02  0.7561462E-02  0.1284635E+00
          2   -1    0    0  501    0  0.00000000000E+00  0.00000000000E+00  0.17412874589E+03  0.17412874589E+03  0.00000000000E+00 0. -1.
         -2   -1    0    0    0  501 -0.00000000000E+00 -0.00000000000E+00 -0.73681862040E+02  0.73681862040E+02  0.00000000000E+00 0.  1.
         25    2    1    2    0    0  0.14001918171E+02 -0.32965803495E+01  0.90414126086E+02  0.15501138794E+03  0.12508754951E+03 0.  0.
          5    1    3    3  502    0 -0.43623528613E+02  0.86943077093E+01  0.84657304009E+02  0.95723219530E+02  0.41800000000E+01 0.  1.
         -5    1    3    3    0  502  0.57625446784E+02 -0.11990888059E+02  0.57568220770E+01  0.59288168414E+02  0.41800000000E+01 0.  1.
        -11    1    1    2    0    0  0.39069059487E+02  0.28266639822E+01  0.49705879794E+01  0.39485290722E+02  0.00000000000E+00 0.  1.
         11    1    1    2    0    0 -0.53070977658E+02  0.46991636730E+00  0.50621697892E+01  0.53313929268E+02  0.00000000000E+00 0. -1.
</event>
<event>
 7    1  0.2619826E-009  0.2114204E+03  0.7561462E-02  0.1140446E+00
          2   -1    0    0  501    0  0.00000000000E+00  0.00000000000E+00  0.81124607711E+02  0.81124607711E+02  0.00000000000E+00 0. -1.
         -2   -1    0    0    0  501 -0.00000000000E+00 -0.00000000000E+00 -0.65298001860E+03  0.65298001860E+03  0.00000000000E+00 0.  1.
         25    2    1    2    0    0 -0.10820657011E+03 -0.16775054395E+03 -0.23957871839E+03  0.33599868936E+03  0.12509296599E+03 0.  0.
          5    1    3    3  502    0 -0.35194555810E+02 -0.12561643817E+03 -0.73721402750E+02  0.14990151407E+03  0.41800000000E+01 0. -1.
         -5    1    3    3    0  502 -0.73012014297E+02 -0.42134105776E+02 -0.16585731564E+03  0.18609717529E+03  0.41800000000E+01 0. -1.
        -11    1    1    2    0    0  0.32712053830E+02  0.10427577856E+03 -0.11064645896E+03  0.15551898707E+03  0.00000000000E+00 0.  1.
         11    1    1    2    0    0  0.75494516277E+02  0.63474765389E+02 -0.22163023355E+03  0.24258694988E+03  0.00000000000E+00 0. -1.
</event>
<event>
 7    1  0.2619826E-009  0.1257928E+03  0.7561462E-02  0.1233835E+00
          2   -1    0    0  501    0  0.00000000000E+00  0.00000000000E+00  0.98413229288E+03  0.98413229288E+03  0.00000000000E+00 0. -1.
         -2   -1    0    0    0  501 -0.00000000000E+00 -0.00000000000E+00 -0.21664271915E+02  0.21664271915E+02  0.00000000000E+00 0.  1.
         25    2    1    2    0    0  0.17015024331E+02 -0.91182258435E+02  0.62479997657E+03  0.64390765580E+03  0.12505336130E+03 0.  0.
          5    1    3    3  502    0 -0.11100645105E+02 -0.11674291656E+03  0.48223542246E+03  0.49630696949E+03  0.41800000000E+01 0.  1.
         -5    1    3    3    0  502  0.28115669436E+02  0.25560658122E+02  0.14256455411E+03  0.14760068631E+03  0.41800000000E+01 0.  1.
        -11    1    1    2    0    0 -0.21681873248E+02  0.49097433361E+02  0.30138630014E+03  0.30612801816E+03  0.00000000000E+00 0. -1.
         11    1    1    2    0    0  0.46668489173E+01  0.42084825074E+02  0.36281744255E+02  0.55760890833E+02  0.00000000000E+00 0.  1.
</event>
<event>
 7    1  0.2619826E-009  0.7657056E+02  0.7561462E-02  0.1339075E+00
          1   -1    0    0  501    0  0.00000000000E+00  0.00000000000E+00  0.10583287473E+04  0.10583287473E+04  0.00000000000E+00 0. -1.
         -1   -1    0    0    0  501 -0.00000000000E+00 -0.00000000000E+00 -0.36491025601E+02  0.36491025601E+02  0.00000000000E+00 0.  1.
         25    2    1    2    0    0 -0.21093104306E+02 -0.88228782634E+01  0.98465603260E+03  0.99283172705E+03  0.12507826939E+03 0.  0.
          5    1    3    3  502    0  0.14655846957E+02 -0.23916927540E+02  0.88990933196E+03  0.89036110921E+03  0.41800000000E+01 0. -1.
         -5    1    3    3    0  502 -0.35748951263E+02  0.15094049277E+02  0.94746700639E+02  0.10247061785E+03  0.41800000000E+01 0. -1.
        -11    1    1    2    0    0  0.52551161438E+02 -0.17051857557E+01  0.43473366977E+02  0.68223645924E+02  0.00000000000E+00 0. -1.
         11    1    1    2    0    0 -0.31458057132E+02  0.10528064019E+02 -0.62916778939E+01  0.33764399909E+02  0.00000000000E+00 0.  1.
</event>
<event>
 7    1  0.2619826E-009  0.6576974E+02  0.7561462E-02  0.1375099E+00
         -2   -1    0    0    0  501 -0.00000000000E+00  0.00000000000E+00  0.37418103254E+02  0.37418103254E+02  0.00000000000E+00 0.  1.
          2   -1    0    0  501    0  0.00000000000E+00 -0.00000000000E+00 -0.49733902462E+03  0.49733902462E+03  0.00000000000E+00 0. -1.
         25    2    1    2    0    0 -0.17819744299E+02 -0.11509519627E+02 -0.93051334775E+02  0.15733998101E+03  0.12508919375E+03 0.  0.
          5    1    3    3  502    0  0.10786506935E+02 -0.82412022944E+01  0.28774023870E+02  0.32088673965E+02  0.41800000000E+01 0.  1.
         -5    1    3    3    0  502 -0.28606251235E+02 -0.32683173328E+01 -0.12182535865E+03  0.12525130705E+03  0.41800000000E+01 0.  1.
        -11    1    1    2    0    0  0.52647280606E+02  0.61771397952E+01 -0.20341975596E+03  0.21021296422E+03  0.00000000000E+00 0.  1.
         11    1    1    2    0    0 -0.34827536306E+02  0.53323798319E+01 -0.16344983063E+03  0.16720418264E+03  0.00000000000E+00 0. -1.
</event>
<event>
 7    1  0.2619826E-009  0.1179431E+03  0.7561462E-02  0.1246529E+00
          1   -1    0    0  501    0  0.00000000000E+00  0.00000000000E+00  0.12468744414E+03  0.12468744414E+03  0.00000000000E+00 0. -1.
         -1   -1    0    0    0  501 -0.00000000000E+00 -0.00000000000E+00 -0.17656252872E+03  0.17656252872E+03  0.00000000000E+00 0.  1.
         25    2    1    2    0    0 -0.69316065889E+02  0.57804920552E+02 -0.94397428031E+02  0.18084555166E+03  0.12509241905E+03 0.  0.
          5    1    3    3  502    0  0.18690610948E+02 -0.13660157852E+02  0.11023647190E+02  0.25979454335E+02  0.41800000000E+01 0. -1.
         -5    1    3    3    0  502 -0.88006676838E+02  0.71465078403E+02 -0.10542107522E+03  0.15486609732E+03  0.41800000000E+01 0. -1.
        -11    1    1    2    0    0  0.21811687741E+02  0.27136907007E+01 -0.12990461788E+02  0.25531665375E+02  0.00000000000E+00 0.  1.
         11    1    1    2    0    0  0.47504378148E+02 -0.60518611252E+02  0.55512805239E+02  0.94872755819E+02  0.00000000000E+00 0. -1.
</event>
<event>
 7    1  0.2619826E-009  0.1029555E+03  0.7561462E-02  0.1274201E+00
          2   -1    0    0  501    0  0.00000000000E+00  0.00000000000E+00  0.75264327341E+03  0.75264327341E+03  0.00000000000E+00 0. -1.
         -2   -1    0    0    0  501 -0.00000000000E+00 -0.00000000000E+00 -0.21553178152E+02  0.21553178152E+02  0.00000000000E+00 0.  1.
         25    2    1    2    0    0  0.60633469241E+01 -0.59790577958E+02  0.48100291921E+03  0.50062460922E+03  0.12509801626E+03 0.  0.
          5    1    3    3  502    0 -0.37946453217E+02 -0.48612919342E+02  0.10481548762E+03  0.12168363935E+03  0.41800000000E+01 0. -1.
         -5    1    3    3    0  502  0.44009800141E+02 -0.11177658616E+02  0.37618743159E+03  0.37894096987E+03  0.41800000000E+01 0. -1.
        -11    1    1    2    0    0  0.31803378170E+02  0.54485656823E+01  0.31203771430E+02  0.44886713875E+02  0.00000000000E+00 0.  1.
         11    1    1    2    0    0 -0.37866725094E+02  0.54342012276E+02  0.21888340462E+03  0.22868512847E+03  0.00000000000E+00 0. -1.
</event>
<event>
 7    1  0.5668934E-009  0.9127482E+02  0.7561462E-02  0.1299794E+00
         -1   -1    0    0    0  501 -0.00000000000E+00  0.00000000000E+00  0.42761179277E+02  0.42761179277E+02  0.00000000000E+00 0.  1.
          1   -1    0    0  501    0  0.00000000000E+00 -0.00000000000E+00 -0.44277333015E+03  0.44277333015E+03  0.00000000000E+00 0. -1.
         25    2    1    2    0    0 -0.18012025157E+02  0.51536169590E+02 -0.33334710345E+03  0.36020641201E+03  0.12509179847E+03 0.  0.
          5    1    3    3  502    0  0.22469921947E+02 -0.29437396050E+02 -0.16350345764E+03  0.16769708029E+03  0.41800000000E+01 0. -1.
         -5    1    3    3    0  502 -0.40481947104E+02  0.80973565640E+02 -0.16984364582E+03  0.19250933172E+03  0.41800000000E+01 0. -1.
        -11    1    1    2    0    0  0.10981711204E+02 -0.27468916240E+02  0.19604330045E+02  0.35488999661E+02  0.00000000000E+00 0.  1.
         11    1    1    2    0    0  0.70303139528E+01 -0.24067253350E+02 -0.86269377471E+02  0.89839097765E+02  0.00000000000E+00 0. -1.
</event>
<event>
 7    1  0.2619826E-009  0.1011115E+03  0.7561462E-02  0.1277976E+00
          2   -1    0    0  501    0  0.00000000000E+00  0.00000000000E+00  0.12559536777E+03  0.12559536777E+03  0.00000000000E+00 0. -1.
         -2   -1    0    0    0  501 -0.00000000000E+00 -0.00000000000E+00 -0.99968998374E+02  0.99968998374E+02  0.00000000000E+00 0.  1.
         25    2    1    2    0    0  0.20263263308E+02 -0.31844475224E+01 -0.10559374441E+01  0.12676521510E+03  0.12509022428E+03 0.  0.
          5    1    3    3  502    0  0.48168293063E+02  0.35097378477E+02 -0.34159536532E+02  0.68821194182E+02  0.41800000000E+01 0. -1.
         -5    1    3    3    0  502 -0.27905029755E+02 -0.38281825999E+02  0.33103599088E+02  0.57944020917E+02  0.41800000000E+01 0. -1.
        -11    1    1    2    0    0  0.14033967973E+02  0.41315894801E+02  0.15517575435E+02  0.46311451799E+02  0.00000000000E+00 0. -1.
         11    1    1    2    0    0 -0.34297231281E+02 -0.38131447279E+02  0.11164731410E+02  0.52487699250E+02  0.00000000000E+00 0.  1.
</event>
<event>
 7    1  0.2619826E-009  0.9661255E+02  0.7561462E-02  0.1287585E+00
         -3   -1    0    0    0  501 -0.00000000000E+00  0.00000000000E+00  0.14885206936E+03  0.14885206936E+03  0.00000000000E+00 0.  1.
          3   -1    0    0  501    0  0.00000000000E+00 -0.00000000000E+00 -0.10655112293E+03  0.10655112293E+03  0.00000000000E+00 0. -1.
         25    2    1    2    0    0  0.25802552790E+02  0.43858519305E+02  0.64686088017E+02  0.14973942011E+03  0.12509301542E+03 0.  0.
          5    1    3    3  502    0 -0.24595322285E+02 -0.33779472374E+02  0.25566226491E+02  0.49163878703E+02  0.41800000000E+01 0.  1.
         -5    1    3    3    0  502  0.50397875075E+02  0.77637991679E+02  0.39119861526E+02  0.10057554141E+03  0.41800000000E+01 0.  1.
        -11    1    1    2    0    0 -0.20181718148E+02 -0.71062201336E+01  0.32776541784E+02  0.39142072037E+02  0.00000000000E+00 0.  1.
         11    1    1    2    0    0 -0.56208346419E+01 -0.36752299172E+02 -0.55161683370E+02  0.66521700134E+02  0.00000000000E+00 0. -1.
</event>
<event>
 7    1  0.2619826E-009  0.1994951E+03  0.7561462E-02  0.1150166E+00
         -2   -1    0    0    0  501 -0.00000000000E+00  0.00000000000E+00  0.16446056311E+03  0.16446056311E+03  0.00000000000E+00 0.  1.
          2   -1    0    0  501    0  0.00000000000E+00 -0.00000000000E+00 -0.30695040265E+03  0.30695040265E+03  0.00000000000E+00 0. -1.
         25    2    1    2    0    0 -0.15143244490E+03 -0.10902536377E+03 -0.39477901465E+01  0.22467988102E+03  0.12508856293E+03 0.  0.
          5    1    3    3  502    0 -0.11511937919E+03 -0.38869488310E+02 -0.51881420508E+02  0.13218344367E+03  0.41800000000E+01 0. -1.
         -5    1    3    3    0  502 -0.36313065704E+02 -0.70155875460E+02  0.47933630361E+02  0.92496437348E+02  0.41800000000E+01 0. -1.
        -11    1    1    2    0    0  0.36650414918E+02  0.66442208770E+02 -0.25369451203E+02  0.80008931216E+02  0.00000000000E+00 0.  1.
         11    1    1    2    0    0  0.11478202998E+03  0.42583155000E+02 -0.11317259819E+03  0.16672215353E+03  0.00000000000E+00 0. -1.
</event>
<event>
 7    1  0.2619826E-009  0.2161672E+03  0.7561462E-02  0.1136773E+00
          2   -1    0    0  501    0  0.00000000000E+00  0.00000000000E+00  0.66767672456E+03  0.66767672456E+03  0.00000000000E+00 0. -1.
         -2   -1    0    0    0  501 -0.00000000000E+00 -0.00000000000E+00 -0.75784479990E+02  0.75784479990E+02  0.00000000000E+00 0.  1.
         25    2    1    2    0    0  0.11226397744E+03  0.14973822558E+03  0.20754768293E+03  0.30618509770E+03  0.12509411070E+03 0.  0.
          5    1    3    3  502    0  0.11524725566E+03  0.52020186495E+02  0.10462774040E+03  0.16417206279E+03  0.41800000000E+01 0.  1.
         -5    1    3    3    0  502 -0.29832782251E+01  0.97718039088E+02  0.10291994253E+03  0.14201303490E+03  0.41800000000E+01 0.  1.
        -11    1    1    2    0    0 -0.73825711502E+02 -0.15250139819E+03  0.29984977879E+03  0.34440790056E+03  0.00000000000E+00 0.  1.
         11    1    1    2    0    0 -0.38438265934E+02  0.27631726080E+01  0.84494782846E+02  0.92868206287E+02  0.00000000000E+00 0. -1.
</event>
<event>
 7    1  0.3227343E-009  0.1103164E+03  0.7561462E-02  0.1259985E+00
         -1   -1    0    0    0  501 -0.00000000000E+00  0.00000000000E+00  0.92692398863E+02  0.92692398863E+02  0.00000000000E+00 0.  1.
          1   -1    0    0  501    0  0.00000000000E+00 -0.00000000000E+00 -0.22319059957E+03  0.22319059957E+03  0.00000000000E+00 0. -1.
         25    2    1    2    0    0 -0.69445695945E+02  0.50315202265E+02 -0.11402000927E+03  0.18973989748E+03  0.12508533854E+03 0.  0.
          5    1    3    3  502    0 -0.30429045126E+02  0.54348051140E+02  0.66556705035E+01  0.62780632362E+02  0.41800000000E+01 0.  1.
         -5    1    3    3    0  502 -0.39016650819E+02 -0.40328488741E+01 -0.12067567977E+03  0.12695926512E+03  0.41800000000E+01 0.  1.
        -11    1    1    2    0    0  0.26313208260E+01 -0.51860329776E+02  0.12322786381E+02  0.53369173855E+02  0.00000000000E+00 0. -1.
         11    1    1    2    0    0  0.66814375119E+02  0.15451275109E+01 -0.28800977818E+02  0.72773927095E+02  0.00000000000E+00 0.  1.
</event>
<event>
 7    1  0.2619826E-009  0.1162480E+03  0.7561462E-02  0.1249418E+00
          1   -1    0    0  501    0  0.00000000000E+00  0.00000000000E+00  0.16140867378E+03  0.16140867378E+03  0.00000000000E+00 0.  1.
         -1   -1    0    0    0  501 -0.00000000000E+00 -0.00000000000E+00 -0.14934518464E+03  0.14934518464E+03  0.00000000000E+00 0. -1.
         25    2    1    2    0    0  0.60504803478E+02 -0.75422721353E+02 -0.44642658268E+02  0.16428580695E+03  0.12508973294E+03 0.  0.
          5    1    3    3  502    0  0.52833269305E+02 -0.64069247439E+02  0.29913510763E+02  0.88365792810E+02  0.41800000000E+01 0. -1.
         -5    1    3    3    0  502  0.76715341730E+01 -0.11353473915E+02 -0.74556169031E+02  0.75920014140E+02  0.41800000000E+01 0. -1.
        -11    1    1    2    0    0 -0.75489385957E+02  0.20688041801E+02  0.31510679462E+02  0.84377517064E+02  0.00000000000E+00 0.  1.
         11    1    1    2    0    0  0.14984582479E+02  0.54734679552E+02  0.25195467939E+02  0.62090534403E+02  0.00000000000E+00 0. -1.
</event>
<event>
 7    1  0.2619826E-009  0.1442459E+03  0.7561462E-02  0.1207727E+00
         -2   -1    0    0    0  501 -0.00000000000E+00  0.00000000000E+00  0.20377456557E+02  0.20377456557E+02  0.00000000000E+00 0.  1.
          2   -1    0    0  501    0  0.00000000000E+00 -0.00000000000E+00 -0.11568778572E+04  0.11568778572E+04  0.00000000000E+00 0. -1.
         25    2    1    2    0    0  0.90439783232E+02  0.57887824134E+02 -0.65295067862E+03  0.67344074103E+03  0.12508992124E+03 0.  0.
          5    1    3    3  502    0 -0.18200909416E+02 -0.20991026951E+02 -0.16336684052E+03  0.16576517516E+03  0.41800000000E+01 0. -1.
         -5    1    3    3    0  502  0.10864069265E+03  0.78878851085E+02 -0.48958383810E+03  0.50767556587E+03  0.41800000000E+01 0. -1.
        -11    1    1    2    0    0 -0.38968801596E+02 -0.63286304389E+02 -0.38891636954E+03  0.39595412148E+03  0.00000000000E+00 0. -1.
         11    1    1    2    0    0 -0.51470981636E+02  0.53984802544E+01 -0.94633352436E+02  0.10786045120E+03  0.00000000000E+00 0.  1.
</event>
<event>
 7    1  0.2619826E-009  0.2769535E+03  0.7561462E-02  0.1097365E+00
          1   -1    0    0  501    0  0.00000000000E+00  0.00000000000E+00  0.96505864182E+02  0.96505864182E+02  0.00000000000E+00 0. -1.
         -1   -1    0    0    0  501 -0.00000000000E+00 -0.00000000000E+00 -0.90938970297E+03  0.90938970297E+03  0.00000000000E+00 0.  1.
         25    2    1    2    0    0 -0.26921641846E+03  0.25271286511E+01 -0.51098867223E+03  0.59095914351E+03  0.12505766591E+03 0.  0.
          5    1    3    3  502    0 -0.83427895397E+02  0.40599873246E+02 -0.90573433193E+02  0.12972888128E+03  0.41800000000E+01 0. -1.
         -5    1    3    3    0  502 -0.18578852307E+03 -0.38072744594E+02 -0.42041523903E+03  0.46123026223E+03  0.41800000000E+01 0. -1.
        -11    1    1    2    0    0  0.20332261881E+03 -0.16447802283E+02 -0.27504555565E+03  0.34243346099E+03  0.00000000000E+00 0.  1.
         11    1    1    2    0    0  0.65893799655E+02  0.13920673632E+02 -0.26849610905E+02  0.72502962651E+02  0.00000000000E+00 0. -1.
</event>
<event>
 7    1  0.2695868E-009  0.1480319E+03  0.7561462E-02  0.1202912E+00
          2   -1    0    0  501    0  0.00000000000E+00  0.00000000000E+00  0.58838782997E+03  0.58838782997E+03  0.00000000000E+00 0. -1.
         -2   -1    0    0    0  501 -0.00000000000E+00 -0.00000000000E+00 -0.52035273357E+02  0.52035273357E+02  0.00000000000E+00 0.  1.
         25    2    1    2    0    0  0.13401929493E+03  0.26379267434E+02  0.29459682225E+03  0.34798059818E+03  0.12508465880E+03 0.  0.
          5    1    3    3  502    0  0.40129642256E+01  0.26467569681E+02  0.15430986765E+03  0.15667049429E+03  0.41800000000E+01 0.  1.
         -5    1    3    3    0  502  0.13000633070E+03 -0.88302247498E-01  0.14028695459E+03  0.19131010388E+03  0.41800000000E+01 0.  1.
        -11    1    1    2    0    0 -0.51389050679E+02 -0.22712158259E+02  0.18180677619E+03  0.19029025338E+03  0.00000000000E+00 0. -1.
         11    1    1    2    0    0 -0.82630244249E+02 -0.36671091743E+01  0.59948958172E+02  0.10215225176E+03  0.00000000000E+00 0.  1.
</event>
<event>
 7    1  0.2619826E-009  0.9821134E+02  0.7561462E-02  0.1284103E+00
         -2   -1    0    0    0  501 -0.00000000000E+00  0.00000000000E+00  0.16925237034E+03  0.16925237034E+03  0.00000000000E+00 0.  1.
          2   -1    0    0  501    0  0.00000000000E+00 -0.00000000000E+00 -0.14436960133E+03  0.14436960133E+03  0.00000000000E+00 0. -1.
         25    2    1    2    0    0  0.57695526373E+02 -0.46423510662E+02  0.98262198603E+02  0.17546302780E+03  0.12509155984E+03 0.  0.
          5    1    3    3  502    0  0.58157937161E+02 -0.36288573296E+02 -0.75423652650E+01  0.69090997102E+02  0.41800000000E+01 0.  1.
         -5    1    3    3    0  502 -0.46241078855E+00 -0.10134937366E+02  0.10580456387E+03  0.10637203070E+03  0.41800000000E+01 0.  1.
        -11    1    1    2    0    0 -0.64815319110E+01  0.62699549879E+02 -0.44436360837E+02  0.77122201572E+02  0.00000000000E+00 0.  1.
         11    1    1    2    0    0 -0.51213994462E+02 -0.16276039217E+02 -0.28943068757E+02  0.61036742298E+02  0.00000000000E+00 0. -1.
</event>
<event>
 7    1  0.2619826E-009  0.1238686E+03  0.7561462E-02  0.1236848E+00
          2   -1    0    0  501    0  0.00000000000E+00  0.00000000000E+00  0.88924289107E+03  0.88924289107E+03  0.00000000000E+00 0. -1.
         -2   -1    0    0    0  501 -0.00000000000E+00 -0.00000000000E+00 -0.19471854753E+02  0.19471854753E+02  0.00000000000E+00 0.  1.
         25    2    1    2    0    0  0.67437942137E+02  0.26345977812E+00  0.38805242097E+03  0.41325580008E+03  0.12509088468E+03 0.  0.
          5    1    3    3  502    0 -0.24378453558E+02 -0.28369272940E+02  0.55566600332E+02  0.67113665654E+02  0.41800000000E+01 0.  1.
         -5    1    3    3    0  502  0.91816395695E+02  0.28632732718E+02  0.33248582064E+03  0.34614213443E+03  0.41800000000E+01 0.  1.
        -11    1    1    2    0    0 -0.28718602590E+02  0.45549993077E+02  0.27457160633E+03  0.27980194246E+03  0.00000000000E+00 0.  1.
         11    1    1    2    0    0 -0.38719339547E+02 -0.45813452855E+02  0.20714700902E+03  0.21565700328E+03  0.00000000000E+00 0. -1.
</event>
<event>
 7    1  0.2619826E-009  0.1210354E+03  0.7561462E-02  0.1241399E+00
          1   -1    0    0  501    0  0.00000000000E+00  0.00000000000E+00  0.14223460273E+03  0.14223460273E+03  0.00000000000E+00 0. -1.
         -1   -1    0    0    0  501 -0.00000000000E+00 -0.00000000000E+00 -0.17562426595E+03  0.17562426595E+03  0.00000000000E+00 0.  1.
         25    2    1    2    0    0 -0.67382738690E+02  0.44168858433E+02 -0.99512606116E+02  0.17899917796E+03  0.12508647171E+03 0.  0.
          5    1    3    3  502    0 -0.62960101797E+02  0.72941922095E+02 -0.26101537749E+02  0.99916270397E+02  0.41800000000E+01 0.  1.
         -5    1    3    3    0  502 -0.44226368929E+01 -0.28773063661E+02 -0.73411068367E+02  0.79082907561E+02  0.41800000000E+01 0.  1.
        -11    1    1    2    0    0  0.61187913706E+02  0.97336289400E+01  0.13782954061E+02  0.63471837366E+02  0.00000000000E+00 0.  1.
         11    1    1    2    0    0  0.61948249842E+01 -0.53902487373E+02  0.52339988840E+02  0.75387853354E+02  0.00000000000E+00 0. -1.
</event>
<event>
 7    1  0.3100929E-009  0.1073608E+03  0.7561462E-02  0.1265537E+00
          2   -1    0    0  501    0  0.00000000000E+00  0.00000000000E+00  0.10857465263E+04  0.10857465263E+04  0.00000000000E+00 0. -1.
         -2   -1    0    0    0  501 -0.00000000000E+00 -0.00000000000E+00 -0.14948470411E+02  0.14948470411E+02  0.00000000000E+00 0.  1.
         25    2    1    2    0    0 -0.26405729995E+02 -0.74624767522E+01  0.86114890374E+03  0.87061876383E+03  0.12508655560E+03 0.  0.
          5    1    3    3  502    0 -0.71461257194E+02 -0.29382300418E+02  0.55514073831E+03  0.56050757585E+03  0.41800000000E+01 0. -1.
         -5    1    3    3    0  502  0.45055527199E+02  0.21919823666E+02  0.30600816543E+03  0.31011118798E+03  0.41800000000E+01 0. -1.
        -11    1    1    2    0    0 -0.52502999277E+01  0.40773646498E+02  0.54511293028E+02  0.68275449216E+02  0.00000000000E+00 0.  1.
         11    1    1    2    0    0  0.31656029923E+02 -0.33311169746E+02  0.15513785908E+03  0.16180078362E+03  0.00000000000E+00 0. -1.
</event>
<event>
 7    1  0.2619826E-009  0.9417401E+02  0.7561462E-02  0.1293047E+00
          2   -1    0    0  501    0  0.00000000000E+00  0.00000000000E+00  0.62469044157E+03  0.62469044157E+03  0.00000000000E+00 0. -1.
         -2   -1    0    0    0  501 -0.00000000000E+00 -0.00000000000E+00 -0.22196575118E+02  0.22196575118E+02  0.00000000000E+00 0.  1.
         25    2    1    2    0    0 -0.45232853197E+02  0.62631242654E+01  0.30710797262E+03  0.33473566736E+03  0.12508965754E+03 0.  0.
          5    1    3    3  502    0 -0.12607914872E+02  0.41916767231E+02  0.27027455667E+03  0.27382801769E+03  0.41800000000E+01 0. -1.
         -5    1    3    3    0  502 -0.32624938325E+02 -0.35653642966E+02  0.36833415957E+02  0.60907649672E+02  0.41800000000E+01 0. -1.
        -11    1    1    2    0    0  0.42261240850E+02 -0.42250620495E+02  0.13314937650E+03  0.14594479734E+03  0.00000000000E+00 0.  1.
         11    1    1    2    0    0  0.29716123476E+01  0.35987496230E+02  0.16223651733E+03  0.16620655198E+03  0.00000000000E+00 0. -1.
</event>
<event>
 7    1  0.2619826E-009  0.1691300E+03  0.7561462E-02  0.1178758E+00
         -1   -1    0    0    0  501 -0.00000000000E+00  0.00000000000E+00  0.42569664640E+03  0.42569664640E+03  0.00000000000E+00 0.  1.
          1   -1    0    0  501    0  0.00000000000E+00 -0.00000000000E+00 -0.99839815654E+02  0.99839815654E+02  0.00000000000E+00 0. -1.
         25    2    1    2    0    0 -0.46205376260E+02  0.14840223137E+03  0.26548516587E+03  0.33209735225E+03  0.12509244184E+03 0.  0.
          5    1    3    3  502    0  0.12811107968E+02  0.52621403126E+02  0.18733299954E+03  0.19504938265E+03  0.41800000000E+01 0.  1.
         -5    1    3    3    0  502 -0.59016484228E+02  0.95780828248E+02  0.78152166323E+02  0.13704796960E+03  0.41800000000E+01 0.  1.
        -11    1    1    2    0    0 -0.11380661582E+02 -0.84803980892E+02 -0.47982544169E+01  0.85698645722E+02  0.00000000000E+00 0.  1.
         11    1    1    2    0    0  0.57586037842E+02 -0.63598250483E+02  0.65169919292E+02  0.10774046408E+03  0.00000000000E+00 0. -1.
</event>
<event>
 7    1  0.2619826E-009  0.1771971E+03  0.7561462E-02  0.1170544E+00
         -1   -1    0    0    0  501 -0.00000000000E+00  0.00000000000E+00  0.56840499613E+03  0.56840499613E+03  0.00000000000E+00 0.  1.
          1   -1    0    0  501    0  0.00000000000E+00 -0.00000000000E+00 -0.55818590454E+02  0.55818590454E+02  0.00000000000E+00 0. -1.
         25    2    1    2    0    0 -0.12583142076E+03  0.73041926639E+02  0.26900250407E+03  0.33042130438E+03  0.12508885520E+03 0.  0.
          5    1    3    3  502    0 -0.81823358565E+02 -0.22916135470E+02  0.10221398416E+03  0.13298639866E+03  0.41800000000E+01 0. -1.
         -5    1    3    3    0  502 -0.44008062194E+02  0.95958062109E+02  0.16678851991E+03  0.19743490572E+03  0.41800000000E+01 0. -1.
        -11    1    1    2    0    0  0.12421658418E+03 -0.39871279388E+02  0.20379697017E+03  0.24197661820E+03  0.00000000000E+00 0.  1.
         11    1    1    2    0    0  0.16148365810E+01 -0.33170647251E+02  0.39786931437E+02  0.51825664003E+02  0.00000000000E+00 0. -1.
</event>
<event>
 7    1  0.2619826E-009  0.1024444E+03  0.7561462E-02  0.1275238E+00
         -1   -1    0    0    0  501 -0.00000000000E+00  0.00000000000E+00  0.25624379407E+03  0.25624379407E+03  0.00000000000E+00 0.  1.
          1   -1    0    0  501    0  0.00000000000E+00 -0.00000000000E+00 -0.51382154257E+02  0.51382154257E+02  0.00000000000E+00 0. -1.
         25    2    1    2    0    0 -0.92475964332E+01 -0.18301479590E+02  0.16081892447E+03  0.20476314448E+03  0.12507900172E+03 0.  0.
          5    1    3    3  502    0 -0.55372551464E+02 -0.32157645579E+02  0.13609698863E+03  0.15046626313E+03  0.41800000000E+01 0. -1.
         -5    1    3    3    0  502  0.46124955031E+02  0.13856165989E+02  0.24721935840E+02  0.54296881349E+02  0.41800000000E+01 0. -1.
        -11    1    1    2    0    0  0.49888662969E+02  0.10959648919E+02  0.18620255106E+02  0.54366409643E+02  0.00000000000E+00 0. -1.
         11    1    1    2    0    0 -0.40641066536E+02  0.73418306709E+01  0.25422460236E+02  0.48496394208E+02  0.00000000000E+00 0.  1.
</event>
<event>
 7    1  0.2619826E-009  0.1134566E+03  0.7561462E-02  0.1254299E+00
          1   -1    0    0  501    0  0.00000000000E+00  0.00000000000E+00  0.10374347424E+03  0.10374347424E+03  0.00000000000E+00 0. -1.
         -1   -1    0    0    0  501 -0.00000000000E+00 -0.00000000000E+00 -0.15656420804E+03  0.15656420804E+03  0.00000000000E+00 0.  1.
         25    2    1    2    0    0  0.61556354923E+02  0.17123723200E+02 -0.23155677791E+02  0.14235779741E+03  0.12508856999E+03 0.  0.
          5    1    3    3  502    0  0.62274674651E+01  0.54908023208E+02 -0.45398288942E+02  0.71639021507E+02  0.41800000000E+01 0.  1.
         -5    1    3    3    0  502  0.55328887458E+02 -0.37784300007E+02  0.22242611152E+02  0.70718775903E+02  0.41800000000E+01 0.  1.
        -11    1    1    2    0    0 -0.21535002254E+02 -0.48790172048E+02 -0.38998932143E+02  0.66069311476E+02  0.00000000000E+00 0.  1.
         11    1    1    2    0    0 -0.40021352669E+02  0.31666448848E+02  0.93338761317E+01  0.51880573395E+02  0.00000000000E+00 0. -1.
</event>
<event>
 7    1  0.2619826E-009  0.8574286E+02  0.7561462E-02  0.1313501E+00
          2   -1    0    0  501    0  0.00000000000E+00  0.00000000000E+00  0.37098945029E+02  0.37098945029E+02  0.00000000000E+00 0. -1.
         -2   -1    0    0    0  501 -0.00000000000E+00 -0.00000000000E+00 -0.31997204174E+03  0.31997204174E+03  0.00000000000E+00 0.  1.
         25    2    1    2    0    0 -0.34503321692E+01  0.16425903311E+02 -0.16195113758E+03  0.20532366450E+03  0.12509165099E+03 0.  0.
          5    1    3    3  502    0 -0.42931538071E+02 -0.24602049585E+01 -0.15488052049E+03  0.16079371131E+03  0.41800000000E+01 0. -1.
         -5    1    3    3    0  502  0.39481205902E+02  0.18886108269E+02 -0.70706170913E+01  0.44529953190E+02  0.41800000000E+01 0. -1.
        -11    1    1    2    0    0 -0.20906280673E+02  0.27227162311E+02 -0.80317420865E+02  0.87345744221E+02  0.00000000000E+00 0.  1.
         11    1    1    2    0    0  0.24356612842E+02 -0.43653065621E+02 -0.40604538264E+02  0.64401578047E+02  0.00000000000E+00 0. -1.
</event>
<event>
 7    1  0.2619826E-009  0.9967165E+02  0.7561462E-02  0.1280988E+00
          2   -1    0    0  501    0  0.00000000000E+00  0.00000000000E+00  0.40037791615E+03  0.40037791615E+03  0.00000000000E+00 0. -1.
         -2   -1    0    0    0  501 -0.00000000000E+00 -0.00000000000E+00 -0.44251081971E+02  0.44251081971E+02  0.00000000000E+00 0.  1.
         25    2    1    2    0    0  0.27167769082E+02  0.11391059532E+01  0.76631102265E+02  0.14919540210E+03  0.12509019520E+03 0.  0.
          5    1    3    3  502    0  0.28163383386E+02 -0.47568282748E+02  0.83076988549E+02  0.99875803445E+02  0.41800000000E+01 0.  1.
         -5    1    3    3    0  502 -0.99561430335E+00  0.48707388701E+02 -0.64458862840E+01  0.49319598659E+02  0.41800000000E+01 0.  1.
        -11    1    1    2    0    0 -0.58663647145E+02 -0.15071492933E+02  0.19495368743E+03  0.20414581464E+03  0.00000000000E+00 0. -1.
         11    1    1    2    0    0  0.31495878063E+02  0.13932386980E+02  0.84542044485E+02  0.91287781371E+02  0.00000000000E+00 0.  1.
</event>
<event>
 7    1  0.2619826E-009  0.1349768E+03  0.7561462E-02  0.1220252E+00
          1   -1    0    0  501    0  0.00000000000E+00  0.00000000000E+00  0.41952480281E+03  0.41952480281E+03  0.00000000000E+00 0. -1.
         -1   -1    0    0    0  501 -0.00000000000E+00 -0.00000000000E+00 -0.52932617495E+02  0.52932617495E+02  0.00000000000E+00 0.  1.
         25    2    1    2    0    0 -0.39017813211E+02  0.92435038313E+02  0.16244640649E+03  0.22825886902E+03  0.12508657103E+03 0.  0.
          5    1    3    3  502    0 -0.38483377250E+02 -0.45784686436E+01 -0.25990665842E-01  0.38979555862E+02  0.41800000000E+01 0. -1.
         -5    1    3    3    0  502 -0.53443596157E+00  0.97013506956E+02  0.16247239715E+03  0.18927931316E+03  0.41800000000E+01 0. -1.
        -11    1    1    2    0    0 -0.16160157266E+02 -0.73922676254E+02  0.10990695842E+03  0.13343632285E+03  0.00000000000E+00 0.  1.
         11    1    1    2    0    0  0.55177970477E+02 -0.18512362059E+02  0.94238820411E+02  0.11076222843E+03  0.00000000000E+00 0. -1.
</event>
<event>
 7    1  0.2619826E-009  0.9531677E+02  0.7561462E-02  0.1290464E+00
          4   -1    0    0  501    0  0.00000000000E+00  0.00000000000E+00  0.12629930642E+04  0.12629930642E+04  0.00000000000E+00 0. -1.
         -4   -1    0    0    0  501 -0.00000000000E+00 -0.00000000000E+00 -0.11209413546E+02  0.11209413546E+02  0.00000000000E+00 0.  1.
         25    2    1    2    0    0  0.65318197095E+01  0.86923672271E+01  0.97082152622E+03  0.97890763637E+03  0.12508997906E+03 0.  0.
          5    1    3    3  502    0  0.96360143478E+01 -0.46951979989E+02  0.18679177276E+03  0.19288851694E+03  0.41800000000E+01 0.  1.
         -5    1    3    3    0  502 -0.31041946383E+01  0.55644347216E+02  0.78402975346E+03  0.78601911943E+03  0.41800000000E+01 0.  1.
        -11    1    1    2    0    0  0.36339888791E+00  0.38720399652E+02  0.82559796974E+02  0.91189481216E+02  0.00000000000E+00 0.  1.
         11    1    1    2    0    0 -0.68952185974E+01 -0.47412766879E+02  0.19840232744E+03  0.20410536014E+03  0.00000000000E+00 0. -1.
</event>
<event>
 7    1  0.2619826E-009  0.1083128E+03  0.7561462E-02  0.1263727E+00
         -2   -1    0    0    0  501 -0.00000000000E+00  0.00000000000E+00  0.28394446279E+02  0.28394446279E+02  0.00000000000E+00 0.  1.
          2   -1    0    0  501    0  0.00000000000E+00 -0.00000000000E+00 -0.42354708435E+03  0.42354708435E+03  0.00000000000E+00 0. -1.
         25    2    1    2    0    0  0.30882162673E+01  0.12732757072E+02 -0.25414180918E+03  0.28355877950E+03  0.12508342046E+03 0.  0.
          5    1    3    3  502    0 -0.41356219907E+02 -0.39177289038E+02 -0.10800808953E+03  0.12218190007E+03  0.41800000000E+01 0.  1.
         -5    1    3    3    0  502  0.44444436175E+02  0.51910046109E+02 -0.14613371965E+03  0.16137687942E+03  0.41800000000E+01 0.  1.
        -11    1    1    2    0    0  0.10655071786E+02  0.37488406794E+02 -0.72738335518E+02  0.82521370884E+02  0.00000000000E+00 0. -1.
         11    1    1    2    0    0 -0.13743288053E+02 -0.50221163866E+02 -0.68272493369E+02  0.85861380244E+02  0.00000000000E+00 0.  1.
</event>
<event>
 7    1  0.2619826E-009  0.4851669E+02  0.7561462E-02  0.1453510E+00
          2   -1    0    0  501    0  0.00000000000E+00  0.00000000000E+00  0.31447395300E+03  0.31447395300E+03  0.00000000000E+00 0. -1.
         -2   -1    0    0    0  501 -0.00000000000E+00 -0.00000000000E+00 -0.39330631005E+02  0.39330631005E+02  0.00000000000E+00 0.  1.
         25    2    1    2    0    0  0.46366051040E+01 -0.17602427629E+02  0.12299718378E+03  0.17637101965E+03  0.12508831196E+03 0.  0.
          5    1    3    3  502    0 -0.32760310758E+01 -0.12524091218E+02  0.14836944057E+03  0.14899177338E+03  0.41800000000E+01 0.  1.
         -5    1    3    3    0  502  0.79126361798E+01 -0.50783364108E+01 -0.25372256787E+02  0.27379246273E+02  0.41800000000E+01 0.  1.
        -11    1    1    2    0    0  0.32872776680E+02  0.12998941157E+02  0.21370865681E+02  0.41307454748E+02  0.00000000000E+00 0.  1.
         11    1    1    2    0    0 -0.37509381784E+02  0.46034864719E+01  0.13077527254E+03  0.13612610961E+03  0.00000000000E+00 0. -1.
</event>
<event>
 7    1  0.2619826E-009  0.9254651E+02  0.7561462E-02  0.1296800E+00
          1   -1    0    0  501    0  0.00000000000E+00  0.00000000000E+00  0.47964161351E+02  0.47964161351E+02  0.00000000000E+00 0. -1.
         -1   -1    0    0    0  501 -0.00000000000E+00 -0.00000000000E+00 -0.30816019800E+03  0.30816019800E+03  0.00000000000E+00 0.  1.
         25    2    1    2    0    0 -0.49762937545E+02 -0.16247560877E+02 -0.12097424949E+03  0.18171375675E+03  0.12507912363E+03 0.  0.
          5    1    3    3  502    0 -0.63909938788E+01 -0.33386240531E+02 -0.12964751323E+03  0.13409487666E+03  0.41800000000E+01 0.  1.
         -5    1    3    3    0  502 -0.43371943666E+02  0.17138679655E+02  0.86732637414E+01  0.47618880096E+02  0.41800000000E+01 0.  1.
        -11    1    1    2    0    0  0.66228997783E+02 -0.15714664077E+02 -0.10228979882E+03  0.12286754558E+03  0.00000000000E+00 0. -1.
         11    1    1    2    0    0 -0.16466060238E+02  0.31962224953E+02 -0.36931988344E+02  0.51543057018E+02  0.00000000000E+00 0.  1.
</event>
<event>
 7    1  0.2619826E-009  0.3966450E+03  0.7561462E-02  0.1044948E+00
          1   -1    0    0  501    0  0.00000000000E+00  0.00000000000E+00  0.10128889874E+04  0.10128889874E+04  0.00000000000E+00 0. -1.
         -1   -1    0    0    0  501 -0.00000000000E+00 -0.00000000000E+00 -0.20501389845E+03  0.20501389845E+03  0.00000000000E+00 0.  1.
         25    2    1    2    0    0  0.22360333106E+03  0.31661119161E+03  0.12153923175E+03  0.42504335534E+03  0.12509585423E+03 0.  0.
          5    1    3    3  502    0  0.19123645913E+03  0.31963043090E+03  0.99525613223E+02  0.38556168864E+03  0.41800000000E+01 0. -1.
         -5    1    3    3    0  502  0.32366871932E+02 -0.30192392887E+01  0.22013618531E+02  0.39481666699E+02  0.41800000000E+01 0. -1.
        -11    1    1    2    0    0 -0.20051714214E+03 -0.27368394039E+03  0.64566415576E+03  0.72937797166E+03  0.00000000000E+00 0. -1.
         11    1    1    2    0    0 -0.23086188921E+02 -0.42927251225E+02  0.40671701482E+02  0.63481558882E+02  0.00000000000E+00 0.  1.
</event>
<event>
 7    1  0.2619826E-009  0.1068565E+03  0.7561462E-02  0.1266504E+00
         -2   -1    0    0    0  501 -0.00000000000E+00  0.00000000000E+00  0.74068853422E+03  0.74068853422E+03  0.00000000000E+00 0.  1.
          2   -1    0    0  501    0  0.00000000000E+00 -0.00000000000E+00 -0.24194060583E+02  0.24194060583E+02  0.00000000000E+00 0. -1.
         25    2    1    2    0    0  0.15875682149E+02 -0.63534338788E+02  0.51592295496E+03  0.53489758381E+03  0.12510107998E+03 0.  0.
          5    1    3    3  502    0 -0.28153801016E+02 -0.63371411315E+01  0.37844228285E+03  0.37956399950E+03  0.41800000000E+01 0. -1.
         -5    1    3    3    0  502  0.44029483165E+02 -0.57197197656E+02  0.13748067212E+03  0.15533358431E+03  0.41800000000E+01 0. -1.
        -11    1    1    2    0    0 -0.49950368872E+02  0.13546377848E+02  0.84380611945E+02  0.98988036527E+02  0.00000000000E+00 0.  1.
         11    1    1    2    0    0  0.34074686723E+02  0.49987960940E+02  0.11619090672E+03  0.13099697447E+03  0.00000000000E+00 0. -1.
</event>
<event>
 7    1  0.2619826E-009  0.3068214E+03  0.7561462E-02  0.1081880E+00
          1   -1    0    0  501    0  0.00000000000E+00  0.00000000000E+00  0.24411202317E+03  0.24411202317E+03  0.00000000000E+00 0. -1.
         -1   -1    0    0    0  501 -0.00000000000E+00 -0.00000000000E+00 -0.43892575966E+03  0.43892575966E+03  0.00000000000E+00 0.  1.
         25    2    1    2    0    0 -0.23902452994E+03 -0.19041378449E+03 -0.14585827449E+03  0.36098651930E+03  0.12508595302E+03 0.  0.
          5    1    3    3  502    0 -0.72606488259E+02 -0.57300488389E+02  0.15206603787E+02  0.93828360881E+02  0.41800000000E+01 0. -1.
         -5    1    3    3    0  502 -0.16641804168E+03 -0.13311329610E+03 -0.16106487828E+03  0.26715815842E+03  0.41800000000E+01 0. -1.
        -11    1    1    2    0    0  0.15184572558E+03  0.97259960859E+02  0.11860932834E+02  0.18071332571E+03  0.00000000000E+00 0. -1.
         11    1    1    2    0    0  0.87178804360E+02  0.93153823626E+02 -0.60816394830E+02  0.14133793782E+03  0.00000000000E+00 0.  1.
</event>
<event>
 7    1  0.2619826E-009  0.7955521E+02  0.7561462E-02  0.1330318E+00
         -1   -1    0    0    0  501 -0.00000000000E+00  0.00000000000E+00  0.58830932391E+02  0.58830932391E+02  0.00000000000E+00 0.  1.
          1   -1    0    0  501    0  0.00000000000E+00 -0.00000000000E+00 -0.21712140538E+03  0.21712140538E+03  0.00000000000E+00 0. -1.
         25    2    1    2    0    0  0.29638922975E+02 -0.14654132516E+02 -0.98567168867E+02  0.16265860943E+03  0.12509647113E+03 0.  0.
          5    1    3    3  502    0  0.76839089569E+02 -0.67641017449E+01 -0.79856691550E+02  0.11110608599E+03  0.41800000000E+01 0. -1.
         -5    1    3    3    0  502 -0.47200166595E+02 -0.78900307715E+01 -0.18710477317E+02  0.51552523445E+02  0.41800000000E+01 0. -1.
        -11    1    1    2    0    0 -0.13774575245E+02  0.10784869976E+02  0.23043247708E+02  0.28931705939E+02  0.00000000000E+00 0.  1.
         11    1    1    2    0    0 -0.15864347729E+02  0.38692625401E+01 -0.82766551834E+02  0.84362022403E+02  0.00000000000E+00 0. -1.
</event>
<event>
 7    1  0.2619826E-009  0.8963225E+02  0.7561462E-02  0.1303745E+00
         -1   -1    0    0    0  501 -0.00000000000E+00  0.00000000000E+00  0.47561254425E+03  0.47561254425E+03  0.00000000000E+00 0.  1.
          1   -1    0    0  501    0  0.00000000000E+00 -0.00000000000E+00 -0.53084290028E+02  0.53084290028E+02  0.00000000000E+00 0. -1.
         25    2    1    2    0    0  0.23897049935E+02  0.53674695239E+02  0.39096250060E+03  0.41467377333E+03  0.12510243606E+03 0.  0.
          5    1    3    3  502    0  0.51450994760E+02 -0.73743398420E+01  0.73028080888E+02  0.89733821650E+02  0.41800000000E+01 0.  1.
         -5    1    3    3    0  502 -0.27553944824E+02  0.61049035081E+02  0.31793441972E+03  0.32493995168E+03  0.41800000000E+01 0.  1.
        -11    1    1    2    0    0 -0.11110823349E+02 -0.11715375217E+02 -0.32552226783E+02  0.36336591481E+02  0.00000000000E+00 0. -1.
         11    1    1    2    0    0 -0.12786226587E+02 -0.41959320022E+02  0.64117980400E+02  0.77686469463E+02  0.00000000000E+00 0.  1.
</event>
<event>
 7    1  0.2619826E-009  0.1193876E+03  0.7561462E-02  0.1244111E+00
          2   -1    0    0  501    0  0.00000000000E+00  0.00000000000E+00  0.26181598705E+03  0.26181598705E+03  0.00000000000E+00 0. -1.
         -2   -1    0    0    0  501 -0.00000000000E+00 -0.00000000000E+00 -0.88610052605E+02  0.88610052605E+02  0.00000000000E+00 0.  1.
         25    2    1    2    0    0  0.10488038472E+03 -0.36133939762E+01  0.11590288849E+03  0.20023555164E+03  0.12509134608E+03 0.  0.
          5    1    3    3  502    0  0.22905955615E+02  0.31688861381E+02  0.10262851922E+03  0.10990428607E+03  0.41800000000E+01 0.  1.
         -5    1    3    3    0  502  0.81974429106E+02 -0.35302255357E+02  0.13274369271E+02  0.90331265573E+02  0.41800000000E+01 0.  1.
        -11    1    1    2    0    0 -0.19738288071E+02  0.14183010103E+02  0.59598525661E+02  0.64364136385E+02  0.00000000000E+00 0. -1.
         11    1    1    2    0    0 -0.85142096650E+02 -0.10569616127E+02 -0.22954797086E+01  0.85826351630E+02  0.00000000000E+00 0.  1.
</event>
<event>
 7    1  0.2619826E-009  0.2218701E+03  0.7561462E-02  0.1132496E+00
          2   -1    0    0  501    0  0.00000000000E+00  0.00000000000E+00  0.17568377349E+04  0.17568377349E+04  0.00000000000E+00 0. -1.
         -2   -1    0    0    0  501 -0.00000000000E+00 -0.00000000000E+00 -0.35522481185E+02  0.35522481185E+02  0.00000000000E+00 0.  1.
         25    2    1    2    0    0 -0.20022155410E+02 -0.21418892634E+03  0.64929123962E+03  0.69534537446E+03  0.12509313754E+03 0.  0.
          5    1    3    3  502    0 -0.15449290791E+02 -0.51943445885E+02  0.47984567477E+02  0.72503746609E+02  0.41800000000E+01 0. -1.
         -5    1    3    3    0  502 -0.45728646184E+01 -0.16224548046E+03  0.60130667214E+03  0.62284162785E+03  0.41800000000E+01 0. -1.
        -11    1    1    2    0    0 -0.27414719644E+02  0.67498728421E+02  0.23947128964E+03  0.25030809765E+03  0.00000000000E+00 0.  1.
         11    1    1    2    0    0  0.47436875054E+02  0.14669019792E+03  0.83255272447E+03  0.84670674399E+03  0.00000000000E+00 0. -1.
</event>
<event>
 7    1  0.2619826E-009  0.1621365E+03  0.7561462E-02  0.1186306E+00
          1   -1    0    0  501    0  0.00000000000E+00  0.00000000000E+00  0.10192404322E+04  0.10192404322E+04  0.00000000000E+00 0. -1.
         -1   -1    0    0    0  501 -0.00000000000E+00 -0.00000000000E+00 -0.45628736083E+02  0.45628736083E+02  0.00000000000E+00 0.  1.
         25    2    1    2    0    0 -0.40376704525E+02 -0.14551903899E+03  0.77630376755E+03  0.80068791628E+03  0.12509009068E+03 0.  0.
          5    1    3    3  502    0 -0.25873552915E+02 -0.47395899089E+00  0.28192748037E+02  0.38496348131E+02  0.41800000000E+01 0.  1.
         -5    1    3    3    0  502 -0.14503151610E+02 -0.14504508000E+03  0.74811101951E+03  0.76219156815E+03  0.41800000000E+01 0.  1.
        -11    1    1    2    0    0  0.30589845402E+02  0.13226117265E+03  0.20509693839E+03  0.24595428553E+03  0.00000000000E+00 0. -1.
         11    1    1    2    0    0  0.97868591225E+01  0.13257866341E+02 -0.77890098526E+01  0.18226966448E+02  0.00000000000E+00 0.  1.
</event>
<event>
 7    1  0.2619826E-009  0.1181526E+03  0.7561462E-02  0.1246176E+00
          2   -1    0    0  501    0  0.00000000000E+00  0.00000000000E+00  0.29885732680E+03  0.29885732680E+03  0.00000000000E+00 0. -1.
         -2   -1    0    0    0  501 -0.00000000000E+00 -0.00000000000E+00 -0.53773014839E+02  0.53773014839E+02  0.00000000000E+00 0.  1.
         25    2    1    2    0    0  0.64155617371E+02 -0.14081486516E+01  0.15864629831E+03  0.21197654951E+03  0.12508990147E+03 0.  0.
          5    1    3    3  502    0  0.18625000759E+02  0.60291146748E+02  0.62343042745E+02  0.88803380613E+02  0.41800000000E+01 0.  1.
         -5    1    3    3    0  502  0.45530616613E+02 -0.61699295400E+02  0.96303255569E+02  0.12317316889E+03  0.41800000000E+01 0.  1.
        -11    1    1    2    0    0 -0.32085896914E+02  0.36590116211E+02  0.86106923534E+01  0.49421507544E+02  0.00000000000E+00 0.  1.
         11    1    1    2    0    0 -0.32069720457E+02 -0.35181967559E+02  0.77827321292E+02  0.91232284587E+02  0.00000000000E+00 0. -1.
</event>
<event>
 7    1  0.2619826E-009  0.9430809E+02  0.7561462E-02  0.1292742E+00
         -2   -1    0    0    0  501 -0.00000000000E+00  0.00000000000E+00  0.62590747674E+02  0.62590747674E+02  0.00000000000E+00 0.  1.
          2   -1    0    0  501    0  0.00000000000E+00 -0.00000000000E+00 -0.24982373354E+03  0.24982373354E+03  0.00000000000E+00 0. -1.
         25    2    1    2    0    0  0.15939948654E+02 -0.48865162130E+02 -0.14871398374E+03  0.20100680245E+03  0.12508397035E+03 0.  0.
          5    1    3    3  502    0  0.44361800829E+02 -0.38514878586E+02 -0.15838132412E+03  0.16897775438E+03  0.41800000000E+01 0.  1.
         -5    1    3    3    0  502 -0.28421852174E+02 -0.10350283544E+02  0.96673403772E+01  0.32029048073E+02  0.41800000000E+01 0.  1.
        -11    1    1    2    0    0 -0.12878665706E+02 -0.23476869326E+02  0.45482891430E+01  0.27160823954E+02  0.00000000000E+00 0.  1.
         11    1    1    2    0    0 -0.30612829477E+01  0.72342031456E+02 -0.43067291272E+02  0.84246854813E+02  0.00000000000E+00 0. -1.
</event>
<event>
 7    1  0.2619826E-009  0.1401155E+03  0.7561462E-02  0.1213174E+00
          1   -1    0    0  501    0  0.00000000000E+00  0.00000000000E+00  0.41042427298E+03  0.41042427298E+03  0.00000000000E+00 0. -1.
         -1   -1    0    0    0  501 -0.00000000000E+00 -0.00000000000E+00 -0.70234774697E+02  0.70234774697E+02  0.00000000000E+00 0.  1.
         25    2    1    2    0    0  0.64115719101E+02  0.67537636629E+02  0.51626276490E+02  0.16427054167E+03  0.12508949052E+03 0.  0.
          5    1    3    3  502    0  0.78408330111E+02  0.95801432346E+02  0.43751186159E+02  0.13136749735E+03  0.41800000000E+01 0.  1.
         -5    1    3    3    0  502 -0.14292611009E+02 -0.28263795717E+02  0.78750903304E+01  0.32903044320E+02  0.41800000000E+01 0.  1.
        -11    1    1    2    0    0  0.19317255079E+02 -0.22318384999E+02  0.35811076897E+02  0.46407972174E+02  0.00000000000E+00 0.  1.
         11    1    1    2    0    0 -0.83432974180E+02 -0.45219251630E+02  0.25275214490E+03  0.26998053383E+03  0.00000000000E+00 0. -1.
</event>
<event>
 7    1  0.2619826E-009  0.1054705E+03  0.7561462E-02  0.1269195E+00
          1   -1    0    0  501    0  0.00000000000E+00  0.00000000000E+00  0.32825333029E+03  0.32825333029E+03  0.00000000000E+00 0. -1.
         -1   -1    0    0    0  501 -0.00000000000E+00 -0.00000000000E+00 -0.40462100944E+02  0.40462100944E+02  0.00000000000E+00 0.  1.
         25    2    1    2    0    0  0.33198371368E+02 -0.18149854760E+02  0.15431900035E+03  0.20222070320E+03  0.12508920755E+03 0.  0.
          5    1    3    3  502    0  0.26311445096E+02 -0.70862774798E+02  0.10601305238E+03  0.13026920077E+03  0.41800000000E+01 0. -1.
         -5    1    3    3    0  502  0.68869262725E+01  0.52712920038E+02  0.48305947975E+02  0.71951502431E+02  0.41800000000E+01 0. -1.
        -11    1    1    2    0    0 -0.49990285264E+02 -0.82068508077E+01  0.12382669342E+03  0.13378875523E+03  0.00000000000E+00 0. -1.
         11    1    1    2    0    0  0.16791913896E+02  0.26356705568E+02  0.96455355710E+01  0.32705972805E+02  0.00000000000E+00 0.  1.
</event>
<event>
 7    1  0.2619826E-009  0.1061329E+03  0.7561462E-02  0.1267903E+00
          1   -1    0    0  501    0  0.00000000000E+00  0.00000000000E+00  0.11785375948E+03  0.11785375948E+03  0.00000000000E+00 0. -1.
         -1   -1    0    0    0  501 -0.00000000000E+00 -0.00000000000E+00 -0.15447770890E+03  0.15447770890E+03  0.00000000000E+00 0.  1.
         25    2    1    2    0    0 -0.89666835795E+02  0.75732742042E+01  0.15546917418E+01  0.15410259372E+03  0.12509075266E+03 0.  0.
          5    1    3    3  502    0 -0.28103529953E+02  0.33548530892E+02 -0.52197591276E+02  0.68244950405E+02  0.41800000000E+01 0. -1.
         -5    1    3    3    0  502 -0.61563305841E+02 -0.25975256688E+02  0.53752283017E+02  0.85857643316E+02  0.41800000000E+01 0. -1.
        -11    1    1    2    0    0  0.29441731318E+02  0.19508953004E+02 -0.38429464721E+02  0.52194238658E+02  0.00000000000E+00 0.  1.
         11    1    1    2    0    0  0.60225104477E+02 -0.27082227208E+02  0.25082356102E+00  0.66034636005E+02  0.00000000000E+00 0. -1.
</event>
<event>
 7    1  0.2619826E-009  0.1252561E+03  0.7561462E-02  0.1234670E+00
         -2   -1    0    0    0  501 -0.00000000000E+00  0.00000000000E+00  0.32117074468E+02  0.32117074468E+02  0.00000000000E+00 0.  1.
          2   -1    0    0  501    0  0.00000000000E+00 -0.00000000000E+00 -0.53019346786E+03  0.53019346786E+03  0.00000000000E+00 0. -1.
         25    2    1    2    0    0  0.11327422145E+02  0.70206875092E+02 -0.24854859318E+03  0.28719212485E+03  0.12508236328E+03 0.  0.
          5    1    3    3  502    0 -0.53038911582E+02  0.25493413279E+02 -0.15016682416E+03  0.16133997565E+03  0.41800000000E+01 0. -1.
         -5    1    3    3    0  502  0.64366333727E+02  0.44713461814E+02 -0.98381769019E+02  0.12585214921E+03  0.41800000000E+01 0. -1.
        -11    1    1    2    0    0  0.19179356329E+02  0.13819231577E+02 -0.30780799135E+02  0.38810777703E+02  0.00000000000E+00 0.  1.
         11    1    1    2    0    0 -0.30506778473E+02 -0.84026106669E+02 -0.21874700107E+03  0.23630763977E+03  0.00000000000E+00 0. -1.
</event>
<event>
 7    1  0.2619826E-009  0.1477344E+03  0.7561462E-02  0.1203285E+00
         -2   -1    0    0    0  501 -0.00000000000E+00  0.00000000000E+00  0.67349934452E+02  0.67349934452E+02  0.00000000000E+00 0.  1.
          2   -1    0    0  501    0  0.00000000000E+00 -0.00000000000E+00 -0.42561732638E+03  0.42561732638E+03  0.00000000000E+00 0. -1.
         25    2    1    2    0    0 -0.93124734432E+02  0.82191794709E+02 -0.15379346281E+03  0.23393958400E+03  0.12509033727E+03 0.  0.
          5    1    3    3  502    0 -0.69296355238E+02  0.10378718267E+03 -0.67909165721E+02  0.14213687531E+03  0.41800000000E+01 0.  1.
         -5    1    3    3    0  502 -0.23828379194E+02 -0.21595387956E+02 -0.85884297090E+02  0.91802708689E+02  0.41800000000E+01 0.  1.
        -11    1    1    2    0    0  0.56545881329E+02 -0.10248911427E+02 -0.25843565123E+02  0.63010846201E+02  0.00000000000E+00 0.  1.
         11    1    1    2    0    0  0.36578853103E+02 -0.71942883283E+02 -0.17863036400E+03  0.19601683063E+03  0.00000000000E+00 0. -1.
</event>
<event>
 7    1  0.2619826E-009  0.1234154E+03  0.7561462E-02  0.1237567E+00
         -1   -1    0    0    0  501 -0.00000000000E+00  0.00000000000E+00  0.83763548357E+03  0.83763548357E+03  0.00000000000E+00 0.  1.
          1   -1    0    0  501    0  0.00000000000E+00 -0.00000000000E+00 -0.21723869283E+02  0.21723869283E+02  0.00000000000E+00 0. -1.
         25    2    1    2    0    0  0.12792813443E+02 -0.64801752594E+02  0.30678047814E+03  0.33782317719E+03  0.12508922441E+03 0.  0.
          5    1    3    3  502    0  0.28716286002E+02 -0.95367036997E+02  0.17352648623E+03  0.20012099003E+03  0.41800000000E+01 0. -1.
         -5    1    3    3    0  502 -0.15923472559E+02  0.30565284403E+02  0.13325399191E+03  0.13770218716E+03  0.41800000000E+01 0. -1.
        -11    1    1    2    0    0  0.20749736562E+02 -0.15172995430E+02  0.14135865229E+03  0.14367685943E+03  0.00000000000E+00 0.  1.
         11    1    1    2    0    0 -0.33542550005E+02  0.79974748023E+02  0.36777248385E+03  0.37785931623E+03  0.00000000000E+00 0. -1.
</event>
<event>
 7    1  0.3011114E-009  0.1338513E+03  0.7561462E-02  0.1221850E+00
         -2   -1    0    0    0  501 -0.00000000000E+00  0.00000000000E+00  0.69107738309E+02  0.69107738309E+02  0.00000000000E+00 0.  1.
          2   -1    0    0  501    0  0.00000000000E+00 -0.00000000000E+00 -0.34125516986E+03  0.34125516986E+03  0.00000000000E+00 0. -1.
         25    2    1    2    0    0  0.90020898808E+01 -0.10352587242E+03 -0.18656284342E+03  0.24749035049E+03  0.12508850929E+03 0.  0.
          5    1    3    3  502    0 -0.35040551812E+02  0.79308220773E+01 -0.17402743473E+02  0.40138087778E+02  0.41800000000E+01 0. -1.
         -5    1    3    3    0  502  0.44042641693E+02 -0.11145669450E+03 -0.16916009995E+03  0.20735226271E+03  0.41800000000E+01 0. -1.
        -11    1    1    2    0    0  0.15154794966E+02  0.22980165005E+02  0.15335103561E+02  0.31510652093E+02  0.00000000000E+00 0.  1.
         11    1    1    2    0    0 -0.24156884847E+02  0.80545707417E+02 -0.10091969169E+03  0.13136190559E+03  0.00000000000E+00 0. -1.
</event>
<event>
 7    1  0.2619826E-009  0.1767326E+03  0.7561462E-02  0.1171003E+00
          1   -1    0    0  501    0  0.00000000000E+00  0.00000000000E+00  0.19213960851E+03  0.19213960851E+03  0.00000000000E+00 0. -1.
         -1   -1    0    0    0  501 -0.00000000000E+00 -0.00000000000E+00 -0.17127909417E+03  0.17127909417E+03  0.00000000000E+00 0.  1.
         25    2    1    2    0    0 -0.14503109135E+03  0.35737785176E+01  0.15332927032E+02  0.19217161859E+03  0.12509213800E+03 0.  0.
          5    1    3    3  502    0 -0.13378894404E+03 -0.38051477501E+02  0.36633864658E+02  0.14389895388E+03  0.41800000000E+01 0.  1.
         -5    1    3    3    0  502 -0.11242147313E+02  0.41625256019E+02 -0.21300937626E+02  0.48272664714E+02  0.41800000000E+01 0.  1.
        -11    1    1    2    0    0  0.32526972599E+02  0.38923893090E+02  0.51201809614E+01  0.50983229133E+02  0.00000000000E+00 0. -1.
         11    1    1    2    0    0  0.11250411875E+03 -0.42497671608E+02  0.40740633741E+00  0.12026385496E+03  0.00000000000E+00 0.  1.
</event>
<event>
 7    1  0.2619826E-009  0.9511883E+02  0.7561462E-02  0.1290909E+00
          1   -1    0    0  501    0  0.00000000000E+00  0.00000000000E+00  0.18351975220E+03  0.18351975220E+03  0.00000000000E+00 0. -1.
         -1   -1    0    0    0  501 -0.00000000000E+00 -0.00000000000E+00 -0.25262071304E+03  0.25262071304E+03  0.00000000000E+00 0.  1.
         25    2    1    2    0    0 -0.33866576135E+02  0.29828876525E+02 -0.21809325363E+03  0.25543258261E+03  0.12507769636E+03 0.  0.
          5    1    3    3  502    0  0.29040167151E+01  0.47285399455E+02 -0.17448867100E+02  0.50658441328E+02  0.41800000000E+01 0.  1.
         -5    1    3    3    0  502 -0.36770592850E+02 -0.17456522931E+02 -0.20064438653E+03  0.20477414128E+03  0.41800000000E+01 0.  1.
        -11    1    1    2    0    0  0.65438377450E+02 -0.23713734034E+02  0.93366731383E+02  0.11645543763E+03  0.00000000000E+00 0. -1.
         11    1    1    2    0    0 -0.31571801315E+02 -0.61151424906E+01  0.55625561407E+02  0.64252444995E+02  0.00000000000E+00 0.  1.
</event>
<event>
 6    1  0.2619826E-009  0.1347464E+03  0.7561462E-02  0.1220578E+00
         -1   -1    0    0    0  501 -0.00000000000E+00  0.00000000000E+00  0.90036910484E+03  0.90036910484E+03  0.00000000000E+00 0.  1.
          1   -1    0    0  501    0  0.00000000000E+00 -0.00000000000E+00 -0.24415798574E+02  0.24415798574E+02  0.00000000000E+00 0. -1.
          5    1    1    2  502    0 -0.82718333902E+02 -0.85882372525E+02  0.42307277865E+03  0.43957496870E+03  0.41800000000E+01 0.  1.
         -5    1    1    2    0  502  0.17063732501E+01  0.25223930681E+02  0.22195314409E+02  0.33900778315E+02  0.41800000000E+01 0.  1.
        -11    1    1    2    0    0  0.19003026321E+02 -0.16778584863E+02  0.34018212826E+02  0.42424930445E+02  0.00000000000E+00 0. -1.
         11    1    1    2    0    0  0.62008934331E+02  0.77437026707E+02  0.39666700038E+03  0.40888422595E+03  0.00000000000E+00 0.  1.
</event>
<event>
 6    1  0.2619826E-009  0.1561256E+03  0.7561462E-02  0.1193142E+00
         -1   -1    0    0    0  501 -0.00000000000E+00  0.00000000000E+00  0.58669505768E+02  0.58669505768E+02  0.00000000000E+00 0.  1.
          1   -1    0    0  501    0  0.00000000000E+00 -0.00000000000E+00 -0.65254539115E+03  0.65254539115E+03  0.00000000000E+00 0. -1.
          5    1    1    2  502    0  0.63048658874E+02  0.12184914439E+03 -0.34427728219E+03  0.37063009431E+03  0.41800000000E+01 0. -1.
         -5    1    1    2    0  502  0.19461683267E+02 -0.28899411295E+02 -0.15445951410E+03  0.15839553966E+03  0.41800000000E+01 0. -1.
        -11    1    1    2    0    0 -0.13608865800E+02 -0.63548603436E+02 -0.84383045985E+02  0.10650880094E+03  0.00000000000E+00 0. -1.
         11    1    1    2    0    0 -0.68901476341E+02 -0.29401129655E+02 -0.10756043102E+02  0.75680462011E+02  0.00000000000E+00 0.  1.
</event>
<event>
 7    1  0.2619826E-009  0.1146842E+03  0.7561462E-02  0.1252133E+00
          2   -1    0    0  501    0  0.00000000000E+00  0.00000000000E+00  0.80024489308E+03  0.80024489308E+03  0.00000000000E+00 0. -1.
         -2   -1    0    0    0  501 -0.00000000000E+00 -0.00000000000E+00 -0.18414295171E+02  0.18414295171E+02  0.00000000000E+00 0.  1.
         25    2    1    2    0    0  0.36952586487E+02  0.30600902115E+02  0.35776031489E+03  0.38202356002E+03  0.12509056174E+03 0.  0.
          5    1    3    3  502    0 -0.24778971988E+02 -0.35429415985E+02  0.11116411644E+03  0.11934895958E+03  0.41800000000E+01 0.  1.
         -5    1    3    3    0  502  0.61731558475E+02  0.66030318100E+02  0.24659619845E+03  0.26267460043E+03  0.41800000000E+01 0.  1.
        -11    1    1    2    0    0 -0.30131211495E+02 -0.58993282595E+02  0.36236402610E+03  0.36836908761E+03  0.00000000000E+00 0. -1.
         11    1    1    2    0    0 -0.68213749923E+01  0.28392380480E+02  0.61706256915E+02  0.68266540623E+02  0.00000000000E+00 0.  1.
</event>
<event>
 7    1  0.2619826E-009  0.1506247E+03  0.7561462E-02  0.1199707E+00
          2   -1    0    0  501    0  0.00000000000E+00  0.00000000000E+00  0.12759832465E+03  0.12759832465E+03  0.00000000000E+00 0. -1.
         -2   -1    0    0    0  501 -0.00000000000E+00 -0.00000000000E+00 -0.21724204727E+03  0.21724204727E+03  0.00000000000E+00 0.  1.
         25    2    1    2    0    0  0.97564998593E+02 -0.77359364219E+02 -0.28083723165E+02  0.17871727273E+03  0.12509103837E+03 0.  0.
          5    1    3    3  502    0  0.10394915542E+03 -0.90882807701E+02 -0.54152122474E+02  0.14837464884E+03  0.41800000000E+01 0. -1.
         -5    1    3    3    0  502 -0.63841568291E+01  0.13523443482E+02  0.26068399309E+02  0.30342623890E+02  0.41800000000E+01 0. -1.
        -11    1    1    2    0    0 -0.10819878719E+03  0.51923389988E+02 -0.67823108022E+02  0.13785133281E+03  0.00000000000E+00 0.  1.
         11    1    1    2    0    0  0.10633788597E+02  0.25435974232E+02  0.62631085658E+01  0.28271766375E+02  0.00000000000E+00 0. -1.
</event>
<event>
 7    1  0.2619826E-009  0.1135152E+03  0.7561462E-02  0.1254195E+00
         -1   -1    0    0    0  501 -0.00000000000E+00  0.00000000000E+00  0.30398533020E+02  0.30398533020E+02  0.00000000000E+00 0. -1.
          1   -1    0    0  501    0  0.00000000000E+00 -0.00000000000E+00 -0.90186832414E+03  0.90186832414E+03  0.00000000000E+00 0.  1.
         25    2    1    2    0    0 -0.74663686647E+02  0.47497493757E+02 -0.70157126941E+03  0.71810375542E+03  0.12506030331E+03 0.  0.
          5    1    3    3  502    0 -0.61975169080E+02 -0.11023093591E+02 -0.57007196585E+03  0.57355204544E+03  0.41800000000E+01 0.  1.
         -5    1    3    3    0  502 -0.12688517567E+02  0.58520587348E+02 -0.13149930355E+03  0.14455170998E+03  0.41800000000E+01 0.  1.
        -11    1    1    2    0    0  0.11900960568E+02  0.12381052037E+02  0.58750576428E+01  0.18150471462E+02  0.00000000000E+00 0. -1.
         11    1    1    2    0    0  0.62762726079E+02 -0.59878545794E+02 -0.17577357935E+03  0.19601263028E+03  0.00000000000E+00 0.  1.
</event>
<event>
 7    1  0.2619826E-009  0.1104830E+03  0.7561462E-02  0.1259678E+00
          1   -1    0    0  501    0  0.00000000000E+00  0.00000000000E+00  0.78829662011E+02  0.78829662011E+02  0.00000000000E+00 0. -1.
         -1   -1    0    0    0  501 -0.00000000000E+00 -0.00000000000E+00 -0.28728315361E+03  0.28728315361E+03  0.00000000000E+00 0.  1.
         25    2    1    2    0    0  0.65247045581E+02  0.54126374689E+02 -0.19483781217E+03  0.24656743807E+03  0.12508751763E+03 0.  0.
          5    1    3    3  502    0 -0.10667738838E+02  0.67909230977E+01 -0.14191500002E+03  0.14253861553E+03  0.41800000000E+01 0.  1.
         -5    1    3    3    0  502  0.75914784419E+02  0.47335451592E+02 -0.52922812155E+02  0.10402882253E+03  0.41800000000E+01 0.  1.
        -11    1    1    2    0    0  0.95060978494E+01  0.14016078807E+02 -0.65162896361E+01  0.18146029650E+02  0.00000000000E+00 0.  1.
         11    1    1    2    0    0 -0.74753143430E+02 -0.68142453496E+02 -0.70993897953E+01  0.10139934791E+03  0.00000000000E+00 0. -1.
</event>
<event>
 7    1  0.2619826E-009  0.2778821E+03  0.7561462E-02  0.1096851E+00
          1   -1    0    0  501    0  0.00000000000E+00  0.00000000000E+00  0.14134511298E+03  0.14134511298E+03  0.00000000000E+00 0. -1.
         -1   -1    0    0    0  501 -0.00000000000E+00 -0.00000000000E+00 -0.55590540346E+03  0.55590540346E+03  0.00000000000E+00 0.  1.
         25    2    1    2    0    0  0.21613538471E+03  0.13775493708E+03 -0.18589630188E+03  0.34043383061E+03  0.12508729254E+03 0.  0.
          5    1    3    3  502    0  0.34609160046E+02  0.91329191490E+02 -0.65908858315E+02  0.11789938584E+03  0.41800000000E+01 0. -1.
         -5    1    3    3    0  502  0.18152622467E+03  0.46425745589E+02 -0.11998744356E+03  0.22253444477E+03  0.41800000000E+01 0. -1.
        -11    1    1    2    0    0 -0.14179074248E+03 -0.39140989607E+02 -0.15167367256E+03  0.21128543411E+03  0.00000000000E+00 0. -1.
         11    1    1    2    0    0 -0.74344642232E+02 -0.98613947472E+02 -0.76990316045E+02  0.14553125173E+03  0.00000000000E+00 0.  1.
</event>
<event>
 7    1  0.2619826E-009  0.6888537E+02  0.7561462E-02  0.1363925E+00
         -1   -1    0    0    0  501 -0.00000000000E+00  0.00000000000E+00  0.76998331623E+02  0.76998331623E+02  0.00000000000E+00 0.  1.
          1   -1    0    0  501    0  0.00000000000E+00 -0.00000000000E+00 -0.23936014602E+03  0.23936014602E+03  0.00000000000E+00 0. -1.
         25    2    1    2    0    0 -0.17186359512E+02 -0.14582419373E+02 -0.18050180208E+03  0.22076632492E+03  0.12509537065E+03 0.  0.
          5    1    3    3  502    0 -0.29496277803E+02 -0.54899466665E+01  0.82127119838E+01  0.31386158681E+02  0.41800000000E+01 0. -1.
         -5    1    3    3    0  502  0.12309918291E+02 -0.90924727065E+01 -0.18871451406E+03  0.18938016624E+03  0.41800000000E+01 0. -1.
        -11    1    1    2    0    0  0.51575245928E+02 -0.53728446123E+01  0.20507681984E+02  0.55762339191E+02  0.00000000000E+00 0.  1.
         11    1    1    2    0    0 -0.34388886416E+02  0.19955263985E+02 -0.23676943055E+01  0.39829813531E+02  0.00000000000E+00 0. -1.
</event>
<event>
 7    1  0.2619826E-009  0.1095656E+03  0.7561462E-02  0.1261377E+00
          2   -1    0    0  501    0  0.00000000000E+00  0.00000000000E+00  0.23243104176E+03  0.23243104176E+03  0.00000000000E+00 0. -1.
         -2   -1    0    0    0  501 -0.00000000000E+00 -0.00000000000E+00 -0.75231168913E+02  0.75231168913E+02  0.00000000000E+00 0.  1.
         25    2    1    2    0    0 -0.23508802641E+02 -0.60218519005E+02  0.13124771805E+03  0.19249073676E+03  0.12509111244E+03 0.  0.
          5    1    3    3  502    0  0.44121297905E+02 -0.14971238113E+02  0.89389174175E+02  0.10088966131E+03  0.41800000000E+01 0.  1.
         -5    1    3    3    0  502 -0.67630100546E+02 -0.45247280891E+02  0.41858543872E+02  0.91601075447E+02  0.41800000000E+01 0.  1.
        -11    1    1    2    0    0  0.31432158197E+02  0.13356041960E+01  0.43074160605E+02  0.53339926128E+02  0.00000000000E+00 0. -1.
         11    1    1    2    0    0 -0.79233555559E+01  0.58882914809E+02 -0.17122005802E+02  0.61831547792E+02  0.00000000000E+00 0.  1.
</event>
<event>
 7    1  0.2619826E-009  0.1067988E+03  0.7561462E-02  0.1266616E+00
          3   -1    0    0  501    0  0.00000000000E+00  0.00000000000E+00  0.67853019393E+02  0.67853019393E+02  0.00000000000E+00 0. -1.
         -3   -1    0    0    0  501 -0.00000000000E+00 -0.00000000000E+00 -0.29985946483E+03  0.29985946483E+03  0.00000000000E+00 0.  1.
         25    2    1    2    0    0 -0.88629691675E+02  0.17812138431E+02 -0.98037367612E+02  0.18284082922E+03  0.12508776463E+03 0.  0.
          5    1    3    3  502    0 -0.26449931244E+02  0.40210034053E+02  0.16066544869E+02  0.50912198591E+02  0.41800000000E+01 0.  1.
         -5    1    3    3    0  502 -0.62179760431E+02 -0.22397895622E+02 -0.11410391248E+03  0.13192863063E+03  0.41800000000E+01 0.  1.
        -11    1    1    2    0    0  0.39616871247E+02 -0.28620640131E+02 -0.83300825751E+01  0.49578501435E+02  0.00000000000E+00 0. -1.
         11    1    1    2    0    0  0.49012820428E+02  0.10808501700E+02 -0.12563899525E+03  0.13529315357E+03  0.00000000000E+00 0.  1.
</event>
<event>
 7    1  0.2619826E-009  0.1409652E+03  0.7561462E-02  0.1212036E+00
          4   -1    0    0  501    0  0.00000000000E+00  0.00000000000E+00  0.26284060203E+02  0.26284060203E+02  0.00000000000E+00 0. -1.
         -4   -1    0    0    0  501 -0.00000000000E+00 -0.00000000000E+00 -0.10140667950E+04  0.10140667950E+04  0.00000000000E+00 0.  1.
         25    2    1    2    0    0 -0.90287081070E+02  0.30162102547E+02 -0.77065940788E+03  0.78652710906E+03  0.12508981134E+03 0.  0.
          5    1    3    3  502    0  0.19252558142E+01  0.54745212262E+02 -0.18013262523E+03  0.18832413533E+03  0.41800000000E+01 0.  1.
         -5    1    3    3    0  502 -0.92212336884E+02 -0.24583109715E+02 -0.59052678265E+03  0.59820297373E+03  0.41800000000E+01 0.  1.
        -11    1    1    2    0    0  0.99381745254E+02  0.60599495650E+00 -0.16450904399E+03  0.19219865784E+03  0.00000000000E+00 0. -1.
         11    1    1    2    0    0 -0.90946641841E+01 -0.30768097503E+02 -0.52614282930E+02  0.61625088306E+02  0.00000000000E+00 0.  1.
</event>
<event>
 7    1  0.2619826E-009  0.1637178E+03  0.7561462E-02  0.1184562E+00
          1   -1    0    0  501    0  0.00000000000E+00  0.00000000000E+00  0.52208614967E+03  0.52208614967E+03  0.00000000000E+00 0. -1.
         -1   -1    0    0    0  501 -0.00000000000E+00 -0.00000000000E+00 -0.68099464316E+02  0.68099464316E+02  0.00000000000E+00 0.  1.
         25    2    1    2    0    0  0.14327520692E+03  0.46898226065E+02  0.29074290612E+03  0.35057875736E+03  0.12508716610E+03 0.  0.
          5    1    3    3  502    0  0.78902888558E+02  0.38833025563E+02  0.26737407539E+03  0.28149607153E+03  0.41800000000E+01 0. -1.
         -5    1    3    3    0  502  0.64372318367E+02  0.80652005020E+01  0.23368830728E+02  0.69082685824E+02  0.41800000000E+01 0. -1.
        -11    1    1    2    0    0 -0.14946638394E+03 -0.24892689843E+02  0.13243450411E+03  0.20124299693E+03  0.00000000000E+00 0.  1.
         11    1    1    2    0    0  0.61911770123E+01 -0.22005536222E+02  0.30809275130E+02  0.38363859702E+02  0.00000000000E+00 0. -1.
</event>
<event>
 7    1  0.2619826E-009  0.9802657E+02  0.7561462E-02  0.1284501E+00
         -2   -1    0    0    0  501 -0.00000000000E+00  0.00000000000E+00  0.17346120439E+02  0.17346120439E+02  0.00000000000E+00 0.  1.
          2   -1    0    0  501    0  0.00000000000E+00 -0.00000000000E+00 -0.11611758412E+04  0.11611758412E+04  0.00000000000E+00 0. -1.
         25    2    1    2    0    0  0.13131764714E+02  0.45431294468E+00 -0.10044060884E+04  0.10122519562E+04  0.12509909162E+03 0.  0.
          5    1    3    3  502    0 -0.21910770302E+02 -0.53072236409E+02 -0.60499103736E+03  0.60772392731E+03  0.41800000000E+01 0. -1.
         -5    1    3    3    0  502  0.35042535016E+02  0.53526549353E+02 -0.39941505109E+03  0.40452802892E+03  0.41800000000E+01 0. -1.
        -11    1    1    2    0    0 -0.41104534548E+02 -0.13823871075E+02 -0.30495577915E+02  0.53015681117E+02  0.00000000000E+00 0.  1.
         11    1    1    2    0    0  0.27972769835E+02  0.13369558130E+02 -0.10892805435E+03  0.11325432425E+03  0.00000000000E+00 0. -1.
</event>
<event>
 7    1  0.3686583E-009  0.1218201E+03  0.7561462E-02  0.1240124E+00
         -2   -1    0    0    0  501 -0.00000000000E+00  0.00000000000E+00  0.75006395815E+02  0.75006395815E+02  0.00000000000E+00 0.  1.
          2   -1    0    0  501    0  0.00000000000E+00 -0.00000000000E+00 -0.26937115709E+03  0.26937115709E+03  0.00000000000E+00 0. -1.
         25    2    1    2    0    0  0.86328181681E+02  0.29902025851E+02 -0.97842778828E+02  0.18321306343E+03  0.12508849323E+03 0.  0.
          5    1    3    3  502    0  0.57720983530E+02  0.55803890901E+02 -0.26811321002E+01  0.80439089060E+02  0.41800000000E+01 0. -1.
         -5    1    3    3    0  502  0.28607198151E+02 -0.25901865050E+02 -0.95161646728E+02  0.10277397437E+03  0.41800000000E+01 0. -1.
        -11    1    1    2    0    0 -0.47597240026E+02  0.27659339638E+02 -0.64364660335E+02  0.84695606895E+02  0.00000000000E+00 0.  1.
         11    1    1    2    0    0 -0.38730941655E+02 -0.57561365489E+02 -0.32157322115E+02  0.76468882586E+02  0.00000000000E+00 0. -1.
</event>
<event>
 7    1  0.2619826E-009  0.1175777E+03  0.7561462E-02  0.1247147E+00
         -1   -1    0    0    0  501 -0.00000000000E+00  0.00000000000E+00  0.57702277713E+03  0.57702277713E+03  0.00000000000E+00 0.  1.
          1   -1    0    0  501    0  0.00000000000E+00 -0.00000000000E+00 -0.40704574824E+02  0.40704574824E+02  0.00000000000E+00 0. -1.
         25    2    1    2    0    0 -0.56694590045E+02 -0.91125615134E+02  0.25584482386E+03  0.30433851954E+03  0.12508879369E+03 0.  0.
          5    1    3    3  502    0  0.11860149461E+02 -0.54668097272E+01 -0.98293876596E+01  0.16871230412E+02  0.41800000000E+01 0. -1.
         -5    1    3    3    0  502 -0.68554739507E+02 -0.85658805406E+02  0.26567421152E+03  0.28746728913E+03  0.41800000000E+01 0. -1.
        -11    1    1    2    0    0  0.18584966496E+02  0.80568616750E+01  0.20625665778E+01  0.20360947439E+02  0.00000000000E+00 0. -1.
         11    1    1    2    0    0  0.38109623549E+02  0.83068753459E+02  0.27841081186E+03  0.29302788497E+03  0.00000000000E+00 0.  1.
</event>
<event>
 7    1  0.2619826E-009  0.9008181E+02  0.7561462E-02  0.1302654E+00
         -1   -1    0    0    0  501 -0.00000000000E+00  0.00000000000E+00  0.88966105062E+02  0.88966105062E+02  0.00000000000E+00 0.  1.
          1   -1    0    0  501    0  0.00000000000E+00 -0.00000000000E+00 -0.23406045156E+03  0.23406045156E+03  0.00000000000E+00 0. -1.
         25    2    1    2    0    0  0.94283104319E+01 -0.36343145181E+02 -0.17768020825E+03  0.22051409606E+03  0.12508594213E+03 0.  0.
          5    1    3    3  502    0  0.57986983732E+02 -0.39548253195E+02 -0.57648458845E+02  0.90925089059E+02  0.41800000000E+01 0. -1.
         -5    1    3    3    0  502 -0.48558673300E+02  0.32051080138E+01 -0.12003174940E+03  0.12958900700E+03  0.41800000000E+01 0. -1.
        -11    1    1    2    0    0  0.86183034767E+01 -0.88440054525E+01  0.49486005466E+02  0.51003493255E+02  0.00000000000E+00 0.  1.
         11    1    1    2    0    0 -0.18046613909E+02  0.45187150634E+02 -0.16900143720E+02  0.51508967314E+02  0.00000000000E+00 0. -1.
</event>
<event>
 7    1  0.2619826E-009  0.1742659E+03  0.7561462E-02  0.1173471E+00
         -2   -1    0    0    0  501 -0.00000000000E+00  0.00000000000E+00  0.52033479202E+02  0.52033479202E+02  0.00000000000E+00 0.  1.
          2   -1    0    0  501    0  0.00000000000E+00 -0.00000000000E+00 -0.65757232158E+03  0.65757232158E+03  0.00000000000E+00 0. -1.
         25    2    1    2    0    0 -0.72008750196E+02 -0.12377854540E+03 -0.23768182462E+03  0.30438082217E+03  0.12509455123E+03 0.  0.
          5    1    3    3  502    0 -0.98106346290E+02 -0.60997224429E+02 -0.10951764608E+03  0.15923914021E+03  0.41800000000E+01 0.  1.
         -5    1    3    3    0  502  0.26097596093E+02 -0.62781320969E+02 -0.12816417853E+03  0.14514168197E+03  0.41800000000E+01 0.  1.
        -11    1    1    2    0    0  0.10410091342E+01  0.82919556698E+02 -0.13551605668E+03  0.15887522841E+03  0.00000000000E+00 0.  1.
         11    1    1    2    0    0  0.70967741062E+02  0.40858988700E+02 -0.23234096108E+03  0.24634975020E+03  0.00000000000E+00 0. -1.
</event>
<event>
 7    1  0.2619826E-009  0.1320274E+03  0.7561462E-02  0.1224478E+00
          1   -1    0    0  501    0  0.00000000000E+00  0.00000000000E+00  0.47721719629E+02  0.47721719629E+02  0.00000000000E+00 0. -1.
         -1   -1    0    0    0  501 -0.00000000000E+00 -0.00000000000E+00 -0.42508948913E+03  0.42508948913E+03  0.00000000000E+00 0.  1.
         25    2    1    2    0    0 -0.41851908127E+01  0.79747368030E+02 -0.12905303676E+03  0.19667223064E+03  0.12509245172E+03 0.  0.
          5    1    3    3  502    0 -0.51312027582E+02 -0.80009426629E+00 -0.67111516988E+02  0.84587188379E+02  0.41800000000E+01 0.  1.
         -5    1    3    3    0  502  0.47126836769E+02  0.80547462296E+02 -0.61941519774E+02  0.11208504226E+03  0.41800000000E+01 0.  1.
        -11    1    1    2    0    0 -0.35181820966E+02 -0.61894136001E+01 -0.96670852933E+02  0.10305980387E+03  0.00000000000E+00 0.  1.
         11    1    1    2    0    0  0.39367011779E+02 -0.73557954430E+02 -0.15164387980E+03  0.17307917425E+03  0.00000000000E+00 0. -1.
</event>
<event>
 7    1  0.2619826E-009  0.1340262E+03  0.7561462E-02  0.1221601E+00
         -1   -1    0    0    0  501 -0.00000000000E+00  0.00000000000E+00  0.21618512497E+02  0.21618512497E+02  0.00000000000E+00 0.  1.
          1   -1    0    0  501    0  0.00000000000E+00 -0.00000000000E+00 -0.97731850436E+03  0.97731850436E+03  0.00000000000E+00 0. -1.
         25    2    1    2    0    0 -0.17465910361E+02 -0.83598502877E+02 -0.36662237263E+03  0.39667751771E+03  0.12508925307E+03 0.  0.
          5    1    3    3  502    0 -0.59603727421E+02 -0.26171925082E+01 -0.13354941169E+03  0.14632966816E+03  0.41800000000E+01 0.  1.
         -5    1    3    3    0  502  0.42137817059E+02 -0.80981310369E+02 -0.23307296094E+03  0.25034784955E+03  0.41800000000E+01 0.  1.
        -11    1    1    2    0    0 -0.66124425752E+01 -0.14454321423E+02 -0.28239673798E+02  0.32405724507E+02  0.00000000000E+00 0.  1.
         11    1    1    2    0    0  0.24078352936E+02  0.98052824301E+02 -0.56083794544E+03  0.56985377464E+03  0.00000000000E+00 0. -1.
</event>
<event>
 7    1  0.2619826E-009  0.7827179E+02  0.7561462E-02  0.1334029E+00
          1   -1    0    0  501    0  0.00000000000E+00  0.00000000000E+00  0.67065255461E+03  0.67065255461E+03  0.00000000000E+00 0. -1.
         -1   -1    0    0    0  501 -0.00000000000E+00 -0.00000000000E+00 -0.25723135872E+02  0.25723135872E+02  0.00000000000E+00 0.  1.
         25    2    1    2    0    0 -0.35748413209E+02  0.46293798363E+02  0.44775866803E+03  0.46856859693E+03  0.12509052891E+03 0.  0.
          5    1    3    3  502    0 -0.38611361039E+02  0.32680369116E+02  0.45086619154E+03  0.45371427000E+03  0.41800000000E+01 0. -1.
         -5    1    3    3    0  502  0.28629478299E+01  0.13613429247E+02 -0.31075235164E+01  0.14854326930E+02  0.41800000000E+01 0. -1.
        -11    1    1    2    0    0  0.16976636179E+02 -0.63540176003E+02  0.62446785194E+02  0.90692674034E+02  0.00000000000E+00 0.  1.
         11    1    1    2    0    0  0.18771777030E+02  0.17246377640E+02  0.13472396552E+03  0.13711441952E+03  0.00000000000E+00 0. -1.
</event>
<event>
 7    1  0.2619826E-009  0.1353620E+03  0.7561462E-02  0.1219710E+00
          1   -1    0    0  501    0  0.00000000000E+00  0.00000000000E+00  0.92459122226E+02  0.92459122226E+02  0.00000000000E+00 0. -1.
         -1   -1    0    0    0  501 -0.00000000000E+00 -0.00000000000E+00 -0.31950937061E+03  0.31950937061E+03  0.00000000000E+00 0.  1.
         25    2    1    2    0    0  0.23859628142E+02  0.10348019521E+03 -0.21407307530E+03  0.26972619103E+03  0.12508998322E+03 0.  0.
          5    1    3    3  502    0  0.50244105991E+02  0.82553853070E+01 -0.26209999962E+02  0.57420014555E+02  0.41800000000E+01 0.  1.
         -5    1    3    3    0  502 -0.26384477849E+02  0.95224809907E+02 -0.18786307534E+03  0.21230617647E+03  0.41800000000E+01 0.  1.
        -11    1    1    2    0    0 -0.36701513969E+02 -0.10125429154E+03  0.17483412194E+02  0.10911050538E+03  0.00000000000E+00 0. -1.
         11    1    1    2    0    0  0.12841885827E+02 -0.22259036721E+01 -0.30460585283E+02  0.33131796427E+02  0.00000000000E+00 0.  1.
</event>
<event>
 7    1  0.3126026E-009  0.9955881E+02  0.7561462E-02  0.1281226E+00
          1   -1    0    0  501    0  0.00000000000E+00  0.00000000000E+00  0.42077460242E+03  0.42077460242E+03  0.00000000000E+00 0. -1.
         -1   -1    0    0    0  501 -0.00000000000E+00 -0.00000000000E+00 -0.34199441483E+02  0.34199441483E+02  0.00000000000E+00 0.  1.
         25    2    1    2    0    0  0.23209957953E+02 -0.34597263198E+00  0.13195106241E+03  0.18329577524E+03  0.12508971383E+03 0.  0.
          5    1    3    3  502    0  0.33925055457E+02 -0.53072506994E+02  0.34601377477E+02  0.71988388715E+02  0.41800000000E+01 0. -1.
         -5    1    3    3    0  502 -0.10715097504E+02  0.52726534362E+02  0.97349684928E+02  0.11130738653E+03  0.41800000000E+01 0. -1.
        -11    1    1    2    0    0  0.34195953859E+01 -0.36445908231E+02  0.49377092575E+02  0.61466211292E+02  0.00000000000E+00 0.  1.
         11    1    1    2    0    0 -0.26629553339E+02  0.36791880863E+02  0.20524700595E+03  0.21021205736E+03  0.00000000000E+00 0. -1.
</event>
<event>
 7    1  0.2619826E-009  0.1594435E+03  0.7561462E-02  0.1189326E+00
         -2   -1    0    0    0  501 -0.00000000000E+00  0.00000000000E+00  0.11385669865E+03  0.11385669865E+03  0.00000000000E+00 0. -1.
          2   -1    0    0  501    0  0.00000000000E+00 -0.00000000000E+00 -0.26042415461E+03  0.26042415461E+03  0.00000000000E+00 0.  1.
         25    2    1    2    0    0  0.14843919350E+02 -0.13158230581E+03 -0.87316105246E+02  0.20200388323E+03  0.12508885427E+03 0.  0.
          5    1    3    3  502    0  0.58090109594E+02 -0.99033683980E+02 -0.92459703586E+02  0.14747338940E+03  0.41800000000E+01 0. -1.
         -5    1    3    3    0  502 -0.43246190244E+02 -0.32548621827E+02  0.51435983395E+01  0.54530493830E+02  0.41800000000E+01 0. -1.
        -11    1    1    2    0    0 -0.42366705900E+02  0.64152182998E+02 -0.62933372892E+02  0.99353156849E+02  0.00000000000E+00 0.  1.
         11    1    1    2    0    0  0.27522786550E+02  0.67430122809E+02  0.36820221761E+01  0.72923813181E+02  0.00000000000E+00 0. -1.
</event>
<event>
 7    1  0.2619826E-009  0.1285468E+03  0.7561462E-02  0.1229628E+00
          1   -1    0    0  501    0  0.00000000000E+00  0.00000000000E+00  0.11081527764E+04  0.11081527764E+04  0.00000000000E+00 0. -1.
         -1   -1    0    0    0  501 -0.00000000000E+00 -0.00000000000E+00 -0.22206212200E+02  0.22206212200E+02  0.00000000000E+00 0.  1.
         25    2    1    2    0    0  0.76689180798E+02 -0.67966837078E+02  0.42185168764E+03  0.45178126857E+03  0.12508695726E+03 0.  0.
          5    1    3    3  502    0  0.74498022828E+02 -0.26616163091E+02  0.10159145564E+03  0.12882807071E+03  0.41800000000E+01 0.  1.
         -5    1    3    3    0  502  0.21911579699E+01 -0.41350673987E+02  0.32026023200E+03  0.32295319786E+03  0.41800000000E+01 0.  1.
        -11    1    1    2    0    0 -0.85670596433E+02  0.20692289959E+02  0.49430603283E+03  0.50210165908E+03  0.00000000000E+00 0.  1.
         11    1    1    2    0    0  0.89814156347E+01  0.47274547119E+02  0.16978884371E+03  0.17647606093E+03  0.00000000000E+00 0. -1.
</event>
<event>
 7    1  0.2619826E-009  0.1048026E+03  0.7561462E-02  0.1270509E+00
          2   -1    0    0  501    0  0.00000000000E+00  0.00000000000E+00  0.50479042995E+03  0.50479042995E+03  0.00000000000E+00 0. -1.
         -2   -1    0    0    0  501 -0.00000000000E+00 -0.00000000000E+00 -0.34529786324E+02  0.34529786324E+02  0.00000000000E+00 0.  1.
         25    2    1    2    0    0 -0.69175051436E+02  0.48318484806E+02  0.27491848258E+03  0.31360403215E+03  0.12508978057E+03 0.  0.
          5    1    3    3  502    0  0.44209436692E+01  0.26596400452E+02  0.21347652113E+03  0.21521294276E+03  0.41800000000E+01 0.  1.
         -5    1    3    3    0  502 -0.73595995105E+02  0.21722084353E+02  0.61441961449E+02  0.98391089387E+02  0.41800000000E+01 0.  1.
        -11    1    1    2    0    0  0.69240643886E+02 -0.61308935713E+02  0.13274131870E+03  0.16178167404E+03  0.00000000000E+00 0.  1.
         11    1    1    2    0    0 -0.65592450027E-01  0.12990450907E+02  0.62600842343E+02  0.63934510080E+02  0.00000000000E+00 0. -1.
</event>
<event>
 7    1  0.2619826E-009  0.1035332E+03  0.7561462E-02  0.1273037E+00
         -2   -1    0    0    0  501 -0.00000000000E+00  0.00000000000E+00  0.24352544552E+02  0.24352544552E+02  0.00000000000E+00 0.  1.
          2   -1    0    0  501    0  0.00000000000E+00 -0.00000000000E+00 -0.67035448677E+03  0.67035448677E+03  0.00000000000E+00 0. -1.
         25    2    1    2    0    0 -0.15866171669E+02  0.52964503847E+02 -0.45958579016E+03  0.47950502992E+03  0.12509596767E+03 0.  0.
          5    1    3    3  502    0 -0.55461295342E+02 -0.80989112307E+01 -0.28187611011E+03  0.28742505371E+03  0.41800000000E+01 0. -1.
         -5    1    3    3    0  502  0.39595123673E+02  0.61063415077E+02 -0.17770968004E+03  0.19207997621E+03  0.41800000000E+01 0. -1.
        -11    1    1    2    0    0 -0.86700589631E+01 -0.52718525933E+02 -0.18274095137E+03  0.19039083015E+03  0.00000000000E+00 0. -1.
         11    1    1    2    0    0  0.24536230633E+02 -0.24597791367E+00 -0.36752006894E+01  0.24811171252E+02  0.00000000000E+00 0.  1.
</event>
<event>
 7    1  0.2924442E-009  0.7788421E+02  0.7561462E-02  0.1335165E+00
          4   -1    0    0  501    0  0.00000000000E+00  0.00000000000E+00  0.29627639324E+03  0.29627639324E+03  0.00000000000E+00 0. -1.
         -4   -1    0    0    0  501 -0.00000000000E+00 -0.00000000000E+00 -0.53375282672E+02  0.53375282672E+02  0.00000000000E+00 0.  1.
         25    2    1    2    0    0 -0.25661705222E+02  0.57084175640E+02  0.14471607032E+03  0.20126405151E+03  0.12508937284E+03 0.  0.
          5    1    3    3  502    0  0.13056331450E+02  0.27618882740E+02 -0.14971306844E+02  0.34276564929E+02  0.41800000000E+01 0. -1.
         -5    1    3    3    0  502 -0.38718036672E+02  0.29465292900E+02  0.15968737716E+03  0.16698748658E+03  0.41800000000E+01 0. -1.
        -11    1    1    2    0    0 -0.73635143302E+01 -0.36388857333E+02 -0.55812382375E+01  0.37543581363E+02  0.00000000000E+00 0.  1.
         11    1    1    2    0    0  0.33025219552E+02 -0.20695318307E+02  0.10376627849E+03  0.11084404304E+03  0.00000000000E+00 0. -1.
</event>
<event>
 7    1  0.2619826E-009  0.1226184E+03  0.7561462E-02  0.1238839E+00
         -1   -1    0    0    0  501 -0.00000000000E+00  0.00000000000E+00  0.56280292136E+02  0.56280292136E+02  0.00000000000E+00 0.  1.
          1   -1    0    0  501    0  0.00000000000E+00 -0.00000000000E+00 -0.74627867435E+03  0.74627867435E+03  0.00000000000E+00 0. -1.
         25    2    1    2    0    0 -0.11003144609E+03  0.12230786125E+02 -0.59488917139E+03  0.61789699504E+03  0.12508820482E+03 0.  0.
          5    1    3    3  502    0 -0.83248294108E+01 -0.11820706353E+02 -0.12368549026E+01  0.15100797775E+02  0.41800000000E+01 0. -1.
         -5    1    3    3    0  502 -0.10170661668E+03  0.24051492477E+02 -0.59365231648E+03  0.60279619726E+03  0.41800000000E+01 0. -1.
        -11    1    1    2    0    0 -0.47474810150E+01 -0.96829707387E+01  0.19598999004E+02  0.22370052755E+02  0.00000000000E+00 0.  1.
         11    1    1    2    0    0  0.11477892711E+03 -0.25478153858E+01 -0.11470820983E+03  0.16229191870E+03  0.00000000000E+00 0. -1.
</event>
<event>
 7    1  0.2619826E-009  0.1460464E+03  0.7561462E-02  0.1205417E+00
          1   -1    0    0  501    0  0.00000000000E+00  0.00000000000E+00  0.31060792960E+03  0.31060792960E+03  0.00000000000E+00 0. -1.
         -1   -1    0    0    0  501 -0.00000000000E+00 -0.00000000000E+00 -0.80570645472E+02  0.80570645472E+02  0.00000000000E+00 0.  1.
         25    2    1    2    0    0 -0.11303381548E+03 -0.16679895922E+02  0.10958326289E+03  0.20176894088E+03  0.12508937456E+03 0.  0.
          5    1    3    3  502    0 -0.81929250224E+02  0.32358134746E+02  0.11312873474E+03  0.14344000122E+03  0.41800000000E+01 0. -1.
         -5    1    3    3    0  502 -0.31104565259E+02 -0.49038030668E+02 -0.35454718475E+01  0.58328939664E+02  0.41800000000E+01 0. -1.
        -11    1    1    2    0    0  0.51035645240E+02 -0.37513670005E+02  0.60098749821E+02  0.87314215637E+02  0.00000000000E+00 0. -1.
         11    1    1    2    0    0  0.61998170243E+02  0.54193565926E+02  0.60355271416E+02  0.10209541855E+03  0.00000000000E+00 0.  1.
</event>
<event>
 7    1  0.2619826E-009  0.1130767E+03  0.7561462E-02  0.1254976E+00
          2   -1    0    0  501    0  0.00000000000E+00  0.00000000000E+00  0.60483021910E+03  0.60483021910E+03  0.00000000000E+00 0. -1.
         -2   -1    0    0    0  501 -0.00000000000E+00 -0.00000000000E+00 -0.34706113854E+02  0.34706113854E+02  0.00000000000E+00 0.  1.
         25    2    1    2    0    0  0.53060723821E+02 -0.76779685658E+02  0.34724883737E+03  0.38070894384E+03  0.12508790637E+03 0.  0.
          5    1    3    3  502    0  0.29138285179E+02 -0.75747863009E+02  0.85966065995E+02  0.11829799371E+03  0.41800000000E+01 0. -1.
         -5    1    3    3    0  502  0.23922438642E+02 -0.10318226488E+01  0.26128277138E+03  0.26241095013E+03  0.41800000000E+01 0. -1.
        -11    1    1    2    0    0 -0.21889771280E+02 -0.13057727930E+02  0.13438958861E+02  0.28814440141E+02  0.00000000000E+00 0. -1.
         11    1    1    2    0    0 -0.31170952540E+02  0.89837413588E+02  0.20943630901E+03  0.23001294897E+03  0.00000000000E+00 0.  1.
</event>
<event>
 7    1  0.2619826E-009  0.7912433E+02  0.7561462E-02  0.1331555E+00
          1   -1    0    0  501    0  0.00000000000E+00  0.00000000000E+00  0.23800988563E+02  0.23800988563E+02  0.00000000000E+00 0. -1.
         -1   -1    0    0    0  501 -0.00000000000E+00 -0.00000000000E+00 -0.54182528880E+03  0.54182528880E+03  0.00000000000E+00 0.  1.
         25    2    1    2    0    0  0.85877977752E+01  0.70892568984E+01 -0.20932096558E+03  0.24411137788E+03  0.12510431785E+03 0.  0.
          5    1    3    3  502    0 -0.31079337300E+02  0.15523274750E+02 -0.19900494426E+03  0.20205775785E+03  0.41800000000E+01 0.  1.
         -5    1    3    3    0  502  0.39667135075E+02 -0.84340178518E+01 -0.10316021322E+02  0.42053620036E+02  0.41800000000E+01 0.  1.
        -11    1    1    2    0    0 -0.44787200781E+02 -0.10885436351E+02 -0.23301318192E+03  0.23752795420E+03  0.00000000000E+00 0. -1.
         11    1    1    2    0    0  0.36199403006E+02  0.37961794522E+01 -0.75690152731E+02  0.83986945276E+02  0.00000000000E+00 0.  1.
</event>
<event>
 7    1  0.2619826E-009  0.1508747E+03  0.7561462E-02  0.1199402E+00
          2   -1    0    0  501    0  0.00000000000E+00  0.00000000000E+00  0.60102850966E+03  0.60102850966E+03  0.00000000000E+00 0. -1.
         -2   -1    0    0    0  501 -0.00000000000E+00 -0.00000000000E+00 -0.77589527239E+02  0.77589527239E+02  0.00000000000E+00 0.  1.
         25    2    1    2    0    0 -0.70742356126E+02  0.83979411552E+02  0.34636445569E+02  0.17001095078E+03  0.12508803903E+03 0.  0.
          5    1    3    3  502    0 -0.18700824655E+02  0.10460958240E+03  0.39987118920E+02  0.11361922220E+03  0.41800000000E+01 0. -1.
         -5    1    3    3    0  502 -0.52041531471E+02 -0.20630170853E+02 -0.53506733509E+01  0.56391728583E+02  0.41800000000E+01 0. -1.
        -11    1    1    2    0    0 -0.17164374392E+02 -0.34134238486E+02  0.16679055045E+03  0.17111063586E+03  0.00000000000E+00 0.  1.
         11    1    1    2    0    0  0.87906730518E+02 -0.49845173066E+02  0.32201198640E+03  0.33749645026E+03  0.00000000000E+00 0. -1.
</event>
<event>
 7    1  0.2619826E-009  0.2195725E+03  0.7561462E-02  0.1134202E+00
         -2   -1    0    0    0  501 -0.00000000000E+00  0.00000000000E+00  0.25649566415E+03  0.25649566415E+03  0.00000000000E+00 0.  1.
          2   -1    0    0  501    0  0.00000000000E+00 -0.00000000000E+00 -0.28889123121E+03  0.28889123121E+03  0.00000000000E+00 0. -1.
         25    2    1    2    0    0  0.23680868248E+02 -0.19632360422E+03 -0.16902567349E+03  0.28865281931E+03  0.12508809176E+03 0.  0.
          5    1    3    3  502    0  0.45492143122E+02 -0.16170929883E+02 -0.59167445457E+02  0.76480671160E+02  0.41800000000E+01 0. -1.
         -5    1    3    3    0  502 -0.21811274874E+02 -0.18015267434E+03 -0.10985822803E+03  0.21217214815E+03  0.41800000000E+01 0. -1.
        -11    1    1    2    0    0 -0.47910783009E+02  0.13298757065E+03  0.12340683622E+03  0.18764430261E+03  0.00000000000E+00 0.  1.
         11    1    1    2    0    0  0.24229914761E+02  0.63336033572E+02  0.13223270211E+02  0.69089773433E+02  0.00000000000E+00 0. -1.
</event>
<event>
 7    1  0.2619826E-009  0.1116595E+03  0.7561462E-02  0.1257527E+00
          2   -1    0    0  501    0  0.00000000000E+00  0.00000000000E+00  0.34100009245E+03  0.34100009245E+03  0.00000000000E+00 0. -1.
         -2   -1    0    0    0  501 -0.00000000000E+00 -0.00000000000E+00 -0.52952165201E+02  0.52952165201E+02  0.00000000000E+00 0.  1.
         25    2    1    2    0    0  0.80673271218E+02 -0.44527159903E+01  0.15100834920E+03  0.21210884566E+03  0.12513447771E+03 0.  0.
          5    1    3    3  502    0  0.65844921379E+02 -0.57236999944E+02  0.12169766854E+03  0.14979793978E+03  0.41800000000E+01 0.  1.
         -5    1    3    3    0  502  0.14828349839E+02  0.52784283954E+02  0.29310680655E+02  0.62310905883E+02  0.41800000000E+01 0.  1.
        -11    1    1    2    0    0 -0.46133362405E+02 -0.21362490125E+00  0.63292106380E+01  0.46565992631E+02  0.00000000000E+00 0.  1.
         11    1    1    2    0    0 -0.34539908813E+02  0.46663408916E+01  0.13071036742E+03  0.13527741936E+03  0.00000000000E+00 0. -1.
</event>
<event>
 7    1  0.2619826E-009  0.1578885E+03  0.7561462E-02  0.1191101E+00
          2   -1    0    0  501    0  0.00000000000E+00  0.00000000000E+00  0.12956403755E+04  0.12956403755E+04  0.00000000000E+00 0.  1.
         -2   -1    0    0    0  501 -0.00000000000E+00 -0.00000000000E+00 -0.21533826438E+02  0.21533826438E+02  0.00000000000E+00 0. -1.
         25    2    1    2    0    0  0.54825983925E+02  0.11459581522E+03  0.65894186280E+03  0.68263439884E+03  0.12508898657E+03 0.  0.
          5    1    3    3  502    0 -0.32262845644E+02  0.47857223376E+02  0.35020947423E+03  0.35495824159E+03  0.41800000000E+01 0.  1.
         -5    1    3    3    0  502  0.87088829570E+02  0.66738591843E+02  0.30873238857E+03  0.32767615725E+03  0.41800000000E+01 0.  1.
        -11    1    1    2    0    0  0.10982933744E+02  0.46365344967E+01  0.15226780188E+02  0.19338488065E+02  0.00000000000E+00 0. -1.
         11    1    1    2    0    0 -0.65808917669E+02 -0.11923234972E+03  0.59993790606E+03  0.61520131502E+03  0.00000000000E+00 0.  1.
</event>
<event>
 7    1  0.3478665E-009  0.1057699E+03  0.7561462E-02  0.1268610E+00
         -2   -1    0    0    0  501 -0.00000000000E+00  0.00000000000E+00  0.29327978972E+02  0.29327978972E+02  0.00000000000E+00 0. -1.
          2   -1    0    0  501    0  0.00000000000E+00 -0.00000000000E+00 -0.67339202954E+03  0.67339202954E+03  0.00000000000E+00 0.  1.
         25    2    1    2    0    0 -0.22111980473E+02 -0.58704725209E+02 -0.51134339770E+03  0.53014516429E+03  0.12508653167E+03 0.  0.
          5    1    3    3  502    0  0.36751057072E+02 -0.66803627321E+02 -0.22292658913E+03  0.23564189220E+03  0.41800000000E+01 0.  1.
         -5    1    3    3    0  502 -0.58863037544E+02  0.80989021123E+01 -0.28841680857E+03  0.29450327209E+03  0.41800000000E+01 0.  1.
        -11    1    1    2    0    0  0.34856028084E+02  0.44630456078E+02 -0.14093569756E+03  0.15188710001E+03  0.00000000000E+00 0.  1.
         11    1    1    2    0    0 -0.12744047611E+02  0.14074269131E+02  0.82150446943E+01  0.20687744208E+02  0.00000000000E+00 0. -1.
</event>
<event>
 7    1  0.2619826E-009  0.9753831E+02  0.7561462E-02  0.1285559E+00
         -2   -1    0    0    0  501 -0.00000000000E+00  0.00000000000E+00  0.37811198202E+02  0.37811198202E+02  0.00000000000E+00 0.  1.
          2   -1    0    0  501    0  0.00000000000E+00 -0.00000000000E+00 -0.32699988098E+03  0.32699988098E+03  0.00000000000E+00 0. -1.
         25    2    1    2    0    0  0.16210399561E+02  0.20765370787E+02 -0.16584086577E+03  0.20939194361E+03  0.12509122916E+03 0.  0.
          5    1    3    3  502    0 -0.48758728277E+02  0.23051660609E+02 -0.11383889544E+03  0.12603792745E+03  0.41800000000E+01 0. -1.
         -5    1    3    3    0  502  0.64969127838E+02 -0.22862898219E+01 -0.52001970330E+02  0.83354016169E+02  0.41800000000E+01 0. -1.
        -11    1    1    2    0    0 -0.34015909026E+02  0.13995294401E+02 -0.10688255932E+03  0.11303464875E+03  0.00000000000E+00 0. -1.
         11    1    1    2    0    0  0.17805509465E+02 -0.34760665189E+02 -0.16465257690E+02  0.42384486814E+02  0.00000000000E+00 0.  1.
</event>
<event>
 7    1  0.3379298E-009  0.9244612E+02  0.7561462E-02  0.1297034E+00
          2   -1    0    0  501    0  0.00000000000E+00  0.00000000000E+00  0.54063650812E+03  0.54063650812E+03  0.00000000000E+00 0.  1.
         -2   -1    0    0    0  501 -0.00000000000E+00 -0.00000000000E+00 -0.26410616079E+02  0.26410616079E+02  0.00000000000E+00 0. -1.
         25    2    1    2    0    0 -0.11361717809E+02  0.42865421374E+02  0.35002065977E+03  0.37433743257E+03  0.12509004029E+03 0.  0.
          5    1    3    3  502    0 -0.52581184180E+02  0.24635066624E+01  0.66215468927E+02  0.84692446653E+02  0.41800000000E+01 0.  1.
         -5    1    3    3    0  502  0.41219466370E+02  0.40401914712E+02  0.28380519084E+03  0.28964498592E+03  0.41800000000E+01 0.  1.
        -11    1    1    2    0    0 -0.21695509579E+02 -0.21923358172E+01  0.15983418080E+01  0.21864495621E+02  0.00000000000E+00 0. -1.
         11    1    1    2    0    0  0.33057227388E+02 -0.40673085557E+02  0.16260689047E+03  0.17084519601E+03  0.00000000000E+00 0.  1.
</event>
<event>
 7    1  0.2619826E-009  0.1006217E+03  0.7561462E-02  0.1278994E+00
          4   -1    0    0  501    0  0.00000000000E+00  0.00000000000E+00  0.92600918634E+01  0.92600918634E+01  0.00000000000E+00 0. -1.
         -4   -1    0    0    0  501 -0.00000000000E+00 -0.00000000000E+00 -0.16517144448E+04  0.16517144448E+04  0.00000000000E+00 0.  1.
         25    2    1    2    0    0  0.44818580386E+02  0.36498167321E+02 -0.10362625646E+04  0.10453844521E+04  0.12509088080E+03 0.  0.
          5    1    3    3  502    0 -0.20708413253E+02  0.11590065642E+02 -0.40339041007E+02  0.46988069022E+02  0.41800000000E+01 0.  1.
         -5    1    3    3    0  502  0.65526993639E+02  0.24908101680E+02 -0.99592352363E+03  0.99839638308E+03  0.41800000000E+01 0.  1.
        -11    1    1    2    0    0 -0.47371069456E+02  0.19236594252E+02 -0.26952740870E+03  0.27433390024E+03  0.00000000000E+00 0.  1.
         11    1    1    2    0    0  0.25524890697E+01 -0.55734761573E+02 -0.33666437957E+03  0.34125618429E+03  0.00000000000E+00 0. -1.
</event>
<event>
 7    1  0.2619826E-009  0.8439123E+02  0.7561462E-02  0.1317032E+00
         -1   -1    0    0    0  501 -0.00000000000E+00  0.00000000000E+00  0.44286014366E+02  0.44286014366E+02  0.00000000000E+00 0.  1.
          1   -1    0    0  501    0  0.00000000000E+00 -0.00000000000E+00 -0.31386636300E+03  0.31386636300E+03  0.00000000000E+00 0. -1.
         25    2    1    2    0    0 -0.18889009101E+02  0.15833636654E+02 -0.21895564123E+03  0.25336644516E+03  0.12508190914E+03 0.  0.
          5    1    3    3  502    0  0.30884913674E+02 -0.13840825021E+02 -0.86477732894E+01  0.35180999314E+02  0.41800000000E+01 0. -1.
         -5    1    3    3    0  502 -0.49773922775E+02  0.29674461675E+02 -0.21030786794E+03  0.21818544585E+03  0.41800000000E+01 0. -1.
        -11    1    1    2    0    0 -0.20066355453E+02  0.16481922501E+02 -0.47427012647E+02  0.54070638234E+02  0.00000000000E+00 0. -1.
         11    1    1    2    0    0  0.38955364554E+02 -0.32315559155E+02 -0.31976947660E+01  0.50715293974E+02  0.00000000000E+00 0.  1.
</event>
<event>
 7    1  0.2619826E-009  0.1176305E+03  0.7561462E-02  0.1247058E+00
          1   -1    0    0  501    0  0.00000000000E+00  0.00000000000E+00  0.32913477569E+03  0.32913477569E+03  0.00000000000E+00 0. -1.
         -1   -1    0    0    0  501 -0.00000000000E+00 -0.00000000000E+00 -0.49861800862E+02  0.49861800862E+02  0.00000000000E+00 0.  1.
         25    2    1    2    0    0  0.32020403076E+02  0.55025169254E+02  0.12058404457E+03  0.18504211474E+03  0.12508795689E+03 0.  0.
          5    1    3    3  502    0  0.71326899821E+02  0.66108419480E+02  0.98259158200E+02  0.13831190959E+03  0.41800000000E+01 0.  1.
         -5    1    3    3    0  502 -0.39306496745E+02 -0.11083250226E+02  0.22324886372E+02  0.46730205151E+02  0.41800000000E+01 0.  1.
        -11    1    1    2    0    0 -0.18489145546E+02 -0.72469045621E+02  0.69581015932E+02  0.10215247845E+03  0.00000000000E+00 0.  1.
         11    1    1    2    0    0 -0.13531257530E+02  0.17443876367E+02  0.89107914325E+02  0.91801983358E+02  0.00000000000E+00 0. -1.
</event>
<event>
 7    1  0.2619826E-009  0.1315001E+03  0.7561462E-02  0.1225247E+00
         -2   -1    0    0    0  501 -0.00000000000E+00  0.00000000000E+00  0.46515611193E+03  0.46515611193E+03  0.00000000000E+00 0.  1.
          2   -1    0    0  501    0  0.00000000000E+00 -0.00000000000E+00 -0.46394916270E+02  0.46394916270E+02  0.00000000000E+00 0. -1.
         25    2    1    2    0    0  0.92871042143E+02  0.12516136561E+01  0.16738949278E+03  0.22867716566E+03  0.12508959507E+03 0.  0.
          5    1    3    3  502    0  0.92705494809E+02 -0.33421564763E+02  0.59305983941E+02  0.11509118946E+03  0.41800000000E+01 0. -1.
         -5    1    3    3    0  502  0.16554733365E+00  0.34673178419E+02  0.10808350884E+03  0.11358597620E+03  0.41800000000E+01 0. -1.
        -11    1    1    2    0    0 -0.47367949514E+02  0.44443851806E+02  0.11669907733E+03  0.13355767763E+03  0.00000000000E+00 0. -1.
         11    1    1    2    0    0 -0.45503092629E+02 -0.45695465462E+02  0.13467262555E+03  0.14931618491E+03  0.00000000000E+00 0.  1.
</event>
<event>
 7    1  0.2619826E-009  0.1439868E+03  0.7561462E-02  0.1208063E+00
          3   -1    0    0  501    0  0.00000000000E+00  0.00000000000E+00  0.37385921950E+02  0.37385921950E+02  0.00000000000E+00 0. -1.
         -3   -1    0    0    0  501 -0.00000000000E+00 -0.00000000000E+00 -0.80778422395E+03  0.80778422395E+03  0.00000000000E+00 0.  1.
         25    2    1    2    0    0  0.11605889083E+03 -0.11122973627E+02 -0.24668892673E+03  0.30016064858E+03  0.12509037415E+03 0.  0.
          5    1    3    3  502    0  0.11052997906E+03 -0.48923784790E+02 -0.13118180776E+03  0.17842800250E+03  0.41800000000E+01 0.  1.
         -5    1    3    3    0  502  0.55289117642E+01  0.37800811163E+02 -0.11550711897E+03  0.12173264608E+03  0.41800000000E+01 0.  1.
        -11    1    1    2    0    0 -0.31970464829E+02 -0.21363309376E+02 -0.51490459278E+02  0.64263278826E+02  0.00000000000E+00 0. -1.
         11    1    1    2    0    0 -0.84088425997E+02  0.32486283003E+02 -0.47221891600E+03  0.48074621849E+03  0.00000000000E+00 0.  1.
</event>
<event>
 6    1  0.2619826E-009  0.2323730E+03  0.7561462E-02  0.1124981E+00
          2   -1    0    0  501    0  0.00000000000E+00  0.00000000000E+00  0.88236848472E+03  0.88236848472E+03  0.00000000000E+00 0. -1.
         -2   -1    0    0    0  501 -0.00000000000E+00 -0.00000000000E+00 -0.88885603411E+02  0.88885603411E+02  0.00000000000E+00 0.  1.
          5    1    1    2  502    0  0.17484089529E+03 -0.12443514403E+03  0.16181486505E+03  0.26880283980E+03  0.41800000000E+01 0. -1.
         -5    1    1    2    0  502 -0.17852865625E+02 -0.26538460536E+02  0.47403177240E+01  0.32603032233E+02  0.41800000000E+01 0. -1.
        -11    1    1    2    0    0 -0.10023741398E+03  0.99321012294E+02  0.26876288632E+03  0.30355508842E+03  0.00000000000E+00 0.  1.
         11    1    1    2    0    0 -0.56750615690E+02  0.51652592268E+02  0.35816481222E+03  0.36629312767E+03  0.00000000000E+00 0. -1.
</event>
<event>
 7    1  0.2619826E-009  0.1685709E+03  0.7561462E-02  0.1179346E+00
          2   -1    0    0  501    0  0.00000000000E+00  0.00000000000E+00  0.16366638570E+04  0.16366638570E+04  0.00000000000E+00 0. -1.
         -2   -1    0    0    0  501 -0.00000000000E+00 -0.00000000000E+00 -0.22227793576E+02  0.22227793576E+02  0.00000000000E+00 0.  1.
         25    2    1    2    0    0 -0.82090240522E+02  0.13229056147E+03  0.89452838064E+03  0.91655074001E+03  0.12507851540E+03 0.  0.
          5    1    3    3  502    0 -0.10608704526E+02  0.21030906102E+02  0.49713589365E+03  0.49771117405E+03  0.41800000000E+01 0. -1.
         -5    1    3    3    0  502 -0.71481535995E+02  0.11125965537E+03  0.39739248699E+03  0.41883956596E+03  0.41800000000E+01 0. -1.
        -11    1    1    2    0    0 -0.16566762423E+02 -0.49231297864E+02  0.19101410348E+03  0.19795091824E+03  0.00000000000E+00 0.  1.
         11    1    1    2    0    0  0.98657002945E+02 -0.83059263604E+02  0.52889357931E+03  0.54438999232E+03  0.00000000000E+00 0. -1.
</event>
<event>
 7    1  0.2619826E-009  0.1112874E+03  0.7561462E-02  0.1258204E+00
          1   -1    0    0  501    0  0.00000000000E+00  0.00000000000E+00  0.17919108661E+03  0.17919108661E+03  0.00000000000E+00 0. -1.
         -1   -1    0    0    0  501 -0.00000000000E+00 -0.00000000000E+00 -0.89429306777E+02  0.89429306777E+02  0.00000000000E+00 0.  1.
         25    2    1    2    0    0  0.15632523646E+02  0.59437975068E+02  0.12751493811E+02  0.13995564808E+03  0.12509090359E+03 0.  0.
          5    1    3    3  502    0  0.22322586547E+02  0.91679367009E+02 -0.16298413663E+02  0.95846308709E+02  0.41800000000E+01 0. -1.
         -5    1    3    3    0  502 -0.66900629011E+01 -0.32241391941E+02  0.29049907473E+02  0.44109339375E+02  0.41800000000E+01 0. -1.
        -11    1    1    2    0    0  0.27746358880E+02 -0.36539865118E+02  0.12367215905E+02  0.47518103952E+02  0.00000000000E+00 0.  1.
         11    1    1    2    0    0 -0.43378882525E+02 -0.22898109949E+02  0.64643070121E+02  0.81146641354E+02  0.00000000000E+00 0. -1.
</event>
<event>
 7    1  0.2619826E-009  0.9015648E+02  0.7561462E-02  0.1302473E+00
         -2   -1    0    0    0  501 -0.00000000000E+00  0.00000000000E+00  0.18623523218E+02  0.18623523218E+02  0.00000000000E+00 0.  1.
          2   -1    0    0  501    0  0.00000000000E+00 -0.00000000000E+00 -0.93096229179E+03  0.93096229179E+03  0.00000000000E+00 0. -1.
         25    2    1    2    0    0 -0.36820882653E+02  0.32125240640E+02 -0.71178114914E+03  0.72433965750E+03  0.12509087362E+03 0.  0.
          5    1    3    3  502    0  0.21004163376E+02 -0.25650977984E+02 -0.72382694711E+02  0.79723738274E+02  0.41800000000E+01 0. -1.
         -5    1    3    3    0  502 -0.57825046029E+02  0.57776218625E+02 -0.63939845443E+03  0.64461591922E+03  0.41800000000E+01 0. -1.
        -11    1    1    2    0    0  0.25991864614E+00 -0.28284505747E+02 -0.82613828790E+01  0.29467461210E+02  0.00000000000E+00 0.  1.
         11    1    1    2    0    0  0.36560964007E+02 -0.38407348930E+01 -0.19229623655E+03  0.19577869630E+03  0.00000000000E+00 0. -1.
</event>
<event>
 7    1  0.3113648E-009  0.2775965E+03  0.7561462E-02  0.1097009E+00
         -2   -1    0    0    0  501 -0.00000000000E+00  0.00000000000E+00  0.17541541642E+03  0.17541541642E+03  0.00000000000E+00 0.  1.
          2   -1    0    0  501    0  0.00000000000E+00 -0.00000000000E+00 -0.49046557519E+03  0.49046557519E+03  0.00000000000E+00 0. -1.
         25    2    1    2    0    0  0.17665818892E+03 -0.19756356353E+03 -0.90696976811E+02  0.30677521278E+03  0.12508242173E+03 0.  0.
          5    1    3    3  502    0 -0.16574241111E+02 -0.22811858096E+02  0.54781206349E+01  0.29027031262E+02  0.41800000000E+01 0.  1.
         -5    1    3    3    0  502  0.19323243003E+03 -0.17475170544E+03 -0.96175097446E+02  0.27774818152E+03  0.41800000000E+01 0.  1.
        -11    1    1    2    0    0 -0.84948171644E+02  0.11305192639E+03 -0.62056960329E+02  0.15442796461E+03  0.00000000000E+00 0.  1.
         11    1    1    2    0    0 -0.91710017271E+02  0.84511637139E+02 -0.16229622163E+03  0.20467781423E+03  0.00000000000E+00 0. -1.
</event>
<event>
 7    1  0.2619826E-009  0.1252273E+03  0.7561462E-02  0.1234714E+00
          4   -1    0    0  501    0  0.00000000000E+00  0.00000000000E+00  0.79308937860E+02  0.79308937860E+02  0.00000000000E+00 0. -1.
         -4   -1    0    0    0  501 -0.00000000000E+00 -0.00000000000E+00 -0.24631560219E+03  0.24631560219E+03  0.00000000000E+00 0.  1.
         25    2    1    2    0    0 -0.21513936806E+02  0.65873758223E+02 -0.15116986468E+03  0.20808901860E+03  0.12508601111E+03 0.  0.
          5    1    3    3  502    0 -0.66986449070E+02  0.55571863004E+01 -0.71243135099E+02  0.98036337025E+02  0.41800000000E+01 0. -1.
         -5    1    3    3    0  502  0.45472512264E+02  0.60316571922E+02 -0.79926729582E+02  0.11005268157E+03  0.41800000000E+01 0. -1.
        -11    1    1    2    0    0 -0.14751872411E+01 -0.80300956220E+02 -0.31416689086E+02  0.86240524699E+02  0.00000000000E+00 0.  1.
         11    1    1    2    0    0  0.22989124047E+02  0.14427197998E+02  0.15579889440E+02  0.31294996748E+02  0.00000000000E+00 0. -1.
</event>
<event>
 7    1  0.2619826E-009  0.1030509E+03  0.7561462E-02  0.1274008E+00
          2   -1    0    0  501    0  0.00000000000E+00  0.00000000000E+00  0.90161745313E+02  0.90161745313E+02  0.00000000000E+00 0.  1.
         -2   -1    0    0    0  501 -0.00000000000E+00 -0.00000000000E+00 -0.15038620964E+03  0.15038620964E+03  0.00000000000E+00 0. -1.
         25    2    1    2    0    0  0.19212744350E+02  0.38602771237E+02 -0.38278323337E+02  0.13773745589E+03  0.12508826174E+03 0.  0.
          5    1    3    3  502    0 -0.43030662340E+02  0.48714004213E+02 -0.26436374962E+01  0.65185530044E+02  0.41800000000E+01 0.  1.
         -5    1    3    3    0  502  0.62243406690E+02 -0.10111232975E+02 -0.35634685841E+02  0.72551925843E+02  0.41800000000E+01 0.  1.
        -11    1    1    2    0    0  0.21530710532E+02 -0.28636124353E+02  0.22013753033E+02  0.42050023027E+02  0.00000000000E+00 0.  1.
         11    1    1    2    0    0 -0.40743454882E+02 -0.99666468843E+01 -0.43959894021E+02  0.60760476036E+02  0.00000000000E+00 0. -1.
</event>
<event>
 7    1  0.2619826E-009  0.1236738E+03  0.7561462E-02  0.1237157E+00
          1   -1    0    0  501    0  0.00000000000E+00  0.00000000000E+00  0.42026192278E+03  0.42026192278E+03  0.00000000000E+00 0. -1.
         -1   -1    0    0    0  501 -0.00000000000E+00 -0.00000000000E+00 -0.57302190922E+02  0.57302190922E+02  0.00000000000E+00 0.  1.
         25    2    1    2    0    0 -0.89977241830E+02 -0.61179041109E+02  0.15636489753E+03  0.22789505763E+03  0.12508955590E+03 0.  0.
          5    1    3    3  502    0 -0.47604621508E+02 -0.66500863297E+02  0.19112001102E+02  0.84091056566E+02  0.41800000000E+01 0. -1.
         -5    1    3    3    0  502 -0.42372620322E+02  0.53218221885E+01  0.13725289643E+03  0.14380400106E+03  0.41800000000E+01 0. -1.
        -11    1    1    2    0    0  0.55721252614E+02  0.39645839375E+01  0.35881309113E+02  0.66393104027E+02  0.00000000000E+00 0.  1.
         11    1    1    2    0    0  0.34255989216E+02  0.57214457171E+02  0.17071352522E+03  0.18327595205E+03  0.00000000000E+00 0. -1.
</event>
<event>
 7    1  0.2941041E-009  0.2590653E+03  0.7561462E-02  0.1107706E+00
         -1   -1    0    0    0  501 -0.00000000000E+00  0.00000000000E+00  0.77105868478E+02  0.77105868478E+02  0.00000000000E+00 0.  1.
          1   -1    0    0  501    0  0.00000000000E+00 -0.00000000000E+00 -0.10047510975E+04  0.10047510975E+04  0.00000000000E+00 0. -1.
         25    2    1    2    0    0 -0.16702706490E+03 -0.18793959539E+03 -0.56823592215E+03  0.63384407487E+03  0.12508763369E+03 0.  0.
          5    1    3    3  502    0 -0.68138236335E+02 -0.34136117492E+02 -0.71806335271E+02  0.10479368279E+03  0.41800000000E+01 0.  1.
         -5    1    3    3    0  502 -0.98888828564E+02 -0.15380347789E+03 -0.49642958688E+03  0.52905039208E+03  0.41800000000E+01 0.  1.
        -11    1    1    2    0    0  0.75760865887E+02  0.13101500695E+03 -0.15270402371E+03  0.21499572020E+03  0.00000000000E+00 0.  1.
         11    1    1    2    0    0  0.91266199012E+02  0.56924588436E+02 -0.20670528313E+03  0.23301717088E+03  0.00000000000E+00 0. -1.
</event>
<event>
 7    1  0.2619826E-009  0.1066666E+03  0.7561462E-02  0.1266870E+00
          1   -1    0    0  501    0  0.00000000000E+00  0.00000000000E+00  0.59779931440E+03  0.59779931440E+03  0.00000000000E+00 0. -1.
         -1   -1    0    0    0  501 -0.00000000000E+00 -0.00000000000E+00 -0.25358246386E+02  0.25358246386E+02  0.00000000000E+00 0.  1.
         25    2    1    2    0    0  0.18719567304E+02 -0.57924776927E+02  0.32207324788E+03  0.35083360265E+03  0.12508931914E+03 0.  0.
          5    1    3    3  502    0  0.52156140094E+02 -0.48405784396E+02  0.30236388675E+03  0.31065217740E+03  0.41800000000E+01 0.  1.
         -5    1    3    3    0  502 -0.33436572790E+02 -0.95189925306E+01  0.19709361130E+02  0.40181425247E+02  0.41800000000E+01 0.  1.
        -11    1    1    2    0    0  0.24401672499E+02  0.59058929586E+02  0.15489814643E+03  0.16756143516E+03  0.00000000000E+00 0.  1.
         11    1    1    2    0    0 -0.43121239803E+02 -0.11341526587E+01  0.95469673699E+02  0.10476252298E+03  0.00000000000E+00 0. -1.
</event>
<event>
 7    1  0.2619826E-009  0.2241090E+03  0.7561462E-02  0.1130856E+00
         -2   -1    0    0    0  501 -0.00000000000E+00  0.00000000000E+00  0.71109231588E+02  0.71109231588E+02  0.00000000000E+00 0.  1.
          2   -1    0    0  501    0  0.00000000000E+00 -0.00000000000E+00 -0.86397517653E+03  0.86397517653E+03  0.00000000000E+00 0. -1.
         25    2    1    2    0    0  0.80927887054E+02  0.18550735330E+03 -0.23368460530E+03  0.33349332966E+03  0.12508798960E+03 0.  0.
          5    1    3    3  502    0  0.74223331493E+02  0.19959837877E+03 -0.23514996875E+03  0.31727211657E+03  0.41800000000E+01 0.  1.
         -5    1    3    3    0  502  0.67045555617E+01 -0.14091025472E+02  0.14653634560E+01  0.16221213092E+02  0.41800000000E+01 0.  1.
        -11    1    1    2    0    0 -0.66394992202E+02 -0.50849169034E+02 -0.26148065851E+03  0.27452881043E+03  0.00000000000E+00 0. -1.
         11    1    1    2    0    0 -0.14532894853E+02 -0.13465818426E+03 -0.29770068114E+03  0.32706226803E+03  0.00000000000E+00 0.  1.
</event>
<event>
 7    1  0.2619826E-009  0.1129643E+03  0.7561462E-02  0.1255177E+00
         -2   -1    0    0    0  501 -0.00000000000E+00  0.00000000000E+00  0.27688445303E+02  0.27688445303E+02  0.00000000000E+00 0.  1.
          2   -1    0    0  501    0  0.00000000000E+00 -0.00000000000E+00 -0.50373805178E+03  0.50373805178E+03  0.00000000000E+00 0. -1.
         25    2    1    2    0    0 -0.27175632439E+02  0.20327659740E+02 -0.19416969592E+03  0.23347971436E+03  0.12513663513E+03 0.  0.
          5    1    3    3  502    0 -0.10567150248E+02  0.73084242461E+02 -0.10406662356E+03  0.12767265055E+03  0.41800000000E+01 0. -1.
         -5    1    3    3    0  502 -0.16608482190E+02 -0.52756582721E+02 -0.90103072366E+02  0.10580706380E+03  0.41800000000E+01 0. -1.
        -11    1    1    2    0    0  0.58011367364E+02 -0.28449412318E+02 -0.19158385548E+03  0.20218571039E+03  0.00000000000E+00 0.  1.
         11    1    1    2    0    0 -0.30835734925E+02  0.81217525777E+01 -0.90296055075E+02  0.95761072338E+02  0.00000000000E+00 0. -1.
</event>
<event>
 7    1  0.2619826E-009  0.1400592E+03  0.7561462E-02  0.1213249E+00
          2   -1    0    0  501    0  0.00000000000E+00  0.00000000000E+00  0.55964157764E+03  0.55964157764E+03  0.00000000000E+00 0. -1.
         -2   -1    0    0    0  501 -0.00000000000E+00 -0.00000000000E+00 -0.49385118614E+02  0.49385118614E+02  0.00000000000E+00 0.  1.
         25    2    1    2    0    0 -0.95055755415E+02  0.12630552285E+02  0.12191983062E+03  0.19926694865E+03  0.12509094386E+03 0.  0.
          5    1    3    3  502    0 -0.23782989237E+02 -0.51829656930E+02  0.24017995831E+02  0.62018387905E+02  0.41800000000E+01 0.  1.
         -5    1    3    3    0  502 -0.71272766177E+02  0.64460209215E+02  0.97901834792E+02  0.13724856074E+03  0.41800000000E+01 0.  1.
        -11    1    1    2    0    0  0.71454212479E+02 -0.46658233069E+02  0.20998650770E+03  0.22666501408E+03  0.00000000000E+00 0. -1.
         11    1    1    2    0    0  0.23601542936E+02  0.34027680784E+02  0.17835012071E+03  0.18309473352E+03  0.00000000000E+00 0.  1.
</event>
<event>
 7    1  0.2619826E-009  0.1082867E+03  0.7561462E-02  0.1263776E+00
          1   -1    0    0  501    0  0.00000000000E+00  0.00000000000E+00  0.47373113665E+03  0.47373113665E+03  0.00000000000E+00 0. -1.
         -1   -1    0    0    0  501 -0.00000000000E+00 -0.00000000000E+00 -0.31836013164E+02  0.31836013164E+02  0.00000000000E+00 0.  1.
         25    2    1    2    0    0 -0.18824039630E+02  0.47474702452E+02  0.29503298763E+03  0.32450029728E+03  0.12509111603E+03 0.  0.
          5    1    3    3  502    0  0.43380688934E+02  0.53637831148E+02  0.11850872795E+03  0.13718852759E+03  0.41800000000E+01 0. -1.
         -5    1    3    3    0  502 -0.62204728564E+02 -0.61631286962E+01  0.17652425967E+03  0.18731176969E+03  0.41800000000E+01 0. -1.
        -11    1    1    2    0    0 -0.21119790048E+02 -0.38440773347E+02  0.12924712565E+03  0.13648647580E+03  0.00000000000E+00 0. -1.
         11    1    1    2    0    0  0.39943829678E+02 -0.90339291045E+01  0.17615010202E+02  0.44580376724E+02  0.00000000000E+00 0.  1.
</event>
<event>
 7    1  0.2619826E-009  0.1172522E+03  0.7561462E-02  0.1247700E+00
         -2   -1    0    0    0  501 -0.00000000000E+00  0.00000000000E+00  0.39787191691E+02  0.39787191691E+02  0.00000000000E+00 0.  1.
          2   -1    0    0  501    0  0.00000000000E+00 -0.00000000000E+00 -0.48891773314E+03  0.48891773314E+03  0.00000000000E+00 0. -1.
         25    2    1    2    0    0 -0.69221248285E+01  0.85637383561E+02 -0.29425773511E+03  0.33108601969E+03  0.12509460615E+03 0.  0.
          5    1    3    3  502    0  0.31690769060E+02  0.85983468846E+02 -0.11217769852E+03  0.14490952420E+03  0.41800000000E+01 0.  1.
         -5    1    3    3    0  502 -0.38612893889E+02 -0.34608528484E+00 -0.18208003659E+03  0.18617649549E+03  0.41800000000E+01 0.  1.
        -11    1    1    2    0    0  0.29347019341E+02 -0.22649987079E+02 -0.11252886340E+03  0.11847790747E+03  0.00000000000E+00 0. -1.
         11    1    1    2    0    0 -0.22424894513E+02 -0.62987396482E+02 -0.42343942938E+02  0.79140997675E+02  0.00000000000E+00 0.  1.
</event>
<event>
 7    1  0.2619826E-009  0.1261975E+03  0.7561462E-02  0.1233210E+00
          1   -1    0    0  501    0  0.00000000000E+00  0.00000000000E+00  0.51331583259E+03  0.51331583259E+03  0.00000000000E+00 0. -1.
         -1   -1    0    0    0  501 -0.00000000000E+00 -0.00000000000E+00 -0.54039594813E+02  0.54039594813E+02  0.00000000000E+00 0.  1.
         25    2    1    2    0    0 -0.70479607129E+02  0.80726693679E+02  0.35766787774E+03  0.39377064085E+03  0.12507930580E+03 0.  0.
          5    1    3    3  502    0 -0.35306830084E+02  0.15620991098E+02  0.29253492207E+03  0.29510123796E+03  0.41800000000E+01 0. -1.
         -5    1    3    3    0  502 -0.35172777045E+02  0.65105702581E+02  0.65132955668E+02  0.98669402895E+02  0.41800000000E+01 0. -1.
        -11    1    1    2    0    0 -0.16133458678E+02  0.56765157266E+01  0.53655714468E+01  0.17924861970E+02  0.00000000000E+00 0.  1.
         11    1    1    2    0    0  0.86613065807E+02 -0.86403209406E+02  0.96242788589E+02  0.15565992458E+03  0.00000000000E+00 0. -1.
</event>
<event>
 7    1  0.2619826E-009  0.9980769E+02  0.7561462E-02  0.1280701E+00
          1   -1    0    0  501    0  0.00000000000E+00  0.00000000000E+00  0.15831080433E+03  0.15831080433E+03  0.00000000000E+00 0. -1.
         -1   -1    0    0    0  501 -0.00000000000E+00 -0.00000000000E+00 -0.84982953732E+02  0.84982953732E+02  0.00000000000E+00 0.  1.
         25    2    1    2    0    0  0.11574088003E+02 -0.39052962962E+02  0.21885088503E+02  0.13335211846E+03  0.12507892297E+03 0.  0.
          5    1    3    3  502    0 -0.14344650881E+02 -0.66026001942E+02 -0.25936579554E+02  0.72494003202E+02  0.41800000000E+01 0. -1.
         -5    1    3    3    0  502  0.25918738884E+02  0.26973038980E+02  0.47821668057E+02  0.60858115259E+02  0.41800000000E+01 0. -1.
        -11    1    1    2    0    0  0.14763189064E+02  0.59267756600E+02  0.20146889913E+02  0.64315751546E+02  0.00000000000E+00 0.  1.
         11    1    1    2    0    0 -0.26337277066E+02 -0.20214793638E+02  0.31295872179E+02  0.45625888052E+02  0.00000000000E+00 0. -1.
</event>
<event>
 7    1  0.2619826E-009  0.1074711E+03  0.7561462E-02  0.1265326E+00
          1   -1    0    0  501    0  0.00000000000E+00  0.00000000000E+00  0.10676780329E+03  0.10676780329E+03  0.00000000000E+00 0. -1.
         -1   -1    0    0    0  501 -0.00000000000E+00 -0.00000000000E+00 -0.15113464646E+03  0.15113464646E+03  0.00000000000E+00 0.  1.
         25    2    1    2    0    0 -0.61438493871E+02  0.29092911432E+02 -0.29261542967E+02  0.14534562907E+03  0.12509207796E+03 0.  0.
          5    1    3    3  502    0 -0.96675896503E+02  0.79652148545E+01 -0.35899128392E+02  0.10351759962E+03  0.41800000000E+01 0.  1.
         -5    1    3    3    0  502  0.35237402632E+02  0.21127696578E+02  0.66375854251E+01  0.41828029444E+02  0.41800000000E+01 0.  1.
        -11    1    1    2    0    0  0.47013593428E+02 -0.34638820407E+01 -0.48787699787E+02  0.67841846204E+02  0.00000000000E+00 0.  1.
         11    1    1    2    0    0  0.14424900443E+02 -0.25629029391E+02  0.33682399592E+02  0.44714974478E+02  0.00000000000E+00 0. -1.
</event>
<event>
 7    1  0.2619826E-009  0.1055014E+03  0.7561462E-02  0.1269135E+00
          1   -1    0    0  501    0  0.00000000000E+00  0.00000000000E+00  0.15410206984E+02  0.15410206984E+02  0.00000000000E+00 0. -1.
         -1   -1    0    0    0  501 -0.00000000000E+00 -0.00000000000E+00 -0.12099555341E+04  0.12099555341E+04  0.00000000000E+00 0.  1.
         25    2    1    2    0    0 -0.20795423265E+02  0.83808574262E+01 -0.10099714502E+04  0.10179353467E+04  0.12508937412E+03 0.  0.
          5    1    3    3  502    0 -0.38631719576E+02  0.56373542237E+02 -0.73690400960E+03  0.74007795386E+03  0.41800000000E+01 0.  1.
         -5    1    3    3    0  502  0.17836296311E+02 -0.47992684811E+02 -0.27306744056E+03  0.27785739284E+03  0.41800000000E+01 0.  1.
        -11    1    1    2    0    0  0.45501181136E+02 -0.33060621070E+02 -0.85115954903E+02  0.10202003690E+03  0.00000000000E+00 0. -1.
         11    1    1    2    0    0 -0.24705757872E+02  0.24679763644E+02 -0.99457922006E+02  0.10541035744E+03  0.00000000000E+00 0.  1.
</event>
<event>
 7    1  0.2619826E-009  0.1156264E+03  0.7561462E-02  0.1250492E+00
          1   -1    0    0  501    0  0.00000000000E+00  0.00000000000E+00  0.23275251289E+03  0.23275251289E+03  0.00000000000E+00 0. -1.
         -1   -1    0    0    0  501 -0.00000000000E+00 -0.00000000000E+00 -0.68554975940E+02  0.68554975940E+02  0.00000000000E+00 0.  1.
         25    2    1    2    0    0 -0.44024357113E+02  0.29530596082E+02  0.48068745731E+02  0.14411305250E+03  0.12509103669E+03 0.  0.
          5    1    3    3  502    0 -0.47529479013E+02 -0.39420116470E+02  0.41755902257E+02  0.74659391446E+02  0.41800000000E+01 0. -1.
         -5    1    3    3    0  502  0.35051218999E+01  0.68950712551E+02  0.63128434740E+01  0.69453661053E+02  0.41800000000E+01 0. -1.
        -11    1    1    2    0    0  0.38446529860E+02  0.24688306977E+02  0.28046286741E+02  0.53611960976E+02  0.00000000000E+00 0.  1.
         11    1    1    2    0    0  0.55778272531E+01 -0.54218903059E+02  0.88082504479E+02  0.10358247536E+03  0.00000000000E+00 0. -1.
</event>
<event>
 7    1  0.2776360E-009  0.8299587E+02  0.7561462E-02  0.1320758E+00
          2   -1    0    0  501    0  0.00000000000E+00  0.00000000000E+00  0.44956685468E+03  0.44956685468E+03  0.00000000000E+00 0. -1.
         -2   -1    0    0    0  501 -0.00000000000E+00 -0.00000000000E+00 -0.55610461321E+02  0.55610461321E+02  0.00000000000E+00 0.  1.
         25    2    1    2    0    0  0.38761561121E+02  0.72033460363E+02  0.33955792680E+03  0.37099633765E+03  0.12508964329E+03 0.  0.
          5    1    3    3  502    0  0.21301858248E+02  0.34296592474E+02  0.14254462482E+02  0.43019617860E+02  0.41800000000E+01 0. -1.
         -5    1    3    3    0  502  0.17459702873E+02  0.37736867889E+02  0.32530346432E+03  0.32797671979E+03  0.41800000000E+01 0. -1.
        -11    1    1    2    0    0 -0.24844325592E+02 -0.60957295844E+02  0.79627076941E+02  0.10331265079E+03  0.00000000000E+00 0. -1.
         11    1    1    2    0    0 -0.13917235529E+02 -0.11076164519E+02 -0.25228610381E+02  0.30868327570E+02  0.00000000000E+00 0.  1.
</event>
<event>
 7    1  0.2619826E-009  0.1203078E+03  0.7561462E-02  0.1242590E+00
         -2   -1    0    0    0  501 -0.00000000000E+00  0.00000000000E+00  0.17668425057E+03  0.17668425057E+03  0.00000000000E+00 0.  1.
          2   -1    0    0  501    0  0.00000000000E+00 -0.00000000000E+00 -0.83652671068E+02  0.83652671068E+02  0.00000000000E+00 0. -1.
         25    2    1    2    0    0 -0.42504801457E+02  0.21123034714E+02  0.37450935956E+02  0.13893664734E+03  0.12509188074E+03 0.  0.
          5    1    3    3  502    0 -0.21869941391E+02 -0.52508244949E+02  0.19533803153E+02  0.60286416295E+02  0.41800000000E+01 0.  1.
         -5    1    3    3    0  502 -0.20634860066E+02  0.73631279664E+02  0.17917132802E+02  0.78650231040E+02  0.41800000000E+01 0.  1.
        -11    1    1    2    0    0  0.47454533384E+02  0.29669586552E+02  0.36993610004E+02  0.67087586676E+02  0.00000000000E+00 0.  1.
         11    1    1    2    0    0 -0.49497319265E+01 -0.50792621266E+02  0.18587033541E+02  0.54312687625E+02  0.00000000000E+00 0. -1.
</event>
<event>
 7    1  0.2619826E-009  0.1169290E+03  0.7561462E-02  0.1248251E+00
         -2   -1    0    0    0  501 -0.00000000000E+00  0.00000000000E+00  0.29408030109E+03  0.29408030109E+03  0.00000000000E+00 0.  1.
          2   -1    0    0  501    0  0.00000000000E+00 -0.00000000000E+00 -0.11272141769E+03  0.11272141769E+03  0.00000000000E+00 0. -1.
         25    2    1    2    0    0  0.95643120054E+02  0.62804877429E+02 -0.59951444898E+01  0.16963305646E+03  0.12508946016E+03 0.  0.
          5    1    3    3  502    0  0.72487891257E+02  0.29061499071E+02 -0.62238726133E+02  0.99950970669E+02  0.41800000000E+01 0. -1.
         -5    1    3    3    0  502  0.23155228798E+02  0.33743378357E+02  0.56243581643E+02  0.69682085787E+02  0.41800000000E+01 0. -1.
        -11    1    1    2    0    0 -0.81659995706E+02 -0.51628393054E+02  0.19506383870E+03  0.21767808121E+03  0.00000000000E+00 0.  1.
         11    1    1    2    0    0 -0.13983124349E+02 -0.11176484375E+02 -0.77098108075E+01  0.19490581115E+02  0.00000000000E+00 0. -1.
</event>
<event>
 7    1  0.2619826E-009  0.1226987E+03  0.7561462E-02  0.1238710E+00
         -2   -1    0    0    0  501 -0.00000000000E+00  0.00000000000E+00  0.30429445031E+03  0.30429445031E+03  0.00000000000E+00 0.  1.
          2   -1    0    0  501    0  0.00000000000E+00 -0.00000000000E+00 -0.59911368559E+02  0.59911368559E+02  0.00000000000E+00 0. -1.
         25    2    1    2    0    0 -0.18868334082E+02  0.77077267873E+02  0.12432307234E+03  0.19339464326E+03  0.12509333503E+03 0.  0.
          5    1    3    3  502    0 -0.40923082693E+02 -0.33343282899E+01 -0.27365706938E+01  0.41361548102E+02  0.41800000000E+01 0. -1.
         -5    1    3    3    0  502  0.22054748611E+02  0.80411596163E+02  0.12705964304E+03  0.15203309515E+03  0.41800000000E+01 0. -1.
        -11    1    1    2    0    0  0.93139068273E+01 -0.97578632299E+02  0.89074486633E+02  0.13244849003E+03  0.00000000000E+00 0.  1.
         11    1    1    2    0    0  0.95544272548E+01  0.20501364426E+02  0.30985522772E+02  0.38362685580E+02  0.00000000000E+00 0. -1.
</event>
<event>
 7    1  0.2619826E-009  0.1425145E+03  0.7561462E-02  0.1209985E+00
         -1   -1    0    0    0  501 -0.00000000000E+00  0.00000000000E+00  0.14128268584E+03  0.14128268584E+03  0.00000000000E+00 0.  1.
          1   -1    0    0  501    0  0.00000000000E+00 -0.00000000000E+00 -0.18233546026E+03  0.18233546026E+03  0.00000000000E+00 0. -1.
         25    2    1    2    0    0 -0.11763858403E+03 -0.97063146800E+01 -0.26625541797E+02  0.17403935848E+03  0.12509088626E+03 0.  0.
          5    1    3    3  502    0  0.74359890770E+01  0.13320196997E+02 -0.42932400897E+02  0.45753524764E+02  0.41800000000E+01 0. -1.
         -5    1    3    3    0  502 -0.12507457310E+03 -0.23026511677E+02  0.16306859100E+02  0.12828583371E+03  0.41800000000E+01 0. -1.
        -11    1    1    2    0    0  0.22839138771E+02  0.36853130489E+02 -0.25580550122E+02  0.50340282391E+02  0.00000000000E+00 0. -1.
         11    1    1    2    0    0  0.94799445256E+02 -0.27146815809E+02  0.11153317496E+02  0.99238505231E+02  0.00000000000E+00 0.  1.
</event>
<event>
 7    1  0.2619826E-009  0.1106336E+03  0.7561462E-02  0.1259401E+00
          2   -1    0    0  501    0  0.00000000000E+00  0.00000000000E+00  0.18546220788E+03  0.18546220788E+03  0.00000000000E+00 0. -1.
         -2   -1    0    0    0  501 -0.00000000000E+00 -0.00000000000E+00 -0.96503838895E+02  0.96503838895E+02  0.00000000000E+00 0.  1.
         25    2    1    2    0    0  0.33382442973E+02 -0.62721746890E+02  0.84151287647E+02  0.16666545388E+03  0.12509008463E+03 0.  0.
          5    1    3    3  502    0  0.66326109105E+02 -0.33466703710E+01  0.12211963687E+02  0.67653214326E+02  0.41800000000E+01 0.  1.
         -5    1    3    3    0  502 -0.32943666131E+02 -0.59375076519E+02  0.71939323960E+02  0.99012239555E+02  0.41800000000E+01 0.  1.
        -11    1    1    2    0    0 -0.19338921606E+02  0.68745467590E+02  0.36437458790E+02  0.80172449171E+02  0.00000000000E+00 0. -1.
         11    1    1    2    0    0 -0.14043521368E+02 -0.60237207003E+01 -0.31630377453E+02  0.35128143722E+02  0.00000000000E+00 0.  1.
</event>
<event>
 7    1  0.2619826E-009  0.1361979E+03  0.7561462E-02  0.1218538E+00
         -2   -1    0    0    0  501 -0.00000000000E+00  0.00000000000E+00  0.13732709287E+03  0.13732709287E+03  0.00000000000E+00 0.  1.
          2   -1    0    0  501    0  0.00000000000E+00 -0.00000000000E+00 -0.17551199108E+03  0.17551199108E+03  0.00000000000E+00 0. -1.
         25    2    1    2    0    0 -0.50689214070E+02 -0.94896528975E+02  0.55420522841E+01  0.16508169728E+03  0.12508598961E+03 0.  0.
          5    1    3    3  502    0  0.30068834577E+02 -0.36736384865E+02  0.37315636545E+02  0.60527893706E+02  0.41800000000E+01 0.  1.
         -5    1    3    3    0  502 -0.80758048647E+02 -0.58160144109E+02 -0.31773584261E+02  0.10455380357E+03  0.41800000000E+01 0.  1.
        -11    1    1    2    0    0  0.66122640556E+02  0.76397335387E+02 -0.37813689992E+01  0.10110912521E+03  0.00000000000E+00 0.  1.
         11    1    1    2    0    0 -0.15433426485E+02  0.18499193587E+02 -0.39945581503E+02  0.46648261469E+02  0.00000000000E+00 0. -1.
</event>
<event>
 7    1  0.2619826E-009  0.1102679E+03  0.7561462E-02  0.1260075E+00
          2   -1    0    0  501    0  0.00000000000E+00  0.00000000000E+00  0.20298018974E+03  0.20298018974E+03  0.00000000000E+00 0. -1.
         -2   -1    0    0    0  501 -0.00000000000E+00 -0.00000000000E+00 -0.80425242497E+02  0.80425242497E+02  0.00000000000E+00 0.  1.
         25    2    1    2    0    0 -0.21729203421E+01  0.58420071134E+02  0.31289538819E+02  0.14158095741E+03  0.12509398853E+03 0.  0.
          5    1    3    3  502    0  0.33268140736E+02 -0.11974478660E+02  0.49121901850E+02  0.60667874271E+02  0.41800000000E+01 0.  1.
         -5    1    3    3    0  502 -0.35441061078E+02  0.70394549794E+02 -0.17832363032E+02  0.80913083134E+02  0.41800000000E+01 0.  1.
        -11    1    1    2    0    0  0.22484573379E+02 -0.75931327370E+02  0.53748401781E+02  0.95707957925E+02  0.00000000000E+00 0.  1.
         11    1    1    2    0    0 -0.20311653037E+02  0.17511256236E+02  0.37517006643E+02  0.46116516906E+02  0.00000000000E+00 0. -1.
</event>
<event>
 7    1  0.3070611E-009  0.1143082E+03  0.7561462E-02  0.1252793E+00
          1   -1    0    0  501    0  0.00000000000E+00  0.00000000000E+00  0.19594942652E+03  0.19594942652E+03  0.00000000000E+00 0. -1.
         -1   -1    0    0    0  501 -0.00000000000E+00 -0.00000000000E+00 -0.84458638185E+02  0.84458638185E+02  0.00000000000E+00 0.  1.
         25    2    1    2    0    0 -0.64295686293E+02 -0.54703269748E+01  0.36324018437E+02  0.14536443936E+03  0.12509007220E+03 0.  0.
          5    1    3    3  502    0 -0.83068523139E+02 -0.46602883595E+02  0.23962313397E+02  0.98305000683E+02  0.41800000000E+01 0.  1.
         -5    1    3    3    0  502  0.18772836846E+02  0.41132556621E+02  0.12361705040E+02  0.47059438680E+02  0.41800000000E+01 0.  1.
        -11    1    1    2    0    0  0.12040034390E+02  0.28368223703E+02 -0.10117450600E+02  0.32435803532E+02  0.00000000000E+00 0.  1.
         11    1    1    2    0    0  0.52255651904E+02 -0.22897896728E+02  0.85284220493E+02  0.10260782181E+03  0.00000000000E+00 0. -1.
</event>
<event>
 7    1  0.2619826E-009  0.7593082E+02  0.7561462E-02  0.1341013E+00
          1   -1    0    0  501    0  0.00000000000E+00  0.00000000000E+00  0.75904192377E+02  0.75904192377E+02  0.00000000000E+00 0. -1.
         -1   -1    0    0    0  501 -0.00000000000E+00 -0.00000000000E+00 -0.16325451983E+03  0.16325451983E+03  0.00000000000E+00 0.  1.
         25    2    1    2    0    0 -0.71849253618E+00  0.20832028529E+02 -0.60599794179E+02  0.14054977149E+03  0.12508962214E+03 0.  0.
          5    1    3    3  502    0  0.19774202561E+02 -0.20156825583E+02 -0.84148361092E+02  0.88857952818E+02  0.41800000000E+01 0. -1.
         -5    1    3    3    0  502 -0.20492695097E+02  0.40988854112E+02  0.23548566913E+02  0.51691818670E+02  0.41800000000E+01 0. -1.
        -11    1    1    2    0    0  0.33174241353E+02 -0.28743764221E+02  0.13853577203E+02  0.46028859124E+02  0.00000000000E+00 0. -1.
         11    1    1    2    0    0 -0.32455748817E+02  0.79117356917E+01 -0.40604110482E+02  0.52580081599E+02  0.00000000000E+00 0.  1.
</event>
<event>
 7    1  0.2619826E-009  0.9414838E+02  0.7561462E-02  0.1293106E+00
          1   -1    0    0  501    0  0.00000000000E+00  0.00000000000E+00  0.86884834510E+03  0.86884834510E+03  0.00000000000E+00 0. -1.
         -1   -1    0    0    0  501 -0.00000000000E+00 -0.00000000000E+00 -0.14405786847E+02  0.14405786847E+02  0.00000000000E+00 0.  1.
         25    2    1    2    0    0  0.25361224440E+02 -0.87420413000E+00  0.58569903341E+03  0.59944567250E+03  0.12509116917E+03 0.  0.
          5    1    3    3  502    0  0.23497170358E+02 -0.56964588422E+02  0.41842379729E+03  0.42295747763E+03  0.41800000000E+01 0. -1.
         -5    1    3    3    0  502  0.18640540819E+01  0.56090384292E+02  0.16727523612E+03  0.17648819487E+03  0.41800000000E+01 0. -1.
        -11    1    1    2    0    0  0.13413643497E+02 -0.21610822370E+02  0.23920791000E+02  0.34916439071E+02  0.00000000000E+00 0.  1.
         11    1    1    2    0    0 -0.38774867938E+02  0.22485026500E+02  0.24482273384E+03  0.24889202037E+03  0.00000000000E+00 0. -1.
</event>
<event>
 7    1  0.2619826E-009  0.1143408E+03  0.7561462E-02  0.1252736E+00
          1   -1    0    0  501    0  0.00000000000E+00  0.00000000000E+00  0.76432268912E+02  0.76432268912E+02  0.00000000000E+00 0. -1.
         -1   -1    0    0    0  501 -0.00000000000E+00 -0.00000000000E+00 -0.19829886438E+03  0.19829886438E+03  0.00000000000E+00 0.  1.
         25    2    1    2    0    0  0.32548078310E+02  0.28663409932E+02 -0.11196640265E+03  0.17339232700E+03  0.12508978882E+03 0.  0.
          5    1    3    3  502    0  0.64496678280E+02  0.57725053948E+02 -0.58594938543E+02  0.10460804264E+03  0.41800000000E+01 0.  1.
         -5    1    3    3    0  502 -0.31948599970E+02 -0.29061644016E+02 -0.53371464112E+02  0.68784284356E+02  0.41800000000E+01 0.  1.
        -11    1    1    2    0    0 -0.63379141654E+02 -0.22015630493E+02  0.32381924241E+01  0.67172088496E+02  0.00000000000E+00 0. -1.
         11    1    1    2    0    0  0.30831063343E+02 -0.66477794389E+01 -0.13138385236E+02  0.34166717796E+02  0.00000000000E+00 0.  1.
</event>
<event>
 7    1  0.2619826E-009  0.1087396E+03  0.7561462E-02  0.1262922E+00
         -2   -1    0    0    0  501 -0.00000000000E+00  0.00000000000E+00  0.13474343631E+02  0.13474343631E+02  0.00000000000E+00 0.  1.
          2   -1    0    0  501    0  0.00000000000E+00 -0.00000000000E+00 -0.10183881113E+04  0.10183881113E+04  0.00000000000E+00 0. -1.
         25    2    1    2    0    0  0.46087273653E+02  0.89358067839E+01 -0.58812242666E+03  0.60310785413E+03  0.12508880658E+03 0.  0.
          5    1    3    3  502    0 -0.28029643162E+02 -0.24420748980E+02 -0.77687481221E+02  0.86225582138E+02  0.41800000000E+01 0. -1.
         -5    1    3    3    0  502  0.74116916814E+02  0.33356555764E+02 -0.51043494544E+03  0.51688227199E+03  0.41800000000E+01 0. -1.
        -11    1    1    2    0    0 -0.90902851006E+01 -0.45659687670E+02 -0.23837815745E+03  0.24288183611E+03  0.00000000000E+00 0. -1.
         11    1    1    2    0    0 -0.36996988552E+02  0.36723880886E+02 -0.17841318356E+03  0.18587276470E+03  0.00000000000E+00 0.  1.
</event>
<event>
 7    1  0.2619826E-009  0.1695665E+03  0.7561462E-02  0.1178301E+00
          4   -1    0    0  501    0  0.00000000000E+00  0.00000000000E+00  0.35624295974E+03  0.35624295974E+03  0.00000000000E+00 0.  1.
         -4   -1    0    0    0  501 -0.00000000000E+00 -0.00000000000E+00 -0.11436898018E+03  0.11436898018E+03  0.00000000000E+00 0. -1.
         25    2    1    2    0    0 -0.72130545251E+02  0.13911373501E+03  0.54015234034E+02  0.20765422100E+03  0.12508870119E+03 0.  0.
          5    1    3    3  502    0 -0.17809437761E+02  0.23475780760E+02 -0.39365351492E+02  0.49349687474E+02  0.41800000000E+01 0.  1.
         -5    1    3    3    0  502 -0.54321107490E+02  0.11563795425E+03  0.93380585526E+02  0.15830453352E+03  0.41800000000E+01 0.  1.
        -11    1    1    2    0    0 -0.24563356150E+01 -0.94701971075E+02  0.11932006546E+03  0.15235411032E+03  0.00000000000E+00 0.  1.
         11    1    1    2    0    0  0.74586880866E+02 -0.44411763931E+02  0.68538680066E+02  0.11060360861E+03  0.00000000000E+00 0. -1.
</event>
<event>
 7    1  0.2619826E-009  0.1972250E+03  0.7561462E-02  0.1152102E+00
          1   -1    0    0  501    0  0.00000000000E+00  0.00000000000E+00  0.10132266558E+04  0.10132266558E+04  0.00000000000E+00 0. -1.
         -1   -1    0    0    0  501 -0.00000000000E+00 -0.00000000000E+00 -0.84182208923E+02  0.84182208923E+02  0.00000000000E+00 0.  1.
         25    2    1    2    0    0 -0.14382763880E+03  0.82104060352E+02  0.87656284455E+03  0.90079826582E+03  0.12509048266E+03 0.  0.
          5    1    3    3  502    0  0.22220111331E+02  0.57662984207E+01  0.70275772066E+02  0.74048228098E+02  0.41800000000E+01 0.  1.
         -5    1    3    3    0  502 -0.16604775013E+03  0.76337761931E+02  0.80628707248E+03  0.82675003772E+03  0.41800000000E+01 0.  1.
        -11    1    1    2    0    0  0.34843714024E+02 -0.70592722051E+02  0.11263217734E+02  0.79525322302E+02  0.00000000000E+00 0.  1.
         11    1    1    2    0    0  0.10898392477E+03 -0.11511338301E+02  0.41218384596E+02  0.11708527660E+03  0.00000000000E+00 0. -1.
</event>
<event>
 7    1  0.2619826E-009  0.1034737E+03  0.7561462E-02  0.1273156E+00
         -2   -1    0    0    0  501 -0.00000000000E+00  0.00000000000E+00  0.12103478535E+03  0.12103478535E+03  0.00000000000E+00 0. -1.
          2   -1    0    0  501    0  0.00000000000E+00 -0.00000000000E+00 -0.10362809617E+03  0.10362809617E+03  0.00000000000E+00 0.  1.
         25    2    1    2    0    0  0.52595818914E+01 -0.16527421898E+02  0.40004411515E+02  0.13247354961E+03  0.12509224408E+03 0.  0.
          5    1    3    3  502    0  0.27982486467E+01 -0.70273277851E+02  0.11311411632E+02  0.71355337631E+02  0.41800000000E+01 0. -1.
         -5    1    3    3    0  502  0.24613332447E+01  0.53745855953E+02  0.28692999882E+02  0.61118211981E+02  0.41800000000E+01 0. -1.
        -11    1    1    2    0    0  0.77968006237E+01 -0.31659602389E+02  0.80810422857E+01  0.33592019407E+02  0.00000000000E+00 0. -1.
         11    1    1    2    0    0 -0.13056382515E+02  0.48187024287E+02 -0.30678764615E+02  0.58597312501E+02  0.00000000000E+00 0.  1.
</event>
<event>
 7    1  0.2619826E-009  0.1250155E+03  0.7561462E-02  0.1235045E+00
         -1   -1    0    0    0  501 -0.00000000000E+00  0.00000000000E+00  0.28327717490E+03  0.28327717490E+03  0.00000000000E+00 0.  1.
          1   -1    0    0  501    0  0.00000000000E+00 -0.00000000000E+00 -0.76771600354E+02  0.76771600354E+02  0.00000000000E+00 0. -1.
         25    2    1    2    0    0  0.43602895230E+01 -0.10084952848E+03  0.89749859087E+02  0.18409779148E+03  0.12508924855E+03 0.  0.
          5    1    3    3  502    0  0.49354065949E+02 -0.50043005898E+02 -0.13474427760E+01  0.70423108899E+02  0.41800000000E+01 0.  1.
         -5    1    3    3    0  502 -0.44993776426E+02 -0.50806522581E+02  0.91097301863E+02  0.11367468258E+03  0.41800000000E+01 0.  1.
        -11    1    1    2    0    0 -0.26038510881E+02  0.59188695499E+02  0.18834469645E+02  0.67350151971E+02  0.00000000000E+00 0. -1.
         11    1    1    2    0    0  0.21678221358E+02  0.41660832980E+02  0.97921245813E+02  0.10860083180E+03  0.00000000000E+00 0.  1.
</event>
<event>
 7    1  0.2619826E-009  0.1921921E+03  0.7561462E-02  0.1156499E+00
          1   -1    0    0  501    0  0.00000000000E+00  0.00000000000E+00  0.70360576373E+02  0.70360576373E+02  0.00000000000E+00 0. -1.
         -1   -1    0    0    0  501 -0.00000000000E+00 -0.00000000000E+00 -0.55811037756E+03  0.55811037756E+03  0.00000000000E+00 0.  1.
         25    2    1    2    0    0  0.40295332348E+02 -0.15413434530E+03 -0.32557799431E+03  0.38344450533E+03  0.12509015978E+03 0.  0.
          5    1    3    3  502    0  0.98809922981E-01 -0.16030560030E+03 -0.27579048080E+03  0.31902312918E+03  0.41800000000E+01 0.  1.
         -5    1    3    3    0  502  0.40196522425E+02  0.61712549946E+01 -0.49787513511E+02  0.64421376149E+02  0.41800000000E+01 0.  1.
        -11    1    1    2    0    0  0.28392892899E+02  0.62270910097E+02 -0.69785643809E+02  0.97743842227E+02  0.00000000000E+00 0. -1.
         11    1    1    2    0    0 -0.68688225247E+02  0.91863435207E+02 -0.92386163068E+02  0.14728260638E+03  0.00000000000E+00 0.  1.
</event>
<event>
 7    1  0.2619826E-009  0.1776509E+03  0.7561462E-02  0.1170096E+00
         -2   -1    0    0    0  501 -0.00000000000E+00  0.00000000000E+00  0.16113293483E+04  0.16113293483E+04  0.00000000000E+00 0.  1.
          2   -1    0    0  501    0  0.00000000000E+00 -0.00000000000E+00 -0.38081363184E+02  0.38081363184E+02  0.00000000000E+00 0. -1.
         25    2    1    2    0    0 -0.13124378020E+03  0.73258203794E+02  0.13547271986E+04  0.13687676286E+04  0.12508934564E+03 0.  0.
          5    1    3    3  502    0  0.13027917212E+02  0.23975592146E+02  0.73818326313E+02  0.78810997617E+02  0.41800000000E+01 0. -1.
         -5    1    3    3    0  502 -0.14427169742E+03  0.49282611647E+02  0.12809088722E+04  0.12899566310E+04  0.41800000000E+01 0. -1.
        -11    1    1    2    0    0  0.11731275371E+03 -0.93910372671E+02  0.17662508533E+03  0.23190054128E+03  0.00000000000E+00 0. -1.
         11    1    1    2    0    0  0.13931026495E+02  0.20652168877E+02  0.41895701252E+02  0.48742541603E+02  0.00000000000E+00 0.  1.
</event>
<event>
 7    1  0.2619826E-009  0.7868958E+02  0.7561462E-02  0.1332812E+00
         -1   -1    0    0    0  501 -0.00000000000E+00  0.00000000000E+00  0.16996623009E+03  0.16996623009E+03  0.00000000000E+00 0.  1.
          1   -1    0    0  501    0  0.00000000000E+00 -0.00000000000E+00 -0.71530475312E+02  0.71530475312E+02  0.00000000000E+00 0. -1.
         25    2    1    2    0    0 -0.15610497764E+01  0.36754375555E+01  0.32621805633E+02  0.12934077916E+03  0.12509560038E+03 0.  0.
          5    1    3    3  502    0 -0.29712541121E+02  0.17933167918E+02  0.71204426435E+02  0.79321979019E+02  0.41800000000E+01 0.  1.
         -5    1    3    3    0  502  0.28151491344E+02 -0.14257730362E+02 -0.38582620803E+02  0.50018800146E+02  0.41800000000E+01 0.  1.
        -11    1    1    2    0    0 -0.37505202777E+02 -0.25962997439E+02  0.29201568771E+02  0.54161324670E+02  0.00000000000E+00 0.  1.
         11    1    1    2    0    0  0.39066252553E+02  0.22287559884E+02  0.36612380371E+02  0.57994601564E+02  0.00000000000E+00 0. -1.
</event>
<event>
 7    1  0.2619826E-009  0.1272376E+03  0.7561462E-02  0.1231613E+00
         -2   -1    0    0    0  501 -0.00000000000E+00  0.00000000000E+00  0.19043068201E+02  0.19043068201E+02  0.00000000000E+00 0.  1.
          2   -1    0    0  501    0  0.00000000000E+00 -0.00000000000E+00 -0.93454732466E+03  0.93454732466E+03  0.00000000000E+00 0. -1.
         25    2    1    2    0    0 -0.53991869149E+01 -0.77271322750E+02 -0.50452183168E+03  0.52553832521E+03  0.12509294180E+03 0.  0.
          5    1    3    3  502    0  0.53638401577E+02 -0.42721496709E+02 -0.34729702136E+03  0.35402669087E+03  0.41800000000E+01 0.  1.
         -5    1    3    3    0  502 -0.59037588492E+02 -0.34549826041E+02 -0.15722481032E+03  0.17151163434E+03  0.41800000000E+01 0.  1.
        -11    1    1    2    0    0 -0.38566435869E+02  0.57020726378E+02 -0.19757477269E+03  0.20922362203E+03  0.00000000000E+00 0. -1.
         11    1    1    2    0    0  0.43965622784E+02  0.20250596372E+02 -0.21340765209E+03  0.21882844562E+03  0.00000000000E+00 0.  1.
</event>
<event>
 7    1  0.2619826E-009  0.1558516E+03  0.7561462E-02  0.1193461E+00
         -1   -1    0    0    0  501 -0.00000000000E+00  0.00000000000E+00  0.17454553419E+03  0.17454553419E+03  0.00000000000E+00 0.  1.
          1   -1    0    0  501    0  0.00000000000E+00 -0.00000000000E+00 -0.16834757720E+03  0.16834757720E+03  0.00000000000E+00 0. -1.
         25    2    1    2    0    0 -0.12344903173E+03 -0.29539165345E+02  0.40370744789E+02  0.18273668746E+03  0.12510265458E+03 0.  0.
          5    1    3    3  502    0 -0.86366666266E+02 -0.75143976738E+02  0.46200067859E+02  0.12352221238E+03  0.41800000000E+01 0.  1.
         -5    1    3    3    0  502 -0.37082365469E+02  0.45604811393E+02 -0.58293230693E+01  0.59214475075E+02  0.41800000000E+01 0.  1.
        -11    1    1    2    0    0  0.11372801126E+03  0.73158625746E+01  0.50100519203E+01  0.11407314764E+03  0.00000000000E+00 0.  1.
         11    1    1    2    0    0  0.97210204700E+01  0.22223302770E+02 -0.39182839718E+02  0.46083276287E+02  0.00000000000E+00 0. -1.
</event>
<event>
 7    1  0.2619826E-009  0.1045157E+03  0.7561462E-02  0.1271077E+00
         -2   -1    0    0    0  501 -0.00000000000E+00  0.00000000000E+00  0.26038071082E+02  0.26038071082E+02  0.00000000000E+00 0.  1.
          2   -1    0    0  501    0  0.00000000000E+00 -0.00000000000E+00 -0.71849783051E+03  0.71849783051E+03  0.00000000000E+00 0. -1.
         25    2    1    2    0    0  0.14918270604E+02  0.25323229759E+02 -0.58655775514E+03  0.60046849637E+03  0.12509434141E+03 0.  0.
          5    1    3    3  502    0  0.68419146571E+02  0.61518818076E+01 -0.38060987947E+03  0.38678208079E+03  0.41800000000E+01 0.  1.
         -5    1    3    3    0  502 -0.53500875967E+02  0.19171347952E+02 -0.20594787567E+03  0.21368641558E+03  0.41800000000E+01 0.  1.
        -11    1    1    2    0    0 -0.54651463815E+01  0.28274881572E+02 -0.47282539120E+01  0.29183782104E+02  0.00000000000E+00 0.  1.
         11    1    1    2    0    0 -0.94531242230E+01 -0.53598111331E+02 -0.10117375038E+03  0.11488362312E+03  0.00000000000E+00 0. -1.
</event>
<event>
 7    1  0.2619826E-009  0.2188081E+03  0.7561462E-02  0.1134775E+00
         -2   -1    0    0    0  501 -0.00000000000E+00  0.00000000000E+00  0.14596994765E+03  0.14596994765E+03  0.00000000000E+00 0.  1.
          2   -1    0    0  501    0  0.00000000000E+00 -0.00000000000E+00 -0.61783382949E+03  0.61783382949E+03  0.00000000000E+00 0. -1.
         25    2    1    2    0    0 -0.11136165876E+03 -0.17645528081E+03 -0.47746949566E+03  0.53587530241E+03  0.12508930919E+03 0.  0.
          5    1    3    3  502    0 -0.98942699363E+02 -0.14391681776E+03 -0.24575447864E+03  0.30152022214E+03  0.41800000000E+01 0.  1.
         -5    1    3    3    0  502 -0.12418959396E+02 -0.32538463052E+02 -0.23171501702E+03  0.23435508026E+03  0.41800000000E+01 0.  1.
        -11    1    1    2    0    0  0.12774831343E+03  0.15657991573E+03  0.40492969833E+01  0.20212198891E+03  0.00000000000E+00 0.  1.
         11    1    1    2    0    0 -0.16386654668E+02  0.19875365076E+02  0.15563168416E+01  0.25806485818E+02  0.00000000000E+00 0. -1.
</event>
<event>
 7    1  0.2619826E-009  0.9387340E+02  0.7561462E-02  0.1293734E+00
          1   -1    0    0  501    0  0.00000000000E+00  0.00000000000E+00  0.22642288163E+03  0.22642288163E+03  0.00000000000E+00 0. -1.
         -1   -1    0    0    0  501 -0.00000000000E+00 -0.00000000000E+00 -0.70928853187E+02  0.70928853187E+02  0.00000000000E+00 0.  1.
         25    2    1    2    0    0  0.28406394646E+01 -0.48186057466E+01  0.16717590839E+03  0.20887166690E+03  0.12509316804E+03 0.  0.
          5    1    3    3  502    0 -0.25948954383E+02 -0.55811603153E+02  0.11419021513E+03  0.12978890905E+03  0.41800000000E+01 0. -1.
         -5    1    3    3    0  502  0.28789593847E+02  0.50992997407E+02  0.52985693261E+02  0.79082757847E+02  0.41800000000E+01 0. -1.
        -11    1    1    2    0    0  0.19763888529E+02  0.28453393808E+02  0.22392245990E+02  0.41250691987E+02  0.00000000000E+00 0. -1.
         11    1    1    2    0    0 -0.22604527993E+02 -0.23634788062E+02 -0.34074125940E+02  0.47229375934E+02  0.00000000000E+00 0.  1.
</event>
<event>
 7    1  0.4869089E-009  0.6996706E+02  0.7561462E-02  0.1360205E+00
         -1   -1    0    0    0  501 -0.00000000000E+00  0.00000000000E+00  0.75296734201E+02  0.75296734201E+02  0.00000000000E+00 0.  1.
          1   -1    0    0  501    0  0.00000000000E+00 -0.00000000000E+00 -0.23390574277E+03  0.23390574277E+03  0.00000000000E+00 0. -1.
         25    2    1    2    0    0 -0.47886329902E+01 -0.40438996064E+02 -0.16269256504E+03  0.20922891919E+03  0.12509846720E+03 0.  0.
          5    1    3    3  502    0 -0.32866484288E+02 -0.42794896851E+02 -0.11439182869E+02  0.55316690886E+02  0.41800000000E+01 0.  1.
         -5    1    3    3    0  502  0.28077851297E+02  0.23559007871E+01 -0.15125338217E+03  0.15391222830E+03  0.41800000000E+01 0.  1.
        -11    1    1    2    0    0 -0.16439553040E+02  0.73330466066E+01  0.41782759150E+02  0.45495400195E+02  0.00000000000E+00 0.  1.
         11    1    1    2    0    0  0.21228186031E+02  0.33105949457E+02 -0.37699202675E+02  0.54478157585E+02  0.00000000000E+00 0. -1.
</event>
<event>
 7    1  0.2619826E-009  0.1730734E+03  0.7561462E-02  0.1174680E+00
          2   -1    0    0  501    0  0.00000000000E+00  0.00000000000E+00  0.96908648590E+03  0.96908648590E+03  0.00000000000E+00 0. -1.
         -2   -1    0    0    0  501 -0.00000000000E+00 -0.00000000000E+00 -0.39820191901E+02  0.39820191901E+02  0.00000000000E+00 0.  1.
         25    2    1    2    0    0 -0.51196813285E+02 -0.15393858521E+03  0.50597965512E+03  0.54587660943E+03  0.12509060565E+03 0.  0.
          5    1    3    3  502    0 -0.28934901290E+02 -0.77852001327E+02  0.42277224256E+03  0.43087353609E+03  0.41800000000E+01 0.  1.
         -5    1    3    3    0  502 -0.22261911995E+02 -0.76086583886E+02  0.83207412559E+02  0.11500307334E+03  0.41800000000E+01 0.  1.
        -11    1    1    2    0    0  0.70254474369E+02  0.76560624726E+02  0.28599240193E+03  0.30428420003E+03  0.00000000000E+00 0. -1.
         11    1    1    2    0    0 -0.19057661085E+02  0.77377960487E+02  0.13729423696E+03  0.15874586835E+03  0.00000000000E+00 0.  1.
</event>
<event>
 7    1  0.2619826E-009  0.8475962E+02  0.7561462E-02  0.1316062E+00
         -1   -1    0    0    0  501 -0.00000000000E+00  0.00000000000E+00  0.28504300170E+02  0.28504300170E+02  0.00000000000E+00 0.  1.
          1   -1    0    0  501    0  0.00000000000E+00 -0.00000000000E+00 -0.44367040985E+03  0.44367040985E+03  0.00000000000E+00 0. -1.
         25    2    1    2    0    0 -0.26649295989E+01 -0.29294976040E+01 -0.29946554876E+03  0.32456593132E+03  0.12509094720E+03 0.  0.
          5    1    3    3  502    0 -0.11324254136E+02  0.59197492268E+02 -0.11889173551E+03  0.13336153492E+03  0.41800000000E+01 0.  1.
         -5    1    3    3    0  502  0.86593245367E+01 -0.62126989872E+02 -0.18057381325E+03  0.19120439640E+03  0.41800000000E+01 0.  1.
        -11    1    1    2    0    0  0.13588134091E+02 -0.18044747639E+02 -0.12123516738E+03  0.12332159631E+03  0.00000000000E+00 0. -1.
         11    1    1    2    0    0 -0.10923204492E+02  0.20974245243E+02  0.55346064649E+01  0.24287182393E+02  0.00000000000E+00 0.  1.
</event>
<event>
 7    1  0.2619826E-009  0.1155163E+03  0.7561462E-02  0.1250683E+00
          1   -1    0    0  501    0  0.00000000000E+00  0.00000000000E+00  0.28240059937E+03  0.28240059937E+03  0.00000000000E+00 0. -1.
         -1   -1    0    0    0  501 -0.00000000000E+00 -0.00000000000E+00 -0.61004560931E+02  0.61004560931E+02  0.00000000000E+00 0.  1.
         25    2    1    2    0    0  0.52883942643E+02 -0.32447211740E+02  0.17486710626E+03  0.22377758796E+03  0.12509344940E+03 0.  0.
          5    1    3    3  502    0  0.93490968107E+02 -0.28284737128E+02  0.11157134457E+03  0.14834495206E+03  0.41800000000E+01 0.  1.
         -5    1    3    3    0  502 -0.40607025463E+02 -0.41624746121E+01  0.63295761687E+02  0.75432635904E+02  0.41800000000E+01 0.  1.
        -11    1    1    2    0    0 -0.68460710969E+02  0.17536813743E+02  0.61249138148E+02  0.93519333330E+02  0.00000000000E+00 0. -1.
         11    1    1    2    0    0  0.15576768326E+02  0.14910397997E+02 -0.14720205973E+02  0.26108239002E+02  0.00000000000E+00 0.  1.
</event>
<event>
 7    1  0.2619826E-009  0.1067468E+03  0.7561462E-02  0.1266716E+00
         -1   -1    0    0    0  501 -0.00000000000E+00  0.00000000000E+00  0.21738336178E+03  0.21738336178E+03  0.00000000000E+00 0.  1.
          1   -1    0    0  501    0  0.00000000000E+00 -0.00000000000E+00 -0.72224604887E+02  0.72224604887E+02  0.00000000000E+00 0. -1.
         25    2    1    2    0    0  0.21602512044E+02 -0.36167930694E+02  0.29990999149E+02  0.13535770835E+03  0.12508981350E+03 0.  0.
          5    1    3    3  502    0  0.32848555039E+02  0.35208018576E+02 -0.14423387123E+02  0.50439455154E+02  0.41800000000E+01 0. -1.
         -5    1    3    3    0  502 -0.11246042995E+02 -0.71375949269E+02  0.44414386272E+02  0.84918253192E+02  0.41800000000E+01 0. -1.
        -11    1    1    2    0    0 -0.53379385428E+02  0.26317760358E+02  0.10274658846E+03  0.11873855625E+03  0.00000000000E+00 0.  1.
         11    1    1    2    0    0  0.31776873385E+02  0.98501703356E+01  0.12421169280E+02  0.35511702071E+02  0.00000000000E+00 0. -1.
</event>
<event>
 7    1  0.2619826E-009  0.8927730E+02  0.7561462E-02  0.1304611E+00
          1   -1    0    0  501    0  0.00000000000E+00  0.00000000000E+00  0.26350158696E+03  0.26350158696E+03  0.00000000000E+00 0. -1.
         -1   -1    0    0    0  501 -0.00000000000E+00 -0.00000000000E+00 -0.56524113331E+02  0.56524113331E+02  0.00000000000E+00 0.  1.
         25    2    1    2    0    0 -0.12981110394E+02 -0.19949856290E+02  0.18387143439E+03  0.22364904915E+03  0.12507472491E+03 0.  0.
          5    1    3    3  502    0  0.73718013230E+01 -0.48776293933E+02  0.15955763058E+02  0.52014700608E+02  0.41800000000E+01 0.  1.
         -5    1    3    3    0  502 -0.20352911717E+02  0.28826437643E+02  0.16791567133E+03  0.17163434854E+03  0.41800000000E+01 0.  1.
        -11    1    1    2    0    0  0.14970026814E+02 -0.35239954401E+02  0.11048897135E+02  0.39850147012E+02  0.00000000000E+00 0.  1.
         11    1    1    2    0    0 -0.19889164192E+01  0.55189810691E+02  0.12057142104E+02  0.56526504123E+02  0.00000000000E+00 0. -1.
</event>
<event>
 7    1  0.2619826E-009  0.1105750E+03  0.7561462E-02  0.1259509E+00
          1   -1    0    0  501    0  0.00000000000E+00  0.00000000000E+00  0.26286932483E+03  0.26286932483E+03  0.00000000000E+00 0. -1.
         -1   -1    0    0    0  501 -0.00000000000E+00 -0.00000000000E+00 -0.67998493669E+02  0.67998493669E+02  0.00000000000E+00 0.  1.
         25    2    1    2    0    0  0.35230970979E+02  0.42380856716E+02  0.17552802158E+03  0.22247365387E+03  0.12508829671E+03 0.  0.
          5    1    3    3  502    0 -0.24930436557E+02 -0.16685738560E+02  0.30442657288E+01  0.30441427234E+02  0.41800000000E+01 0. -1.
         -5    1    3    3    0  502  0.60161407536E+02  0.59066595276E+02  0.17248375585E+03  0.19203222663E+03  0.41800000000E+01 0. -1.
        -11    1    1    2    0    0 -0.49265851678E+02 -0.63942380732E+02  0.11755556752E+02  0.81571718811E+02  0.00000000000E+00 0.  1.
         11    1    1    2    0    0  0.14034880700E+02  0.21561524016E+02  0.75872528274E+01  0.26822445817E+02  0.00000000000E+00 0. -1.
</event>
<event>
 7    1  0.2619826E-009  0.1250157E+03  0.7561462E-02  0.1235045E+00
         -2   -1    0    0    0  501 -0.00000000000E+00  0.00000000000E+00  0.52338788169E+02  0.52338788169E+02  0.00000000000E+00 0.  1.
          2   -1    0    0  501    0  0.00000000000E+00 -0.00000000000E+00 -0.50411415300E+03  0.50411415300E+03  0.00000000000E+00 0. -1.
         25    2    1    2    0    0 -0.20500604765E+02  0.11363635556E+03 -0.17843577032E+03  0.24661761851E+03  0.12508968594E+03 0.  0.
          5    1    3    3  502    0 -0.94513806663E+01  0.58551852232E+02  0.44693786934E-01  0.59456895259E+02  0.41800000000E+01 0.  1.
         -5    1    3    3    0  502 -0.11049224098E+02  0.55084503327E+02 -0.17848046410E+03  0.18716072325E+03  0.41800000000E+01 0.  1.
        -11    1    1    2    0    0  0.44239350623E+02 -0.52499205300E+02 -0.78664432738E+02  0.10440967234E+03  0.00000000000E+00 0. -1.
         11    1    1    2    0    0 -0.23738745858E+02 -0.61137150259E+02 -0.19467516178E+03  0.20542565032E+03  0.00000000000E+00 0.  1.
</event>
<event>
 7    1  0.2619826E-009  0.1088501E+03  0.7561462E-02  0.1262714E+00
          1   -1    0    0  501    0  0.00000000000E+00  0.00000000000E+00  0.41639368869E+03  0.41639368869E+03  0.00000000000E+00 0. -1.
         -1   -1    0    0    0  501 -0.00000000000E+00 -0.00000000000E+00 -0.43832292210E+02  0.43832292210E+02  0.00000000000E+00 0.  1.
         25    2    1    2    0    0 -0.72248814147E+02 -0.10300716218E+02  0.14565709298E+03  0.20541740687E+03  0.12511725065E+03 0.  0.
          5    1    3    3  502    0 -0.86750188516E+02  0.37252635578E+02  0.10290399716E+03  0.13971420507E+03  0.41800000000E+01 0.  1.
         -5    1    3    3    0  502  0.14501374369E+02 -0.47553351797E+02  0.42753095812E+02  0.65703201803E+02  0.41800000000E+01 0.  1.
        -11    1    1    2    0    0  0.48448570350E+02  0.10176854123E+02  0.22560471662E+03  0.23097255354E+03  0.00000000000E+00 0. -1.
         11    1    1    2    0    0  0.23800243797E+02  0.12386209512E+00  0.12995868845E+01  0.23836020487E+02  0.00000000000E+00 0.  1.
</event>
<event>
 7    1  0.2619826E-009  0.1169600E+03  0.7561462E-02  0.1248198E+00
          2   -1    0    0  501    0  0.00000000000E+00  0.00000000000E+00  0.79042750941E+03  0.79042750941E+03  0.00000000000E+00 0. -1.
         -2   -1    0    0    0  501 -0.00000000000E+00 -0.00000000000E+00 -0.31021212092E+02  0.31021212092E+02  0.00000000000E+00 0.  1.
         25    2    1    2    0    0 -0.65813982398E+01  0.10424585895E+03  0.51985056978E+03  0.54479545290E+03  0.12508779590E+03 0.  0.
          5    1    3    3  502    0 -0.42253720235E+01  0.99547647549E+02  0.52619226291E+03  0.53555892099E+03  0.41800000000E+01 0. -1.
         -5    1    3    3    0  502 -0.23560262163E+01  0.46982113969E+01 -0.63416931329E+01  0.92365319062E+01  0.41800000000E+01 0. -1.
        -11    1    1    2    0    0  0.36548197998E+02 -0.83162408700E+02  0.21251381705E+03  0.23111442931E+03  0.00000000000E+00 0. -1.
         11    1    1    2    0    0 -0.29966799758E+02 -0.21083450246E+02  0.27041910494E+02  0.45538839305E+02  0.00000000000E+00 0.  1.
</event>
<event>
 7    1  0.2619826E-009  0.2641139E+03  0.7561462E-02  0.1104696E+00
          2   -1    0    0  501    0  0.00000000000E+00  0.00000000000E+00  0.39934919677E+03  0.39934919677E+03  0.00000000000E+00 0. -1.
         -2   -1    0    0    0  501 -0.00000000000E+00 -0.00000000000E+00 -0.19179403467E+03  0.19179403467E+03  0.00000000000E+00 0.  1.
         25    2    1    2    0    0  0.24039136598E+03  0.55270334743E+02  0.16814524747E+03  0.32367223666E+03  0.12509226115E+03 0.  0.
          5    1    3    3  502    0  0.13215053589E+03  0.77274430432E+02  0.14467569378E+03  0.21067422838E+03  0.41800000000E+01 0.  1.
         -5    1    3    3    0  502  0.10824083009E+03 -0.22004095689E+02  0.23469553698E+02  0.11299800828E+03  0.41800000000E+01 0.  1.
        -11    1    1    2    0    0 -0.17939526549E+03  0.40859533071E+01  0.26722012291E+02  0.18142056729E+03  0.00000000000E+00 0.  1.
         11    1    1    2    0    0 -0.60996100483E+02 -0.59356288050E+02  0.12687902336E+02  0.86050427488E+02  0.00000000000E+00 0. -1.
</event>
<event>
 7    1  0.2619826E-009  0.1222302E+03  0.7561462E-02  0.1239463E+00
          1   -1    0    0  501    0  0.00000000000E+00  0.00000000000E+00  0.25674631015E+03  0.25674631015E+03  0.00000000000E+00 0. -1.
         -1   -1    0    0    0  501 -0.00000000000E+00 -0.00000000000E+00 -0.77415667475E+02  0.77415667475E+02  0.00000000000E+00 0.  1.
         25    2    1    2    0    0 -0.58644716622E+02  0.65827221631E+02  0.11759006598E+03  0.19299760044E+03  0.12509286255E+03 0.  0.
          5    1    3    3  502    0 -0.81243346165E+02  0.58224618635E+02  0.13138455837E+03  0.16513619255E+03  0.41800000000E+01 0. -1.
         -5    1    3    3    0  502  0.22598629543E+02  0.76026029964E+01 -0.13794492385E+02  0.27861407891E+02  0.41800000000E+01 0. -1.
        -11    1    1    2    0    0 -0.19289681816E+02 -0.18421777504E+01 -0.52843650099E+01  0.20085068011E+02  0.00000000000E+00 0.  1.
         11    1    1    2    0    0  0.77934398438E+02 -0.63985043881E+02  0.67024941699E+02  0.12107930917E+03  0.00000000000E+00 0. -1.
</event>
<event>
 7    1  0.2619826E-009  0.8263720E+02  0.7561462E-02  0.1321730E+00
         -2   -1    0    0    0  501 -0.00000000000E+00  0.00000000000E+00  0.24769987800E+03  0.24769987800E+03  0.00000000000E+00 0.  1.
          2   -1    0    0  501    0  0.00000000000E+00 -0.00000000000E+00 -0.57917303009E+02  0.57917303009E+02  0.00000000000E+00 0. -1.
         25    2    1    2    0    0 -0.89527218420E+01 -0.31709440696E+02  0.59615354632E+02  0.14243465054E+03  0.12509196341E+03 0.  0.
          5    1    3    3  502    0 -0.35524723151E+02 -0.80029220397E+01 -0.29065693401E+02  0.46779692699E+02  0.41800000000E+01 0.  1.
         -5    1    3    3    0  502  0.26572001309E+02 -0.23706518657E+02  0.88681048033E+02  0.95654957846E+02  0.41800000000E+01 0.  1.
        -11    1    1    2    0    0  0.28019442623E+02 -0.22094920016E+02  0.78331703320E+02  0.86076305686E+02  0.00000000000E+00 0.  1.
         11    1    1    2    0    0 -0.19066720781E+02  0.53804360713E+02  0.51835517043E+02  0.77106224782E+02  0.00000000000E+00 0. -1.
</event>
<event>
 7    1  0.2619826E-009  0.7794034E+02  0.7561462E-02  0.1335000E+00
         -3   -1    0    0    0  501 -0.00000000000E+00  0.00000000000E+00  0.10570867342E+03  0.10570867342E+03  0.00000000000E+00 0.  1.
          3   -1    0    0  501    0  0.00000000000E+00 -0.00000000000E+00 -0.19375098176E+03  0.19375098176E+03  0.00000000000E+00 0. -1.
         25    2    1    2    0    0  0.68988755801E+02 -0.24410316723E+02  0.36875923591E+02  0.14953872632E+03  0.12508670968E+03 0.  0.
          5    1    3    3  502    0  0.14820505607E+02 -0.57373696987E+01 -0.45915688287E+02  0.48767690415E+02  0.41800000000E+01 0. -1.
         -5    1    3    3    0  502  0.54168250194E+02 -0.18672947025E+02  0.82791611878E+02  0.10077103590E+03  0.41800000000E+01 0. -1.
        -11    1    1    2    0    0 -0.60906746866E+02  0.33762540574E+02 -0.11309788363E+03  0.13281819243E+03  0.00000000000E+00 0. -1.
         11    1    1    2    0    0 -0.80820089348E+01 -0.93522238503E+01 -0.11820348295E+02  0.17102736424E+02  0.00000000000E+00 0.  1.
</event>
<event>
 6    1  0.2619826E-009  0.6182886E+02  0.7561462E-02  0.1390313E+00
         -1   -1    0    0    0  501 -0.00000000000E+00  0.00000000000E+00  0.44353908838E+02  0.44353908838E+02  0.00000000000E+00 0.  1.
          1   -1    0    0  501    0  0.00000000000E+00 -0.00000000000E+00 -0.27578442480E+03  0.27578442480E+03  0.00000000000E+00 0. -1.
          5    1    1    2  502    0 -0.91028486786E+01  0.23988306343E+02 -0.16152537883E+03  0.16360385417E+03  0.41800000000E+01 0. -1.
         -5    1    1    2    0  502 -0.28651142999E+00 -0.39244054230E+02  0.22717244537E+01  0.39532404597E+02  0.41800000000E+01 0. -1.
        -11    1    1    2    0    0 -0.29770989640E+01  0.34875920297E+02  0.59505896794E+01  0.35504963771E+02  0.00000000000E+00 0.  1.
         11    1    1    2    0    0  0.12366459073E+02 -0.19620172411E+02 -0.78127451264E+02  0.81497111092E+02  0.00000000000E+00 0. -1.
</event>
<event>
 7    1  0.2619826E-009  0.1209346E+03  0.7561462E-02  0.1241563E+00
         -1   -1    0    0    0  501 -0.00000000000E+00  0.00000000000E+00  0.32471474263E+03  0.32471474263E+03  0.00000000000E+00 0.  1.
          1   -1    0    0  501    0  0.00000000000E+00 -0.00000000000E+00 -0.68065204505E+02  0.68065204505E+02  0.00000000000E+00 0. -1.
         25    2    1    2    0    0 -0.85369772454E+01  0.77690335389E+02  0.16589822199E+03  0.22198742168E+03  0.12509007608E+03 0.  0.
          5    1    3    3  502    0 -0.26215613414E+02  0.94082599165E+02  0.63181675884E+02  0.11639669420E+03  0.41800000000E+01 0. -1.
         -5    1    3    3    0  502  0.17678636168E+02 -0.16392263776E+02  0.10271654610E+03  0.10559072749E+03  0.41800000000E+01 0. -1.
        -11    1    1    2    0    0  0.47600862340E+02 -0.60459028639E+02  0.76037491180E+01  0.77323691325E+02  0.00000000000E+00 0. -1.
         11    1    1    2    0    0 -0.39063885094E+02 -0.17231306750E+02  0.83147567017E+02  0.93468834121E+02  0.00000000000E+00 0.  1.
</event>
<event>
 7    1  0.2619826E-009  0.3312216E+03  0.7561462E-02  0.1070598E+00
          2   -1    0    0  501    0  0.00000000000E+00  0.00000000000E+00  0.17153428938E+04  0.17153428938E+04  0.00000000000E+00 0. -1.
         -2   -1    0    0    0  501 -0.00000000000E+00 -0.00000000000E+00 -0.74369210699E+02  0.74369210699E+02  0.00000000000E+00 0.  1.
         25    2    1    2    0    0  0.18640805736E+03  0.25706401630E+03  0.52715064821E+03  0.62798255348E+03  0.12507761288E+03 0.  0.
          5    1    3    3  502    0  0.13212101326E+03  0.88920778010E+02  0.30502125116E+03  0.34411960561E+03  0.41800000000E+01 0. -1.
         -5    1    3    3    0  502  0.54287044098E+02  0.16814323829E+03  0.22212939706E+03  0.28386294787E+03  0.41800000000E+01 0. -1.
        -11    1    1    2    0    0 -0.16747621997E+03 -0.17521138836E+03  0.89788007358E+03  0.93001932313E+03  0.00000000000E+00 0.  1.
         11    1    1    2    0    0 -0.18931837387E+02 -0.81852627942E+02  0.21594296132E+03  0.23171022790E+03  0.00000000000E+00 0. -1.
</event>
<event>
 7    1  0.2619826E-009  0.8154251E+02  0.7561462E-02  0.1324730E+00
         -1   -1    0    0    0  501 -0.00000000000E+00  0.00000000000E+00  0.21269238799E+02  0.21269238799E+02  0.00000000000E+00 0.  1.
          1   -1    0    0  501    0  0.00000000000E+00 -0.00000000000E+00 -0.59013089608E+03  0.59013089608E+03  0.00000000000E+00 0. -1.
         25    2    1    2    0    0 -0.18647386351E+02  0.50493506637E+01 -0.37093679537E+03  0.39193722894E+03  0.12508982497E+03 0.  0.
          5    1    3    3  502    0 -0.50588643229E+02  0.90655587015E+01 -0.59172158384E+02  0.78487017437E+02  0.41800000000E+01 0.  1.
         -5    1    3    3    0  502  0.31941256878E+02 -0.40162080378E+01 -0.31176463699E+03  0.31345021151E+03  0.41800000000E+01 0.  1.
        -11    1    1    2    0    0  0.10872380506E+02 -0.40927438677E+02 -0.16433630623E+03  0.16970470070E+03  0.00000000000E+00 0. -1.
         11    1    1    2    0    0  0.77750058443E+01  0.35878088014E+02 -0.33588555673E+02  0.49758205229E+02  0.00000000000E+00 0.  1.
</event>
<event>
 7    1  0.2619826E-009  0.1132660E+03  0.7561462E-02  0.1254639E+00
          2   -1    0    0  501    0  0.00000000000E+00  0.00000000000E+00  0.10512811487E+04  0.10512811487E+04  0.00000000000E+00 0. -1.
         -2   -1    0    0    0  501 -0.00000000000E+00 -0.00000000000E+00 -0.21253870113E+02  0.21253870113E+02  0.00000000000E+00 0.  1.
         25    2    1    2    0    0  0.89096883563E+02 -0.15489809186E+02  0.75825659032E+03  0.77380749220E+03  0.12508712713E+03 0.  0.
          5    1    3    3  502    0  0.95000007804E+02 -0.32901075624E+02  0.32682730825E+03  0.34196643707E+03  0.41800000000E+01 0. -1.
         -5    1    3    3    0  502 -0.59031242403E+01  0.17411266438E+02  0.43142928207E+03  0.43184105514E+03  0.41800000000E+01 0. -1.
        -11    1    1    2    0    0 -0.16748198196E+02  0.28968599361E+02  0.16925719745E+03  0.17253312952E+03  0.00000000000E+00 0. -1.
         11    1    1    2    0    0 -0.72348685367E+02 -0.13478790176E+02  0.10251349081E+03  0.12619439709E+03  0.00000000000E+00 0.  1.
</event>
<event>
 7    1  0.2619826E-009  0.7782884E+02  0.7561462E-02  0.1335328E+00
         -2   -1    0    0    0  501 -0.00000000000E+00  0.00000000000E+00  0.17748608876E+02  0.17748608876E+02  0.00000000000E+00 0.  1.
          2   -1    0    0  501    0  0.00000000000E+00 -0.00000000000E+00 -0.14386128694E+04  0.14386128694E+04  0.00000000000E+00 0. -1.
         25    2    1    2    0    0  0.19450288310E+02  0.46456981363E+02 -0.12457187851E+04  0.12529962720E+04  0.12509117187E+03 0.  0.
          5    1    3    3  502    0  0.19110383006E+01 -0.39718919447E+01 -0.10518149851E+04  0.10518325262E+04  0.41800000000E+01 0.  1.
         -5    1    3    3    0  502  0.17539250009E+02  0.50428873308E+02 -0.19390380005E+03  0.20116374581E+03  0.41800000000E+01 0.  1.
        -11    1    1    2    0    0 -0.17963357467E+02  0.21521465471E+02 -0.21440677035E+02  0.35292468307E+02  0.00000000000E+00 0. -1.
         11    1    1    2    0    0 -0.14869308427E+01 -0.67978446834E+02 -0.15370479836E+03  0.16807273793E+03  0.00000000000E+00 0.  1.
</event>
<event>
 7    1  0.2619826E-009  0.6981342E+02  0.7561462E-02  0.1360729E+00
         -1   -1    0    0    0  501 -0.00000000000E+00  0.00000000000E+00  0.14059220271E+03  0.14059220271E+03  0.00000000000E+00 0.  1.
          1   -1    0    0  501    0  0.00000000000E+00 -0.00000000000E+00 -0.12696545700E+03  0.12696545700E+03  0.00000000000E+00 0. -1.
         25    2    1    2    0    0  0.34401631405E+02  0.59830799176E+02  0.59134189574E+02  0.15462043217E+03  0.12508968340E+03 0.  0.
          5    1    3    3  502    0  0.12981375797E+02  0.28906385518E+02  0.96365767410E+02  0.10152797038E+03  0.41800000000E+01 0. -1.
         -5    1    3    3    0  502  0.21420255608E+02  0.30924413657E+02 -0.37231577836E+02  0.53092461786E+02  0.41800000000E+01 0. -1.
        -11    1    1    2    0    0 -0.21085320053E+02 -0.46069978102E+02  0.12218246432E+02  0.52118318755E+02  0.00000000000E+00 0.  1.
         11    1    1    2    0    0 -0.13316311352E+02 -0.13760821074E+02 -0.57725690297E+02  0.60818908778E+02  0.00000000000E+00 0. -1.
</event>
<event>
 7    1  0.2619826E-009  0.1922204E+03  0.7561462E-02  0.1156474E+00
          1   -1    0    0  501    0  0.00000000000E+00  0.00000000000E+00  0.14182227559E+04  0.14182227559E+04  0.00000000000E+00 0. -1.
         -1   -1    0    0    0  501 -0.00000000000E+00 -0.00000000000E+00 -0.26818503106E+02  0.26818503106E+02  0.00000000000E+00 0.  1.
         25    2    1    2    0    0 -0.12244656380E+03  0.10224603510E+03  0.63274066808E+03  0.66441977190E+03  0.12508184350E+03 0.  0.
          5    1    3    3  502    0 -0.10391327247E+03  0.77087669581E+01  0.28194959331E+03  0.30061676409E+03  0.41800000000E+01 0.  1.
         -5    1    3    3    0  502 -0.18533291325E+02  0.94537268144E+02  0.35079107476E+03  0.36380300781E+03  0.41800000000E+01 0.  1.
        -11    1    1    2    0    0  0.10174464527E+02 -0.64478834885E+02  0.25643532794E+03  0.26461314649E+03  0.00000000000E+00 0.  1.
         11    1    1    2    0    0  0.11227209927E+03 -0.37767200217E+02  0.50222825673E+03  0.51600834057E+03  0.00000000000E+00 0. -1.
</event>
<event>
 7    1  0.2619826E-009  0.9756516E+02  0.7561462E-02  0.1285501E+00
          2   -1    0    0  501    0  0.00000000000E+00  0.00000000000E+00  0.43077397839E+03  0.43077397839E+03  0.00000000000E+00 0. -1.
         -2   -1    0    0    0  501 -0.00000000000E+00 -0.00000000000E+00 -0.31894583011E+02  0.31894583011E+02  0.00000000000E+00 0.  1.
         25    2    1    2    0    0  0.42437883794E+02  0.87882903418E+01  0.26838387441E+03  0.29925786043E+03  0.12508858845E+03 0.  0.
          5    1    3    3  502    0  0.43986769983E+02 -0.47340010469E+02  0.81603552446E+02  0.10417545151E+03  0.41800000000E+01 0.  1.
         -5    1    3    3    0  502 -0.15488861896E+01  0.56128300811E+02  0.18678032196E+03  0.19508240893E+03  0.41800000000E+01 0.  1.
        -11    1    1    2    0    0  0.14705050631E+02  0.45443418444E+01 -0.46484458747E+01  0.16077860738E+02  0.00000000000E+00 0.  1.
         11    1    1    2    0    0 -0.57142934425E+02 -0.13332632186E+02  0.13514396685E+03  0.14733284023E+03  0.00000000000E+00 0. -1.
</event>
<event>
 7    1  0.2619826E-009  0.1072077E+03  0.7561462E-02  0.1265830E+00
          1   -1    0    0  501    0  0.00000000000E+00  0.00000000000E+00  0.40473030054E+02  0.40473030054E+02  0.00000000000E+00 0. -1.
         -1   -1    0    0    0  501 -0.00000000000E+00 -0.00000000000E+00 -0.30389318039E+03  0.30389318039E+03  0.00000000000E+00 0.  1.
         25    2    1    2    0    0 -0.11421118365E+02 -0.19100257596E+02 -0.14826349190E+03  0.19525202988E+03  0.12508409314E+03 0.  0.
          5    1    3    3  502    0  0.23634304760E+01  0.49445210198E+02 -0.30680666073E+02  0.58388271818E+02  0.41800000000E+01 0. -1.
         -5    1    3    3    0  502 -0.13784548841E+02 -0.68545467794E+02 -0.11758282583E+03  0.13686375806E+03  0.41800000000E+01 0. -1.
        -11    1    1    2    0    0 -0.38887654369E+02  0.21298577338E+02 -0.51867811192E+02  0.68235979488E+02  0.00000000000E+00 0. -1.
         11    1    1    2    0    0  0.50308772734E+02 -0.21983197420E+01 -0.63288847247E+02  0.80878201077E+02  0.00000000000E+00 0.  1.
</event>
<event>
 7    1  0.2619826E-009  0.1050245E+03  0.7561462E-02  0.1270071E+00
         -1   -1    0    0    0  501 -0.00000000000E+00  0.00000000000E+00  0.35932643155E+03  0.35932643155E+03  0.00000000000E+00 0.  1.
          1   -1    0    0  501    0  0.00000000000E+00 -0.00000000000E+00 -0.37794728065E+02  0.37794728065E+02  0.00000000000E+00 0. -1.
         25    2    1    2    0    0  0.26901059906E+02 -0.14209721329E+02  0.12957475602E+03  0.18265674366E+03  0.12509310693E+03 0.  0.
          5    1    3    3  502    0  0.62664926897E+02  0.20234219443E+02  0.11167278112E+03  0.12970967251E+03  0.41800000000E+01 0.  1.
         -5    1    3    3    0  502 -0.35763866991E+02 -0.34443940772E+02  0.17901974898E+02  0.52947071149E+02  0.41800000000E+01 0.  1.
        -11    1    1    2    0    0 -0.55256572205E+02  0.28839460583E+02  0.14342528884E+03  0.15638355648E+03  0.00000000000E+00 0. -1.
         11    1    1    2    0    0  0.28355512299E+02 -0.14629739255E+02  0.48531658627E+02  0.58080859476E+02  0.00000000000E+00 0.  1.
</event>
<event>
 7    1  0.2619826E-009  0.1114021E+03  0.7561462E-02  0.1257995E+00
          2   -1    0    0  501    0  0.00000000000E+00  0.00000000000E+00  0.13591499816E+04  0.13591499816E+04  0.00000000000E+00 0. -1.
         -2   -1    0    0    0  501 -0.00000000000E+00 -0.00000000000E+00 -0.12180501302E+02  0.12180501302E+02  0.00000000000E+00 0.  1.
         25    2    1    2    0    0  0.13158549851E+02 -0.41150670689E+02  0.10193493126E+04  0.10279040180E+04  0.12508846474E+03 0.  0.
          5    1    3    3  502    0 -0.53924792020E+02 -0.32586835219E+02  0.56760828156E+03  0.57110981319E+03  0.41800000000E+01 0.  1.
         -5    1    3    3    0  502  0.67083341871E+02 -0.85638354703E+01  0.45174103104E+03  0.45679420482E+03  0.41800000000E+01 0.  1.
        -11    1    1    2    0    0  0.18883069206E+02 -0.17065000796E+02  0.34523030498E+02  0.42890840393E+02  0.00000000000E+00 0.  1.
         11    1    1    2    0    0 -0.32041619058E+02  0.58215671485E+02  0.29309713721E+03  0.30053562451E+03  0.00000000000E+00 0. -1.
</event>
<event>
 7    1  0.2619826E-009  0.8698057E+02  0.7561462E-02  0.1310333E+00
          1   -1    0    0  501    0  0.00000000000E+00  0.00000000000E+00  0.37729047066E+03  0.37729047066E+03  0.00000000000E+00 0. -1.
         -1   -1    0    0    0  501 -0.00000000000E+00 -0.00000000000E+00 -0.43464462587E+02  0.43464462587E+02  0.00000000000E+00 0.  1.
         25    2    1    2    0    0 -0.63312714547E+01 -0.38875890095E+02  0.27412156915E+03  0.30387815616E+03  0.12509148369E+03 0.  0.
          5    1    3    3  502    0  0.27170095733E+02 -0.27147598173E+02  0.26388856128E+03  0.26670180232E+03  0.41800000000E+01 0. -1.
         -5    1    3    3    0  502 -0.33501367187E+02 -0.11728291921E+02  0.10233007872E+02  0.37176353841E+02  0.41800000000E+01 0. -1.
        -11    1    1    2    0    0 -0.37331654643E+02  0.41529463873E+02  0.41123692381E+02  0.69350608382E+02  0.00000000000E+00 0. -1.
         11    1    1    2    0    0  0.43662926098E+02 -0.26535737780E+01  0.18580746539E+02  0.47526168698E+02  0.00000000000E+00 0.  1.
</event>
<event>
 7    1  0.2619826E-009  0.1379322E+03  0.7561462E-02  0.1216139E+00
         -4   -1    0    0    0  501 -0.00000000000E+00  0.00000000000E+00  0.25186408448E+03  0.25186408448E+03  0.00000000000E+00 0.  1.
          4   -1    0    0  501    0  0.00000000000E+00 -0.00000000000E+00 -0.83080342749E+02  0.83080342749E+02  0.00000000000E+00 0. -1.
         25    2    1    2    0    0  0.54674699634E+02 -0.78170677957E+02  0.89462965318E+02  0.18098715976E+03  0.12511095940E+03 0.  0.
          5    1    3    3  502    0  0.26036505843E+02 -0.10988185615E+03  0.53708731811E+02  0.12511603502E+03  0.41800000000E+01 0.  1.
         -5    1    3    3    0  502  0.28638193791E+02  0.31711178189E+02  0.35754233507E+02  0.55871124738E+02  0.41800000000E+01 0.  1.
        -11    1    1    2    0    0 -0.59482273822E+02  0.21794930291E+02  0.94502685908E+01  0.64050507116E+02  0.00000000000E+00 0. -1.
         11    1    1    2    0    0  0.48075741877E+01  0.56375747666E+02  0.69870507826E+02  0.89906760359E+02  0.00000000000E+00 0.  1.
</event>
<event>
 7    1  0.2619826E-009  0.1123347E+03  0.7561462E-02  0.1256306E+00
         -3   -1    0    0    0  501 -0.00000000000E+00  0.00000000000E+00  0.25150464898E+03  0.25150464898E+03  0.00000000000E+00 0.  1.
          3   -1    0    0  501    0  0.00000000000E+00 -0.00000000000E+00 -0.58397493333E+02  0.58397493333E+02  0.00000000000E+00 0. -1.
         25    2    1    2    0    0  0.34313397110E+02 -0.37818228326E+02  0.10810462564E+03  0.17303659576E+03  0.12508967093E+03 0.  0.
          5    1    3    3  502    0 -0.14995043343E+02  0.38213943132E+02  0.51957929197E+02  0.66349495711E+02  0.41800000000E+01 0.  1.
         -5    1    3    3    0  502  0.49308440453E+02 -0.76032171459E+02  0.56146696439E+02  0.10668710005E+03  0.41800000000E+01 0.  1.
        -11    1    1    2    0    0 -0.58904972341E+02  0.19585907618E+02  0.20341145320E+02  0.65323546571E+02  0.00000000000E+00 0. -1.
         11    1    1    2    0    0  0.24591575231E+02  0.18232320709E+02  0.64661384687E+02  0.71541999975E+02  0.00000000000E+00 0.  1.
</event>
<event>
 7    1  0.2619826E-009  0.1430347E+03  0.7561462E-02  0.1209303E+00
          2   -1    0    0  501    0  0.00000000000E+00  0.00000000000E+00  0.92086369150E+03  0.92086369150E+03  0.00000000000E+00 0.  1.
         -2   -1    0    0    0  501 -0.00000000000E+00 -0.00000000000E+00 -0.27947440449E+02  0.27947440449E+02  0.00000000000E+00 0. -1.
         25    2    1    2    0    0  0.11546795239E+03  0.12913216399E+02  0.53289490089E+03  0.55957660205E+03  0.12509755786E+03 0.  0.
          5    1    3    3  502    0  0.90288427351E+02 -0.43508484612E+02  0.23846009864E+03  0.25869997949E+03  0.41800000000E+01 0. -1.
         -5    1    3    3    0  502  0.25179525044E+02  0.56421701011E+02  0.29443480225E+03  0.30087662256E+03  0.41800000000E+01 0. -1.
        -11    1    1    2    0    0 -0.91220563748E+02  0.83221584321E+01  0.33801598917E+03  0.35020745067E+03  0.00000000000E+00 0.  1.
         11    1    1    2    0    0 -0.24247388646E+02 -0.21235374832E+02  0.22005360988E+02  0.39027079222E+02  0.00000000000E+00 0. -1.
</event>
<event>
 7    1  0.2619826E-009  0.1299048E+03  0.7561462E-02  0.1227597E+00
         -2   -1    0    0    0  501 -0.00000000000E+00  0.00000000000E+00  0.30019266866E+02  0.30019266866E+02  0.00000000000E+00 0.  1.
          2   -1    0    0  501    0  0.00000000000E+00 -0.00000000000E+00 -0.61370205718E+03  0.61370205718E+03  0.00000000000E+00 0. -1.
         25    2    1    2    0    0 -0.37073231282E+02 -0.68309785544E+02 -0.38209950841E+03  0.40949772303E+03  0.12509076529E+03 0.  0.
          5    1    3    3  502    0 -0.59213751961E+02 -0.94970290861E+02 -0.30312012027E+03  0.32314842453E+03  0.41800000000E+01 0.  1.
         -5    1    3    3    0  502  0.22140520679E+02  0.26660505317E+02 -0.78979388144E+02  0.86349298499E+02  0.41800000000E+01 0.  1.
        -11    1    1    2    0    0 -0.25457188115E+02  0.30918253875E+02 -0.38266470353E+02  0.55392504932E+02  0.00000000000E+00 0.  1.
         11    1    1    2    0    0  0.62530419397E+02  0.37391531668E+02 -0.16331681156E+03  0.17883109609E+03  0.00000000000E+00 0. -1.
</event>
<event>
 7    1  0.2619826E-009  0.8485507E+02  0.7561462E-02  0.1315812E+00
         -2   -1    0    0    0  501 -0.00000000000E+00  0.00000000000E+00  0.50695418977E+02  0.50695418977E+02  0.00000000000E+00 0.  1.
          2   -1    0    0  501    0  0.00000000000E+00 -0.00000000000E+00 -0.32945341947E+03  0.32945341947E+03  0.00000000000E+00 0. -1.
         25    2    1    2    0    0 -0.42160022781E+02 -0.85187815927E+01 -0.72714518002E+02  0.15093911916E+03  0.12508069157E+03 0.  0.
          5    1    3    3  502    0 -0.13140703029E+02 -0.34598496658E+02 -0.97605843096E+02  0.10447060378E+03  0.41800000000E+01 0.  1.
         -5    1    3    3    0  502 -0.29019319752E+02  0.26079715065E+02  0.24891325094E+02  0.46468515381E+02  0.41800000000E+01 0.  1.
        -11    1    1    2    0    0  0.62238357548E+02  0.25175486580E+02 -0.10325698111E+03  0.12316420918E+03  0.00000000000E+00 0.  1.
         11    1    1    2    0    0 -0.20078334767E+02 -0.16656704988E+02 -0.10278650138E+03  0.10604551011E+03  0.00000000000E+00 0. -1.
</event>
<event>
 7    1  0.2619826E-009  0.1081742E+03  0.7561462E-02  0.1263989E+00
         -2   -1    0    0    0  501 -0.00000000000E+00  0.00000000000E+00  0.66956260748E+02  0.66956260748E+02  0.00000000000E+00 0.  1.
          2   -1    0    0  501    0  0.00000000000E+00 -0.00000000000E+00 -0.21957927322E+03  0.21957927322E+03  0.00000000000E+00 0. -1.
         25    2    1    2    0    0 -0.26569102218E+02 -0.29610799651E+02 -0.43473955049E+02  0.13828383913E+03  0.12509883591E+03 0.  0.
          5    1    3    3  502    0 -0.65074109879E+02  0.72406999211E+01  0.54239970874E+01  0.65832815953E+02  0.41800000000E+01 0.  1.
         -5    1    3    3    0  502  0.38505007660E+02 -0.36851499572E+02 -0.48897952136E+02  0.72451023172E+02  0.41800000000E+01 0.  1.
        -11    1    1    2    0    0  0.98259793894E+01  0.60955058217E+02 -0.85897377829E+02  0.10578482174E+03  0.00000000000E+00 0.  1.
         11    1    1    2    0    0  0.16743122829E+02 -0.31344258566E+02 -0.23251679599E+02  0.42466873105E+02  0.00000000000E+00 0. -1.
</event>
<event>
 7    1  0.2619826E-009  0.8659947E+02  0.7561462E-02  0.1311302E+00
          1   -1    0    0  501    0  0.00000000000E+00  0.00000000000E+00  0.52280747573E+03  0.52280747573E+03  0.00000000000E+00 0. -1.
         -1   -1    0    0    0  501 -0.00000000000E+00 -0.00000000000E+00 -0.28177059676E+02  0.28177059676E+02  0.00000000000E+00 0.  1.
         25    2    1    2    0    0  0.10841310331E+02 -0.23038849827E+02  0.38868706475E+03  0.40911055183E+03  0.12508191996E+03 0.  0.
          5    1    3    3  502    0  0.42155654395E+02  0.88498369090E+01  0.44737269244E+02  0.62243991439E+02  0.41800000000E+01 0. -1.
         -5    1    3    3    0  502 -0.31314344064E+02 -0.31888686736E+02  0.34394979551E+03  0.34686656039E+03  0.41800000000E+01 0. -1.
        -11    1    1    2    0    0  0.22530867640E+02  0.41260278480E+02  0.88131668108E+02  0.99886142685E+02  0.00000000000E+00 0. -1.
         11    1    1    2    0    0 -0.33372177972E+02 -0.18221428653E+02  0.17811683194E+02  0.41987840894E+02  0.00000000000E+00 0.  1.
</event>
<event>
 7    1  0.2619826E-009  0.1033629E+03  0.7561462E-02  0.1273379E+00
         -2   -1    0    0    0  501 -0.00000000000E+00  0.00000000000E+00  0.34795960805E+03  0.34795960805E+03  0.00000000000E+00 0.  1.
          2   -1    0    0  501    0  0.00000000000E+00 -0.00000000000E+00 -0.64676449801E+02  0.64676449801E+02  0.00000000000E+00 0. -1.
         25    2    1    2    0    0  0.47430245755E+02  0.85877143999E+01  0.27650834838E+03  0.30729071235E+03  0.12508932057E+03 0.  0.
          5    1    3    3  502    0 -0.32084461902E+02 -0.30757874018E+02  0.79220124821E+02  0.90932722858E+02  0.41800000000E+01 0.  1.
         -5    1    3    3    0  502  0.79514707657E+02  0.39345588418E+02  0.19728822356E+03  0.21635798949E+03  0.41800000000E+01 0.  1.
        -11    1    1    2    0    0 -0.26086442429E+00 -0.23727420921E+02 -0.33808746044E+02  0.41304840671E+02  0.00000000000E+00 0. -1.
         11    1    1    2    0    0 -0.47169381330E+02  0.15139706522E+02  0.40583555916E+02  0.64040504834E+02  0.00000000000E+00 0.  1.
</event>
<event>
 7    1  0.2619826E-009  0.6309031E+02  0.7561462E-02  0.1385302E+00
         -1   -1    0    0    0  501 -0.00000000000E+00  0.00000000000E+00  0.32686757502E+03  0.32686757502E+03  0.00000000000E+00 0.  1.
          1   -1    0    0  501    0  0.00000000000E+00 -0.00000000000E+00 -0.41351714130E+02  0.41351714130E+02  0.00000000000E+00 0. -1.
         25    2    1    2    0    0  0.19346710397E+02  0.32737951996E+02  0.18959817123E+03  0.23031221202E+03  0.12510067851E+03 0.  0.
          5    1    3    3  502    0  0.28361589055E+02  0.70298561673E+01 -0.81744682042E+01  0.30628302954E+02  0.41800000000E+01 0. -1.
         -5    1    3    3    0  502 -0.90148786576E+01  0.25708095829E+02  0.19777263944E+03  0.19968390906E+03  0.41800000000E+01 0. -1.
        -11    1    1    2    0    0 -0.26760684360E+02 -0.46396347453E+02  0.10642813844E+03  0.11914572563E+03  0.00000000000E+00 0.  1.
         11    1    1    2    0    0  0.74139739634E+01  0.13658395457E+02 -0.10510448786E+02  0.18761351499E+02  0.00000000000E+00 0. -1.
</event>
<event>
 7    1  0.2619826E-009  0.1553686E+03  0.7561462E-02  0.1194027E+00
         -3   -1    0    0    0  501 -0.00000000000E+00  0.00000000000E+00  0.61924820907E+02  0.61924820907E+02  0.00000000000E+00 0.  1.
          3   -1    0    0  501    0  0.00000000000E+00 -0.00000000000E+00 -0.52401943396E+03  0.52401943396E+03  0.00000000000E+00 0. -1.
         25    2    1    2    0    0 -0.80401033029E+02  0.80578213274E+02 -0.30121002027E+03  0.34544132656E+03  0.12508021113E+03 0.  0.
          5    1    3    3  502    0 -0.54114081815E+02  0.17596510956E+01 -0.30598721303E+02  0.62331247124E+02  0.41800000000E+01 0. -1.
         -5    1    3    3    0  502 -0.26286951214E+02  0.78818562178E+02 -0.27061129897E+03  0.28311007944E+03  0.41800000000E+01 0. -1.
        -11    1    1    2    0    0  0.32430971666E+02 -0.11153224474E+03 -0.78196447368E+02  0.14002104813E+03  0.00000000000E+00 0.  1.
         11    1    1    2    0    0  0.47970061364E+02  0.30954031466E+02 -0.82688145410E+02  0.10048188017E+03  0.00000000000E+00 0. -1.
</event>
<event>
 7    1  0.2619826E-009  0.9763775E+02  0.7561462E-02  0.1285343E+00
          3   -1    0    0  501    0  0.00000000000E+00  0.00000000000E+00  0.26108084737E+03  0.26108084737E+03  0.00000000000E+00 0. -1.
         -3   -1    0    0    0  501 -0.00000000000E+00 -0.00000000000E+00 -0.48851666399E+02  0.48851666399E+02  0.00000000000E+00 0.  1.
         25    2    1    2    0    0  0.33431327335E+02 -0.40214905432E+01  0.13001707829E+03  0.18353688792E+03  0.12509005774E+03 0.  0.
          5    1    3    3  502    0  0.80573993989E+02 -0.10709366388E+02  0.75262648514E+02  0.11085484968E+03  0.41800000000E+01 0. -1.
         -5    1    3    3    0  502 -0.47142666654E+02  0.66878758452E+01  0.54754429774E+02  0.72682038238E+02  0.41800000000E+01 0. -1.
        -11    1    1    2    0    0 -0.48391033435E+02 -0.49508267021E+01  0.69490618806E+01  0.49137483278E+02  0.00000000000E+00 0.  1.
         11    1    1    2    0    0  0.14959706099E+02  0.89723172452E+01  0.75263040806E+02  0.77258142578E+02  0.00000000000E+00 0. -1.
</event>
<event>
 7    1  0.2619826E-009  0.8986313E+02  0.7561462E-02  0.1303183E+00
         -1   -1    0    0    0  501 -0.00000000000E+00  0.00000000000E+00  0.10645076941E+03  0.10645076941E+03  0.00000000000E+00 0.  1.
          1   -1    0    0  501    0  0.00000000000E+00 -0.00000000000E+00 -0.13952680697E+03  0.13952680697E+03  0.00000000000E+00 0. -1.
         25    2    1    2    0    0  0.10421970670E+02  0.10200135536E+02 -0.83840216140E+02  0.15129029309E+03  0.12508761211E+03 0.  0.
          5    1    3    3  502    0 -0.33610052360E+02  0.40024889018E+02 -0.82714181415E+02  0.97932300941E+02  0.41800000000E+01 0. -1.
         -5    1    3    3    0  502  0.44032023030E+02 -0.29824753482E+02 -0.11260347252E+01  0.53357992153E+02  0.41800000000E+01 0. -1.
        -11    1    1    2    0    0 -0.34905675569E+02  0.15729453303E+02  0.44112429365E+02  0.58410001820E+02  0.00000000000E+00 0.  1.
         11    1    1    2    0    0  0.24483704899E+02 -0.25929588839E+02  0.66517492188E+01  0.36277281467E+02  0.00000000000E+00 0. -1.
</event>
<event>
 7    1  0.2619826E-009  0.1114145E+03  0.7561462E-02  0.1257973E+00
          1   -1    0    0  501    0  0.00000000000E+00  0.00000000000E+00  0.39479586722E+03  0.39479586722E+03  0.00000000000E+00 0. -1.
         -1   -1    0    0    0  501 -0.00000000000E+00 -0.00000000000E+00 -0.38687214815E+02  0.38687214815E+02  0.00000000000E+00 0.  1.
         25    2    1    2    0    0  0.25650252444E+02 -0.14803759726E+02  0.11009897352E+03  0.16925386690E+03  0.12509196911E+03 0.  0.
          5    1    3    3  502    0 -0.35788321699E+02  0.32724890678E+02  0.57574666445E+02  0.75392553055E+02  0.41800000000E+01 0. -1.
         -5    1    3    3    0  502  0.61438574143E+02 -0.47528650404E+02  0.52524307076E+02  0.93861313840E+02  0.41800000000E+01 0. -1.
        -11    1    1    2    0    0  0.22744416262E+02  0.36756622144E+02  0.10605169251E+03  0.11452213422E+03  0.00000000000E+00 0.  1.
         11    1    1    2    0    0 -0.48394668706E+02 -0.21952862418E+02  0.13995798638E+03  0.14970708092E+03  0.00000000000E+00 0. -1.
</event>
<event>
 7    1  0.2619826E-009  0.1731830E+03  0.7561462E-02  0.1174569E+00
          1   -1    0    0  501    0  0.00000000000E+00  0.00000000000E+00  0.23801972268E+04  0.23801972268E+04  0.00000000000E+00 0. -1.
         -1   -1    0    0    0  501 -0.00000000000E+00 -0.00000000000E+00 -0.13425047424E+02  0.13425047424E+02  0.00000000000E+00 0.  1.
         25    2    1    2    0    0  0.10199205952E+03 -0.88768806760E+02  0.15238269406E+04  0.15349205043E+04  0.12510047269E+03 0.  0.
          5    1    3    3  502    0  0.68666453173E+02  0.17890178151E+02  0.50571219501E+03  0.51068330386E+03  0.41800000000E+01 0.  1.
         -5    1    3    3    0  502  0.33325606350E+02 -0.10665898491E+03  0.10181147456E+04  0.10242372004E+04  0.41800000000E+01 0.  1.
        -11    1    1    2    0    0 -0.71251995198E+02  0.10637799681E+03  0.68019897979E+03  0.69214433259E+03  0.00000000000E+00 0. -1.
         11    1    1    2    0    0 -0.30740064325E+02 -0.17609190052E+02  0.16274625899E+03  0.16655743738E+03  0.00000000000E+00 0.  1.
</event>
<event>
 7    1  0.2619826E-009  0.6345798E+02  0.7561462E-02  0.1383868E+00
         -1   -1    0    0    0  501 -0.00000000000E+00  0.00000000000E+00  0.93132574581E+02  0.93132574581E+02  0.00000000000E+00 0.  1.
          1   -1    0    0  501    0  0.00000000000E+00 -0.00000000000E+00 -0.15997086476E+03  0.15997086476E+03  0.00000000000E+00 0. -1.
         25    2    1    2    0    0 -0.24493134685E+02  0.46787384426E+02 -0.57100502529E+02  0.14730699214E+03  0.12509959855E+03 0.  0.
          5    1    3    3  502    0 -0.14898925764E+01  0.65739786254E+01 -0.89989495623E+02  0.90338356734E+02  0.41800000000E+01 0. -1.
         -5    1    3    3    0  502 -0.23003242108E+02  0.40213405801E+02  0.32888993094E+02  0.56968635409E+02  0.41800000000E+01 0. -1.
        -11    1    1    2    0    0  0.87078404820E+01 -0.54294895015E+02 -0.41939171350E+02  0.69156750965E+02  0.00000000000E+00 0. -1.
         11    1    1    2    0    0  0.15785294203E+02  0.75075105886E+01  0.32201383697E+02  0.36639696237E+02  0.00000000000E+00 0.  1.
</event>
<event>
 7    1  0.2619826E-009  0.8964158E+02  0.7561462E-02  0.1303722E+00
         -1   -1    0    0    0  501 -0.00000000000E+00  0.00000000000E+00  0.46670965880E+02  0.46670965880E+02  0.00000000000E+00 0.  1.
          1   -1    0    0  501    0  0.00000000000E+00 -0.00000000000E+00 -0.30981755534E+03  0.30981755534E+03  0.00000000000E+00 0. -1.
         25    2    1    2    0    0  0.33993378061E+02 -0.11359883310E+01 -0.97867607279E+02  0.16242492576E+03  0.12508776012E+03 0.  0.
          5    1    3    3  502    0  0.29150585816E+02 -0.42958632741E+02 -0.10712470459E+03  0.11911496763E+03  0.41800000000E+01 0. -1.
         -5    1    3    3    0  502  0.48427922448E+01  0.41822644410E+02  0.92570973130E+01  0.43309958126E+02  0.41800000000E+01 0. -1.
        -11    1    1    2    0    0 -0.49515985049E+02  0.25734432078E+02 -0.15232045994E+03  0.16222088733E+03  0.00000000000E+00 0. -1.
         11    1    1    2    0    0  0.15522606988E+02 -0.24598443747E+02 -0.12958522241E+02  0.31842708132E+02  0.00000000000E+00 0.  1.
</event>
<event>
 7    1  0.2619826E-009  0.1166731E+03  0.7561462E-02  0.1248689E+00
         -2   -1    0    0    0  501 -0.00000000000E+00  0.00000000000E+00  0.33983867044E+02  0.33983867044E+02  0.00000000000E+00 0.  1.
          2   -1    0    0  501    0  0.00000000000E+00 -0.00000000000E+00 -0.45301667799E+03  0.45301667799E+03  0.00000000000E+00 0. -1.
         25    2    1    2    0    0  0.56814864384E+02 -0.34095470383E+01 -0.19449960584E+03  0.23815496558E+03  0.12509251430E+03 0.  0.
          5    1    3    3  502    0  0.89315725763E+02  0.20507108234E+02 -0.10219381527E+03  0.13732766886E+03  0.41800000000E+01 0. -1.
         -5    1    3    3    0  502 -0.32500861379E+02 -0.23916655273E+02 -0.92305790575E+02  0.10082729672E+03  0.41800000000E+01 0. -1.
        -11    1    1    2    0    0 -0.57157073823E+01  0.38585675181E+02 -0.48736545814E+02  0.62424150278E+02  0.00000000000E+00 0.  1.
         11    1    1    2    0    0 -0.51099157002E+02 -0.35176128143E+02 -0.17579665929E+03  0.18642142917E+03  0.00000000000E+00 0. -1.
</event>
<event>
 7    1  0.2619826E-009  0.1180278E+03  0.7561462E-02  0.1246386E+00
          2   -1    0    0  501    0  0.00000000000E+00  0.00000000000E+00  0.57424454845E+03  0.57424454845E+03  0.00000000000E+00 0. -1.
         -2   -1    0    0    0  501 -0.00000000000E+00 -0.00000000000E+00 -0.53755694252E+02  0.53755694252E+02  0.00000000000E+00 0.  1.
         25    2    1    2    0    0  0.52023915274E+01 -0.71953456244E+02  0.69991266448E+02  0.16046988042E+03  0.12508972940E+03 0.  0.
          5    1    3    3  502    0 -0.16794484457E+02  0.14340522943E+02  0.67651757008E+02  0.71287712355E+02  0.41800000000E+01 0.  1.
         -5    1    3    3    0  502  0.21996875984E+02 -0.86293979186E+02  0.23395094401E+01  0.89182168068E+02  0.41800000000E+01 0.  1.
        -11    1    1    2    0    0 -0.50965726322E+02  0.18883543449E+02  0.17402995850E+03  0.18231982867E+03  0.00000000000E+00 0. -1.
         11    1    1    2    0    0  0.45763334795E+02  0.53069912795E+02  0.27646762926E+03  0.28521053361E+03  0.00000000000E+00 0.  1.
</event>
<event>
 7    1  0.2619826E-009  0.1238284E+03  0.7561462E-02  0.1236912E+00
         -1   -1    0    0    0  501 -0.00000000000E+00  0.00000000000E+00  0.23335693803E+02  0.23335693803E+02  0.00000000000E+00 0.  1.
          1   -1    0    0  501    0  0.00000000000E+00 -0.00000000000E+00 -0.69500717764E+03  0.69500717764E+03  0.00000000000E+00 0. -1.
         25    2    1    2    0    0  0.70685049756E+02  0.27914815152E+02 -0.32803050645E+03  0.35920308472E+03  0.12508888740E+03 0.  0.
          5    1    3    3  502    0  0.89985561326E+02 -0.19310801540E+02 -0.24394420578E+03  0.26076149301E+03  0.41800000000E+01 0.  1.
         -5    1    3    3    0  502 -0.19300511571E+02  0.47225616693E+02 -0.84086300665E+02  0.98441591710E+02  0.41800000000E+01 0.  1.
        -11    1    1    2    0    0 -0.36546443188E+02  0.22895129420E+02 -0.14605403879E+03  0.15228792371E+03  0.00000000000E+00 0. -1.
         11    1    1    2    0    0 -0.34138606567E+02 -0.50809944572E+02 -0.19758693859E+03  0.20685186301E+03  0.00000000000E+00 0.  1.
</event>
<event>
 7    1  0.2619826E-009  0.1026367E+03  0.7561462E-02  0.1274847E+00
          1   -1    0    0  501    0  0.00000000000E+00  0.00000000000E+00  0.30082586947E+03  0.30082586947E+03  0.00000000000E+00 0. -1.
         -1   -1    0    0    0  501 -0.00000000000E+00 -0.00000000000E+00 -0.10862643163E+03  0.10862643163E+03  0.00000000000E+00 0.  1.
         25    2    1    2    0    0 -0.13201496153E+02 -0.63483952915E+02 -0.44328475017E+02  0.14771438964E+03  0.12510010164E+03 0.  0.
          5    1    3    3  502    0  0.30171740638E+02 -0.63219928111E+01  0.30774774614E+02  0.43759121093E+02  0.41800000000E+01 0.  1.
         -5    1    3    3    0  502 -0.43373236790E+02 -0.57161960104E+02 -0.75103249632E+02  0.10395526854E+03  0.41800000000E+01 0.  1.
        -11    1    1    2    0    0  0.45695815067E+02  0.25602434290E+02  0.67166967010E+02  0.85176250290E+02  0.00000000000E+00 0. -1.
         11    1    1    2    0    0 -0.32494318914E+02  0.37881518625E+02  0.16936094585E+03  0.17656166117E+03  0.00000000000E+00 0.  1.
</event>
<event>
 7    1  0.2619826E-009  0.1394244E+03  0.7561462E-02  0.1214106E+00
         -1   -1    0    0    0  501 -0.00000000000E+00  0.00000000000E+00  0.78566615866E+03  0.78566615866E+03  0.00000000000E+00 0.  1.
          1   -1    0    0  501    0  0.00000000000E+00 -0.00000000000E+00 -0.31114753897E+02  0.31114753897E+02  0.00000000000E+00 0. -1.
         25    2    1    2    0    0 -0.48221285796E+02 -0.10215355726E+03  0.45359911284E+03  0.48390098762E+03  0.12508944396E+03 0.  0.
          5    1    3    3  502    0  0.35981911925E+02 -0.51235111356E+02  0.24966455724E+03  0.25742882155E+03  0.41800000000E+01 0.  1.
         -5    1    3    3    0  502 -0.84203197720E+02 -0.50918445899E+02  0.20393455560E+03  0.22647216607E+03  0.41800000000E+01 0.  1.
        -11    1    1    2    0    0 -0.45991554831E+01  0.15114953586E+02  0.67693537136E+00  0.15813674290E+02  0.00000000000E+00 0. -1.
         11    1    1    2    0    0  0.52820441279E+02  0.87038603670E+02  0.30027535655E+03  0.31706625064E+03  0.00000000000E+00 0.  1.
</event>
<event>
 7    1  0.2619826E-009  0.9175479E+02  0.7561462E-02  0.1298657E+00
          4   -1    0    0  501    0  0.00000000000E+00  0.00000000000E+00  0.50764357078E+03  0.50764357078E+03  0.00000000000E+00 0. -1.
         -4   -1    0    0    0  501 -0.00000000000E+00 -0.00000000000E+00 -0.28746395024E+02  0.28746395024E+02  0.00000000000E+00 0.  1.
         25    2    1    2    0    0  0.13679556276E+02 -0.19090150486E+02  0.39152623586E+03  0.41169339451E+03  0.12508834325E+03 0.  0.
          5    1    3    3  502    0 -0.77247178820E+01 -0.70652413508E+02  0.21133080814E+03  0.22300138491E+03  0.41800000000E+01 0. -1.
         -5    1    3    3    0  502  0.21404274158E+02  0.51562263022E+02  0.18019542771E+03  0.18869200960E+03  0.41800000000E+01 0. -1.
        -11    1    1    2    0    0 -0.23631972487E+02  0.32154877091E+02  0.44356564197E+01  0.40150732151E+02  0.00000000000E+00 0.  1.
         11    1    1    2    0    0  0.99524162107E+01 -0.13064726605E+02  0.82935283477E+02  0.84545839135E+02  0.00000000000E+00 0. -1.
</event>
<event>
 7    1  0.2619826E-009  0.9677152E+02  0.7561462E-02  0.1287235E+00
         -2   -1    0    0    0  501 -0.00000000000E+00  0.00000000000E+00  0.22810670615E+02  0.22810670615E+02  0.00000000000E+00 0.  1.
          2   -1    0    0  501    0  0.00000000000E+00 -0.00000000000E+00 -0.93594113732E+03  0.93594113732E+03  0.00000000000E+00 0. -1.
         25    2    1    2    0    0 -0.25997882396E+02 -0.74087563169E+02 -0.69188718741E+03  0.70747365193E+03  0.12508489583E+03 0.  0.
          5    1    3    3  502    0 -0.34967502882E+02 -0.41598903122E+02 -0.94269544039E+02  0.10889175512E+03  0.41800000000E+01 0. -1.
         -5    1    3    3    0  502  0.89696204858E+01 -0.32488660047E+02 -0.59761764337E+03  0.59858189681E+03  0.41800000000E+01 0. -1.
        -11    1    1    2    0    0 -0.21974988852E+02  0.79417698315E+01 -0.11221165103E+02  0.25920771388E+02  0.00000000000E+00 0.  1.
         11    1    1    2    0    0  0.47972871248E+02  0.66145793338E+02 -0.21002211419E+03  0.22535738461E+03  0.00000000000E+00 0. -1.
</event>
<event>
 7    1  0.2619826E-009  0.1244878E+03  0.7561462E-02  0.1235872E+00
         -1   -1    0    0    0  501 -0.00000000000E+00  0.00000000000E+00  0.23555177173E+02  0.23555177173E+02  0.00000000000E+00 0.  1.
          1   -1    0    0  501    0  0.00000000000E+00 -0.00000000000E+00 -0.10036270666E+04  0.10036270666E+04  0.00000000000E+00 0. -1.
         25    2    1    2    0    0  0.68049891747E+02  0.76788887371E+02 -0.64801639049E+03  0.66790789468E+03  0.12509353482E+03 0.  0.
          5    1    3    3  502    0 -0.61095363699E+01  0.34442815310E+02 -0.37572207264E+02  0.51505117414E+02  0.41800000000E+01 0. -1.
         -5    1    3    3    0  502  0.74159428117E+02  0.42346072061E+02 -0.61044418322E+03  0.61640277727E+03  0.41800000000E+01 0. -1.
        -11    1    1    2    0    0 -0.59337025952E+02 -0.91381262698E+01 -0.22042027418E+03  0.22845018115E+03  0.00000000000E+00 0. -1.
         11    1    1    2    0    0 -0.87128657953E+01 -0.67650761101E+02 -0.11163522476E+03  0.13082416793E+03  0.00000000000E+00 0.  1.
</event>
<event>
 7    1  0.2619826E-009  0.1585409E+03  0.7561462E-02  0.1190354E+00
         -1   -1    0    0    0  501 -0.00000000000E+00  0.00000000000E+00  0.21920452566E+02  0.21920452566E+02  0.00000000000E+00 0.  1.
          1   -1    0    0  501    0  0.00000000000E+00 -0.00000000000E+00 -0.11975782575E+04  0.11975782575E+04  0.00000000000E+00 0. -1.
         25    2    1    2    0    0  0.24943137181E+02  0.13340043550E+03 -0.73583852456E+03  0.75863262219E+03  0.12508910802E+03 0.  0.
          5    1    3    3  502    0  0.62356298039E+02  0.12910095583E+03 -0.51651975015E+03  0.53606481828E+03  0.41800000000E+01 0. -1.
         -5    1    3    3    0  502 -0.37413160858E+02  0.42994796753E+01 -0.21931877441E+03  0.22256780392E+03  0.41800000000E+01 0. -1.
        -11    1    1    2    0    0 -0.40589074905E+01 -0.29719326921E+02 -0.13263537849E+03  0.13598476661E+03  0.00000000000E+00 0. -1.
         11    1    1    2    0    0 -0.20884229690E+02 -0.10368110858E+03 -0.30718390184E+03  0.32488132122E+03  0.00000000000E+00 0.  1.
</event>
<event>
 7    1  0.2619826E-009  0.9234783E+02  0.7561462E-02  0.1297264E+00
          2   -1    0    0  501    0  0.00000000000E+00  0.00000000000E+00  0.20430616225E+02  0.20430616225E+02  0.00000000000E+00 0. -1.
         -2   -1    0    0    0  501 -0.00000000000E+00 -0.00000000000E+00 -0.80253788196E+03  0.80253788196E+03  0.00000000000E+00 0.  1.
         25    2    1    2    0    0 -0.15298269167E+02 -0.58573494672E+02 -0.44654229799E+03  0.46766656435E+03  0.12508836957E+03 0.  0.
          5    1    3    3  502    0 -0.18126570984E+02 -0.65667499235E+02 -0.45217515984E+03  0.45729710321E+03  0.41800000000E+01 0. -1.
         -5    1    3    3    0  502  0.28283018172E+01  0.70940045630E+01  0.56328618429E+01  0.10369461146E+02  0.41800000000E+01 0. -1.
        -11    1    1    2    0    0  0.92623415824E+01 -0.23595149024E+02 -0.15194556613E+03  0.15404537350E+03  0.00000000000E+00 0.  1.
         11    1    1    2    0    0  0.60359275845E+01  0.82168643697E+02 -0.18361940161E+03  0.20125656033E+03  0.00000000000E+00 0. -1.
</event>
<event>
 7    1  0.2619826E-009  0.1228576E+03  0.7561462E-02  0.1238456E+00
         -3   -1    0    0    0  501 -0.00000000000E+00  0.00000000000E+00  0.31451122359E+03  0.31451122359E+03  0.00000000000E+00 0.  1.
          3   -1    0    0  501    0  0.00000000000E+00 -0.00000000000E+00 -0.50608291684E+02  0.50608291684E+02  0.00000000000E+00 0. -1.
         25    2    1    2    0    0 -0.41802792906E+02  0.49119257985E+02  0.14659710148E+03  0.20321991098E+03  0.12508975601E+03 0.  0.
          5    1    3    3  502    0 -0.58850122838E+02 -0.25211395690E+02  0.72410916521E+02  0.96745876719E+02  0.41800000000E+01 0.  1.
         -5    1    3    3    0  502  0.17047329932E+02  0.74330653675E+02  0.74186184956E+02  0.10647403426E+03  0.41800000000E+01 0.  1.
        -11    1    1    2    0    0  0.18369081386E+02 -0.70867979069E+02  0.53973705488E+02  0.90955233453E+02  0.00000000000E+00 0. -1.
         11    1    1    2    0    0  0.23433711520E+02  0.21748721084E+02  0.63332124939E+02  0.70944370838E+02  0.00000000000E+00 0.  1.
</event>
<event>
 7    1  0.2619826E-009  0.2638857E+03  0.7561462E-02  0.1104831E+00
         -1   -1    0    0    0  501 -0.00000000000E+00  0.00000000000E+00  0.20689544563E+03  0.20689544563E+03  0.00000000000E+00 0.  1.
          1   -1    0    0  501    0  0.00000000000E+00 -0.00000000000E+00 -0.34616808945E+03  0.34616808945E+03  0.00000000000E+00 0. -1.
         25    2    1    2    0    0  0.24402782632E+03  0.13028137071E+01 -0.67227028688E+02  0.28234468597E+03  0.12509105071E+03 0.  0.
          5    1    3    3  502    0  0.22284978141E+03 -0.41089929733E+02 -0.54783668495E+02  0.23317188968E+03  0.41800000000E+01 0. -1.
         -5    1    3    3    0  502  0.21178044902E+02  0.42392743440E+02 -0.12443360193E+02  0.49172796292E+02  0.41800000000E+01 0. -1.
        -11    1    1    2    0    0 -0.23384623452E+03  0.15007100029E+02 -0.82997132512E+02  0.24859162989E+03  0.00000000000E+00 0. -1.
         11    1    1    2    0    0 -0.10181591801E+02 -0.16309913736E+02  0.10951517380E+02  0.22127219224E+02  0.00000000000E+00 0.  1.
</event>
<event>
 7    1  0.2619826E-009  0.1535017E+03  0.7561462E-02  0.1196235E+00
          4   -1    0    0  501    0  0.00000000000E+00  0.00000000000E+00  0.29665789963E+03  0.29665789963E+03  0.00000000000E+00 0. -1.
         -4   -1    0    0    0  501 -0.00000000000E+00 -0.00000000000E+00 -0.82723717973E+02  0.82723717973E+02  0.00000000000E+00 0.  1.
         25    2    1    2    0    0  0.10395610258E+03 -0.29163263335E+02  0.79026286486E+02  0.18316808321E+03  0.12509206833E+03 0.  0.
          5    1    3    3  502    0 -0.28959580434E+02 -0.79981395374E+01  0.18551302313E+02  0.35556303977E+02  0.41800000000E+01 0.  1.
         -5    1    3    3    0  502  0.13291568302E+03 -0.21165123798E+02  0.60474984173E+02  0.14761177923E+03  0.41800000000E+01 0.  1.
        -11    1    1    2    0    0 -0.11497378679E+03  0.45675774558E+01  0.11523599591E+03  0.16284707295E+03  0.00000000000E+00 0.  1.
         11    1    1    2    0    0  0.11017684207E+02  0.24595685879E+02  0.19671899261E+02  0.33366461450E+02  0.00000000000E+00 0. -1.
</event>
<event>
 7    1  0.2619826E-009  0.1203522E+03  0.7561462E-02  0.1242517E+00
         -1   -1    0    0    0  501 -0.00000000000E+00  0.00000000000E+00  0.42224529738E+02  0.42224529738E+02  0.00000000000E+00 0.  1.
          1   -1    0    0  501    0  0.00000000000E+00 -0.00000000000E+00 -0.53949808757E+03  0.53949808757E+03  0.00000000000E+00 0. -1.
         25    2    1    2    0    0  0.19556286424E+02  0.96266824842E+02 -0.33613935649E+03  0.37186980324E+03  0.12509090165E+03 0.  0.
          5    1    3    3  502    0 -0.30233263141E+02  0.56125265784E+02 -0.57494025053E+02  0.85948420441E+02  0.41800000000E+01 0. -1.
         -5    1    3    3    0  502  0.49789549566E+02  0.40141559058E+02 -0.27864533143E+03  0.28592138280E+03  0.41800000000E+01 0. -1.
        -11    1    1    2    0    0 -0.44109093212E+01 -0.97434883413E+02 -0.76746901007E+02  0.12410922384E+03  0.00000000000E+00 0.  1.
         11    1    1    2    0    0 -0.15145377103E+02  0.11680585715E+01 -0.84387300335E+02  0.85743590234E+02  0.00000000000E+00 0. -1.
</event>
<event>
 7    1  0.2619826E-009  0.1801273E+03  0.7561462E-02  0.1167680E+00
          1   -1    0    0  501    0  0.00000000000E+00  0.00000000000E+00  0.48719877845E+03  0.48719877845E+03  0.00000000000E+00 0. -1.
         -1   -1    0    0    0  501 -0.00000000000E+00 -0.00000000000E+00 -0.71583515869E+02  0.71583515869E+02  0.00000000000E+00 0.  1.
         25    2    1    2    0    0  0.11574200698E+03 -0.93209675143E+02  0.26479628959E+03  0.32840256340E+03  0.12508762108E+03 0.  0.
          5    1    3    3  502    0  0.12965307151E+03 -0.10562048592E+03  0.25920303792E+03  0.30849520785E+03  0.41800000000E+01 0.  1.
         -5    1    3    3    0  502 -0.13911064535E+02  0.12410810778E+02  0.55932516664E+01  0.19907355547E+02  0.41800000000E+01 0.  1.
        -11    1    1    2    0    0 -0.11019016273E+03  0.11029281675E+03  0.13905012045E+03  0.20890503437E+03  0.00000000000E+00 0. -1.
         11    1    1    2    0    0 -0.55518442514E+01 -0.17083141608E+02  0.11768852544E+02  0.21474696552E+02  0.00000000000E+00 0.  1.
</event>
<event>
 7    1  0.2619826E-009  0.1271057E+03  0.7561462E-02  0.1231815E+00
         -4   -1    0    0    0  501 -0.00000000000E+00  0.00000000000E+00  0.15454190828E+03  0.15454190828E+03  0.00000000000E+00 0.  1.
          4   -1    0    0  501    0  0.00000000000E+00 -0.00000000000E+00 -0.12396776691E+03  0.12396776691E+03  0.00000000000E+00 0. -1.
         25    2    1    2    0    0 -0.25053345289E+02  0.78911764558E+02  0.34625255965E-01  0.15000440626E+03  0.12508630622E+03 0.  0.
          5    1    3    3  502    0 -0.57386952777E+02  0.82376061726E+02 -0.30698084862E+02  0.10506627770E+03  0.41800000000E+01 0. -1.
         -5    1    3    3    0  502  0.32333607488E+02 -0.34642971677E+01  0.30732710118E+02  0.44938128569E+02  0.41800000000E+01 0. -1.
        -11    1    1    2    0    0  0.22683064385E+02  0.14875985252E+02 -0.60715515090E+01  0.27797123679E+02  0.00000000000E+00 0. -1.
         11    1    1    2    0    0  0.23702809040E+01 -0.93787749810E+02  0.36611067624E+02  0.10070814524E+03  0.00000000000E+00 0.  1.
</event>
<event>
 7    1  0.2619826E-009  0.1122957E+03  0.7561462E-02  0.1256377E+00
          1   -1    0    0  501    0  0.00000000000E+00  0.00000000000E+00  0.10678223032E+03  0.10678223032E+03  0.00000000000E+00 0. -1.
         -1   -1    0    0    0  501 -0.00000000000E+00 -0.00000000000E+00 -0.50008975020E+03  0.50008975020E+03  0.00000000000E+00 0.  1.
         25    2    1    2    0    0 -0.81599180803E+02  0.24870328467E+02 -0.44761505926E+03  0.47252864626E+03  0.12508845157E+03 0.  0.
          5    1    3    3  502    0  0.62872304474E+01 -0.49328166077E+01  0.51136334357E+01  0.10367429445E+02  0.41800000000E+01 0. -1.
         -5    1    3    3    0  502 -0.87886411251E+02  0.29803145075E+02 -0.45272869269E+03  0.46216121681E+03  0.41800000000E+01 0. -1.
        -11    1    1    2    0    0 -0.72197559173E+01 -0.32724078456E+02  0.18296847684E+02  0.38180686498E+02  0.00000000000E+00 0. -1.
         11    1    1    2    0    0  0.88818936720E+02  0.78537499894E+01  0.36010691699E+02  0.96162647768E+02  0.00000000000E+00 0.  1.
</event>
<event>
 7    1  0.2619826E-009  0.1676482E+03  0.7561462E-02  0.1180323E+00
          2   -1    0    0  501    0  0.00000000000E+00  0.00000000000E+00  0.56396062944E+03  0.56396062944E+03  0.00000000000E+00 0. -1.
         -2   -1    0    0    0  501 -0.00000000000E+00 -0.00000000000E+00 -0.97606513940E+02  0.97606513940E+02  0.00000000000E+00 0.  1.
         25    2    1    2    0    0 -0.93986293676E+02  0.12849518957E+03  0.56311900497E+02  0.21014933640E+03  0.12508907350E+03 0.  0.
          5    1    3    3  502    0 -0.85558311107E+02  0.90393829411E+02  0.93775687674E+02  0.15589297930E+03  0.41800000000E+01 0. -1.
         -5    1    3    3    0  502 -0.84279825687E+01  0.38101360158E+02 -0.37463787177E+02  0.54256357100E+02  0.41800000000E+01 0. -1.
        -11    1    1    2    0    0  0.59620972798E+02 -0.12303579675E+03  0.22617457578E+03  0.26428659900E+03  0.00000000000E+00 0. -1.
         11    1    1    2    0    0  0.34365320878E+02 -0.54593928158E+01  0.18386763922E+03  0.18713120798E+03  0.00000000000E+00 0.  1.
</event>
<event>
 7    1  0.2619826E-009  0.2247911E+03  0.7561462E-02  0.1130361E+00
          2   -1    0    0  501    0  0.00000000000E+00  0.00000000000E+00  0.12379143451E+04  0.12379143451E+04  0.00000000000E+00 0.  1.
         -2   -1    0    0    0  501 -0.00000000000E+00 -0.00000000000E+00 -0.72605982519E+02  0.72605982519E+02  0.00000000000E+00 0. -1.
         25    2    1    2    0    0 -0.14690427039E+03 -0.13650313939E+03  0.10185553776E+04  0.10456180953E+04  0.12509265441E+03 0.  0.
          5    1    3    3  502    0 -0.84100359215E+02 -0.14300223303E+03  0.83857954973E+03  0.85484246660E+03  0.41800000000E+01 0.  1.
         -5    1    3    3    0  502 -0.62803911174E+02  0.64990936364E+01  0.17997582786E+03  0.19077562866E+03  0.41800000000E+01 0.  1.
        -11    1    1    2    0    0  0.73875156281E+02  0.12670614473E+03  0.92529214830E+02  0.17341753494E+03  0.00000000000E+00 0. -1.
         11    1    1    2    0    0  0.73029114107E+02  0.97969946589E+01  0.54223770160E+02  0.91484697420E+02  0.00000000000E+00 0.  1.
</event>
<event>
 7    1  0.2619826E-009  0.1600507E+03  0.7561462E-02  0.1188639E+00
         -1   -1    0    0    0  501 -0.00000000000E+00  0.00000000000E+00  0.82559946655E+02  0.82559946655E+02  0.00000000000E+00 0.  1.
          1   -1    0    0  501    0  0.00000000000E+00 -0.00000000000E+00 -0.40523412785E+03  0.40523412785E+03  0.00000000000E+00 0. -1.
         25    2    1    2    0    0  0.12515602283E+03 -0.16529647424E+02 -0.27132590722E+03  0.32435079234E+03  0.12509368198E+03 0.  0.
          5    1    3    3  502    0  0.54147199574E+02 -0.67401356651E+02 -0.10201287119E+03  0.13378699634E+03  0.41800000000E+01 0. -1.
         -5    1    3    3    0  502  0.71008823253E+02  0.50871709227E+02 -0.16931303602E+03  0.19056379600E+03  0.41800000000E+01 0. -1.
        -11    1    1    2    0    0 -0.88663911173E+02 -0.23700717813E+02 -0.58234023115E+02  0.10869321330E+03  0.00000000000E+00 0.  1.
         11    1    1    2    0    0 -0.36492111653E+02  0.40230365237E+02  0.68857491324E+01  0.54750068869E+02  0.00000000000E+00 0. -1.
</event>
<event>
 7    1  0.2619826E-009  0.1953037E+03  0.7561462E-02  0.1153763E+00
          2   -1    0    0  501    0  0.00000000000E+00  0.00000000000E+00  0.22284925182E+03  0.22284925182E+03  0.00000000000E+00 0. -1.
         -2   -1    0    0    0  501 -0.00000000000E+00 -0.00000000000E+00 -0.19706440366E+03  0.19706440366E+03  0.00000000000E+00 0.  1.
         25    2    1    2    0    0 -0.17724475068E+03  0.13871570884E+02  0.11221048012E+01  0.21738473773E+03  0.12508694159E+03 0.  0.
          5    1    3    3  502    0  0.16679904488E+02 -0.28428546494E+01  0.13877098570E+02  0.22278853225E+02  0.41800000000E+01 0.  1.
         -5    1    3    3    0  502 -0.19392465516E+03  0.16714425534E+02 -0.12754993769E+02  0.19510588450E+03  0.41800000000E+01 0.  1.
        -11    1    1    2    0    0  0.71234432100E+02  0.21989008107E+01 -0.35458525125E+02  0.79602050761E+02  0.00000000000E+00 0.  1.
         11    1    1    2    0    0  0.10601031858E+03 -0.16070471695E+02  0.60121268482E+02  0.12292686699E+03  0.00000000000E+00 0. -1.
</event>
<event>
 7    1  0.2619826E-009  0.1216643E+03  0.7561462E-02  0.1240376E+00
         -1   -1    0    0    0  501 -0.00000000000E+00  0.00000000000E+00  0.65785692224E+02  0.65785692224E+02  0.00000000000E+00 0.  1.
          1   -1    0    0  501    0  0.00000000000E+00 -0.00000000000E+00 -0.24515748887E+03  0.24515748887E+03  0.00000000000E+00 0. -1.
         25    2    1    2    0    0  0.26419322053E+02 -0.54857811810E+02 -0.73474496183E+02  0.15732654381E+03  0.12508309120E+03 0.  0.
          5    1    3    3  502    0 -0.24631031575E+02 -0.74411980118E+02 -0.20587221225E+02  0.81148854454E+02  0.41800000000E+01 0.  1.
         -5    1    3    3    0  502  0.51050353628E+02  0.19554168308E+02 -0.52887274957E+02  0.76177689360E+02  0.41800000000E+01 0.  1.
        -11    1    1    2    0    0  0.34467254578E+02  0.19779882034E+02 -0.49737107362E+02  0.63663295706E+02  0.00000000000E+00 0.  1.
         11    1    1    2    0    0 -0.60886576631E+02  0.35077929776E+02 -0.56160193103E+02  0.89953341575E+02  0.00000000000E+00 0. -1.
</event>
<event>
 7    1  0.2619826E-009  0.9421487E+02  0.7561462E-02  0.1292954E+00
         -2   -1    0    0    0  501 -0.00000000000E+00  0.00000000000E+00  0.66133994548E+02  0.66133994548E+02  0.00000000000E+00 0.  1.
          2   -1    0    0  501    0  0.00000000000E+00 -0.00000000000E+00 -0.18392697122E+03  0.18392697122E+03  0.00000000000E+00 0. -1.
         25    2    1    2    0    0  0.18108817377E+02  0.22201408328E+02 -0.87392352021E+02  0.15526024943E+03  0.12508992791E+03 0.  0.
          5    1    3    3  502    0  0.46167461405E+02  0.62352423287E+02 -0.64727672313E+02  0.10112567995E+03  0.41800000000E+01 0.  1.
         -5    1    3    3    0  502 -0.28058644028E+02 -0.40151014959E+02 -0.22664679708E+02  0.54134569484E+02  0.41800000000E+01 0.  1.
        -11    1    1    2    0    0 -0.37751376946E+02 -0.13567466518E+02  0.16382745123E+02  0.43331708330E+02  0.00000000000E+00 0.  1.
         11    1    1    2    0    0  0.19642559569E+02 -0.86339418102E+01 -0.46783369779E+02  0.51469008009E+02  0.00000000000E+00 0. -1.
</event>
<event>
 7    1  0.2619826E-009  0.9679170E+02  0.7561462E-02  0.1287191E+00
         -1   -1    0    0    0  501 -0.00000000000E+00  0.00000000000E+00  0.82885097410E+02  0.82885097410E+02  0.00000000000E+00 0.  1.
          1   -1    0    0  501    0  0.00000000000E+00 -0.00000000000E+00 -0.16494927331E+03  0.16494927331E+03  0.00000000000E+00 0. -1.
         25    2    1    2    0    0  0.25810983238E+02  0.26311340002E+02 -0.20234602526E+02  0.13196488074E+03  0.12508715817E+03 0.  0.
          5    1    3    3  502    0  0.60866081445E+02  0.44390804838E+02  0.17243806699E+02  0.77395379023E+02  0.41800000000E+01 0.  1.
         -5    1    3    3    0  502 -0.35055098208E+02 -0.18079464836E+02 -0.37478409225E+02  0.54569501713E+02  0.41800000000E+01 0.  1.
        -11    1    1    2    0    0 -0.71561669347E+01  0.23877196537E+02 -0.56874887409E+02  0.62097375609E+02  0.00000000000E+00 0. -1.
         11    1    1    2    0    0 -0.18654816303E+02 -0.50188536538E+02 -0.49546859611E+01  0.53772114373E+02  0.00000000000E+00 0.  1.
</event>
<event>
 7    1  0.2619826E-009  0.1075802E+03  0.7561462E-02  0.1265118E+00
          4   -1    0    0  501    0  0.00000000000E+00  0.00000000000E+00  0.82914459241E+02  0.82914459241E+02  0.00000000000E+00 0. -1.
         -4   -1    0    0    0  501 -0.00000000000E+00 -0.00000000000E+00 -0.18956954800E+03  0.18956954800E+03  0.00000000000E+00 0.  1.
         25    2    1    2    0    0  0.11529353818E+02 -0.25606322898E+02  0.17543602921E+01  0.12821117628E+03  0.12508564334E+03 0.  0.
          5    1    3    3  502    0 -0.34560865810E+02  0.33735883984E+02  0.17105673258E+02  0.51406612136E+02  0.41800000000E+01 0. -1.
         -5    1    3    3    0  502  0.46090219628E+02 -0.59342206882E+02 -0.15351312966E+02  0.76804564140E+02  0.41800000000E+01 0. -1.
        -11    1    1    2    0    0 -0.34890688689E+01  0.57973077774E+02 -0.87128245535E+02  0.10471094746E+03  0.00000000000E+00 0.  1.
         11    1    1    2    0    0 -0.80402849490E+01 -0.32366754875E+02 -0.21281203512E+02  0.39561883501E+02  0.00000000000E+00 0. -1.
</event>
<event>
 7    1  0.2619826E-009  0.9727313E+02  0.7561462E-02  0.1286137E+00
         -1   -1    0    0    0  501 -0.00000000000E+00  0.00000000000E+00  0.15788785228E+03  0.15788785228E+03  0.00000000000E+00 0.  1.
          1   -1    0    0  501    0  0.00000000000E+00 -0.00000000000E+00 -0.11290926482E+03  0.11290926482E+03  0.00000000000E+00 0. -1.
         25    2    1    2    0    0 -0.19592305890E+02 -0.96867616317E+01  0.10213493556E+03  0.16296174816E+03  0.12508914621E+03 0.  0.
          5    1    3    3  502    0  0.33828480541E+02 -0.30637119742E+02  0.94364460355E+02  0.10490530482E+03  0.41800000000E+01 0.  1.
         -5    1    3    3    0  502 -0.53420786431E+02  0.20950358110E+02  0.77704752074E+01  0.58056443336E+02  0.41800000000E+01 0.  1.
        -11    1    1    2    0    0 -0.35121543669E+02  0.98152566476E+01 -0.18905801975E+02  0.41076653236E+02  0.00000000000E+00 0.  1.
         11    1    1    2    0    0  0.54713849559E+02 -0.12849501585E+00 -0.38250546120E+02  0.66758715708E+02  0.00000000000E+00 0. -1.
</event>
<event>
 7    1  0.2619826E-009  0.1382912E+03  0.7561462E-02  0.1215647E+00
          1   -1    0    0  501    0  0.00000000000E+00  0.00000000000E+00  0.46975097633E+03  0.46975097633E+03  0.00000000000E+00 0. -1.
         -1   -1    0    0    0  501 -0.00000000000E+00 -0.00000000000E+00 -0.48768298747E+02  0.48768298747E+02  0.00000000000E+00 0.  1.
         25    2    1    2    0    0 -0.69196600568E+02 -0.75269615815E+02  0.18894223211E+03  0.24859316422E+03  0.12508281108E+03 0.  0.
          5    1    3    3  502    0  0.16057579552E+02 -0.45269513279E+02  0.11729970156E+02  0.49620956193E+02  0.41800000000E+01 0. -1.
         -5    1    3    3    0  502 -0.85254180120E+02 -0.30000102535E+02  0.17721226195E+03  0.19897220802E+03  0.41800000000E+01 0. -1.
        -11    1    1    2    0    0  0.82806298037E+02  0.26021640855E+02  0.14768756357E+03  0.17130564854E+03  0.00000000000E+00 0. -1.
         11    1    1    2    0    0 -0.13609697469E+02  0.49247974960E+02  0.84352881901E+02  0.98620462318E+02  0.00000000000E+00 0.  1.
</event>
<event>
 7    1  0.2619826E-009  0.1564529E+03  0.7561462E-02  0.1192761E+00
         -2   -1    0    0    0  501 -0.00000000000E+00  0.00000000000E+00  0.24109916510E+02  0.24109916510E+02  0.00000000000E+00 0.  1.
          2   -1    0    0  501    0  0.00000000000E+00 -0.00000000000E+00 -0.13085822022E+04  0.13085822022E+04  0.00000000000E+00 0. -1.
         25    2    1    2    0    0  0.92894244600E+02  0.93631013006E+02 -0.85499225554E+03  0.87410265298E+03  0.12509030197E+03 0.  0.
          5    1    3    3  502    0  0.47832184174E+02  0.11915386279E+03 -0.55769619294E+03  0.57230068747E+03  0.41800000000E+01 0.  1.
         -5    1    3    3    0  502  0.45062060427E+02 -0.25522849783E+02 -0.29729606260E+03  0.30180196551E+03  0.41800000000E+01 0.  1.
        -11    1    1    2    0    0 -0.35755376154E+02 -0.44830371013E+02 -0.66033647215E+02  0.87456570100E+02  0.00000000000E+00 0.  1.
         11    1    1    2    0    0 -0.57138868447E+02 -0.48800641993E+02 -0.36344638297E+03  0.37113289566E+03  0.00000000000E+00 0. -1.
</event>
<event>
 7    1  0.2619826E-009  0.1260579E+03  0.7561462E-02  0.1233425E+00
          1   -1    0    0  501    0  0.00000000000E+00  0.00000000000E+00  0.40779797485E+03  0.40779797485E+03  0.00000000000E+00 0. -1.
         -1   -1    0    0    0  501 -0.00000000000E+00 -0.00000000000E+00 -0.96092310493E+02  0.96092310493E+02  0.00000000000E+00 0.  1.
         25    2    1    2    0    0  0.48287791256E+02 -0.44744990539E+02  0.35572689907E+03  0.38278286753E+03  0.12508905624E+03 0.  0.
          5    1    3    3  502    0  0.26987582554E+02  0.42353599023E+02  0.10487471087E+03  0.11635434819E+03  0.41800000000E+01 0. -1.
         -5    1    3    3    0  502  0.21300208701E+02 -0.87098589562E+02  0.25085218820E+03  0.26642851934E+03  0.41800000000E+01 0. -1.
        -11    1    1    2    0    0 -0.19710599574E+02  0.70674060535E+02 -0.35864296244E+02  0.81667486267E+02  0.00000000000E+00 0.  1.
         11    1    1    2    0    0 -0.28577191682E+02 -0.25929069997E+02 -0.81569384661E+01  0.39439931547E+02  0.00000000000E+00 0. -1.
</event>
<event>
 7    1  0.2619826E-009  0.1117400E+03  0.7561462E-02  0.1257381E+00
         -1   -1    0    0    0  501 -0.00000000000E+00  0.00000000000E+00  0.11302366127E+02  0.11302366127E+02  0.00000000000E+00 0.  1.
          1   -1    0    0  501    0  0.00000000000E+00 -0.00000000000E+00 -0.11693325103E+04  0.11693325103E+04  0.00000000000E+00 0. -1.
         25    2    1    2    0    0  0.32331293042E+02 -0.16062116144E+02 -0.69462753576E+03  0.70672438383E+03  0.12509451301E+03 0.  0.
          5    1    3    3  502    0  0.11319271190E+02  0.54593601047E+02 -0.27040398061E+03  0.27612383509E+03  0.41800000000E+01 0.  1.
         -5    1    3    3    0  502  0.21012021852E+02 -0.70655717191E+02 -0.42422355515E+03  0.43060054874E+03  0.41800000000E+01 0.  1.
        -11    1    1    2    0    0  0.12690546868E+02 -0.27999604779E+02 -0.86969730971E+02  0.92242950695E+02  0.00000000000E+00 0.  1.
         11    1    1    2    0    0 -0.45021839910E+02  0.44061720923E+02 -0.37643287742E+03  0.38166754187E+03  0.00000000000E+00 0. -1.
</event>
<event>
 7    1  0.2619826E-009  0.1187005E+03  0.7561462E-02  0.1245256E+00
         -2   -1    0    0    0  501 -0.00000000000E+00  0.00000000000E+00  0.12990887352E+02  0.12990887352E+02  0.00000000000E+00 0. -1.
          2   -1    0    0  501    0  0.00000000000E+00 -0.00000000000E+00 -0.12137752021E+04  0.12137752021E+04  0.00000000000E+00 0.  1.
         25    2    1    2    0    0  0.63720771348E+02  0.65659860344E+01 -0.65399621138E+03  0.66892544492E+03  0.12508699967E+03 0.  0.
          5    1    3    3  502    0  0.35212451914E+02 -0.51284852646E+02 -0.46550789728E+03  0.46966491003E+03  0.41800000000E+01 0.  1.
         -5    1    3    3    0  502  0.28508319435E+02  0.57850838680E+02 -0.18848831410E+03  0.19926053489E+03  0.41800000000E+01 0.  1.
        -11    1    1    2    0    0 -0.58594764966E+02 -0.43599039954E+02 -0.35199870987E+03  0.35949591725E+03  0.00000000000E+00 0. -1.
         11    1    1    2    0    0 -0.51260063823E+01  0.37033053919E+02 -0.19478939354E+03  0.19834472733E+03  0.00000000000E+00 0.  1.
</event>
<event>
 7    1  0.2619826E-009  0.1040717E+03  0.7561462E-02  0.1271960E+00
         -4   -1    0    0    0  501 -0.00000000000E+00  0.00000000000E+00  0.63166901171E+02  0.63166901171E+02  0.00000000000E+00 0.  1.
          4   -1    0    0  501    0  0.00000000000E+00 -0.00000000000E+00 -0.21637979476E+03  0.21637979476E+03  0.00000000000E+00 0. -1.
         25    2    1    2    0    0  0.43828769010E+02 -0.94807531415E+01 -0.11587088958E+03  0.17630923667E+03  0.12509211889E+03 0.  0.
          5    1    3    3  502    0 -0.14807594817E+02 -0.55897804576E+02 -0.51544573209E+02  0.77576702998E+02  0.41800000000E+01 0. -1.
         -5    1    3    3    0  502  0.58636363827E+02  0.46417051435E+02 -0.64326316370E+02  0.98732533668E+02  0.41800000000E+01 0. -1.
        -11    1    1    2    0    0 -0.22731219402E+02  0.35260733787E+02 -0.52024907458E+02  0.66832766505E+02  0.00000000000E+00 0. -1.
         11    1    1    2    0    0 -0.21097549608E+02 -0.25779980646E+02  0.14682903445E+02  0.36404692763E+02  0.00000000000E+00 0.  1.
</event>
<event>
 7    1  0.3434364E-009  0.1635054E+03  0.7561462E-02  0.1184795E+00
         -1   -1    0    0    0  501 -0.00000000000E+00  0.00000000000E+00  0.46185062542E+02  0.46185062542E+02  0.00000000000E+00 0.  1.
          1   -1    0    0  501    0  0.00000000000E+00 -0.00000000000E+00 -0.71819178602E+03  0.71819178602E+03  0.00000000000E+00 0. -1.
         25    2    1    2    0    0 -0.10042581237E+03  0.10246830335E+03 -0.41143052465E+03  0.45332901832E+03  0.12508806997E+03 0.  0.
          5    1    3    3  502    0 -0.93302604028E+02  0.12670702629E+03 -0.38762124674E+03  0.41836317925E+03  0.41800000000E+01 0. -1.
         -5    1    3    3    0  502 -0.71232083458E+01 -0.24238722939E+02 -0.23809277918E+02  0.34965839069E+02  0.41800000000E+01 0. -1.
        -11    1    1    2    0    0  0.48230560242E+02 -0.40548483526E+02 -0.36574643662E+02  0.72856509775E+02  0.00000000000E+00 0.  1.
         11    1    1    2    0    0  0.52195252131E+02 -0.61919819824E+02 -0.22400155516E+03  0.23819132047E+03  0.00000000000E+00 0. -1.
</event>
<event>
 7    1  0.2619826E-009  0.2268761E+03  0.7561462E-02  0.1128858E+00
          2   -1    0    0  501    0  0.00000000000E+00  0.00000000000E+00  0.11158092526E+04  0.11158092526E+04  0.00000000000E+00 0. -1.
         -2   -1    0    0    0  501 -0.00000000000E+00 -0.00000000000E+00 -0.53407816804E+02  0.53407816804E+02  0.00000000000E+00 0.  1.
         25    2    1    2    0    0 -0.13617586372E+02 -0.21494449237E+03  0.58926373598E+03  0.63973887892E+03  0.12509000442E+03 0.  0.
          5    1    3    3  502    0  0.12298843177E+01 -0.14810282047E+03  0.52583134357E+03  0.54630763524E+03  0.41800000000E+01 0.  1.
         -5    1    3    3    0  502 -0.14847470690E+02 -0.66841671901E+02  0.63432392407E+02  0.93431243676E+02  0.41800000000E+01 0.  1.
        -11    1    1    2    0    0 -0.42597153053E+02  0.10950088892E+03  0.25466721469E+03  0.28046452959E+03  0.00000000000E+00 0. -1.
         11    1    1    2    0    0  0.56214739425E+02  0.10544360345E+03  0.21847048513E+03  0.24901366089E+03  0.00000000000E+00 0.  1.
</event>
<event>
 7    1  0.2619826E-009  0.2009985E+03  0.7561462E-02  0.1148899E+00
          2   -1    0    0  501    0  0.00000000000E+00  0.00000000000E+00  0.42624696948E+03  0.42624696948E+03  0.00000000000E+00 0. -1.
         -2   -1    0    0    0  501 -0.00000000000E+00 -0.00000000000E+00 -0.14033668832E+03  0.14033668832E+03  0.00000000000E+00 0.  1.
         25    2    1    2    0    0  0.43751066382E+02  0.17579626883E+03  0.63358364125E+00  0.22015037561E+03  0.12508917823E+03 0.  0.
          5    1    3    3  502    0 -0.46230461615E+01  0.17120424770E+03 -0.16554301444E+01  0.17132565434E+03  0.41800000000E+01 0.  1.
         -5    1    3    3    0  502  0.48374112543E+02  0.45920211226E+01  0.22890137856E+01  0.48824721263E+02  0.41800000000E+01 0.  1.
        -11    1    1    2    0    0 -0.11303768278E+02 -0.79330870642E+02  0.62891437449E+02  0.10186508292E+03  0.00000000000E+00 0. -1.
         11    1    1    2    0    0 -0.32447298104E+02 -0.96465398185E+02  0.22238526006E+03  0.24456819927E+03  0.00000000000E+00 0.  1.
</event>
<event>
 7    1  0.2619826E-009  0.5017384E+03  0.7561462E-02  0.1013326E+00
         -2   -1    0    0    0  501 -0.00000000000E+00  0.00000000000E+00  0.96475743900E+02  0.96475743900E+02  0.00000000000E+00 0. -1.
          2   -1    0    0  501    0  0.00000000000E+00 -0.00000000000E+00 -0.26901933386E+04  0.26901933386E+04  0.00000000000E+00 0.  1.
         25    2    1    2    0    0 -0.89564326563E+01 -0.49163529015E+03 -0.15350989354E+04  0.16167749612E+04  0.12508819901E+03 0.  0.
          5    1    3    3  502    0  0.35542821555E+02 -0.42863917231E+03 -0.12984309911E+04  0.13678213857E+04  0.41800000000E+01 0. -1.
         -5    1    3    3    0  502 -0.44499254211E+02 -0.62996117842E+02 -0.23666794427E+03  0.24895357546E+03  0.41800000000E+01 0. -1.
        -11    1    1    2    0    0 -0.16996097796E+02  0.41194557328E+03 -0.91521335113E+03  0.10037945511E+04  0.00000000000E+00 0.  1.
         11    1    1    2    0    0  0.25952530452E+02  0.79689716875E+02 -0.14340530817E+03  0.16609957021E+03  0.00000000000E+00 0. -1.
</event>
<event>
 7    1  0.2619826E-009  0.8859243E+02  0.7561462E-02  0.1306297E+00
          1   -1    0    0  501    0  0.00000000000E+00  0.00000000000E+00  0.14844152918E+03  0.14844152918E+03  0.00000000000E+00 0. -1.
         -1   -1    0    0    0  501 -0.00000000000E+00 -0.00000000000E+00 -0.17107948222E+03  0.17107948222E+03  0.00000000000E+00 0.  1.
         25    2    1    2    0    0  0.60149796539E+02 -0.11423115843E+02  0.86025889005E+02  0.16369449995E+03  0.12508776973E+03 0.  0.
          5    1    3    3  502    0  0.62628085926E+02 -0.26291925335E+02  0.11335027279E+03  0.13220930083E+03  0.41800000000E+01 0.  1.
         -5    1    3    3    0  502 -0.24782893870E+01  0.14868809492E+02 -0.27324383787E+02  0.31485199115E+02  0.41800000000E+01 0.  1.
        -11    1    1    2    0    0 -0.13065733702E+02  0.37469599576E+02 -0.62964480090E+01  0.40178720078E+02  0.00000000000E+00 0. -1.
         11    1    1    2    0    0 -0.47084062837E+02 -0.26046483733E+02 -0.10236739404E+03  0.11564779137E+03  0.00000000000E+00 0.  1.
</event>
<event>
 7    1  0.2619826E-009  0.1079195E+03  0.7561462E-02  0.1264472E+00
         -2   -1    0    0    0  501 -0.00000000000E+00  0.00000000000E+00  0.97580685328E+01  0.97580685328E+01  0.00000000000E+00 0. -1.
          2   -1    0    0  501    0  0.00000000000E+00 -0.00000000000E+00 -0.31509573760E+04  0.31509573760E+04  0.00000000000E+00 0.  1.
         25    2    1    2    0    0 -0.23919434073E+02  0.86040068120E+02 -0.27275196360E+04  0.27318466308E+04  0.12509043418E+03 0.  0.
          5    1    3    3  502    0  0.14158829325E+02  0.95795596930E+01 -0.18680173537E+04  0.18681002507E+04  0.41800000000E+01 0. -1.
         -5    1    3    3    0  502 -0.38078263398E+02  0.76460508427E+02 -0.85950228228E+03  0.86374638010E+03  0.41800000000E+01 0. -1.
        -11    1    1    2    0    0 -0.23608991337E+02 -0.40599503111E+02 -0.19050356998E+03  0.19620732478E+03  0.00000000000E+00 0.  1.
         11    1    1    2    0    0  0.47528425410E+02 -0.45440565009E+02 -0.22317610150E+03  0.23266148897E+03  0.00000000000E+00 0. -1.
</event>
<event>
 7    1  0.2619826E-009  0.2148533E+03  0.7561462E-02  0.1137779E+00
          2   -1    0    0  501    0  0.00000000000E+00  0.00000000000E+00  0.19610546350E+04  0.19610546350E+04  0.00000000000E+00 0. -1.
         -2   -1    0    0    0  501 -0.00000000000E+00 -0.00000000000E+00 -0.27536717961E+02  0.27536717961E+02  0.00000000000E+00 0.  1.
         25    2    1    2    0    0 -0.16530803497E+03 -0.12121171380E+03  0.97903771424E+03  0.10080614237E+04  0.12511579430E+03 0.  0.
          5    1    3    3  502    0 -0.12590648051E+03 -0.37742393665E+02  0.38404033635E+03  0.40593273144E+03  0.41800000000E+01 0.  1.
         -5    1    3    3    0  502 -0.39401554461E+02 -0.83469320131E+02  0.59499737789E+03  0.60212869222E+03  0.41800000000E+01 0.  1.
        -11    1    1    2    0    0  0.12972878048E+03  0.85363765653E+02  0.85471515036E+03  0.86870853410E+03  0.00000000000E+00 0.  1.
         11    1    1    2    0    0  0.35579254486E+02  0.35847948143E+02  0.99765052460E+02  0.11182139522E+03  0.00000000000E+00 0. -1.
</event>
<event>
 6    1  0.2619826E-009  0.1237289E+03  0.7561462E-02  0.1237069E+00
         -1   -1    0    0    0  501 -0.00000000000E+00  0.00000000000E+00  0.28279673081E+03  0.28279673081E+03  0.00000000000E+00 0.  1.
          1   -1    0    0  501    0  0.00000000000E+00 -0.00000000000E+00 -0.78523394031E+02  0.78523394031E+02  0.00000000000E+00 0. -1.
          5    1    1    2  502    0  0.93744759770E+02 -0.66465120763E+02  0.25898952304E+02  0.11787247513E+03  0.41800000000E+01 0.  1.
         -5    1    1    2    0  502 -0.14650570943E+02  0.48640552924E+01  0.64238843950E+02  0.66199695882E+02  0.41800000000E+01 0.  1.
        -11    1    1    2    0    0 -0.46041262152E+02  0.68666439776E+02  0.11707268649E+03  0.14332093948E+03  0.00000000000E+00 0.  1.
         11    1    1    2    0    0 -0.33052926676E+02 -0.70653743053E+01 -0.29371459693E+01  0.33927014345E+02  0.00000000000E+00 0. -1.
</event>
<event>
 7    1  0.2619826E-009  0.1020408E+03  0.7561462E-02  0.1276062E+00
          1   -1    0    0  501    0  0.00000000000E+00  0.00000000000E+00  0.96357587478E+02  0.96357587478E+02  0.00000000000E+00 0. -1.
         -1   -1    0    0    0  501 -0.00000000000E+00 -0.00000000000E+00 -0.18642728861E+03  0.18642728861E+03  0.00000000000E+00 0.  1.
         25    2    1    2    0    0 -0.19276243016E+02  0.60232811529E+02 -0.99104017445E+02  0.17166446893E+03  0.12509004152E+03 0.  0.
          5    1    3    3  502    0 -0.63561506136E+02  0.69847348083E+02 -0.63439713658E+02  0.11384545123E+03  0.41800000000E+01 0. -1.
         -5    1    3    3    0  502  0.44285263120E+02 -0.96145365539E+01 -0.35664303787E+02  0.57819017696E+02  0.41800000000E+01 0. -1.
        -11    1    1    2    0    0  0.67409342004E+01 -0.87030699936E+01 -0.38413920502E+02  0.39960141511E+02  0.00000000000E+00 0.  1.
         11    1    1    2    0    0  0.12535308815E+02 -0.51529741535E+02  0.47448236820E+02  0.71160265648E+02  0.00000000000E+00 0. -1.
</event>
<event>
 7    1  0.2619826E-009  0.8820722E+02  0.7561462E-02  0.1307252E+00
          2   -1    0    0  501    0  0.00000000000E+00  0.00000000000E+00  0.36146837627E+02  0.36146837627E+02  0.00000000000E+00 0. -1.
         -2   -1    0    0    0  501 -0.00000000000E+00 -0.00000000000E+00 -0.41096300693E+03  0.41096300693E+03  0.00000000000E+00 0.  1.
         25    2    1    2    0    0  0.50330194158E+02 -0.27031446639E+01 -0.16471683918E+03  0.21288443747E+03  0.12509081171E+03 0.  0.
          5    1    3    3  502    0 -0.84443218079E+01 -0.12138634765E+02  0.16230835791E+02  0.22350960947E+02  0.41800000000E+01 0. -1.
         -5    1    3    3    0  502  0.58774515966E+02  0.94354901010E+01 -0.18094767497E+03  0.19053347653E+03  0.41800000000E+01 0. -1.
        -11    1    1    2    0    0 -0.52843747576E+02  0.38568147684E+02 -0.11150055755E+03  0.12927620821E+03  0.00000000000E+00 0.  1.
         11    1    1    2    0    0  0.25135534176E+01 -0.35865003021E+02 -0.98598772573E+02  0.10494919888E+03  0.00000000000E+00 0. -1.
</event>
<event>
 7    1  0.2619826E-009  0.1515112E+03  0.7561462E-02  0.1198628E+00
          1   -1    0    0  501    0  0.00000000000E+00  0.00000000000E+00  0.68168859297E+02  0.68168859297E+02  0.00000000000E+00 0. -1.
         -1   -1    0    0    0  501 -0.00000000000E+00 -0.00000000000E+00 -0.36054117242E+03  0.36054117242E+03  0.00000000000E+00 0.  1.
         25    2    1    2    0    0 -0.91915330831E+02 -0.60861189203E+02 -0.15991197563E+03  0.23101577061E+03  0.12507571279E+03 0.  0.
          5    1    3    3  502    0  0.10414988760E+02 -0.55125898375E+02 -0.92524040064E+02  0.10828438046E+03  0.41800000000E+01 0.  1.
         -5    1    3    3    0  502 -0.10233031959E+03 -0.57352908281E+01 -0.67387935566E+02  0.12273139015E+03  0.41800000000E+01 0.  1.
        -11    1    1    2    0    0  0.13931078553E+02  0.64629929122E+02 -0.79269984778E+02  0.10322225135E+03  0.00000000000E+00 0.  1.
         11    1    1    2    0    0  0.77984252278E+02 -0.37687399190E+01 -0.53190352713E+02  0.94472009747E+02  0.00000000000E+00 0. -1.
</event>
<event>
 7    1  0.2619826E-009  0.1858612E+03  0.7561462E-02  0.1162248E+00
         -1   -1    0    0    0  501 -0.00000000000E+00  0.00000000000E+00  0.23073486473E+03  0.23073486473E+03  0.00000000000E+00 0.  1.
          1   -1    0    0  501    0  0.00000000000E+00 -0.00000000000E+00 -0.19038824057E+03  0.19038824057E+03  0.00000000000E+00 0. -1.
         25    2    1    2    0    0  0.10901345011E+01 -0.17444663967E+03 -0.20985853656E+02  0.21568567805E+03  0.12508831750E+03 0.  0.
          5    1    3    3  502    0 -0.14546394966E+02 -0.15655567948E+03  0.29226603289E+02  0.15997795199E+03  0.41800000000E+01 0.  1.
         -5    1    3    3    0  502  0.15636529467E+02 -0.17890960198E+02 -0.50212456946E+02  0.55707726063E+02  0.41800000000E+01 0.  1.
        -11    1    1    2    0    0 -0.28317026544E+02  0.15314562303E+03  0.68487935188E+02  0.17013533764E+03  0.00000000000E+00 0.  1.
         11    1    1    2    0    0  0.27226892043E+02  0.21301016641E+02 -0.71554573709E+01  0.35302089604E+02  0.00000000000E+00 0. -1.
</event>
<event>
 7    1  0.2619826E-009  0.1570168E+03  0.7561462E-02  0.1192106E+00
         -2   -1    0    0    0  501 -0.00000000000E+00  0.00000000000E+00  0.57569521636E+02  0.57569521636E+02  0.00000000000E+00 0.  1.
          2   -1    0    0  501    0  0.00000000000E+00 -0.00000000000E+00 -0.44912413304E+03  0.44912413304E+03  0.00000000000E+00 0. -1.
         25    2    1    2    0    0 -0.11289866255E+03  0.32514705326E+02 -0.23592064347E+03  0.29173518850E+03  0.12509019197E+03 0.  0.
          5    1    3    3  502    0  0.53306544809E+01  0.46717479586E+02 -0.10253803103E+03  0.11288250078E+03  0.41800000000E+01 0. -1.
         -5    1    3    3    0  502 -0.11822931703E+03 -0.14202774260E+02 -0.13338261244E+03  0.17885268772E+03  0.41800000000E+01 0. -1.
        -11    1    1    2    0    0  0.33591003435E+02 -0.55702412591E+02 -0.78211878984E+02  0.10172616327E+03  0.00000000000E+00 0. -1.
         11    1    1    2    0    0  0.79307659116E+02  0.23187707266E+02 -0.77422088957E+02  0.11323230290E+03  0.00000000000E+00 0.  1.
</event>
<event>
 7    1  0.2619826E-009  0.1309206E+03  0.7561462E-02  0.1226096E+00
         -1   -1    0    0    0  501 -0.00000000000E+00  0.00000000000E+00  0.22105732899E+03  0.22105732899E+03  0.00000000000E+00 0.  1.
          1   -1    0    0  501    0  0.00000000000E+00 -0.00000000000E+00 -0.96304432357E+02  0.96304432357E+02  0.00000000000E+00 0. -1.
         25    2    1    2    0    0  0.15764270665E+02 -0.93931111689E+02  0.59818413757E+02  0.16822541689E+03  0.12509988925E+03 0.  0.
          5    1    3    3  502    0 -0.20089838017E+02  0.15168207897E+02  0.45838258739E+02  0.52462314918E+02  0.41800000000E+01 0.  1.
         -5    1    3    3    0  502  0.35854108682E+02 -0.10909931959E+03  0.13980155018E+02  0.11576310197E+03  0.41800000000E+01 0.  1.
        -11    1    1    2    0    0  0.26912738919E+01 -0.12806549477E+02  0.34080215959E+02  0.36506325267E+02  0.00000000000E+00 0.  1.
         11    1    1    2    0    0 -0.18455544556E+02  0.10673766117E+03  0.30854266919E+02  0.11263001919E+03  0.00000000000E+00 0. -1.
</event>
<event>
 7    1  0.2619826E-009  0.1093526E+03  0.7561462E-02  0.1261773E+00
          1   -1    0    0  501    0  0.00000000000E+00  0.00000000000E+00  0.22037122874E+02  0.22037122874E+02  0.00000000000E+00 0. -1.
         -1   -1    0    0    0  501 -0.00000000000E+00 -0.00000000000E+00 -0.57061969677E+03  0.57061969677E+03  0.00000000000E+00 0.  1.
         25    2    1    2    0    0 -0.12801013904E+02 -0.21291360133E+02 -0.27264005254E+03  0.30099132842E+03  0.12508394605E+03 0.  0.
          5    1    3    3  502    0 -0.67307282840E+02 -0.46672119256E-01 -0.12310189796E+03  0.14036317958E+03  0.41800000000E+01 0.  1.
         -5    1    3    3    0  502  0.54506268936E+02 -0.21244688014E+02 -0.14953815459E+03  0.16062814884E+03  0.41800000000E+01 0.  1.
        -11    1    1    2    0    0 -0.26792992279E+02  0.40540151150E+02 -0.11582335276E+03  0.12560420907E+03  0.00000000000E+00 0. -1.
         11    1    1    2    0    0  0.39594006183E+02 -0.19248791017E+02 -0.16011916859E+03  0.16606128215E+03  0.00000000000E+00 0.  1.
</event>
<event>
 7    1  0.2619826E-009  0.1356414E+03  0.7561462E-02  0.1219317E+00
         -2   -1    0    0    0  501 -0.00000000000E+00  0.00000000000E+00  0.89016564931E+02  0.89016564931E+02  0.00000000000E+00 0.  1.
          2   -1    0    0  501    0  0.00000000000E+00 -0.00000000000E+00 -0.34773832297E+03  0.34773832297E+03  0.00000000000E+00 0. -1.
         25    2    1    2    0    0 -0.80928340162E+02 -0.41234789085E+02 -0.26745611991E+03  0.30891647721E+03  0.12508760829E+03 0.  0.
          5    1    3    3  502    0  0.17768575429E+01 -0.66197837664E+02 -0.93588423649E+02  0.11472391370E+03  0.41800000000E+01 0.  1.
         -5    1    3    3    0  502 -0.82705197705E+02  0.24963048579E+02 -0.17386769626E+03  0.19419256351E+03  0.41800000000E+01 0.  1.
        -11    1    1    2    0    0  0.61903748892E+02  0.63818215396E+02  0.27241971214E+02  0.92989051715E+02  0.00000000000E+00 0.  1.
         11    1    1    2    0    0  0.19024591271E+02 -0.22583426310E+02 -0.18507609345E+02  0.34849358970E+02  0.00000000000E+00 0. -1.
</event>
<event>
 7    1  0.2619826E-009  0.6819562E+02  0.7561462E-02  0.1366339E+00
          2   -1    0    0  501    0  0.00000000000E+00  0.00000000000E+00  0.85390279698E+03  0.85390279698E+03  0.00000000000E+00 0. -1.
         -2   -1    0    0    0  501 -0.00000000000E+00 -0.00000000000E+00 -0.15256891503E+02  0.15256891503E+02  0.00000000000E+00 0.  1.
         25    2    1    2    0    0 -0.14543607891E+02 -0.27162068252E+02  0.53263692791E+03  0.54799392949E+03  0.12508379315E+03 0.  0.
          5    1    3    3  502    0 -0.43977883628E+01  0.11016526834E+02  0.48830920648E+03  0.48847114341E+03  0.41800000000E+01 0. -1.
         -5    1    3    3    0  502 -0.10145819529E+02 -0.38178595086E+02  0.44327721423E+02  0.59522786084E+02  0.41800000000E+01 0. -1.
        -11    1    1    2    0    0 -0.25926193520E+02 -0.11278951107E+02  0.37764742102E+02  0.47175820019E+02  0.00000000000E+00 0.  1.
         11    1    1    2    0    0  0.40469801411E+02  0.38441019358E+02  0.26824423547E+03  0.27398993897E+03  0.00000000000E+00 0. -1.
</event>
<event>
 7    1  0.2619826E-009  0.2942559E+03  0.7561462E-02  0.1088148E+00
          1   -1    0    0  501    0  0.00000000000E+00  0.00000000000E+00  0.13742858606E+03  0.13742858606E+03  0.00000000000E+00 0. -1.
         -1   -1    0    0    0  501 -0.00000000000E+00 -0.00000000000E+00 -0.73183399319E+03  0.73183399319E+03  0.00000000000E+00 0.  1.
         25    2    1    2    0    0 -0.36747106236E+01  0.28036997156E+03 -0.43539519482E+03  0.53276326674E+03  0.12508756237E+03 0.  0.
          5    1    3    3  502    0 -0.40722149597E+02  0.24451185352E+03 -0.30877658108E+03  0.39598584495E+03  0.41800000000E+01 0. -1.
         -5    1    3    3    0  502  0.37047438973E+02  0.35858118041E+02 -0.12661861375E+03  0.13677742179E+03  0.41800000000E+01 0. -1.
        -11    1    1    2    0    0 -0.31990346025E+02 -0.99503431707E+02 -0.95321279084E+02  0.14145833806E+03  0.00000000000E+00 0.  1.
         11    1    1    2    0    0  0.35665056649E+02 -0.18086653985E+03 -0.63688933221E+02  0.19504097446E+03  0.00000000000E+00 0. -1.
</event>
<event>
 7    1  0.2619826E-009  0.1833893E+03  0.7561462E-02  0.1164563E+00
         -2   -1    0    0    0  501 -0.00000000000E+00  0.00000000000E+00  0.91666370193E+03  0.91666370193E+03  0.00000000000E+00 0. -1.
          2   -1    0    0  501    0  0.00000000000E+00 -0.00000000000E+00 -0.40343010558E+02  0.40343010558E+02  0.00000000000E+00 0.  1.
         25    2    1    2    0    0  0.13305170547E+03  0.82342375035E+02  0.43696350761E+03  0.48069512999E+03  0.12509067892E+03 0.  0.
          5    1    3    3  502    0  0.58367051591E+01 -0.19322296801E+02  0.84776437988E+01  0.22288138665E+02  0.41800000000E+01 0.  1.
         -5    1    3    3    0  502  0.12721500031E+03  0.10166467184E+03  0.42848586382E+03  0.45840699132E+03  0.41800000000E+01 0.  1.
        -11    1    1    2    0    0 -0.43749083787E+02 -0.83151436991E+02  0.20466289743E+03  0.22520001197E+03  0.00000000000E+00 0.  1.
         11    1    1    2    0    0 -0.89302621684E+02  0.80906195534E+00  0.23469428633E+03  0.25111157053E+03  0.00000000000E+00 0. -1.
</event>
<event>
 7    1  0.2619826E-009  0.1442871E+03  0.7561462E-02  0.1207674E+00
          2   -1    0    0  501    0  0.00000000000E+00  0.00000000000E+00  0.23271211319E+02  0.23271211319E+02  0.00000000000E+00 0. -1.
         -2   -1    0    0    0  501 -0.00000000000E+00 -0.00000000000E+00 -0.11111210390E+04  0.11111210390E+04  0.00000000000E+00 0.  1.
         25    2    1    2    0    0  0.11402874958E+03  0.22675818213E+00 -0.50746474708E+03  0.53494804086E+03  0.12508528984E+03 0.  0.
          5    1    3    3  502    0  0.15498235216E+02  0.31867585722E+02 -0.30724349510E+02  0.47087114664E+02  0.41800000000E+01 0.  1.
         -5    1    3    3    0  502  0.98530514368E+02 -0.31640827540E+02 -0.47674039757E+03  0.48786092620E+03  0.41800000000E+01 0.  1.
        -11    1    1    2    0    0 -0.77506935359E+01 -0.36276910414E+02 -0.16923419140E+03  0.17325212558E+03  0.00000000000E+00 0.  1.
         11    1    1    2    0    0 -0.10627805605E+03  0.36050152232E+02 -0.41115088922E+03  0.42619208390E+03  0.00000000000E+00 0. -1.
</event>
<event>
 7    1  0.2619826E-009  0.8664902E+02  0.7561462E-02  0.1311176E+00
          2   -1    0    0  501    0  0.00000000000E+00  0.00000000000E+00  0.21770572869E+03  0.21770572869E+03  0.00000000000E+00 0. -1.
         -2   -1    0    0    0  501 -0.00000000000E+00 -0.00000000000E+00 -0.59075312648E+02  0.59075312648E+02  0.00000000000E+00 0.  1.
         25    2    1    2    0    0  0.20792287532E+02  0.30364182582E+02  0.99123088610E+02  0.16379041937E+03  0.12509041521E+03 0.  0.
          5    1    3    3  502    0  0.11652034616E+02  0.58311382304E+02  0.11542634384E+03  0.12991035551E+03  0.41800000000E+01 0. -1.
         -5    1    3    3    0  502  0.91402529165E+01 -0.27947199722E+02 -0.16303255232E+02  0.33880063856E+02  0.41800000000E+01 0. -1.
        -11    1    1    2    0    0 -0.46282163113E+02 -0.26856635013E+01  0.59416507534E+02  0.75362940352E+02  0.00000000000E+00 0.  1.
         11    1    1    2    0    0  0.25489875581E+02 -0.27678519081E+02  0.90819898717E-01  0.37627681617E+02  0.00000000000E+00 0. -1.
</event>
<event>
 7    1  0.2619826E-009  0.1073277E+03  0.7561462E-02  0.1265600E+00
          2   -1    0    0  501    0  0.00000000000E+00  0.00000000000E+00  0.42300311268E+03  0.42300311268E+03  0.00000000000E+00 0. -1.
         -2   -1    0    0    0  501 -0.00000000000E+00 -0.00000000000E+00 -0.55181346868E+02  0.55181346868E+02  0.00000000000E+00 0.  1.
         25    2    1    2    0    0 -0.92726208747E+01  0.85335219523E+02  0.29837033757E+03  0.33472641871E+03  0.12509530706E+03 0.  0.
          5    1    3    3  502    0  0.13657908798E+02 -0.17617642510E+02  0.15520391938E+03  0.15685231522E+03  0.41800000000E+01 0. -1.
         -5    1    3    3    0  502 -0.22930529673E+02  0.10295286203E+03  0.14316641819E+03  0.17787410348E+03  0.41800000000E+01 0. -1.
        -11    1    1    2    0    0  0.79406822416E+01 -0.29049648520E+02  0.80618667439E+02  0.86059898055E+02  0.00000000000E+00 0. -1.
         11    1    1    2    0    0  0.13319386331E+01 -0.56285571003E+02 -0.11167239202E+02  0.57398142784E+02  0.00000000000E+00 0.  1.
</event>
<event>
 7    1  0.2619826E-009  0.1437483E+03  0.7561462E-02  0.1208372E+00
         -2   -1    0    0    0  501 -0.00000000000E+00  0.00000000000E+00  0.61617626255E+02  0.61617626255E+02  0.00000000000E+00 0.  1.
          2   -1    0    0  501    0  0.00000000000E+00 -0.00000000000E+00 -0.43057585868E+03  0.43057585868E+03  0.00000000000E+00 0. -1.
         25    2    1    2    0    0 -0.31786272423E+02  0.11549137909E+03 -0.14338146168E+03  0.22484052223E+03  0.12508553523E+03 0.  0.
          5    1    3    3  502    0  0.30970818203E+02  0.30730949458E+02  0.34998628208E+01  0.43969356085E+02  0.41800000000E+01 0.  1.
         -5    1    3    3    0  502 -0.62757090626E+02  0.84760429630E+02 -0.14688132450E+03  0.18087116614E+03  0.41800000000E+01 0.  1.
        -11    1    1    2    0    0  0.35364555875E+02 -0.16432441326E+02 -0.34372200922E+02  0.51981969339E+02  0.00000000000E+00 0.  1.
         11    1    1    2    0    0 -0.35782834520E+01 -0.99058937762E+02 -0.19120456983E+03  0.21537099337E+03  0.00000000000E+00 0. -1.
</event>
<event>
 7    1  0.2619826E-009  0.1256682E+03  0.7561462E-02  0.1234029E+00
         -2   -1    0    0    0  501 -0.00000000000E+00  0.00000000000E+00  0.75488544120E+03  0.75488544120E+03  0.00000000000E+00 0.  1.
          2   -1    0    0  501    0  0.00000000000E+00 -0.00000000000E+00 -0.24647430465E+02  0.24647430465E+02  0.00000000000E+00 0. -1.
         25    2    1    2    0    0  0.56631027904E+02  0.55622696993E+02  0.47176942860E+03  0.49448434023E+03  0.12508961278E+03 0.  0.
          5    1    3    3  502    0  0.81441240559E+02  0.77762247027E+02  0.39410647574E+03  0.40989880379E+03  0.41800000000E+01 0. -1.
         -5    1    3    3    0  502 -0.24810212655E+02 -0.22139550034E+02  0.77662952866E+02  0.84585536444E+02  0.41800000000E+01 0. -1.
        -11    1    1    2    0    0 -0.72627902798E+02 -0.40648271750E+02  0.24630472034E+03  0.25998674875E+03  0.00000000000E+00 0.  1.
         11    1    1    2    0    0  0.15996874894E+02 -0.14974425243E+02  0.12163861785E+02  0.25061782683E+02  0.00000000000E+00 0. -1.
</event>
<event>
 7    1  0.2619826E-009  0.1313924E+03  0.7561462E-02  0.1225404E+00
         -2   -1    0    0    0  501 -0.00000000000E+00  0.00000000000E+00  0.53223951990E+02  0.53223951990E+02  0.00000000000E+00 0.  1.
          2   -1    0    0  501    0  0.00000000000E+00 -0.00000000000E+00 -0.41224069776E+03  0.41224069776E+03  0.00000000000E+00 0. -1.
         25    2    1    2    0    0  0.47861761801E+02 -0.87116327943E+02 -0.18431231213E+03  0.24392100045E+03  0.12508566354E+03 0.  0.
          5    1    3    3  502    0 -0.13389167802E+02  0.14709447102E+02 -0.89688722574E+02  0.91962911032E+02  0.41800000000E+01 0.  1.
         -5    1    3    3    0  502  0.61250929602E+02 -0.10182577504E+03 -0.94623589553E+02  0.15195808942E+03  0.41800000000E+01 0.  1.
        -11    1    1    2    0    0  0.19235710693E+02  0.28951297981E+02 -0.13092840292E+02  0.37143137826E+02  0.00000000000E+00 0.  1.
         11    1    1    2    0    0 -0.67097472494E+02  0.58165029962E+02 -0.16161159335E+03  0.18440051147E+03  0.00000000000E+00 0. -1.
</event>
<event>
 7    1  0.2619826E-009  0.1242613E+03  0.7561462E-02  0.1236228E+00
         -2   -1    0    0    0  501 -0.00000000000E+00  0.00000000000E+00  0.90971400839E+02  0.90971400839E+02  0.00000000000E+00 0.  1.
          2   -1    0    0  501    0  0.00000000000E+00 -0.00000000000E+00 -0.24637845246E+03  0.24637845246E+03  0.00000000000E+00 0. -1.
         25    2    1    2    0    0 -0.57440790334E+02  0.79645775551E+02 -0.51737824377E+02  0.16723409952E+03  0.12509015794E+03 0.  0.
          5    1    3    3  502    0 -0.78041111192E+02  0.80930153201E+02 -0.12309560367E+01  0.11251263212E+03  0.41800000000E+01 0. -1.
         -5    1    3    3    0  502  0.20600320858E+02 -0.12843776495E+01 -0.50506868340E+02  0.54721467405E+02  0.41800000000E+01 0. -1.
        -11    1    1    2    0    0  0.28839306563E+02 -0.81344487362E+02 -0.30499197689E+02  0.91535961714E+02  0.00000000000E+00 0. -1.
         11    1    1    2    0    0  0.28601483771E+02  0.16987118104E+01 -0.73170029559E+02  0.78579792067E+02  0.00000000000E+00 0.  1.
</event>
<event>
 7    1  0.2619826E-009  0.2483357E+03  0.7561462E-02  0.1114361E+00
          2   -1    0    0  501    0  0.00000000000E+00  0.00000000000E+00  0.50216448726E+03  0.50216448726E+03  0.00000000000E+00 0. -1.
         -2   -1    0    0    0  501 -0.00000000000E+00 -0.00000000000E+00 -0.16524260077E+03  0.16524260077E+03  0.00000000000E+00 0.  1.
         25    2    1    2    0    0 -0.19383928472E+03  0.11108514487E+03  0.43942702869E+01  0.25608603103E+03  0.12508864044E+03 0.  0.
          5    1    3    3  502    0  0.11791252792E+02  0.32659415752E+02  0.82532061107E+01  0.35934090927E+02  0.41800000000E+01 0.  1.
         -5    1    3    3    0  502 -0.20563053751E+03  0.78425729118E+02 -0.38589358238E+01  0.22015194010E+03  0.41800000000E+01 0.  1.
        -11    1    1    2    0    0  0.80577263773E+02 -0.99041907182E+02  0.18910603051E+03  0.22817336740E+03  0.00000000000E+00 0.  1.
         11    1    1    2    0    0  0.11326202095E+03 -0.12043237688E+02  0.14342158569E+03  0.18314768960E+03  0.00000000000E+00 0. -1.
</event>
<event>
 7    1  0.2619826E-009  0.1387506E+03  0.7561462E-02  0.1215020E+00
          3   -1    0    0  501    0  0.00000000000E+00  0.00000000000E+00  0.37636571464E+03  0.37636571464E+03  0.00000000000E+00 0. -1.
         -3   -1    0    0    0  501 -0.00000000000E+00 -0.00000000000E+00 -0.71726566906E+02  0.71726566906E+02  0.00000000000E+00 0.  1.
         25    2    1    2    0    0  0.11396387184E+03 -0.20449371747E+02  0.22071338841E+03  0.27886952387E+03  0.12509144906E+03 0.  0.
          5    1    3    3  502    0  0.10573052903E+03 -0.44580490398E+02  0.90724950122E+02  0.14633814905E+03  0.41800000000E+01 0.  1.
         -5    1    3    3    0  502  0.82333428095E+01  0.24131118651E+02  0.12998843829E+03  0.13253137481E+03  0.41800000000E+01 0.  1.
        -11    1    1    2    0    0 -0.57405262837E+02 -0.26604232996E+02  0.84690418715E+01  0.63834740423E+02  0.00000000000E+00 0. -1.
         11    1    1    2    0    0 -0.56558609007E+02  0.47053604744E+02  0.75456717446E+02  0.10538801725E+03  0.00000000000E+00 0.  1.
</event>
<event>
 7    1  0.2619826E-009  0.1475042E+03  0.7561462E-02  0.1203574E+00
         -2   -1    0    0    0  501 -0.00000000000E+00  0.00000000000E+00  0.17221117590E+03  0.17221117590E+03  0.00000000000E+00 0. -1.
          2   -1    0    0  501    0  0.00000000000E+00 -0.00000000000E+00 -0.22753664007E+03  0.22753664007E+03  0.00000000000E+00 0.  1.
         25    2    1    2    0    0 -0.13250510220E+03  0.16196682438E+02  0.68606334876E+02  0.19538232184E+03  0.12508991914E+03 0.  0.
          5    1    3    3  502    0 -0.11545364164E+03 -0.90002630617E+01  0.98825510655E+02  0.15229741318E+03  0.41800000000E+01 0. -1.
         -5    1    3    3    0  502 -0.17051460560E+02  0.25196945500E+02 -0.30219175779E+02  0.43084908663E+02  0.41800000000E+01 0. -1.
        -11    1    1    2    0    0  0.88751240933E+02 -0.41392327194E+02 -0.11828252953E+03  0.15356062096E+03  0.00000000000E+00 0.  1.
         11    1    1    2    0    0  0.43753861271E+02  0.25195644756E+02 -0.56492695118E+01  0.50804873160E+02  0.00000000000E+00 0. -1.
</event>
<event>
 7    1  0.2974852E-009  0.2013310E+03  0.7561462E-02  0.1148621E+00
         -4   -1    0    0    0  501 -0.00000000000E+00  0.00000000000E+00  0.16712032944E+03  0.16712032944E+03  0.00000000000E+00 0. -1.
          4   -1    0    0  501    0  0.00000000000E+00 -0.00000000000E+00 -0.31420223152E+03  0.31420223152E+03  0.00000000000E+00 0.  1.
         25    2    1    2    0    0  0.20122892025E+03 -0.69371183395E+00 -0.84784598569E+02  0.25165271406E+03  0.12508837179E+03 0.  0.
          5    1    3    3  502    0  0.78972080345E+02 -0.16464867429E+01  0.29326454115E+02  0.84361209709E+02  0.41800000000E+01 0.  1.
         -5    1    3    3    0  502  0.12225683990E+03  0.95277490895E+00 -0.11411105268E+03  0.16729150435E+03  0.41800000000E+01 0.  1.
        -11    1    1    2    0    0 -0.13499656995E+03  0.40003952669E+00  0.52089588177E+01  0.13509762093E+03  0.00000000000E+00 0. -1.
         11    1    1    2    0    0 -0.66232350298E+02  0.29367230726E+00 -0.67506262328E+02  0.94572225960E+02  0.00000000000E+00 0.  1.
</event>
<event>
 7    1  0.2619826E-009  0.1302074E+03  0.7561462E-02  0.1227148E+00
         -3   -1    0    0    0  501 -0.00000000000E+00  0.00000000000E+00  0.54784735775E+02  0.54784735775E+02  0.00000000000E+00 0.  1.
          3   -1    0    0  501    0  0.00000000000E+00 -0.00000000000E+00 -0.36887820175E+03  0.36887820175E+03  0.00000000000E+00 0. -1.
         25    2    1    2    0    0 -0.49213022138E+02 -0.54001917483E+02 -0.21396032246E+03  0.25838814129E+03  0.12508910157E+03 0.  0.
          5    1    3    3  502    0 -0.65038753428E+02  0.20704598020E+02 -0.10031548236E+03  0.12140588218E+03  0.41800000000E+01 0.  1.
         -5    1    3    3    0  502  0.15825731290E+02 -0.74706515503E+02 -0.11364484010E+03  0.13698225911E+03  0.41800000000E+01 0.  1.
        -11    1    1    2    0    0  0.74723763520E+02  0.29982798068E+02 -0.10228227654E+03  0.13017016982E+03  0.00000000000E+00 0. -1.
         11    1    1    2    0    0 -0.25510741381E+02  0.24019119415E+02  0.21491330309E+01  0.35104626420E+02  0.00000000000E+00 0.  1.
</event>
<event>
 7    1  0.2619826E-009  0.1025488E+03  0.7561462E-02  0.1275026E+00
         -2   -1    0    0    0  501 -0.00000000000E+00  0.00000000000E+00  0.15952780586E+03  0.15952780586E+03  0.00000000000E+00 0.  1.
          2   -1    0    0  501    0  0.00000000000E+00 -0.00000000000E+00 -0.89491946509E+02  0.89491946509E+02  0.00000000000E+00 0. -1.
         25    2    1    2    0    0 -0.21681985105E+02 -0.43886091046E+02  0.34141990160E+02  0.13859803925E+03  0.12509054131E+03 0.  0.
          5    1    3    3  502    0  0.95467721294E+01  0.41507952232E+02  0.16593824013E+02  0.45900744568E+02  0.41800000000E+01 0. -1.
         -5    1    3    3    0  502 -0.31228757235E+02 -0.85394043277E+02  0.17548166146E+02  0.92697294679E+02  0.41800000000E+01 0. -1.
        -11    1    1    2    0    0 -0.81183651960E+01  0.40479625343E+02  0.59382866991E+02  0.72324496634E+02  0.00000000000E+00 0.  1.
         11    1    1    2    0    0  0.29800350301E+02  0.34064657028E+01 -0.23488997798E+02  0.38097216489E+02  0.00000000000E+00 0. -1.
</event>
<event>
 7    1  0.2619826E-009  0.1009830E+03  0.7561462E-02  0.1278242E+00
         -1   -1    0    0    0  501 -0.00000000000E+00  0.00000000000E+00  0.31727500302E+02  0.31727500302E+02  0.00000000000E+00 0.  1.
          1   -1    0    0  501    0  0.00000000000E+00 -0.00000000000E+00 -0.48044986527E+03  0.48044986527E+03  0.00000000000E+00 0. -1.
         25    2    1    2    0    0  0.58945879296E+01  0.17644233385E+02 -0.35901294311E+03  0.38063611743E+03  0.12508994936E+03 0.  0.
          5    1    3    3  502    0 -0.31878736361E+02  0.48789959292E+02 -0.29054050518E+03  0.29635784367E+03  0.41800000000E+01 0. -1.
         -5    1    3    3    0  502  0.37773324290E+02 -0.31145725907E+02 -0.68472437934E+02  0.84278273753E+02  0.41800000000E+01 0. -1.
        -11    1    1    2    0    0  0.20455749496E+02 -0.49202907197E+02 -0.37842229444E+02  0.65355933881E+02  0.00000000000E+00 0.  1.
         11    1    1    2    0    0 -0.26350337426E+02  0.31558673813E+02 -0.51867192419E+02  0.66185314268E+02  0.00000000000E+00 0. -1.
</event>
<event>
 7    1  0.2619826E-009  0.1599558E+03  0.7561462E-02  0.1188747E+00
          2   -1    0    0  501    0  0.00000000000E+00  0.00000000000E+00  0.16844301133E+04  0.16844301133E+04  0.00000000000E+00 0. -1.
         -2   -1    0    0    0  501 -0.00000000000E+00 -0.00000000000E+00 -0.17374940006E+02  0.17374940006E+02  0.00000000000E+00 0.  1.
         25    2    1    2    0    0  0.53054051427E+02 -0.12048074411E+03  0.97453676123E+03  0.99131212683E+03  0.12508993458E+03 0.  0.
          5    1    3    3  502    0  0.47667775973E+02 -0.59279583028E+01  0.12358900960E+03  0.13266149875E+03  0.41800000000E+01 0.  1.
         -5    1    3    3    0  502  0.53862754548E+01 -0.11455278580E+03  0.85094775163E+03  0.85865062808E+03  0.41800000000E+01 0.  1.
        -11    1    1    2    0    0  0.67312898405E-01  0.10001071500E+03  0.38686572350E+03  0.39958382809E+03  0.00000000000E+00 0.  1.
         11    1    1    2    0    0 -0.53121364326E+02  0.20470029105E+02  0.30565268857E+03  0.31090909840E+03  0.00000000000E+00 0. -1.
</event>
<event>
 7    1  0.2619826E-009  0.1007223E+03  0.7561462E-02  0.1278784E+00
         -1   -1    0    0    0  501 -0.00000000000E+00  0.00000000000E+00  0.30926135885E+02  0.30926135885E+02  0.00000000000E+00 0.  1.
          1   -1    0    0  501    0  0.00000000000E+00 -0.00000000000E+00 -0.42499506489E+03  0.42499506489E+03  0.00000000000E+00 0. -1.
         25    2    1    2    0    0 -0.67679441303E+01  0.11620018768E+02 -0.21447282792E+03  0.24865495876E+03  0.12509941924E+03 0.  0.
          5    1    3    3  502    0  0.17551743190E+02  0.52104689039E+02 -0.18449911892E+03  0.19256261214E+03  0.41800000000E+01 0. -1.
         -5    1    3    3    0  502 -0.24319687320E+02 -0.40484670272E+02 -0.29973708997E+02  0.56092346621E+02  0.41800000000E+01 0. -1.
        -11    1    1    2    0    0 -0.45618030556E+02 -0.22398929758E+01 -0.11391870461E+03  0.12273342288E+03  0.00000000000E+00 0. -1.
         11    1    1    2    0    0  0.52385974686E+02 -0.93801257919E+01 -0.65677396478E+02  0.84532819141E+02  0.00000000000E+00 0.  1.
</event>
<event>
 7    1  0.2619826E-009  0.1141306E+03  0.7561462E-02  0.1253106E+00
          1   -1    0    0  501    0  0.00000000000E+00  0.00000000000E+00  0.43390797637E+03  0.43390797637E+03  0.00000000000E+00 0. -1.
         -1   -1    0    0    0  501 -0.00000000000E+00 -0.00000000000E+00 -0.32050500666E+02  0.32050500666E+02  0.00000000000E+00 0.  1.
         25    2    1    2    0    0  0.12274732548E+01  0.48604704323E+02  0.20026520374E+03  0.24107597238E+03  0.12509016211E+03 0.  0.
          5    1    3    3  502    0  0.36324923011E+02 -0.28980752995E+02  0.93072407880E+02  0.10411210105E+03  0.41800000000E+01 0. -1.
         -5    1    3    3    0  502 -0.35097449756E+02  0.77585457318E+02  0.10719279586E+03  0.13696387133E+03  0.41800000000E+01 0. -1.
        -11    1    1    2    0    0  0.33878509533E+02 -0.50924833696E+02  0.15396735347E+03  0.16567147621E+03  0.00000000000E+00 0. -1.
         11    1    1    2    0    0 -0.35105982787E+02  0.23201293731E+01  0.47624918492E+02  0.59211028442E+02  0.00000000000E+00 0.  1.
</event>
<event>
 7    1  0.2619826E-009  0.1448772E+03  0.7561462E-02  0.1206913E+00
         -1   -1    0    0    0  501 -0.00000000000E+00  0.00000000000E+00  0.68831119518E+02  0.68831119518E+02  0.00000000000E+00 0.  1.
          1   -1    0    0  501    0  0.00000000000E+00 -0.00000000000E+00 -0.44077235226E+03  0.44077235226E+03  0.00000000000E+00 0. -1.
         25    2    1    2    0    0 -0.82485633591E+02 -0.10667899108E+03 -0.24227673855E+03  0.30418657653E+03  0.12508864223E+03 0.  0.
          5    1    3    3  502    0 -0.33072570981E+02 -0.24452278449E+02 -0.19081677348E+03  0.19524400712E+03  0.41800000000E+01 0.  1.
         -5    1    3    3    0  502 -0.49413062610E+02 -0.82226712630E+02 -0.51459965061E+02  0.10894256941E+03  0.41800000000E+01 0.  1.
        -11    1    1    2    0    0  0.68639534983E+01  0.66315564476E+02 -0.87168662386E+02  0.10974171336E+03  0.00000000000E+00 0. -1.
         11    1    1    2    0    0  0.75621680093E+02  0.40363426603E+02 -0.42495831810E+02  0.95675181884E+02  0.00000000000E+00 0.  1.
</event>
<event>
 7    1  0.2619826E-009  0.1140630E+03  0.7561462E-02  0.1253226E+00
          4   -1    0    0  501    0  0.00000000000E+00  0.00000000000E+00  0.74509100247E+02  0.74509100247E+02  0.00000000000E+00 0. -1.
         -4   -1    0    0    0  501 -0.00000000000E+00 -0.00000000000E+00 -0.28856813515E+03  0.28856813515E+03  0.00000000000E+00 0.  1.
         25    2    1    2    0    0  0.46015860978E+02  0.10032456014E+02 -0.86067484479E+01  0.13394115928E+03  0.12509215961E+03 0.  0.
          5    1    3    3  502    0 -0.31528146044E+02  0.38675425762E+02 -0.10443235509E+02  0.51150230876E+02  0.41800000000E+01 0. -1.
         -5    1    3    3    0  502  0.77544007022E+02 -0.28642969748E+02  0.18364870611E+01  0.82790928402E+02  0.41800000000E+01 0. -1.
        -11    1    1    2    0    0  0.19796936834E+02 -0.20663925081E+02 -0.30069254638E+02  0.41509957627E+02  0.00000000000E+00 0. -1.
         11    1    1    2    0    0 -0.65812797812E+02  0.10631469067E+02 -0.17538303181E+03  0.18762611849E+03  0.00000000000E+00 0.  1.
</event>
<event>
 7    1  0.2619826E-009  0.1260900E+03  0.7561462E-02  0.1233376E+00
          2   -1    0    0  501    0  0.00000000000E+00  0.00000000000E+00  0.16638451090E+02  0.16638451090E+02  0.00000000000E+00 0. -1.
         -2   -1    0    0    0  501 -0.00000000000E+00 -0.00000000000E+00 -0.12515051562E+04  0.12515051562E+04  0.00000000000E+00 0.  1.
         25    2    1    2    0    0 -0.50461176487E+02  0.77251565311E+02 -0.56723097342E+03  0.58814374698E+03  0.12509178720E+03 0.  0.
          5    1    3    3  502    0 -0.57998234968E+02  0.90358360120E+02 -0.27139754228E+03  0.29189471879E+03  0.41800000000E+01 0.  1.
         -5    1    3    3    0  502  0.75370584806E+01 -0.13106794809E+02 -0.29583343114E+03  0.29624902819E+03  0.41800000000E+01 0.  1.
        -11    1    1    2    0    0  0.76648224150E+02 -0.63069692868E+02 -0.52067135832E+03  0.53004848815E+03  0.00000000000E+00 0.  1.
         11    1    1    2    0    0 -0.26187047663E+02 -0.14181872443E+02 -0.14696437337E+03  0.14995137216E+03  0.00000000000E+00 0. -1.
</event>
<event>
 7    1  0.2619826E-009  0.1898048E+03  0.7561462E-02  0.1158637E+00
         -1   -1    0    0    0  501 -0.00000000000E+00  0.00000000000E+00  0.36700122074E+03  0.36700122074E+03  0.00000000000E+00 0.  1.
          1   -1    0    0  501    0  0.00000000000E+00 -0.00000000000E+00 -0.10633419479E+03  0.10633419479E+03  0.00000000000E+00 0. -1.
         25    2    1    2    0    0 -0.73191775916E+02  0.14558804887E+03  0.10533333679E+03  0.23084454315E+03  0.12506468418E+03 0.  0.
          5    1    3    3  502    0 -0.99298949445E+02  0.10105357645E+03  0.10917599197E+03  0.17891052596E+03  0.41800000000E+01 0.  1.
         -5    1    3    3    0  502  0.26107173529E+02  0.44534472412E+02 -0.38426551874E+01  0.51934017191E+02  0.41800000000E+01 0.  1.
        -11    1    1    2    0    0  0.84858648025E+02 -0.71168435226E+02  0.96832792993E+02  0.14711399021E+03  0.00000000000E+00 0.  1.
         11    1    1    2    0    0 -0.11666872109E+02 -0.74419613639E+02  0.58500896170E+02  0.95376882166E+02  0.00000000000E+00 0. -1.
</event>
<event>
 7    1  0.2619826E-009  0.1251557E+03  0.7561462E-02  0.1234826E+00
         -2   -1    0    0    0  501 -0.00000000000E+00  0.00000000000E+00  0.25167607556E+02  0.25167607556E+02  0.00000000000E+00 0.  1.
          2   -1    0    0  501    0  0.00000000000E+00 -0.00000000000E+00 -0.67806542469E+03  0.67806542469E+03  0.00000000000E+00 0. -1.
         25    2    1    2    0    0 -0.15105621975E+02 -0.66396442282E+02 -0.29970056475E+03  0.33181952148E+03  0.12508836462E+03 0.  0.
          5    1    3    3  502    0 -0.23649657116E+02 -0.99261415601E+02 -0.26041481296E+03  0.27972393912E+03  0.41800000000E+01 0.  1.
         -5    1    3    3    0  502  0.85440351413E+01  0.32864973320E+02 -0.39285751790E+02  0.52095582360E+02  0.41800000000E+01 0.  1.
        -11    1    1    2    0    0 -0.35418988413E+02  0.49155491771E+02 -0.16419929903E+03  0.17502050426E+03  0.00000000000E+00 0. -1.
         11    1    1    2    0    0  0.50524610388E+02  0.17240950510E+02 -0.18899795336E+03  0.19639300650E+03  0.00000000000E+00 0.  1.
</event>
<event>
 7    1  0.2619826E-009  0.1323221E+03  0.7561462E-02  0.1224050E+00
          2   -1    0    0  501    0  0.00000000000E+00  0.00000000000E+00  0.39659807198E+02  0.39659807198E+02  0.00000000000E+00 0. -1.
         -2   -1    0    0    0  501 -0.00000000000E+00 -0.00000000000E+00 -0.58137537451E+03  0.58137537451E+03  0.00000000000E+00 0.  1.
         25    2    1    2    0    0 -0.45613611374E+02 -0.88178358697E+02 -0.25545104492E+03  0.30126212247E+03  0.12509038972E+03 0.  0.
          5    1    3    3  502    0  0.29113790142E+02 -0.76794109090E+02 -0.11060962199E+03  0.13782927427E+03  0.41800000000E+01 0.  1.
         -5    1    3    3    0  502 -0.74727401515E+02 -0.11384249607E+02 -0.14484142293E+03  0.16343284820E+03  0.41800000000E+01 0.  1.
        -11    1    1    2    0    0  0.51186543170E+02  0.64304774369E+02 -0.28341582308E+03  0.29509268880E+03  0.00000000000E+00 0.  1.
         11    1    1    2    0    0 -0.55729317965E+01  0.23873584328E+02 -0.28486993133E+01  0.24680370444E+02  0.00000000000E+00 0. -1.
</event>
<event>
 7    1  0.3192168E-009  0.1140689E+03  0.7561462E-02  0.1253215E+00
          1   -1    0    0  501    0  0.00000000000E+00  0.00000000000E+00  0.71123776332E+03  0.71123776332E+03  0.00000000000E+00 0. -1.
         -1   -1    0    0    0  501 -0.00000000000E+00 -0.00000000000E+00 -0.24452289112E+02  0.24452289112E+02  0.00000000000E+00 0.  1.
         25    2    1    2    0    0 -0.14509764589E+01 -0.68653705752E+02  0.45795558342E+03  0.47967244176E+03  0.12508756274E+03 0.  0.
          5    1    3    3  502    0 -0.48168319882E+02 -0.59040486059E+02  0.15293337921E+03  0.17091535013E+03  0.41800000000E+01 0. -1.
         -5    1    3    3    0  502  0.46717343424E+02 -0.96132196930E+01  0.30502220422E+03  0.30875709163E+03  0.41800000000E+01 0. -1.
        -11    1    1    2    0    0  0.29037662446E+02  0.70553503846E+02  0.20753930370E+03  0.22111884887E+03  0.00000000000E+00 0.  1.
         11    1    1    2    0    0 -0.27586685987E+02 -0.18997980946E+01  0.21290587083E+02  0.34898761796E+02  0.00000000000E+00 0. -1.
</event>
<event>
 7    1  0.2619826E-009  0.1657248E+03  0.7561462E-02  0.1182381E+00
         -4   -1    0    0    0  501 -0.00000000000E+00  0.00000000000E+00  0.47087538948E+02  0.47087538948E+02  0.00000000000E+00 0.  1.
          4   -1    0    0  501    0  0.00000000000E+00 -0.00000000000E+00 -0.76268686657E+03  0.76268686657E+03  0.00000000000E+00 0. -1.
         25    2    1    2    0    0  0.13380306556E+03  0.26319472206E+02 -0.21853892930E+03  0.28634689332E+03  0.12505720581E+03 0.  0.
          5    1    3    3  502    0  0.14143807287E+03  0.19039356226E+01 -0.21862271381E+03  0.26042602946E+03  0.41800000000E+01 0. -1.
         -5    1    3    3    0  502 -0.76350073099E+01  0.24415536584E+02  0.83784511576E-01  0.25920863858E+02  0.41800000000E+01 0. -1.
        -11    1    1    2    0    0 -0.12562096436E+03  0.10725886683E+02 -0.37876024110E+03  0.39919292525E+03  0.00000000000E+00 0.  1.
         11    1    1    2    0    0 -0.81821011975E+01 -0.37045358889E+02 -0.11830015722E+03  0.12423458695E+03  0.00000000000E+00 0. -1.
</event>
<event>
 7    1  0.2619826E-009  0.1067798E+03  0.7561462E-02  0.1266652E+00
          1   -1    0    0  501    0  0.00000000000E+00  0.00000000000E+00  0.64565311904E+03  0.64565311904E+03  0.00000000000E+00 0. -1.
         -1   -1    0    0    0  501 -0.00000000000E+00 -0.00000000000E+00 -0.26071653336E+02  0.26071653336E+02  0.00000000000E+00 0.  1.
         25    2    1    2    0    0  0.64341033404E+02 -0.29519576385E+02  0.33852854972E+03  0.36777457349E+03  0.12508150926E+03 0.  0.
          5    1    3    3  502    0  0.77103822602E+02 -0.32971355399E+02  0.34306110822E+03  0.35318622015E+03  0.41800000000E+01 0. -1.
         -5    1    3    3    0  502 -0.12762789198E+02  0.34517790141E+01 -0.45325584951E+01  0.14588353334E+02  0.41800000000E+01 0. -1.
        -11    1    1    2    0    0  0.23599744340E+02  0.24915547505E+01  0.58809607073E+02  0.63417077054E+02  0.00000000000E+00 0. -1.
         11    1    1    2    0    0 -0.87940777744E+02  0.27028021634E+02  0.22224330891E+03  0.24053312183E+03  0.00000000000E+00 0.  1.
</event>
<event>
 7    1  0.2619826E-009  0.1005185E+03  0.7561462E-02  0.1279209E+00
          1   -1    0    0  501    0  0.00000000000E+00  0.00000000000E+00  0.31577275835E+03  0.31577275835E+03  0.00000000000E+00 0. -1.
         -1   -1    0    0    0  501 -0.00000000000E+00 -0.00000000000E+00 -0.11066267689E+03  0.11066267689E+03  0.00000000000E+00 0.  1.
         25    2    1    2    0    0 -0.73024466484E+02 -0.40370946314E+02  0.25202034595E+03  0.29346914306E+03  0.12508995621E+03 0.  0.
          5    1    3    3  502    0  0.60058553474E+01 -0.30067043048E+02  0.19879482171E+01  0.31008413604E+02  0.41800000000E+01 0. -1.
         -5    1    3    3    0  502 -0.79030321831E+02 -0.10303903266E+02  0.25003239773E+03  0.26246072945E+03  0.41800000000E+01 0. -1.
        -11    1    1    2    0    0  0.57770895225E+02  0.13409980798E+02 -0.71873214856E+02  0.93182954095E+02  0.00000000000E+00 0.  1.
         11    1    1    2    0    0  0.15253571259E+02  0.26960965516E+02  0.24962950374E+02  0.39783338084E+02  0.00000000000E+00 0. -1.
</event>
<event>
 7    1  0.2619826E-009  0.1191827E+03  0.7561462E-02  0.1244451E+00
          2   -1    0    0  501    0  0.00000000000E+00  0.00000000000E+00  0.91411431657E+03  0.91411431657E+03  0.00000000000E+00 0. -1.
         -2   -1    0    0    0  501 -0.00000000000E+00 -0.00000000000E+00 -0.19913667764E+02  0.19913667764E+02  0.00000000000E+00 0.  1.
         25    2    1    2    0    0  0.50478648140E+02  0.10820341020E+02  0.29109329487E+03  0.32101570551E+03  0.12510237074E+03 0.  0.
          5    1    3    3  502    0  0.58930276196E+02  0.56844658303E+02  0.22842964537E+03  0.24269665823E+03  0.41800000000E+01 0. -1.
         -5    1    3    3    0  502 -0.84516280560E+01 -0.46024317283E+02  0.62663649502E+02  0.78319047281E+02  0.41800000000E+01 0. -1.
        -11    1    1    2    0    0 -0.60227549623E+02  0.30102921832E+02  0.39462286290E+03  0.40032580176E+03  0.00000000000E+00 0.  1.
         11    1    1    2    0    0  0.97489014833E+01 -0.40923262852E+02  0.20848449104E+03  0.21268647706E+03  0.00000000000E+00 0. -1.
</event>
<event>
 7    1  0.2619826E-009  0.1888589E+03  0.7561462E-02  0.1159495E+00
          2   -1    0    0  501    0  0.00000000000E+00  0.00000000000E+00  0.18080055174E+03  0.18080055174E+03  0.00000000000E+00 0. -1.
         -2   -1    0    0    0  501 -0.00000000000E+00 -0.00000000000E+00 -0.23921260815E+03  0.23921260815E+03  0.00000000000E+00 0.  1.
         25    2    1    2    0    0  0.15318987589E+03  0.84946351926E+02 -0.55785710875E+02  0.22235652851E+03  0.12508940584E+03 0.  0.
          5    1    3    3  502    0  0.44101999130E+02  0.48036809731E+02 -0.81321534586E+02  0.10432250862E+03  0.41800000000E+01 0.  1.
         -5    1    3    3    0  502  0.10908787676E+03  0.36909542195E+02  0.25535823711E+02  0.11803401990E+03  0.41800000000E+01 0.  1.
        -11    1    1    2    0    0 -0.49493865552E+02  0.16397294042E+02  0.55369219079E+01  0.52432542217E+02  0.00000000000E+00 0. -1.
         11    1    1    2    0    0 -0.10369601034E+03 -0.10134364597E+03 -0.81632674417E+01  0.14522408916E+03  0.00000000000E+00 0.  1.
</event>
<event>
 7    1  0.2619826E-009  0.1134368E+03  0.7561462E-02  0.1254335E+00
          1   -1    0    0  501    0  0.00000000000E+00  0.00000000000E+00  0.21020373042E+03  0.21020373042E+03  0.00000000000E+00 0. -1.
         -1   -1    0    0    0  501 -0.00000000000E+00 -0.00000000000E+00 -0.68801254008E+02  0.68801254008E+02  0.00000000000E+00 0.  1.
         25    2    1    2    0    0  0.54554489257E+01 -0.45110333976E+02  0.10685232632E+03  0.17066632123E+03  0.12507945238E+03 0.  0.
          5    1    3    3  502    0 -0.31285254448E+02  0.31977987320E+02  0.53594785413E+02  0.69937345120E+02  0.41800000000E+01 0. -1.
         -5    1    3    3    0  502  0.36740703374E+02 -0.77088321296E+02  0.53257540909E+02  0.10072897611E+03  0.41800000000E+01 0. -1.
        -11    1    1    2    0    0  0.34202301778E+02 -0.27209345488E+01 -0.50187454306E+01  0.34675477465E+02  0.00000000000E+00 0.  1.
         11    1    1    2    0    0 -0.39657750704E+02  0.47831268525E+02  0.39568895524E+02  0.73663185735E+02  0.00000000000E+00 0. -1.
</event>
<event>
 7    1  0.2619826E-009  0.1561397E+03  0.7561462E-02  0.1193125E+00
          2   -1    0    0  501    0  0.00000000000E+00  0.00000000000E+00  0.28429654176E+03  0.28429654176E+03  0.00000000000E+00 0. -1.
         -2   -1    0    0    0  501 -0.00000000000E+00 -0.00000000000E+00 -0.94446037283E+02  0.94446037283E+02  0.00000000000E+00 0.  1.
         25    2    1    2    0    0  0.11384844901E+03  0.26250726604E+02  0.13799625079E+03  0.21987773532E+03  0.12511068408E+03 0.  0.
          5    1    3    3  502    0  0.81369201220E+02 -0.38126159523E+02  0.40780882044E+02  0.98767928436E+02  0.41800000000E+01 0.  1.
         -5    1    3    3    0  502  0.32479247790E+02  0.64376886127E+02  0.97215368743E+02  0.12110980689E+03  0.41800000000E+01 0.  1.
        -11    1    1    2    0    0 -0.96254097495E+02 -0.59016190408E+02  0.41047569500E+02  0.12013602697E+03  0.00000000000E+00 0. -1.
         11    1    1    2    0    0 -0.17594351515E+02  0.32765463804E+02  0.10806684189E+02  0.38728816747E+02  0.00000000000E+00 0.  1.
</event>
<event>
 7    1  0.2619826E-009  0.2271332E+03  0.7561462E-02  0.1128674E+00
          2   -1    0    0  501    0  0.00000000000E+00  0.00000000000E+00  0.42847384013E+03  0.42847384013E+03  0.00000000000E+00 0.  1.
         -2   -1    0    0    0  501 -0.00000000000E+00 -0.00000000000E+00 -0.15767643591E+03  0.15767643591E+03  0.00000000000E+00 0. -1.
         25    2    1    2    0    0  0.18220652285E+03 -0.11351877548E+03  0.27821281619E+02  0.25000831209E+03  0.12507758810E+03 0.  0.
          5    1    3    3  502    0  0.13674058073E+03 -0.51995709029E+02 -0.35519823521E+02  0.15060103067E+03  0.41800000000E+01 0.  1.
         -5    1    3    3    0  502  0.45465942126E+02 -0.61523066449E+02  0.63341105140E+02  0.99407281419E+02  0.41800000000E+01 0.  1.
        -11    1    1    2    0    0 -0.11085894321E+03  0.18367075749E+02  0.10265540679E+03  0.15220114094E+03  0.00000000000E+00 0. -1.
         11    1    1    2    0    0 -0.71347579645E+02  0.95151699729E+02  0.14032071581E+03  0.18394082301E+03  0.00000000000E+00 0.  1.
</event>
<event>
 7    1  0.2619826E-009  0.1155837E+03  0.7561462E-02  0.1250566E+00
         -3   -1    0    0    0  501 -0.00000000000E+00  0.00000000000E+00  0.41441948497E+03  0.41441948497E+03  0.00000000000E+00 0.  1.
          3   -1    0    0  501    0  0.00000000000E+00 -0.00000000000E+00 -0.44801148274E+02  0.44801148274E+02  0.00000000000E+00 0. -1.
         25    2    1    2    0    0 -0.56999533106E+02  0.58944593388E+02  0.19451308293E+03  0.24536617795E+03  0.12508321225E+03 0.  0.
          5    1    3    3  502    0  0.38995874467E+01  0.73521073839E+02  0.53769903569E+02  0.91264615325E+02  0.41800000000E+01 0.  1.
         -5    1    3    3    0  502 -0.60899120553E+02 -0.14576480450E+02  0.14074317937E+03  0.15410156263E+03  0.41800000000E+01 0.  1.
        -11    1    1    2    0    0  0.62412359242E+02 -0.38083945495E+02  0.17769408920E+03  0.19214806485E+03  0.00000000000E+00 0.  1.
         11    1    1    2    0    0 -0.54128261354E+01 -0.20860647893E+02 -0.25888354294E+01  0.21706390446E+02  0.00000000000E+00 0. -1.
</event>
<event>
 7    1  0.2619826E-009  0.1263234E+03  0.7561462E-02  0.1233015E+00
         -2   -1    0    0    0  501 -0.00000000000E+00  0.00000000000E+00  0.65207640004E+02  0.65207640004E+02  0.00000000000E+00 0.  1.
          2   -1    0    0  501    0  0.00000000000E+00 -0.00000000000E+00 -0.24551947890E+03  0.24551947890E+03  0.00000000000E+00 0. -1.
         25    2    1    2    0    0 -0.13954778402E+02  0.63586553437E+02 -0.10784233633E+03  0.17752613314E+03  0.12509025871E+03 0.  0.
          5    1    3    3  502    0  0.55216683909E+02  0.37687939393E+02 -0.53700371012E+02  0.85851413526E+02  0.41800000000E+01 0.  1.
         -5    1    3    3    0  502 -0.69171462312E+02  0.25898614044E+02 -0.54141965318E+02  0.91674719613E+02  0.41800000000E+01 0.  1.
        -11    1    1    2    0    0  0.12197743278E+02 -0.87178314938E+02 -0.55068642356E+02  0.10383351534E+03  0.00000000000E+00 0. -1.
         11    1    1    2    0    0  0.17570351242E+01  0.23591761501E+02 -0.17400860210E+02  0.29367470426E+02  0.00000000000E+00 0.  1.
</event>
<event>
 7    1  0.2619826E-009  0.1110092E+03  0.7561462E-02  0.1258712E+00
          2   -1    0    0  501    0  0.00000000000E+00  0.00000000000E+00  0.21895398452E+03  0.21895398452E+03  0.00000000000E+00 0. -1.
         -2   -1    0    0    0  501 -0.00000000000E+00 -0.00000000000E+00 -0.12943090245E+03  0.12943090245E+03  0.00000000000E+00 0.  1.
         25    2    1    2    0    0  0.58146001498E+02 -0.10870288664E+02  0.16617347598E+03  0.21624174774E+03  0.12509096162E+03 0.  0.
          5    1    3    3  502    0  0.36286883028E+02  0.53573259340E+02  0.11093493113E+03  0.12849460433E+03  0.41800000000E+01 0. -1.
         -5    1    3    3    0  502  0.21859118471E+02 -0.64443548004E+02  0.55238544842E+02  0.87747143406E+02  0.41800000000E+01 0. -1.
        -11    1    1    2    0    0 -0.52998322353E+02  0.35531582257E+02 -0.84382069216E+02  0.10579059086E+03  0.00000000000E+00 0. -1.
         11    1    1    2    0    0 -0.51476791457E+01 -0.24661293592E+02  0.77316753145E+01  0.26352548366E+02  0.00000000000E+00 0.  1.
</event>
<event>
 7    1  0.2619826E-009  0.1261292E+03  0.7561462E-02  0.1233315E+00
          2   -1    0    0  501    0  0.00000000000E+00  0.00000000000E+00  0.51298095069E+03  0.51298095069E+03  0.00000000000E+00 0. -1.
         -2   -1    0    0    0  501 -0.00000000000E+00 -0.00000000000E+00 -0.36627832999E+02  0.36627832999E+02  0.00000000000E+00 0.  1.
         25    2    1    2    0    0  0.79120608241E+02  0.12263161933E+02  0.30594920818E+03  0.34009117133E+03  0.12508649423E+03 0.  0.
          5    1    3    3  502    0 -0.20917852013E+02  0.20943390645E+02  0.16073231128E+03  0.16348862478E+03  0.41800000000E+01 0. -1.
         -5    1    3    3    0  502  0.10003846025E+03 -0.86802287117E+01  0.14521689690E+03  0.17660254655E+03  0.41800000000E+01 0. -1.
        -11    1    1    2    0    0 -0.47768864406E+02  0.39070967296E+02  0.88943768230E+02  0.10825617211E+03  0.00000000000E+00 0. -1.
         11    1    1    2    0    0 -0.31351743834E+02 -0.51334129229E+02  0.81460141279E+02  0.10126144025E+03  0.00000000000E+00 0.  1.
</event>
<event>
 7    1  0.2619826E-009  0.4794752E+03  0.7561462E-02  0.1019279E+00
         -1   -1    0    0    0  501 -0.00000000000E+00  0.00000000000E+00  0.10958135535E+04  0.10958135535E+04  0.00000000000E+00 0.  1.
          1   -1    0    0  501    0  0.00000000000E+00 -0.00000000000E+00 -0.22245720093E+03  0.22245720093E+03  0.00000000000E+00 0. -1.
         25    2    1    2    0    0 -0.47819242523E+03 -0.23556561981E+02  0.50795426465E+03  0.70914514978E+03  0.12508557601E+03 0.  0.
          5    1    3    3  502    0 -0.12709778687E+03 -0.11194963167E+02  0.22225237477E+03  0.25630599899E+03  0.41800000000E+01 0. -1.
         -5    1    3    3    0  502 -0.35109463835E+03 -0.12361598814E+02  0.28570188988E+03  0.45283915079E+03  0.41800000000E+01 0. -1.
        -11    1    1    2    0    0  0.46595095578E+03  0.17456313201E+02  0.36940571802E+03  0.59487444101E+03  0.00000000000E+00 0.  1.
         11    1    1    2    0    0  0.12241469444E+02  0.61002487800E+01 -0.40036301381E+01  0.14251163588E+02  0.00000000000E+00 0. -1.
</event>
<event>
 7    1  0.2619826E-009  0.1273711E+03  0.7561462E-02  0.1231410E+00
          1   -1    0    0  501    0  0.00000000000E+00  0.00000000000E+00  0.73806214199E+03  0.73806214199E+03  0.00000000000E+00 0. -1.
         -1   -1    0    0    0  501 -0.00000000000E+00 -0.00000000000E+00 -0.33265880415E+02  0.33265880415E+02  0.00000000000E+00 0.  1.
         25    2    1    2    0    0  0.20880279394E+02 -0.10580154906E+03  0.45042938976E+03  0.47976037769E+03  0.12511367225E+03 0.  0.
          5    1    3    3  502    0 -0.26459171304E+02 -0.94241977558E+02  0.17993463524E+03  0.20487943635E+03  0.41800000000E+01 0.  1.
         -5    1    3    3    0  502  0.47339450698E+02 -0.11559571504E+02  0.27049475453E+03  0.27488094134E+03  0.41800000000E+01 0.  1.
        -11    1    1    2    0    0 -0.14965880962E+02  0.71410288531E+02  0.61072605442E+02  0.95148673331E+02  0.00000000000E+00 0.  1.
         11    1    1    2    0    0 -0.59143984318E+01  0.34391260531E+02  0.19329426637E+03  0.19641897139E+03  0.00000000000E+00 0. -1.
</event>
<event>
 7    1  0.2619826E-009  0.1067260E+03  0.7561462E-02  0.1266756E+00
          2   -1    0    0  501    0  0.00000000000E+00  0.00000000000E+00  0.33453689825E+03  0.33453689825E+03  0.00000000000E+00 0. -1.
         -2   -1    0    0    0  501 -0.00000000000E+00 -0.00000000000E+00 -0.63413266059E+02  0.63413266059E+02  0.00000000000E+00 0.  1.
         25    2    1    2    0    0  0.47700869612E+02 -0.82900808431E+02  0.16500516639E+03  0.22808441814E+03  0.12509148597E+03 0.  0.
          5    1    3    3  502    0  0.71901492303E+01 -0.11326952721E+02 -0.20654283969E+02  0.24981392078E+02  0.41800000000E+01 0. -1.
         -5    1    3    3    0  502  0.40510720381E+02 -0.71573855711E+02  0.18565945036E+03  0.20310302606E+03  0.41800000000E+01 0. -1.
        -11    1    1    2    0    0  0.13293181598E+02 -0.98982322609E+00 -0.80865116182E+01  0.15591026174E+02  0.00000000000E+00 0.  1.
         11    1    1    2    0    0 -0.60994051209E+02  0.83890631657E+02  0.11420497742E+03  0.15427472000E+03  0.00000000000E+00 0. -1.
</event>
<event>
 7    1  0.2619826E-009  0.1107575E+03  0.7561462E-02  0.1259174E+00
          2   -1    0    0  501    0  0.00000000000E+00  0.00000000000E+00  0.19964632871E+03  0.19964632871E+03  0.00000000000E+00 0. -1.
         -2   -1    0    0    0  501 -0.00000000000E+00 -0.00000000000E+00 -0.68331275575E+02  0.68331275575E+02  0.00000000000E+00 0.  1.
         25    2    1    2    0    0 -0.32558162502E+02  0.24855306110E+02  0.83620881425E+02  0.15593781586E+03  0.12508529257E+03 0.  0.
          5    1    3    3  502    0 -0.60743994014E+01  0.71481681085E+02  0.70296138399E+02  0.10052635740E+03  0.41800000000E+01 0.  1.
         -5    1    3    3    0  502 -0.26483763101E+02 -0.46626374975E+02  0.13324743026E+02  0.55411458454E+02  0.41800000000E+01 0.  1.
        -11    1    1    2    0    0  0.28138158890E+02  0.29828675050E+02  0.38815450461E+02  0.56463661194E+02  0.00000000000E+00 0.  1.
         11    1    1    2    0    0  0.44200036122E+01 -0.54683981161E+02  0.88787212507E+01  0.55576127236E+02  0.00000000000E+00 0. -1.
</event>
<event>
 7    1  0.2619826E-009  0.1428764E+03  0.7561462E-02  0.1209510E+00
         -1   -1    0    0    0  501 -0.00000000000E+00  0.00000000000E+00  0.75011326458E+03  0.75011326458E+03  0.00000000000E+00 0.  1.
          1   -1    0    0  501    0  0.00000000000E+00 -0.00000000000E+00 -0.28964334192E+02  0.28964334192E+02  0.00000000000E+00 0. -1.
         25    2    1    2    0    0  0.96037894684E+02 -0.25671380834E+02  0.45521430536E+03  0.48243984839E+03  0.12508335819E+03 0.  0.
          5    1    3    3  502    0  0.69949409492E+01 -0.61001057156E+02  0.13918344884E+03  0.15218266329E+03  0.41800000000E+01 0. -1.
         -5    1    3    3    0  502  0.89042953735E+02  0.35329676323E+02  0.31603085652E+03  0.33025718510E+03  0.41800000000E+01 0. -1.
        -11    1    1    2    0    0 -0.40510455037E+02 -0.29448467196E+02  0.73858447126E+02  0.89237768906E+02  0.00000000000E+00 0. -1.
         11    1    1    2    0    0 -0.55527439647E+02  0.55119848030E+02  0.19207617790E+03  0.20739998148E+03  0.00000000000E+00 0.  1.
</event>
<event>
 7    1  0.2619826E-009  0.1119189E+03  0.7561462E-02  0.1257057E+00
          1   -1    0    0  501    0  0.00000000000E+00  0.00000000000E+00  0.35422593778E+03  0.35422593778E+03  0.00000000000E+00 0. -1.
         -1   -1    0    0    0  501 -0.00000000000E+00 -0.00000000000E+00 -0.75454307129E+02  0.75454307129E+02  0.00000000000E+00 0.  1.
         25    2    1    2    0    0  0.31986053480E+02 -0.40845566218E+02  0.52260844099E+01  0.13551935991E+03  0.12508683805E+03 0.  0.
          5    1    3    3  502    0 -0.21239010580E+02 -0.65209272624E+02  0.25711343725E+02  0.73361368599E+02  0.41800000000E+01 0. -1.
         -5    1    3    3    0  502  0.53225064060E+02  0.24363706406E+02 -0.20485259315E+02  0.62157991306E+02  0.41800000000E+01 0. -1.
        -11    1    1    2    0    0 -0.95470600491E+01 -0.25063449034E+02  0.27334285699E+02  0.38294725587E+02  0.00000000000E+00 0.  1.
         11    1    1    2    0    0 -0.22438993431E+02  0.65909015252E+02  0.24621126054E+03  0.25586615942E+03  0.00000000000E+00 0. -1.
</event>
<event>
 7    1  0.2619826E-009  0.9927512E+02  0.7561462E-02  0.1281828E+00
          3   -1    0    0  501    0  0.00000000000E+00  0.00000000000E+00  0.87989796592E+02  0.87989796592E+02  0.00000000000E+00 0. -1.
         -3   -1    0    0    0  501 -0.00000000000E+00 -0.00000000000E+00 -0.14627488430E+03  0.14627488430E+03  0.00000000000E+00 0.  1.
         25    2    1    2    0    0  0.43849597829E+01 -0.34435500302E+02 -0.30954862467E+02  0.13345643913E+03  0.12508951228E+03 0.  0.
          5    1    3    3  502    0 -0.33414895632E+02  0.20869384515E+02  0.24337255438E+02  0.46495815536E+02  0.41800000000E+01 0. -1.
         -5    1    3    3    0  502  0.37799855414E+02 -0.55304884817E+02 -0.55292117905E+02  0.86960623597E+02  0.41800000000E+01 0. -1.
        -11    1    1    2    0    0 -0.39538990677E+02  0.39975310410E+02 -0.32349893188E+02  0.64868118636E+02  0.00000000000E+00 0.  1.
         11    1    1    2    0    0  0.35154030894E+02 -0.55398101080E+01  0.50196679426E+01  0.35940123127E+02  0.00000000000E+00 0. -1.
</event>
<event>
 7    1  0.2619826E-009  0.1356782E+03  0.7561462E-02  0.1219265E+00
          1   -1    0    0  501    0  0.00000000000E+00  0.00000000000E+00  0.25860512430E+03  0.25860512430E+03  0.00000000000E+00 0. -1.
         -1   -1    0    0    0  501 -0.00000000000E+00 -0.00000000000E+00 -0.12249848849E+03  0.12249848849E+03  0.00000000000E+00 0.  1.
         25    2    1    2    0    0  0.89484540798E+02 -0.32978266123E+02  0.18379593346E+03  0.24192443022E+03  0.12510569811E+03 0.  0.
          5    1    3    3  502    0 -0.50857644467E+01 -0.58199356048E+02  0.80606276461E+02  0.99638718625E+02  0.41800000000E+01 0.  1.
         -5    1    3    3    0  502  0.94570305244E+02  0.25221089925E+02  0.10318965700E+03  0.14228571159E+03  0.41800000000E+01 0.  1.
        -11    1    1    2    0    0  0.96207877258E+01  0.82587596794E+01 -0.33796941879E+02  0.36097090579E+02  0.00000000000E+00 0.  1.
         11    1    1    2    0    0 -0.99105328523E+02  0.24719506444E+02 -0.13892355769E+02  0.10308209199E+03  0.00000000000E+00 0. -1.
</event>
<event>
 7    1  0.2619826E-009  0.9262474E+02  0.7561462E-02  0.1296617E+00
          1   -1    0    0  501    0  0.00000000000E+00  0.00000000000E+00  0.56954328351E+02  0.56954328351E+02  0.00000000000E+00 0. -1.
         -1   -1    0    0    0  501 -0.00000000000E+00 -0.00000000000E+00 -0.26371547400E+03  0.26371547400E+03  0.00000000000E+00 0.  1.
         25    2    1    2    0    0  0.46687931580E+02 -0.24675330838E+02 -0.15233349132E+03  0.20405979266E+03  0.12508505704E+03 0.  0.
          5    1    3    3  502    0  0.77837328053E+02 -0.18715202357E+02 -0.15225645904E+03  0.17207094513E+03  0.41800000000E+01 0. -1.
         -5    1    3    3    0  502 -0.31149396473E+02 -0.59601284812E+01 -0.77032276261E-01  0.31988847528E+02  0.41800000000E+01 0. -1.
        -11    1    1    2    0    0 -0.51540325996E+02  0.38178651055E+01 -0.72193412141E+02  0.88785528405E+02  0.00000000000E+00 0.  1.
         11    1    1    2    0    0  0.48523944161E+01  0.20857465733E+02  0.17765757810E+02  0.27824481288E+02  0.00000000000E+00 0. -1.
</event>
<event>
 7    1  0.2619826E-009  0.1208065E+03  0.7561462E-02  0.1241773E+00
         -1   -1    0    0    0  501 -0.00000000000E+00  0.00000000000E+00  0.12173897709E+03  0.12173897709E+03  0.00000000000E+00 0.  1.
          1   -1    0    0  501    0  0.00000000000E+00 -0.00000000000E+00 -0.19815571109E+03  0.19815571109E+03  0.00000000000E+00 0. -1.
         25    2    1    2    0    0  0.96759988603E+02 -0.41638375594E+02 -0.48964992046E+01  0.16361357201E+03  0.12509666472E+03 0.  0.
          5    1    3    3  502    0  0.10045817997E+03 -0.38618149351E+02 -0.49517251117E+02  0.11854382287E+03  0.41800000000E+01 0.  1.
         -5    1    3    3    0  502 -0.36981913700E+01 -0.30202262434E+01  0.44620751912E+02  0.45069749136E+02  0.41800000000E+01 0.  1.
        -11    1    1    2    0    0 -0.31430770159E+02  0.52641887478E+02 -0.65563695564E+02  0.89764468505E+02  0.00000000000E+00 0. -1.
         11    1    1    2    0    0 -0.65329218443E+02 -0.11003511884E+02 -0.59565392325E+01  0.66516647659E+02  0.00000000000E+00 0.  1.
</event>
<event>
 7    1  0.2619826E-009  0.1089107E+03  0.7561462E-02  0.1262600E+00
         -3   -1    0    0    0  501 -0.00000000000E+00  0.00000000000E+00  0.49426033045E+03  0.49426033045E+03  0.00000000000E+00 0.  1.
          3   -1    0    0  501    0  0.00000000000E+00 -0.00000000000E+00 -0.36762022447E+02  0.36762022447E+02  0.00000000000E+00 0. -1.
         25    2    1    2    0    0  0.56428624717E+02 -0.50908665794E+02  0.30279178502E+03  0.33632662793E+03  0.12512734969E+03 0.  0.
          5    1    3    3  502    0  0.84308674636E+02 -0.43655751561E+02  0.28879003936E+03  0.30402456562E+03  0.41800000000E+01 0.  1.
         -5    1    3    3    0  502 -0.27880049920E+02 -0.72529142332E+01  0.14001745660E+02  0.32302062317E+02  0.41800000000E+01 0.  1.
        -11    1    1    2    0    0 -0.66748003192E+02  0.36865840125E+02  0.15935558800E+03  0.17665952996E+03  0.00000000000E+00 0.  1.
         11    1    1    2    0    0  0.10319378475E+02  0.14042825669E+02 -0.46490650150E+01  0.18036195009E+02  0.00000000000E+00 0. -1.
</event>
<event>
 7    1  0.2619826E-009  0.1293814E+03  0.7561462E-02  0.1228377E+00
          1   -1    0    0  501    0  0.00000000000E+00  0.00000000000E+00  0.56474791229E+02  0.56474791229E+02  0.00000000000E+00 0. -1.
         -1   -1    0    0    0  501 -0.00000000000E+00 -0.00000000000E+00 -0.44373542261E+03  0.44373542261E+03  0.00000000000E+00 0.  1.
         25    2    1    2    0    0  0.28260481476E+02 -0.82316587586E+02 -0.32519848582E+03  0.35913395695E+03  0.12509383858E+03 0.  0.
          5    1    3    3  502    0  0.13100096165E+02 -0.10598590871E+03 -0.30776906723E+03  0.32579732428E+03  0.41800000000E+01 0. -1.
         -5    1    3    3    0  502  0.15160385310E+02  0.23669321127E+02 -0.17429418588E+02  0.33336632669E+02  0.41800000000E+01 0. -1.
        -11    1    1    2    0    0 -0.53620360050E+02  0.21848972538E+02 -0.44974862310E+02  0.73316156832E+02  0.00000000000E+00 0.  1.
         11    1    1    2    0    0  0.25359878574E+02  0.60467615048E+02 -0.17087283255E+02  0.67760100059E+02  0.00000000000E+00 0. -1.
</event>
<event>
 7    1  0.2619826E-009  0.1083365E+03  0.7561462E-02  0.1263682E+00
         -2   -1    0    0    0  501 -0.00000000000E+00  0.00000000000E+00  0.60757454617E+02  0.60757454617E+02  0.00000000000E+00 0.  1.
          2   -1    0    0  501    0  0.00000000000E+00 -0.00000000000E+00 -0.27229213847E+03  0.27229213847E+03  0.00000000000E+00 0. -1.
         25    2    1    2    0    0  0.15837636620E+02  0.22828500073E+02 -0.20080201628E+03  0.23820629882E+03  0.12509524334E+03 0.  0.
          5    1    3    3  502    0  0.23618658394E+02 -0.47215808681E+02 -0.11835098266E+03  0.12965955850E+03  0.41800000000E+01 0.  1.
         -5    1    3    3    0  502 -0.77810217743E+01  0.70044308754E+02 -0.82451033616E+02  0.10854674032E+03  0.41800000000E+01 0.  1.
        -11    1    1    2    0    0  0.20494289417E+02  0.25460793916E+02 -0.10768504375E+02  0.34412622859E+02  0.00000000000E+00 0. -1.
         11    1    1    2    0    0 -0.36331926036E+02 -0.48289293990E+02  0.35836795296E-01  0.60430671416E+02  0.00000000000E+00 0.  1.
</event>
<event>
 7    1  0.2619826E-009  0.1897289E+03  0.7561462E-02  0.1158706E+00
          1   -1    0    0  501    0  0.00000000000E+00  0.00000000000E+00  0.14747313471E+03  0.14747313471E+03  0.00000000000E+00 0. -1.
         -1   -1    0    0    0  501 -0.00000000000E+00 -0.00000000000E+00 -0.26477246530E+03  0.26477246530E+03  0.00000000000E+00 0.  1.
         25    2    1    2    0    0  0.26453131612E+02  0.16163384164E+03 -0.74363187460E+02  0.21909367192E+03  0.12508751532E+03 0.  0.
          5    1    3    3  502    0  0.67203771614E+02  0.41396038806E+02 -0.26953369917E+02  0.83510092192E+02  0.41800000000E+01 0.  1.
         -5    1    3    3    0  502 -0.40750640002E+02  0.12023780284E+03 -0.47409817543E+02  0.13558357972E+03  0.41800000000E+01 0.  1.
        -11    1    1    2    0    0  0.12347207767E+02 -0.98627668848E+02  0.13203707428E+02  0.10027067613E+03  0.00000000000E+00 0.  1.
         11    1    1    2    0    0 -0.38800339379E+02 -0.63006172795E+02 -0.56139850553E+02  0.92881251964E+02  0.00000000000E+00 0. -1.
</event>
<event>
 7    1  0.2619826E-009  0.7405835E+02  0.7561462E-02  0.1346812E+00
          2   -1    0    0  501    0  0.00000000000E+00  0.00000000000E+00  0.56220247008E+03  0.56220247008E+03  0.00000000000E+00 0. -1.
         -2   -1    0    0    0  501 -0.00000000000E+00 -0.00000000000E+00 -0.25134851876E+02  0.25134851876E+02  0.00000000000E+00 0.  1.
         25    2    1    2    0    0  0.11882152004E+02 -0.23752191721E+02  0.41012576884E+03  0.42959917609E+03  0.12508778391E+03 0.  0.
          5    1    3    3  502    0  0.32623705576E+02 -0.88978319748E+01  0.21878623555E+02  0.40492272695E+02  0.41800000000E+01 0.  1.
         -5    1    3    3    0  502 -0.20741553571E+02 -0.14854359747E+02  0.38824714529E+03  0.38910690340E+03  0.41800000000E+01 0.  1.
        -11    1    1    2    0    0  0.25365286890E+02  0.40152677089E+02  0.41385719050E+02  0.62995341079E+02  0.00000000000E+00 0.  1.
         11    1    1    2    0    0 -0.37247438894E+02 -0.16400485368E+02  0.85556130313E+02  0.94742804786E+02  0.00000000000E+00 0. -1.
</event>
<event>
 7    1  0.2619826E-009  0.1598703E+03  0.7561462E-02  0.1188843E+00
         -1   -1    0    0    0  501 -0.00000000000E+00  0.00000000000E+00  0.23518271766E+03  0.23518271766E+03  0.00000000000E+00 0.  1.
          1   -1    0    0  501    0  0.00000000000E+00 -0.00000000000E+00 -0.15496448852E+03  0.15496448852E+03  0.00000000000E+00 0. -1.
         25    2    1    2    0    0 -0.13691808852E+03 -0.15034806015E+02  0.96421671281E+02  0.20955983558E+03  0.12508228348E+03 0.  0.
          5    1    3    3  502    0 -0.96047021603E+02 -0.55791804418E+02  0.18789303884E+02  0.11273094579E+03  0.41800000000E+01 0.  1.
         -5    1    3    3    0  502 -0.40871066915E+02  0.40756998404E+02  0.77632367398E+02  0.96828889787E+02  0.41800000000E+01 0.  1.
        -11    1    1    2    0    0  0.84263914055E+02  0.39014972766E+02  0.38910614650E+02  0.10068073919E+03  0.00000000000E+00 0. -1.
         11    1    1    2    0    0  0.52654174464E+02 -0.23980166752E+02 -0.55114056792E+02  0.79906631402E+02  0.00000000000E+00 0.  1.
</event>
<event>
 7    1  0.2619826E-009  0.1155232E+03  0.7561462E-02  0.1250671E+00
         -1   -1    0    0    0  501 -0.00000000000E+00  0.00000000000E+00  0.49545599251E+03  0.49545599251E+03  0.00000000000E+00 0.  1.
          1   -1    0    0  501    0  0.00000000000E+00 -0.00000000000E+00 -0.36732437805E+02  0.36732437805E+02  0.00000000000E+00 0. -1.
         25    2    1    2    0    0 -0.45318140610E+02 -0.56102669310E+02  0.33184436656E+03  0.36189680173E+03  0.12508944046E+03 0.  0.
          5    1    3    3  502    0 -0.43462598330E+02  0.18577607689E+02  0.44788544904E+02  0.65250372532E+02  0.41800000000E+01 0.  1.
         -5    1    3    3    0  502 -0.18555422798E+01 -0.74680276999E+02  0.28705582166E+03  0.29664642920E+03  0.41800000000E+01 0.  1.
        -11    1    1    2    0    0  0.67275365260E+02  0.54816599847E+02  0.11822374246E+03  0.14665499538E+03  0.00000000000E+00 0.  1.
         11    1    1    2    0    0 -0.21957224650E+02  0.12860694635E+01  0.86554456849E+01  0.23636633200E+02  0.00000000000E+00 0. -1.
</event>
<event>
 7    1  0.2619826E-009  0.1050794E+03  0.7561462E-02  0.1269963E+00
          2   -1    0    0  501    0  0.00000000000E+00  0.00000000000E+00  0.13680619177E+04  0.13680619177E+04  0.00000000000E+00 0. -1.
         -2   -1    0    0    0  501 -0.00000000000E+00 -0.00000000000E+00 -0.19311183917E+02  0.19311183917E+02  0.00000000000E+00 0.  1.
         25    2    1    2    0    0 -0.85066611843E+02 -0.30948019162E+01  0.10891824675E+04  0.10996417368E+04  0.12509035004E+03 0.  0.
          5    1    3    3  502    0 -0.29688689960E+02 -0.54303236511E+01  0.47215743947E+02  0.56193465839E+02  0.41800000000E+01 0.  1.
         -5    1    3    3    0  502 -0.55377921882E+02  0.23355217349E+01  0.10419667235E+04  0.10434482710E+04  0.41800000000E+01 0.  1.
        -11    1    1    2    0    0 -0.78135976320E+01 -0.25701665263E+02  0.59493890237E+02  0.65277491380E+02  0.00000000000E+00 0. -1.
         11    1    1    2    0    0  0.92880209475E+02  0.28796467179E+02  0.20007437606E+03  0.22245387340E+03  0.00000000000E+00 0.  1.
</event>
<event>
 7    1  0.2619826E-009  0.9004856E+02  0.7561462E-02  0.1302734E+00
          2   -1    0    0  501    0  0.00000000000E+00  0.00000000000E+00  0.24906845536E+03  0.24906845536E+03  0.00000000000E+00 0. -1.
         -2   -1    0    0    0  501 -0.00000000000E+00 -0.00000000000E+00 -0.60026761431E+02  0.60026761431E+02  0.00000000000E+00 0.  1.
         25    2    1    2    0    0 -0.43656490826E+02 -0.63056922887E+00  0.15308008261E+03  0.20245152753E+03  0.12508725953E+03 0.  0.
          5    1    3    3  502    0  0.34240878015E+02 -0.15986794247E+02  0.99658681725E+02  0.10666461719E+03  0.41800000000E+01 0. -1.
         -5    1    3    3    0  502 -0.77897368841E+02  0.15356225018E+02  0.53421400885E+02  0.95786910336E+02  0.41800000000E+01 0. -1.
        -11    1    1    2    0    0  0.55262692501E+00 -0.16264819418E+02  0.54421176240E+02  0.56802413422E+02  0.00000000000E+00 0. -1.
         11    1    1    2    0    0  0.43103863901E+02  0.16895388647E+02 -0.18459564920E+02  0.49841275844E+02  0.00000000000E+00 0.  1.
</event>
<event>
 7    1  0.2619826E-009  0.1036789E+03  0.7561462E-02  0.1272745E+00
          2   -1    0    0  501    0  0.00000000000E+00  0.00000000000E+00  0.41619587564E+03  0.41619587564E+03  0.00000000000E+00 0. -1.
         -2   -1    0    0    0  501 -0.00000000000E+00 -0.00000000000E+00 -0.60366092014E+02  0.60366092014E+02  0.00000000000E+00 0.  1.
         25    2    1    2    0    0 -0.64235285949E+02  0.66037171118E+02  0.86448018913E+02  0.17778672154E+03  0.12509108062E+03 0.  0.
          5    1    3    3  502    0 -0.37975042302E+02  0.34930430700E+02 -0.26140413325E+02  0.57991658327E+02  0.41800000000E+01 0. -1.
         -5    1    3    3    0  502 -0.26260243647E+02  0.31106740418E+02  0.11258843224E+03  0.11979506321E+03  0.41800000000E+01 0. -1.
        -11    1    1    2    0    0 -0.24932210034E+01 -0.44472414659E+02  0.43505512792E+02  0.62263484161E+02  0.00000000000E+00 0.  1.
         11    1    1    2    0    0  0.66728506952E+02 -0.21564756459E+02  0.22587625192E+03  0.23651176196E+03  0.00000000000E+00 0. -1.
</event>
<event>
 7    1  0.2619826E-009  0.9432435E+02  0.7561462E-02  0.1292705E+00
         -2   -1    0    0    0  501 -0.00000000000E+00  0.00000000000E+00  0.49802433870E+02  0.49802433870E+02  0.00000000000E+00 0.  1.
          2   -1    0    0  501    0  0.00000000000E+00 -0.00000000000E+00 -0.35372632326E+03  0.35372632326E+03  0.00000000000E+00 0. -1.
         25    2    1    2    0    0  0.50030067221E+02  0.47721227245E+02 -0.22481668811E+03  0.26640376413E+03  0.12509236241E+03 0.  0.
          5    1    3    3  502    0 -0.44445731731E+01  0.55274270131E+02 -0.19686954875E+03  0.20457294737E+03  0.41800000000E+01 0.  1.
         -5    1    3    3    0  502  0.54474640394E+02 -0.75530428857E+01 -0.27947139361E+02  0.61830816761E+02  0.41800000000E+01 0.  1.
        -11    1    1    2    0    0 -0.23978974484E+01 -0.24992438380E+02  0.14987050586E+02  0.29240102148E+02  0.00000000000E+00 0.  1.
         11    1    1    2    0    0 -0.47632169773E+02 -0.22728788864E+02 -0.94094251863E+02  0.10788489085E+03  0.00000000000E+00 0. -1.
</event>
<event>
 7    1  0.2619826E-009  0.1135884E+03  0.7561462E-02  0.1254065E+00
         -1   -1    0    0    0  501 -0.00000000000E+00  0.00000000000E+00  0.27679543233E+03  0.27679543233E+03  0.00000000000E+00 0.  1.
          1   -1    0    0  501    0  0.00000000000E+00 -0.00000000000E+00 -0.67458009569E+02  0.67458009569E+02  0.00000000000E+00 0. -1.
         25    2    1    2    0    0 -0.40750660894E+02 -0.72914935262E+02  0.14538845177E+03  0.20919575055E+03  0.12509139057E+03 0.  0.
          5    1    3    3  502    0 -0.57195255613E+02 -0.82092264214E+02  0.15733920135E+03  0.18650344177E+03  0.41800000000E+01 0.  1.
         -5    1    3    3    0  502  0.16444594719E+02  0.91773289517E+01 -0.11950749588E+02  0.22692308782E+02  0.41800000000E+01 0.  1.
        -11    1    1    2    0    0 -0.17337356798E+02  0.32968507414E+02  0.51358470182E+02  0.63444455087E+02  0.00000000000E+00 0.  1.
         11    1    1    2    0    0  0.58088017692E+02  0.39946427848E+02  0.12590500811E+02  0.71613236262E+02  0.00000000000E+00 0. -1.
</event>
<event>
 7    1  0.2619826E-009  0.1496176E+03  0.7561462E-02  0.1200944E+00
         -1   -1    0    0    0  501 -0.00000000000E+00  0.00000000000E+00  0.94010792215E+03  0.94010792215E+03  0.00000000000E+00 0.  1.
          1   -1    0    0  501    0  0.00000000000E+00 -0.00000000000E+00 -0.30787715511E+02  0.30787715511E+02  0.00000000000E+00 0. -1.
         25    2    1    2    0    0  0.12341770910E+03  0.57012870794E+01  0.60479951623E+03  0.62983694588E+03  0.12509071897E+03 0.  0.
          5    1    3    3  502    0 -0.16853080272E+02  0.27790957773E+02  0.89364320182E+02  0.95183075020E+02  0.41800000000E+01 0. -1.
         -5    1    3    3    0  502  0.14027078937E+03 -0.22089670694E+02  0.51543519605E+03  0.53465387086E+03  0.41800000000E+01 0. -1.
        -11    1    1    2    0    0 -0.94957640001E+02  0.17927141827E+01  0.29533173298E+03  0.31022733555E+03  0.00000000000E+00 0.  1.
         11    1    1    2    0    0 -0.28460069099E+02 -0.74940012621E+01  0.91889574237E+01  0.30831356223E+02  0.00000000000E+00 0. -1.
</event>
<event>
 7    1  0.2619826E-009  0.1041518E+03  0.7561462E-02  0.1271800E+00
          1   -1    0    0  501    0  0.00000000000E+00  0.00000000000E+00  0.16260535456E+03  0.16260535456E+03  0.00000000000E+00 0. -1.
         -1   -1    0    0    0  501 -0.00000000000E+00 -0.00000000000E+00 -0.10785704703E+03  0.10785704703E+03  0.00000000000E+00 0.  1.
         25    2    1    2    0    0 -0.45777196782E+02  0.51727864190E+02 -0.94332779391E+00  0.14289873782E+03  0.12509130955E+03 0.  0.
          5    1    3    3  502    0  0.40907543426E+02  0.84826960359E+01  0.15096290525E+02  0.44617862217E+02  0.41800000000E+01 0. -1.
         -5    1    3    3    0  502 -0.86684740208E+02  0.43245168154E+02 -0.16039618319E+02  0.98280875604E+02  0.41800000000E+01 0. -1.
        -11    1    1    2    0    0  0.24058748061E+02 -0.31822873022E+02  0.79983135991E+02  0.89380202778E+02  0.00000000000E+00 0. -1.
         11    1    1    2    0    0  0.21718448721E+02 -0.19904991168E+02 -0.24291500671E+02  0.38183460989E+02  0.00000000000E+00 0.  1.
</event>
<event>
 7    1  0.2619826E-009  0.9787651E+02  0.7561462E-02  0.1284826E+00
          1   -1    0    0  501    0  0.00000000000E+00  0.00000000000E+00  0.11317425679E+03  0.11317425679E+03  0.00000000000E+00 0. -1.
         -1   -1    0    0    0  501 -0.00000000000E+00 -0.00000000000E+00 -0.15771722185E+03  0.15771722185E+03  0.00000000000E+00 0.  1.
         25    2    1    2    0    0  0.29196570610E+02  0.13920641734E+02  0.46402555184E+02  0.13728373323E+03  0.12508957702E+03 0.  0.
          5    1    3    3  502    0 -0.45670887313E+02 -0.15017509678E+02  0.23706792704E+02  0.53766532017E+02  0.41800000000E+01 0.  1.
         -5    1    3    3    0  502  0.74867457923E+02  0.28938151412E+02  0.22695762480E+02  0.83517201208E+02  0.41800000000E+01 0.  1.
        -11    1    1    2    0    0  0.68599039792E+01 -0.27688162619E+02 -0.90627711746E+02  0.95010919205E+02  0.00000000000E+00 0.  1.
         11    1    1    2    0    0 -0.36056474590E+02  0.13767520886E+02 -0.31780849578E+00  0.38596826209E+02  0.00000000000E+00 0. -1.
</event>
<event>
 7    1  0.2619826E-009  0.1837809E+03  0.7561462E-02  0.1164193E+00
          2   -1    0    0  501    0  0.00000000000E+00  0.00000000000E+00  0.29719330107E+04  0.29719330107E+04  0.00000000000E+00 0. -1.
         -2   -1    0    0    0  501 -0.00000000000E+00 -0.00000000000E+00 -0.19239873947E+02  0.19239873947E+02  0.00000000000E+00 0.  1.
         25    2    1    2    0    0 -0.11812752599E+03 -0.12138235966E+03  0.23228730212E+04  0.23323966941E+04  0.12508987350E+03 0.  0.
          5    1    3    3  502    0 -0.13190175487E+03 -0.12025895177E+03  0.16987982822E+04  0.17081549592E+04  0.41800000000E+01 0.  1.
         -5    1    3    3    0  502  0.13774228887E+02 -0.11234078984E+01  0.62407473898E+03  0.62424173495E+03  0.41800000000E+01 0.  1.
        -11    1    1    2    0    0  0.30488055664E+02  0.60872538371E+02  0.12014809580E+03  0.13809617081E+03  0.00000000000E+00 0.  1.
         11    1    1    2    0    0  0.87639470322E+02  0.60509821294E+02  0.50967201974E+03  0.52068001972E+03  0.00000000000E+00 0. -1.
</event>
<event>
 7    1  0.2619826E-009  0.1194942E+03  0.7561462E-02  0.1243934E+00
          2   -1    0    0  501    0  0.00000000000E+00  0.00000000000E+00  0.94965667186E+03  0.94965667186E+03  0.00000000000E+00 0.  1.
         -2   -1    0    0    0  501 -0.00000000000E+00 -0.00000000000E+00 -0.22413446173E+02  0.22413446173E+02  0.00000000000E+00 0. -1.
         25    2    1    2    0    0  0.81112944810E+02 -0.47813028434E+02  0.42413851947E+03  0.45211341021E+03  0.12509059310E+03 0.  0.
          5    1    3    3  502    0  0.16649116862E+02 -0.41025658621E+02  0.35296557098E+03  0.35575618681E+03  0.41800000000E+01 0.  1.
         -5    1    3    3    0  502  0.64463827949E+02 -0.67873698127E+01  0.71172948496E+02  0.96357223395E+02  0.41800000000E+01 0.  1.
        -11    1    1    2    0    0 -0.22165106561E+02 -0.26603064500E+02  0.17503995732E+03  0.17843206452E+03  0.00000000000E+00 0.  1.
         11    1    1    2    0    0 -0.58947838250E+02  0.74416092934E+02  0.32806474889E+03  0.34152464331E+03  0.00000000000E+00 0. -1.
</event>
<event>
 7    1  0.2619826E-009  0.1204372E+03  0.7561462E-02  0.1242378E+00
          2   -1    0    0  501    0  0.00000000000E+00  0.00000000000E+00  0.67083278494E+03  0.67083278494E+03  0.00000000000E+00 0. -1.
         -2   -1    0    0    0  501 -0.00000000000E+00 -0.00000000000E+00 -0.32306501154E+02  0.32306501154E+02  0.00000000000E+00 0.  1.
         25    2    1    2    0    0 -0.92420308228E+01  0.96052428349E+02  0.38829095869E+03  0.41920512093E+03  0.12510627758E+03 0.  0.
          5    1    3    3  502    0 -0.19882532342E+02  0.39251591312E+01  0.75660302055E+00  0.20706685265E+02  0.41800000000E+01 0.  1.
         -5    1    3    3    0  502  0.10640501519E+02  0.92127269218E+02  0.38753435567E+03  0.39849843567E+03  0.41800000000E+01 0.  1.
        -11    1    1    2    0    0  0.14815042363E+01 -0.11073257033E+03  0.24028329281E+03  0.26457505134E+03  0.00000000000E+00 0. -1.
         11    1    1    2    0    0  0.77605265866E+01  0.14680141977E+02  0.99520322828E+01  0.19359113821E+02  0.00000000000E+00 0.  1.
</event>
<event>
 6    1  0.2619826E-009  0.1211784E+03  0.7561462E-02  0.1241166E+00
          1   -1    0    0  501    0  0.00000000000E+00  0.00000000000E+00  0.32181523082E+02  0.32181523082E+02  0.00000000000E+00 0. -1.
         -1   -1    0    0    0  501 -0.00000000000E+00 -0.00000000000E+00 -0.66913861297E+03  0.66913861297E+03  0.00000000000E+00 0.  1.
          5    1    1    2  502    0  0.21564818812E+02 -0.13544584979E+02 -0.16226590303E+03  0.16430518215E+03  0.41800000000E+01 0. -1.
         -5    1    1    2    0  502 -0.66786127816E+02  0.97278293360E+02 -0.23763985182E+03  0.26535565718E+03  0.41800000000E+01 0. -1.
        -11    1    1    2    0    0  0.26861234021E+02 -0.71596683862E+02 -0.23764188042E+03  0.24964229281E+03  0.00000000000E+00 0.  1.
         11    1    1    2    0    0  0.18360074983E+02 -0.12137024519E+02  0.59054537461E+00  0.22017003915E+02  0.00000000000E+00 0. -1.
</event>
<event>
 7    1  0.2619826E-009  0.7378331E+02  0.7561462E-02  0.1347681E+00
          2   -1    0    0  501    0  0.00000000000E+00  0.00000000000E+00  0.84247102939E+03  0.84247102939E+03  0.00000000000E+00 0.  1.
         -2   -1    0    0    0  501 -0.00000000000E+00 -0.00000000000E+00 -0.16787962351E+02  0.16787962351E+02  0.00000000000E+00 0. -1.
         25    2    1    2    0    0 -0.48844842689E+01 -0.33174495723E+02  0.59664910892E+03  0.61054189494E+03  0.12508733328E+03 0.  0.
          5    1    3    3  502    0 -0.20339581146E+02  0.11150533298E+02  0.17196043147E+02  0.29175490638E+02  0.41800000000E+01 0.  1.
         -5    1    3    3    0  502  0.15455096878E+02 -0.44325029021E+02  0.57945306577E+03  0.58136640430E+03  0.41800000000E+01 0.  1.
        -11    1    1    2    0    0 -0.28255170260E+02  0.33375058952E+02  0.19978737920E+03  0.20451710465E+03  0.00000000000E+00 0.  1.
         11    1    1    2    0    0  0.33139654529E+02 -0.20056322898E+00  0.29246578921E+02  0.44199992155E+02  0.00000000000E+00 0. -1.
</event>
<event>
 7    1  0.2619826E-009  0.8531338E+02  0.7561462E-02  0.1314615E+00
         -2   -1    0    0    0  501 -0.00000000000E+00  0.00000000000E+00  0.52291936989E+03  0.52291936989E+03  0.00000000000E+00 0.  1.
          2   -1    0    0  501    0  0.00000000000E+00 -0.00000000000E+00 -0.36055996748E+02  0.36055996748E+02  0.00000000000E+00 0. -1.
         25    2    1    2    0    0  0.37685659688E+02 -0.47711878141E+02  0.15018645436E+03  0.20469455660E+03  0.12508900098E+03 0.  0.
          5    1    3    3  502    0  0.27976748650E+02 -0.30433222185E+02 -0.10403624074E+02  0.42832082269E+02  0.41800000000E+01 0.  1.
         -5    1    3    3    0  502  0.97089110373E+01 -0.17278655957E+02  0.16059007844E+03  0.16186247433E+03  0.41800000000E+01 0.  1.
        -11    1    1    2    0    0 -0.61046041367E+02  0.57154023799E+02  0.28075521205E+03  0.29294485948E+03  0.00000000000E+00 0.  1.
         11    1    1    2    0    0  0.23360381680E+02 -0.94421456574E+01  0.55921706729E+02  0.61335950553E+02  0.00000000000E+00 0. -1.
</event>
<event>
 7    1  0.2619826E-009  0.2248297E+03  0.7561462E-02  0.1130333E+00
          2   -1    0    0  501    0  0.00000000000E+00  0.00000000000E+00  0.22250934192E+03  0.22250934192E+03  0.00000000000E+00 0. -1.
         -2   -1    0    0    0  501 -0.00000000000E+00 -0.00000000000E+00 -0.23810689410E+03  0.23810689410E+03  0.00000000000E+00 0.  1.
         25    2    1    2    0    0 -0.11610791981E+03  0.16657974831E+03 -0.77755859357E+01  0.23861639857E+03  0.12508982510E+03 0.  0.
          5    1    3    3  502    0 -0.10064858504E+03  0.47845515833E+02  0.25240561534E+02  0.11434110985E+03  0.41800000000E+01 0.  1.
         -5    1    3    3    0  502 -0.15459334771E+02  0.11873423247E+03 -0.33016147470E+02  0.12427528872E+03  0.41800000000E+01 0.  1.
        -11    1    1    2    0    0  0.85313489248E+02 -0.52514547254E+02 -0.23263024027E+02  0.10284618324E+03  0.00000000000E+00 0. -1.
         11    1    1    2    0    0  0.30794430562E+02 -0.11406520105E+03  0.15441057774E+02  0.11915365420E+03  0.00000000000E+00 0.  1.
</event>
<event>
 7    1  0.2619826E-009  0.1817452E+03  0.7561462E-02  0.1166125E+00
          1   -1    0    0  501    0  0.00000000000E+00  0.00000000000E+00  0.42999090177E+03  0.42999090177E+03  0.00000000000E+00 0. -1.
         -1   -1    0    0    0  501 -0.00000000000E+00 -0.00000000000E+00 -0.97965997651E+02  0.97965997651E+02  0.00000000000E+00 0.  1.
         25    2    1    2    0    0  0.53668747920E+02 -0.16082333281E+03  0.12752581449E+03  0.24627958176E+03  0.12508525154E+03 0.  0.
          5    1    3    3  502    0  0.39966834007E+02 -0.13484637532E+03  0.15250406145E+03  0.20749904558E+03  0.41800000000E+01 0. -1.
         -5    1    3    3    0  502  0.13701913913E+02 -0.25976957485E+02 -0.24978246961E+02  0.38780536179E+02  0.41800000000E+01 0. -1.
        -11    1    1    2    0    0 -0.54979134167E+02  0.30663086163E+02  0.77160573929E+02  0.99582549756E+02  0.00000000000E+00 0.  1.
         11    1    1    2    0    0  0.13103862469E+01  0.13016024664E+03  0.12733851570E+03  0.18209476791E+03  0.00000000000E+00 0. -1.
</event>
<event>
 7    1  0.2619826E-009  0.1748352E+03  0.7561462E-02  0.1172897E+00
          2   -1    0    0  501    0  0.00000000000E+00  0.00000000000E+00  0.69278393754E+02  0.69278393754E+02  0.00000000000E+00 0. -1.
         -2   -1    0    0    0  501 -0.00000000000E+00 -0.00000000000E+00 -0.51930037570E+03  0.51930037570E+03  0.00000000000E+00 0.  1.
         25    2    1    2    0    0  0.17791879946E+02  0.14282493121E+03 -0.32568887679E+03  0.37740767101E+03  0.12509114160E+03 0.  0.
          5    1    3    3  502    0 -0.53791129479E+02  0.70653441832E+02 -0.15648881789E+03  0.17997671232E+03  0.41800000000E+01 0. -1.
         -5    1    3    3    0  502  0.71583009425E+02  0.72171489378E+02 -0.16920005890E+03  0.19743095869E+03  0.41800000000E+01 0. -1.
        -11    1    1    2    0    0 -0.43871180929E+02 -0.88921033289E+02 -0.11280813054E+03  0.15019089518E+03  0.00000000000E+00 0.  1.
         11    1    1    2    0    0  0.26079300983E+02 -0.53903897921E+02 -0.11524974616E+02  0.60980203269E+02  0.00000000000E+00 0. -1.
</event>
<event>
 7    1  0.2619826E-009  0.6300631E+02  0.7561462E-02  0.1385632E+00
          2   -1    0    0  501    0  0.00000000000E+00  0.00000000000E+00  0.22641936582E+03  0.22641936582E+03  0.00000000000E+00 0. -1.
         -2   -1    0    0    0  501 -0.00000000000E+00 -0.00000000000E+00 -0.60000174113E+02  0.60000174113E+02  0.00000000000E+00 0.  1.
         25    2    1    2    0    0  0.99319993042E+01  0.30530907095E+02  0.12996710912E+03  0.18321889333E+03  0.12508769933E+03 0.  0.
          5    1    3    3  502    0 -0.12517948953E+02  0.19197142114E+02 -0.20242064130E+02  0.30861673182E+02  0.41800000000E+01 0. -1.
         -5    1    3    3    0  502  0.22449948257E+02  0.11333764981E+02  0.15020917325E+03  0.15235722015E+03  0.41800000000E+01 0. -1.
        -11    1    1    2    0    0  0.18097706010E+02  0.15167560048E+02 -0.15741877127E+02  0.28379368141E+02  0.00000000000E+00 0.  1.
         11    1    1    2    0    0 -0.28029705314E+02 -0.45698467142E+02  0.52193959721E+02  0.74821278461E+02  0.00000000000E+00 0. -1.
</event>
<event>
 7    1  0.2619826E-009  0.2185697E+03  0.7561462E-02  0.1134954E+00
         -4   -1    0    0    0  501 -0.00000000000E+00  0.00000000000E+00  0.27304002606E+03  0.27304002606E+03  0.00000000000E+00 0.  1.
          4   -1    0    0  501    0  0.00000000000E+00 -0.00000000000E+00 -0.19630946098E+03  0.19630946098E+03  0.00000000000E+00 0. -1.
         25    2    1    2    0    0 -0.20239921771E+03  0.24069694981E+02  0.25697594524E+02  0.24052590499E+03  0.12509017173E+03 0.  0.
          5    1    3    3  502    0 -0.10481289995E+03  0.62677136054E+02  0.51130893522E+02  0.13246134550E+03  0.41800000000E+01 0.  1.
         -5    1    3    3    0  502 -0.97586317755E+02 -0.38607441073E+02 -0.25433298997E+02  0.10806455949E+03  0.41800000000E+01 0.  1.
        -11    1    1    2    0    0  0.55658264836E+02  0.15794424865E+02 -0.19699964770E+02  0.61117877199E+02  0.00000000000E+00 0. -1.
         11    1    1    2    0    0  0.14674095287E+03 -0.39864119846E+02  0.70732935321E+02  0.16770570485E+03  0.00000000000E+00 0.  1.
</event>
<event>
 7    1  0.2619826E-009  0.1110586E+03  0.7561462E-02  0.1258622E+00
         -1   -1    0    0    0  501 -0.00000000000E+00  0.00000000000E+00  0.56681460565E+02  0.56681460565E+02  0.00000000000E+00 0.  1.
          1   -1    0    0  501    0  0.00000000000E+00 -0.00000000000E+00 -0.26263459041E+03  0.26263459041E+03  0.00000000000E+00 0. -1.
         25    2    1    2    0    0 -0.67231990648E+01  0.28889132414E+02 -0.55783910425E+02  0.14014401232E+03  0.12509482863E+03 0.  0.
          5    1    3    3  502    0 -0.27445932710E+02  0.71830139248E+02 -0.17795599095E+02  0.79037990067E+02  0.41800000000E+01 0.  1.
         -5    1    3    3    0  502  0.20722733646E+02 -0.42941006833E+02 -0.37988311330E+02  0.61106022251E+02  0.41800000000E+01 0.  1.
        -11    1    1    2    0    0  0.49771042338E+02 -0.16858757691E+02 -0.72179775655E+02  0.89282105597E+02  0.00000000000E+00 0.  1.
         11    1    1    2    0    0 -0.43047843274E+02 -0.12030374724E+02 -0.77989443761E+02  0.89889933055E+02  0.00000000000E+00 0. -1.
</event>
<event>
 7    1  0.2619826E-009  0.1078973E+03  0.7561462E-02  0.1264514E+00
         -1   -1    0    0    0  501 -0.00000000000E+00  0.00000000000E+00  0.74542212684E+02  0.74542212684E+02  0.00000000000E+00 0.  1.
          1   -1    0    0  501    0  0.00000000000E+00 -0.00000000000E+00 -0.22999666876E+03  0.22999666876E+03  0.00000000000E+00 0. -1.
         25    2    1    2    0    0 -0.75353519895E+01  0.36457037371E+02 -0.15812536512E+03  0.20502837529E+03  0.12508839465E+03 0.  0.
          5    1    3    3  502    0 -0.64085573239E+02  0.28475639749E+01 -0.71025639467E+02  0.95797615731E+02  0.41800000000E+01 0.  1.
         -5    1    3    3    0  502  0.56550221249E+02  0.33609473396E+02 -0.87099725648E+02  0.10923075956E+03  0.41800000000E+01 0.  1.
        -11    1    1    2    0    0 -0.14039331914E+02 -0.55234913428E+02 -0.22634060635E+02  0.61321278549E+02  0.00000000000E+00 0. -1.
         11    1    1    2    0    0  0.21574683904E+02  0.18777876057E+02  0.25304969677E+02  0.38189227606E+02  0.00000000000E+00 0.  1.
</event>
<event>
 7    1  0.2619826E-009  0.1205902E+03  0.7561462E-02  0.1242127E+00
          3   -1    0    0  501    0  0.00000000000E+00  0.00000000000E+00  0.93657580598E+02  0.93657580598E+02  0.00000000000E+00 0. -1.
         -3   -1    0    0    0  501 -0.00000000000E+00 -0.00000000000E+00 -0.25466845854E+03  0.25466845854E+03  0.00000000000E+00 0.  1.
         25    2    1    2    0    0 -0.95192939225E+01  0.90518424547E+02 -0.15724634573E+03  0.22058572363E+03  0.12508975212E+03 0.  0.
          5    1    3    3  502    0 -0.17424944666E+02 -0.23380907339E+02 -0.72741165044E+02  0.78479583438E+02  0.41800000000E+01 0.  1.
         -5    1    3    3    0  502  0.79056507439E+01  0.11389933189E+03 -0.84505180683E+02  0.14210614019E+03  0.41800000000E+01 0.  1.
        -11    1    1    2    0    0 -0.10942689008E+02 -0.58209797847E+02 -0.42813955258E+02  0.73083224977E+02  0.00000000000E+00 0.  1.
         11    1    1    2    0    0  0.20461982931E+02 -0.32308626700E+02  0.39049423047E+02  0.54657090528E+02  0.00000000000E+00 0. -1.
</event>
<event>
 7    1  0.2619826E-009  0.1560755E+03  0.7561462E-02  0.1193200E+00
          3   -1    0    0  501    0  0.00000000000E+00  0.00000000000E+00  0.57054606151E+03  0.57054606151E+03  0.00000000000E+00 0. -1.
         -3   -1    0    0    0  501 -0.00000000000E+00 -0.00000000000E+00 -0.55695830371E+02  0.55695830371E+02  0.00000000000E+00 0.  1.
         25    2    1    2    0    0  0.77710166594E+02  0.98922065377E+02  0.16109687207E+03  0.23963479505E+03  0.12509271680E+03 0.  0.
          5    1    3    3  502    0  0.96866829982E+02  0.10236408449E+03  0.16729541572E+03  0.21878486480E+03  0.41800000000E+01 0.  1.
         -5    1    3    3    0  502 -0.19156663388E+02 -0.34420191116E+01 -0.61985436592E+01  0.20849930245E+02  0.41800000000E+01 0.  1.
        -11    1    1    2    0    0  0.10523704983E+02  0.75634986806E+01  0.67087653497E+02  0.68327945459E+02  0.00000000000E+00 0. -1.
         11    1    1    2    0    0 -0.88233871576E+02 -0.10648556406E+03  0.28666570558E+03  0.31827915138E+03  0.00000000000E+00 0.  1.
</event>
<event>
 7    1  0.2619826E-009  0.1111808E+03  0.7561462E-02  0.1258399E+00
         -1   -1    0    0    0  501 -0.00000000000E+00  0.00000000000E+00  0.42174954377E+03  0.42174954377E+03  0.00000000000E+00 0.  1.
          1   -1    0    0  501    0  0.00000000000E+00 -0.00000000000E+00 -0.38708070947E+02  0.38708070947E+02  0.00000000000E+00 0. -1.
         25    2    1    2    0    0  0.15392777159E+02  0.64403256148E+02  0.24758006531E+03  0.28517888154E+03  0.12508552573E+03 0.  0.
          5    1    3    3  502    0  0.67459224370E+02  0.52712170204E+02  0.17637179637E+03  0.19609641199E+03  0.41800000000E+01 0.  1.
         -5    1    3    3    0  502 -0.52066447211E+02  0.11691085944E+02  0.71208268936E+02  0.89082469547E+02  0.41800000000E+01 0.  1.
        -11    1    1    2    0    0 -0.33804773440E+02 -0.46039146984E+02  0.13780074428E+03  0.14916906813E+03  0.00000000000E+00 0.  1.
         11    1    1    2    0    0  0.18411996281E+02 -0.18364109164E+02 -0.23393367662E+01  0.26109665049E+02  0.00000000000E+00 0. -1.
</event>
<event>
 7    1  0.2619826E-009  0.2328623E+03  0.7561462E-02  0.1124641E+00
         -2   -1    0    0    0  501 -0.00000000000E+00  0.00000000000E+00  0.61779481329E+02  0.61779481329E+02  0.00000000000E+00 0.  1.
          2   -1    0    0  501    0  0.00000000000E+00 -0.00000000000E+00 -0.11715651811E+04  0.11715651811E+04  0.00000000000E+00 0. -1.
         25    2    1    2    0    0  0.19219882447E+03  0.11485912257E+03 -0.80216018477E+03  0.84216367010E+03  0.12508268880E+03 0.  0.
          5    1    3    3  502    0  0.98243879538E+02  0.68154931083E+01 -0.19702273674E+03  0.22030374941E+03  0.41800000000E+01 0.  1.
         -5    1    3    3    0  502  0.93954944927E+02  0.10804362946E+03 -0.60513744803E+03  0.62185992069E+03  0.41800000000E+01 0.  1.
        -11    1    1    2    0    0 -0.36428033386E+02 -0.22711820549E+02 -0.13272628677E+03  0.13949586233E+03  0.00000000000E+00 0. -1.
         11    1    1    2    0    0 -0.15577079108E+03 -0.92147302025E+02 -0.17489922822E+03  0.25168512998E+03  0.00000000000E+00 0.  1.
</event>
<event>
 7    1  0.2619826E-009  0.9009791E+02  0.7561462E-02  0.1302615E+00
         -3   -1    0    0    0  501 -0.00000000000E+00  0.00000000000E+00  0.17432439576E+03  0.17432439576E+03  0.00000000000E+00 0.  1.
          3   -1    0    0  501    0  0.00000000000E+00 -0.00000000000E+00 -0.99134138350E+02  0.99134138350E+02  0.00000000000E+00 0. -1.
         25    2    1    2    0    0  0.71909921897E+02 -0.70951336667E+01  0.44218169415E+02  0.15107729834E+03  0.12509087009E+03 0.  0.
          5    1    3    3  502    0  0.49146690896E+02  0.20152265346E+02 -0.35284889878E+02  0.63906235050E+02  0.41800000000E+01 0.  1.
         -5    1    3    3    0  502  0.22763231000E+02 -0.27247399012E+02  0.79503059293E+02  0.87171063292E+02  0.41800000000E+01 0.  1.
        -11    1    1    2    0    0 -0.78678753892E+02 -0.33126838190E+01 -0.10173910603E+02  0.79402951110E+02  0.00000000000E+00 0. -1.
         11    1    1    2    0    0  0.67688319952E+01  0.10407817486E+02  0.41145998596E+02  0.42978284655E+02  0.00000000000E+00 0.  1.
</event>
<event>
 7    1  0.2619826E-009  0.8151892E+02  0.7561462E-02  0.1324795E+00
         -1   -1    0    0    0  501 -0.00000000000E+00  0.00000000000E+00  0.14814575470E+03  0.14814575470E+03  0.00000000000E+00 0.  1.
          1   -1    0    0  501    0  0.00000000000E+00 -0.00000000000E+00 -0.16662907653E+03  0.16662907653E+03  0.00000000000E+00 0. -1.
         25    2    1    2    0    0  0.11627761689E+02  0.36592430321E+02 -0.11560732544E+03  0.17460626477E+03  0.12509229874E+03 0.  0.
          5    1    3    3  502    0  0.31782457251E+02  0.46749774512E+02 -0.13380359263E+03  0.14531531167E+03  0.41800000000E+01 0.  1.
         -5    1    3    3    0  502 -0.20154695562E+02 -0.10157344191E+02  0.18196267184E+02  0.29290953103E+02  0.41800000000E+01 0.  1.
        -11    1    1    2    0    0  0.15313579585E+02  0.17327098580E+02  0.70644775851E+02  0.74333158280E+02  0.00000000000E+00 0.  1.
         11    1    1    2    0    0 -0.26941341273E+02 -0.53919528901E+02  0.26479227765E+02  0.65835408175E+02  0.00000000000E+00 0. -1.
</event>
<event>
 7    1  0.2619826E-009  0.1283116E+03  0.7561462E-02  0.1229983E+00
          1   -1    0    0  501    0  0.00000000000E+00  0.00000000000E+00  0.22422598380E+03  0.22422598380E+03  0.00000000000E+00 0. -1.
         -1   -1    0    0    0  501 -0.00000000000E+00 -0.00000000000E+00 -0.10050497135E+03  0.10050497135E+03  0.00000000000E+00 0.  1.
         25    2    1    2    0    0  0.47596067244E+02  0.82711832942E+02  0.11021846626E+03  0.19210324092E+03  0.12509561121E+03 0.  0.
          5    1    3    3  502    0  0.53161807164E+02  0.12762332417E+02  0.10875202273E+03  0.12179297893E+03  0.41800000000E+01 0.  1.
         -5    1    3    3    0  502 -0.55657399201E+01  0.69949500525E+02  0.14664435284E+01  0.70310261990E+02  0.41800000000E+01 0.  1.
        -11    1    1    2    0    0 -0.67533633423E+02 -0.27718753960E+02  0.20999102715E+01  0.73031024829E+02  0.00000000000E+00 0.  1.
         11    1    1    2    0    0  0.19937566179E+02 -0.54993078981E+02  0.11402635925E+02  0.59596689396E+02  0.00000000000E+00 0. -1.
</event>
<event>
 7    1  0.2619826E-009  0.9004072E+02  0.7561462E-02  0.1302753E+00
         -3   -1    0    0    0  501 -0.00000000000E+00  0.00000000000E+00  0.93851230277E+02  0.93851230277E+02  0.00000000000E+00 0.  1.
          3   -1    0    0  501    0  0.00000000000E+00 -0.00000000000E+00 -0.24364518496E+03  0.24364518496E+03  0.00000000000E+00 0. -1.
         25    2    1    2    0    0  0.31240178362E+02  0.82821341819E+02 -0.14290374871E+03  0.20953354754E+03  0.12508997860E+03 0.  0.
          5    1    3    3  502    0  0.27065680227E+02  0.76324529240E+02 -0.16406995039E+02  0.82732379974E+02  0.41800000000E+01 0. -1.
         -5    1    3    3    0  502  0.41744981349E+01  0.64968125784E+01 -0.12649675367E+03  0.12680116757E+03  0.41800000000E+01 0. -1.
        -11    1    1    2    0    0 -0.19566906664E+02 -0.70802609155E+02 -0.45130819938E+02  0.86212900473E+02  0.00000000000E+00 0. -1.
         11    1    1    2    0    0 -0.11673271697E+02 -0.12018732664E+02  0.38240613961E+02  0.41749967222E+02  0.00000000000E+00 0.  1.
</event>
<event>
 7    1  0.2619826E-009  0.1843661E+03  0.7561462E-02  0.1163643E+00
          2   -1    0    0  501    0  0.00000000000E+00  0.00000000000E+00  0.54275390535E+03  0.54275390535E+03  0.00000000000E+00 0. -1.
         -2   -1    0    0    0  501 -0.00000000000E+00 -0.00000000000E+00 -0.91564119214E+02  0.91564119214E+02  0.00000000000E+00 0.  1.
         25    2    1    2    0    0 -0.24998957612E+02  0.17955411728E+03  0.13548227897E+03  0.25858770219E+03  0.12509005913E+03 0.  0.
          5    1    3    3  502    0 -0.76447957353E+01  0.11537841967E+03  0.95213792354E+01  0.11609802621E+03  0.41800000000E+01 0. -1.
         -5    1    3    3    0  502 -0.17354161877E+02  0.64175697618E+02  0.12596089974E+03  0.14248967598E+03  0.41800000000E+01 0. -1.
        -11    1    1    2    0    0  0.37395383219E+02 -0.12531976561E+03  0.14070265836E+03  0.19209553980E+03  0.00000000000E+00 0.  1.
         11    1    1    2    0    0 -0.12396425607E+02 -0.54234351668E+02  0.17500484880E+03  0.18363478258E+03  0.00000000000E+00 0. -1.
</event>
<event>
 7    1  0.2619826E-009  0.9805251E+02  0.7561462E-02  0.1284445E+00
          1   -1    0    0  501    0  0.00000000000E+00  0.00000000000E+00  0.18589719710E+03  0.18589719710E+03  0.00000000000E+00 0. -1.
         -1   -1    0    0    0  501 -0.00000000000E+00 -0.00000000000E+00 -0.71088773003E+02  0.71088773003E+02  0.00000000000E+00 0.  1.
         25    2    1    2    0    0 -0.80277550303E+00 -0.25740277382E+02  0.31172422017E+02  0.13146297498E+03  0.12509031765E+03 0.  0.
          5    1    3    3  502    0  0.48508553719E+02 -0.20422912985E+02 -0.23269028308E+02  0.57698312255E+02  0.41800000000E+01 0. -1.
         -5    1    3    3    0  502 -0.49311329222E+02 -0.53173643975E+01  0.54441450325E+02  0.73764662728E+02  0.41800000000E+01 0. -1.
        -11    1    1    2    0    0  0.25685307727E+02  0.51604713650E+02  0.49227149746E+02  0.75802993186E+02  0.00000000000E+00 0. -1.
         11    1    1    2    0    0 -0.24882532224E+02 -0.25864436268E+02  0.34408852333E+02  0.49720001932E+02  0.00000000000E+00 0.  1.
</event>
<event>
 7    1  0.2619826E-009  0.9766056E+02  0.7561462E-02  0.1285294E+00
          3   -1    0    0  501    0  0.00000000000E+00  0.00000000000E+00  0.95766148146E+02  0.95766148146E+02  0.00000000000E+00 0. -1.
         -3   -1    0    0    0  501 -0.00000000000E+00 -0.00000000000E+00 -0.21736482436E+03  0.21736482436E+03  0.00000000000E+00 0.  1.
         25    2    1    2    0    0 -0.44032147223E+02 -0.51645762988E+02 -0.14019504740E+03  0.19976904245E+03  0.12508758604E+03 0.  0.
          5    1    3    3  502    0 -0.68284164310E+02 -0.49476656344E+02 -0.34466544529E+02  0.91192552932E+02  0.41800000000E+01 0. -1.
         -5    1    3    3    0  502  0.24252017087E+02 -0.21691066431E+01 -0.10572850287E+03  0.10857648951E+03  0.41800000000E+01 0. -1.
        -11    1    1    2    0    0  0.29091799367E+02 -0.32709185726E+01  0.42521619464E+02  0.51624798504E+02  0.00000000000E+00 0.  1.
         11    1    1    2    0    0  0.14940347856E+02  0.54916681560E+02 -0.23925248285E+02  0.61737131559E+02  0.00000000000E+00 0. -1.
</event>
<event>
 7    1  0.2983644E-009  0.1056694E+03  0.7561462E-02  0.1268806E+00
          2   -1    0    0  501    0  0.00000000000E+00  0.00000000000E+00  0.74568535925E+03  0.74568535925E+03  0.00000000000E+00 0. -1.
         -2   -1    0    0    0  501 -0.00000000000E+00 -0.00000000000E+00 -0.22240722758E+02  0.22240722758E+02  0.00000000000E+00 0.  1.
         25    2    1    2    0    0  0.26166264005E+02  0.56857615317E+02  0.48736814477E+03  0.50704034874E+03  0.12507895475E+03 0.  0.
          5    1    3    3  502    0 -0.41652727356E+01  0.90553445081E+02  0.37445183543E+03  0.38529070241E+03  0.41800000000E+01 0. -1.
         -5    1    3    3    0  502  0.30331536741E+02 -0.33695829764E+02  0.11291630934E+03  0.12174964632E+03  0.41800000000E+01 0. -1.
        -11    1    1    2    0    0  0.59713037712E+01 -0.36580106314E+02  0.21249028208E+02  0.42723317362E+02  0.00000000000E+00 0.  1.
         11    1    1    2    0    0 -0.32137567776E+02 -0.20277509003E+02  0.21482746351E+03  0.21816241590E+03  0.00000000000E+00 0. -1.
</event>
<event>
 7    1  0.2619826E-009  0.9186315E+02  0.7561462E-02  0.1298402E+00
          1   -1    0    0  501    0  0.00000000000E+00  0.00000000000E+00  0.27000926940E+03  0.27000926940E+03  0.00000000000E+00 0. -1.
         -1   -1    0    0    0  501 -0.00000000000E+00 -0.00000000000E+00 -0.57949274025E+02  0.57949274025E+02  0.00000000000E+00 0.  1.
         25    2    1    2    0    0  0.35380506877E+02 -0.46838563840E+02  0.15122313778E+03  0.20484620550E+03  0.12509156318E+03 0.  0.
          5    1    3    3  502    0  0.74223872611E+02 -0.29418748789E+02  0.48348310603E+02  0.93432743639E+02  0.41800000000E+01 0. -1.
         -5    1    3    3    0  502 -0.38843365734E+02 -0.17419815051E+02  0.10287482718E+03  0.11141346186E+03  0.41800000000E+01 0. -1.
        -11    1    1    2    0    0 -0.19932672215E+02  0.38718986475E+02 -0.14408094419E+02  0.45870083061E+02  0.00000000000E+00 0.  1.
         11    1    1    2    0    0 -0.15447834662E+02  0.81195773651E+01  0.75244952015E+02  0.77242254862E+02  0.00000000000E+00 0. -1.
</event>
<event>
 7    1  0.2619826E-009  0.1025729E+03  0.7561462E-02  0.1274977E+00
         -1   -1    0    0    0  501 -0.00000000000E+00  0.00000000000E+00  0.25998399255E+02  0.25998399255E+02  0.00000000000E+00 0.  1.
          1   -1    0    0  501    0  0.00000000000E+00 -0.00000000000E+00 -0.70431963986E+03  0.70431963986E+03  0.00000000000E+00 0. -1.
         25    2    1    2    0    0 -0.78877435591E+02 -0.65438624894E+00 -0.37582752392E+03  0.40387559749E+03  0.12508833858E+03 0.  0.
          5    1    3    3  502    0 -0.45853099088E+02 -0.13011411345E+02 -0.36297310770E+03  0.36611303287E+03  0.41800000000E+01 0.  1.
         -5    1    3    3    0  502 -0.33024336503E+02  0.12357025096E+02 -0.12854416215E+02  0.37762564623E+02  0.41800000000E+01 0.  1.
        -11    1    1    2    0    0  0.98820460824E+02  0.10813821895E+02 -0.26111603397E+03  0.27939936545E+03  0.00000000000E+00 0. -1.
         11    1    1    2    0    0 -0.19943025233E+02 -0.10159435646E+02 -0.41377682718E+02  0.47043076166E+02  0.00000000000E+00 0.  1.
</event>
<event>
 7    1  0.2619826E-009  0.2056510E+03  0.7561462E-02  0.1145057E+00
          1   -1    0    0  501    0  0.00000000000E+00  0.00000000000E+00  0.50291203410E+03  0.50291203410E+03  0.00000000000E+00 0. -1.
         -1   -1    0    0    0  501 -0.00000000000E+00 -0.00000000000E+00 -0.10770604691E+03  0.10770604691E+03  0.00000000000E+00 0.  1.
         25    2    1    2    0    0  0.44773092695E+02 -0.19857870655E+03  0.17274511468E+03  0.29483271205E+03  0.12508925184E+03 0.  0.
          5    1    3    3  502    0  0.47855519967E+02 -0.13387584775E+03  0.41097095887E+02  0.14805180544E+03  0.41800000000E+01 0. -1.
         -5    1    3    3    0  502 -0.30824272716E+01 -0.64702858792E+02  0.13164801879E+03  0.14678090661E+03  0.41800000000E+01 0. -1.
        -11    1    1    2    0    0 -0.36649648949E+02  0.18249661736E+03  0.23031514517E+03  0.29613050875E+03  0.00000000000E+00 0. -1.
         11    1    1    2    0    0 -0.81234437461E+01  0.16082089184E+02 -0.78542726640E+01  0.19654860211E+02  0.00000000000E+00 0.  1.
</event>
<event>
 7    1  0.2619826E-009  0.9083254E+02  0.7561462E-02  0.1300848E+00
         -1   -1    0    0    0  501 -0.00000000000E+00  0.00000000000E+00  0.23559627555E+03  0.23559627555E+03  0.00000000000E+00 0.  1.
          1   -1    0    0  501    0  0.00000000000E+00 -0.00000000000E+00 -0.60206739852E+02  0.60206739852E+02  0.00000000000E+00 0. -1.
         25    2    1    2    0    0 -0.41968213157E+02  0.22493205077E+02  0.85739046133E+02  0.15895407825E+03  0.12509172543E+03 0.  0.
          5    1    3    3  502    0 -0.10137448965E+02  0.66820693559E+02  0.14726877189E+02  0.69297375642E+02  0.41800000000E+01 0.  1.
         -5    1    3    3    0  502 -0.31830764192E+02 -0.44327488482E+02  0.71012168944E+02  0.89656702607E+02  0.41800000000E+01 0.  1.
        -11    1    1    2    0    0  0.91426469970E+01 -0.24681260913E+02 -0.12784395244E+02  0.29260782562E+02  0.00000000000E+00 0. -1.
         11    1    1    2    0    0  0.32825566160E+02  0.21880558364E+01  0.10243488481E+03  0.10758815459E+03  0.00000000000E+00 0.  1.
</event>
<event>
 7    1  0.2619826E-009  0.1450942E+03  0.7561462E-02  0.1206634E+00
         -2   -1    0    0    0  501 -0.00000000000E+00  0.00000000000E+00  0.61105700161E+02  0.61105700161E+02  0.00000000000E+00 0. -1.
          2   -1    0    0  501    0  0.00000000000E+00 -0.00000000000E+00 -0.35323870391E+03  0.35323870391E+03  0.00000000000E+00 0.  1.
         25    2    1    2    0    0 -0.62147495047E+02  0.74999176900E+02 -0.15056268403E+03  0.21864162223E+03  0.12509136449E+03 0.  0.
          5    1    3    3  502    0 -0.99251830469E+02  0.68345795014E+02 -0.11642639596E+03  0.16761459252E+03  0.41800000000E+01 0.  1.
         -5    1    3    3    0  502  0.37104335423E+02  0.66533818866E+01 -0.34136288069E+02  0.51027029708E+02  0.41800000000E+01 0.  1.
        -11    1    1    2    0    0  0.74067829438E+02 -0.87343825482E+02 -0.13570116633E+03  0.17756630804E+03  0.00000000000E+00 0.  1.
         11    1    1    2    0    0 -0.11920334391E+02  0.12344648582E+02 -0.58691533828E+01  0.18136473804E+02  0.00000000000E+00 0. -1.
</event>
<event>
 7    1  0.2619826E-009  0.1273612E+03  0.7561462E-02  0.1231425E+00
         -1   -1    0    0    0  501 -0.00000000000E+00  0.00000000000E+00  0.20389709486E+02  0.20389709486E+02  0.00000000000E+00 0.  1.
          1   -1    0    0  501    0  0.00000000000E+00 -0.00000000000E+00 -0.87364957816E+03  0.87364957816E+03  0.00000000000E+00 0. -1.
         25    2    1    2    0    0 -0.56527570332E+02  0.43275141312E+02 -0.59165199608E+03  0.60890698665E+03  0.12509008694E+03 0.  0.
          5    1    3    3  502    0 -0.76806785744E+02 -0.18140213354E+02 -0.33556465617E+03  0.34474550113E+03  0.41800000000E+01 0.  1.
         -5    1    3    3    0  502  0.20279215412E+02  0.61415354665E+02 -0.25608733992E+03  0.26416148552E+03  0.41800000000E+01 0.  1.
        -11    1    1    2    0    0  0.48896608792E+02  0.15744768525E+02 -0.15148738612E+03  0.15996000826E+03  0.00000000000E+00 0. -1.
         11    1    1    2    0    0  0.76309615394E+01 -0.59019909837E+02 -0.11012048647E+03  0.12517229274E+03  0.00000000000E+00 0.  1.
</event>
<event>
 7    1  0.2619826E-009  0.2571351E+03  0.7561462E-02  0.1108877E+00
          2   -1    0    0  501    0  0.00000000000E+00  0.00000000000E+00  0.68034592296E+03  0.68034592296E+03  0.00000000000E+00 0. -1.
         -2   -1    0    0    0  501 -0.00000000000E+00 -0.00000000000E+00 -0.22499567232E+03  0.22499567232E+03  0.00000000000E+00 0.  1.
         25    2    1    2    0    0  0.24784028507E+03 -0.49725062306E+02 -0.91566087806E+02  0.29652886842E+03  0.12509049781E+03 0.  0.
          5    1    3    3  502    0  0.13552486465E+03 -0.35437475199E+02  0.15056369117E+02  0.14095024029E+03  0.41800000000E+01 0. -1.
         -5    1    3    3    0  502  0.11231542042E+03 -0.14287587108E+02 -0.10662245692E+03  0.15557862813E+03  0.41800000000E+01 0. -1.
        -11    1    1    2    0    0 -0.18358418086E+03  0.71024582937E+01  0.44154550251E+03  0.47824264465E+03  0.00000000000E+00 0. -1.
         11    1    1    2    0    0 -0.64256104207E+02  0.42622604013E+02  0.10537083593E+03  0.13057008220E+03  0.00000000000E+00 0.  1.
</event>
<event>
 7    1  0.2619826E-009  0.1172131E+03  0.7561462E-02  0.1247767E+00
          1   -1    0    0  501    0  0.00000000000E+00  0.00000000000E+00  0.28755440063E+03  0.28755440063E+03  0.00000000000E+00 0. -1.
         -1   -1    0    0    0  501 -0.00000000000E+00 -0.00000000000E+00 -0.86860808601E+02  0.86860808601E+02  0.00000000000E+00 0.  1.
         25    2    1    2    0    0 -0.49388730296E+02  0.67577992486E+02  0.19774221436E+03  0.24850634441E+03  0.12508952044E+03 0.  0.
          5    1    3    3  502    0 -0.76381332805E+02  0.86881267999E+02  0.16614497609E+03  0.20249466218E+03  0.41800000000E+01 0. -1.
         -5    1    3    3    0  502  0.26992602509E+02 -0.19303275513E+02  0.31597238272E+02  0.46011682236E+02  0.41800000000E+01 0. -1.
        -11    1    1    2    0    0  0.44040557390E+02 -0.48973302334E+02 -0.41208525945E+02  0.77692326824E+02  0.00000000000E+00 0.  1.
         11    1    1    2    0    0  0.53481729057E+01 -0.18604690152E+02  0.44159903610E+02  0.48216537992E+02  0.00000000000E+00 0. -1.
</event>
<event>
 7    1  0.2659348E-009  0.1664749E+03  0.7561462E-02  0.1181575E+00
          1   -1    0    0  501    0  0.00000000000E+00  0.00000000000E+00  0.92614398846E+03  0.92614398846E+03  0.00000000000E+00 0. -1.
         -1   -1    0    0    0  501 -0.00000000000E+00 -0.00000000000E+00 -0.42448873951E+02  0.42448873951E+02  0.00000000000E+00 0.  1.
         25    2    1    2    0    0  0.59187366018E+02  0.14769959437E+03  0.34951057570E+03  0.40388556274E+03  0.12509033053E+03 0.  0.
          5    1    3    3  502    0 -0.63090066267E+01  0.69082595714E+02  0.45441596860E+02  0.83033846836E+02  0.41800000000E+01 0.  1.
         -5    1    3    3    0  502  0.65496372645E+02  0.78616998657E+02  0.30406897884E+03  0.32085171590E+03  0.41800000000E+01 0.  1.
        -11    1    1    2    0    0 -0.42744906509E+02 -0.73337059055E+02  0.14397744699E+03  0.16713753769E+03  0.00000000000E+00 0.  1.
         11    1    1    2    0    0 -0.16442459509E+02 -0.74362535316E+02  0.39020709182E+03  0.39756976198E+03  0.00000000000E+00 0. -1.
</event>
<event>
 6    1  0.2619826E-009  0.1272327E+03  0.7561462E-02  0.1231621E+00
         -3   -1    0    0    0  501 -0.00000000000E+00  0.00000000000E+00  0.28284292553E+03  0.28284292553E+03  0.00000000000E+00 0.  1.
          3   -1    0    0  501    0  0.00000000000E+00 -0.00000000000E+00 -0.77102088253E+02  0.77102088253E+02  0.00000000000E+00 0. -1.
          5    1    1    2  502    0  0.11199243591E+02 -0.48375332999E+02 -0.65526476431E+01  0.50259382118E+02  0.41800000000E+01 0.  1.
         -5    1    1    2    0  502 -0.80259473528E+02  0.39476774983E+02  0.30640628697E+02  0.94637832715E+02  0.41800000000E+01 0.  1.
        -11    1    1    2    0    0  0.51097619919E+02  0.49223446452E+02  0.11107289423E+03  0.13179947752E+03  0.00000000000E+00 0.  1.
         11    1    1    2    0    0  0.17962610017E+02 -0.40324888437E+02  0.70579961995E+02  0.83248321432E+02  0.00000000000E+00 0. -1.
</event>
<event>
 7    1  0.2619826E-009  0.9689531E+02  0.7561462E-02  0.1286964E+00
         -2   -1    0    0    0  501 -0.00000000000E+00  0.00000000000E+00  0.10750727530E+02  0.10750727530E+02  0.00000000000E+00 0.  1.
          2   -1    0    0  501    0  0.00000000000E+00 -0.00000000000E+00 -0.16531384707E+04  0.16531384707E+04  0.00000000000E+00 0. -1.
         25    2    1    2    0    0 -0.18171399267E+02 -0.61752028923E+02 -0.11735459337E+04  0.11819481781E+04  0.12509166386E+03 0.  0.
          5    1    3    3  502    0  0.13178913752E+02 -0.93424432432E+00 -0.11855096014E+02  0.18236564414E+02  0.41800000000E+01 0. -1.
         -5    1    3    3    0  502 -0.31350313019E+02 -0.60817784599E+02 -0.11616908377E+04  0.11637116137E+04  0.41800000000E+01 0. -1.
        -11    1    1    2    0    0 -0.32182578760E+02  0.62736699864E+00 -0.12226190398E+03  0.12642818171E+03  0.00000000000E+00 0.  1.
         11    1    1    2    0    0  0.50353978027E+02  0.61124661924E+02 -0.34657990548E+03  0.35551283842E+03  0.00000000000E+00 0. -1.
</event>
<event>
 7    1  0.2619826E-009  0.1910351E+03  0.7561462E-02  0.1157531E+00
          1   -1    0    0  501    0  0.00000000000E+00  0.00000000000E+00  0.93869259164E+03  0.93869259164E+03  0.00000000000E+00 0. -1.
         -1   -1    0    0    0  501 -0.00000000000E+00 -0.00000000000E+00 -0.61502877418E+02  0.61502877418E+02  0.00000000000E+00 0.  1.
         25    2    1    2    0    0  0.16008066517E+03 -0.74358831864E+02  0.20085651997E+03  0.29520611371E+03  0.12509297629E+03 0.  0.
          5    1    3    3  502    0  0.79030924811E+02 -0.88720680719E+02  0.16946924450E+03  0.20701338965E+03  0.41800000000E+01 0. -1.
         -5    1    3    3    0  502  0.81049740363E+02  0.14361848855E+02  0.31387275476E+02  0.88192724061E+02  0.41800000000E+01 0. -1.
        -11    1    1    2    0    0 -0.53248693087E+02  0.45655175623E+02  0.13147524746E+03  0.14901529811E+03  0.00000000000E+00 0.  1.
         11    1    1    2    0    0 -0.10683197209E+03  0.28703656241E+02  0.54485794679E+03  0.55597405724E+03  0.00000000000E+00 0. -1.
</event>
<event>
 7    1  0.2619826E-009  0.9654636E+02  0.7561462E-02  0.1287731E+00
          1   -1    0    0  501    0  0.00000000000E+00  0.00000000000E+00  0.50842582500E+03  0.50842582500E+03  0.00000000000E+00 0. -1.
         -1   -1    0    0    0  501 -0.00000000000E+00 -0.00000000000E+00 -0.25063569049E+02  0.25063569049E+02  0.00000000000E+00 0.  1.
         25    2    1    2    0    0 -0.29851030891E+02  0.11513517499E+02  0.24884406306E+03  0.28036699318E+03  0.12513447972E+03 0.  0.
          5    1    3    3  502    0 -0.35138883151E+01 -0.40515119927E+02  0.20014323307E+03  0.20427581476E+03  0.41800000000E+01 0. -1.
         -5    1    3    3    0  502 -0.26337142576E+02  0.52028637426E+02  0.48700829996E+02  0.76091178423E+02  0.41800000000E+01 0. -1.
        -11    1    1    2    0    0  0.48466442331E+00 -0.47385213752E+02  0.96125474959E+02  0.10717135960E+03  0.00000000000E+00 0.  1.
         11    1    1    2    0    0  0.29366366468E+02  0.35871696253E+02  0.13839271793E+03  0.14595104127E+03  0.00000000000E+00 0. -1.
</event>
<event>
 7    1  0.2619826E-009  0.8472394E+02  0.7561462E-02  0.1316156E+00
         -2   -1    0    0    0  501 -0.00000000000E+00  0.00000000000E+00  0.54800995824E+02  0.54800995824E+02  0.00000000000E+00 0.  1.
          2   -1    0    0  501    0  0.00000000000E+00 -0.00000000000E+00 -0.35691036302E+03  0.35691036302E+03  0.00000000000E+00 0. -1.
         25    2    1    2    0    0  0.34709909933E+02 -0.59300808240E+02 -0.24773574803E+03  0.28590537983E+03  0.12509005418E+03 0.  0.
          5    1    3    3  502    0  0.37624110736E+02 -0.15524268013E+02 -0.74208795659E+01  0.41582670184E+02  0.41800000000E+01 0.  1.
         -5    1    3    3    0  502 -0.29142008036E+01 -0.43776540227E+02 -0.24031486847E+03  0.24432270964E+03  0.41800000000E+01 0.  1.
        -11    1    1    2    0    0 -0.47423125433E+02  0.46304779679E+02 -0.73803444243E+02  0.99196944656E+02  0.00000000000E+00 0. -1.
         11    1    1    2    0    0  0.12713215500E+02  0.12996028561E+02  0.19429825084E+02  0.26609034359E+02  0.00000000000E+00 0.  1.
</event>
<event>
 7    1  0.2619826E-009  0.1934554E+03  0.7561462E-02  0.1155381E+00
         -1   -1    0    0    0  501 -0.00000000000E+00  0.00000000000E+00  0.74395381296E+02  0.74395381296E+02  0.00000000000E+00 0.  1.
          1   -1    0    0  501    0  0.00000000000E+00 -0.00000000000E+00 -0.53752032864E+03  0.53752032864E+03  0.00000000000E+00 0. -1.
         25    2    1    2    0    0  0.16633812247E+03  0.20030936505E+01 -0.21330506663E+03  0.29802574276E+03  0.12509160055E+03 0.  0.
          5    1    3    3  502    0  0.48853710353E+02  0.57142660834E+02 -0.54805896082E+02  0.93129626585E+02  0.41800000000E+01 0.  1.
         -5    1    3    3    0  502  0.11748441211E+03 -0.55139567184E+02 -0.15849917055E+03  0.20489611618E+03  0.41800000000E+01 0.  1.
        -11    1    1    2    0    0 -0.11301002098E+02  0.22144061539E+02 -0.74849805117E+02  0.78870561275E+02  0.00000000000E+00 0. -1.
         11    1    1    2    0    0 -0.15503712037E+03 -0.24147155190E+02 -0.17497007560E+03  0.23501940590E+03  0.00000000000E+00 0.  1.
</event>
<event>
 7    1  0.2619826E-009  0.1052557E+03  0.7561462E-02  0.1269617E+00
         -1   -1    0    0    0  501 -0.00000000000E+00  0.00000000000E+00  0.54816096066E+02  0.54816096066E+02  0.00000000000E+00 0.  1.
          1   -1    0    0  501    0  0.00000000000E+00 -0.00000000000E+00 -0.31471439174E+03  0.31471439174E+03  0.00000000000E+00 0. -1.
         25    2    1    2    0    0 -0.96748389142E+01  0.19285536358E+02 -0.24323770500E+03  0.27436904084E+03  0.12509298549E+03 0.  0.
          5    1    3    3  502    0  0.50778893328E+02  0.31808314827E+02 -0.81840760517E+02  0.10151673449E+03  0.41800000000E+01 0. -1.
         -5    1    3    3    0  502 -0.60453732242E+02 -0.12522778470E+02 -0.16139694448E+03  0.17285230635E+03  0.41800000000E+01 0. -1.
        -11    1    1    2    0    0 -0.11935560857E+02 -0.49781178760E+02  0.58573181223E+01  0.51526027862E+02  0.00000000000E+00 0.  1.
         11    1    1    2    0    0  0.21610399771E+02  0.30495642402E+02 -0.22517908803E+02  0.43635419107E+02  0.00000000000E+00 0. -1.
</event>
<event>
 7    1  0.2619826E-009  0.1364727E+03  0.7561462E-02  0.1218156E+00
          2   -1    0    0  501    0  0.00000000000E+00  0.00000000000E+00  0.55089057527E+02  0.55089057527E+02  0.00000000000E+00 0. -1.
         -2   -1    0    0    0  501 -0.00000000000E+00 -0.00000000000E+00 -0.57139863455E+03  0.57139863455E+03  0.00000000000E+00 0.  1.
         25    2    1    2    0    0  0.10255347399E+03 -0.23461482462E+02 -0.43903693178E+03  0.46847473169E+03  0.12508992995E+03 0.  0.
          5    1    3    3  502    0  0.98707651700E+02 -0.54251628433E+02 -0.41189606497E+03  0.42703896828E+03  0.41800000000E+01 0. -1.
         -5    1    3    3    0  502  0.38458222930E+01  0.30790145971E+02 -0.27140866814E+02  0.41435763411E+02  0.41800000000E+01 0. -1.
        -11    1    1    2    0    0 -0.14984425460E+01 -0.19181739316E+02 -0.36003603558E+02  0.40822100907E+02  0.00000000000E+00 0.  1.
         11    1    1    2    0    0 -0.10105503145E+03  0.42643221778E+02 -0.41269041681E+02  0.11719085948E+03  0.00000000000E+00 0. -1.
</event>
<event>
 7    1  0.2619826E-009  0.1628679E+03  0.7561462E-02  0.1185496E+00
          2   -1    0    0  501    0  0.00000000000E+00  0.00000000000E+00  0.36836740061E+03  0.36836740061E+03  0.00000000000E+00 0.  1.
         -2   -1    0    0    0  501 -0.00000000000E+00 -0.00000000000E+00 -0.81472096210E+02  0.81472096210E+02  0.00000000000E+00 0. -1.
         25    2    1    2    0    0  0.11671437507E+03  0.44571724925E+02  0.22103256375E+03  0.28303730082E+03  0.12508331386E+03 0.  0.
          5    1    3    3  502    0  0.21587708799E+02 -0.39680918139E+02  0.88081795510E+02  0.99078148629E+02  0.41800000000E+01 0. -1.
         -5    1    3    3    0  502  0.95126666275E+02  0.84252643064E+02  0.13295076824E+03  0.18395915219E+03  0.41800000000E+01 0. -1.
        -11    1    1    2    0    0 -0.44109267676E+02 -0.64313862732E+02  0.32155424826E+02  0.84355626843E+02  0.00000000000E+00 0.  1.
         11    1    1    2    0    0 -0.72605107397E+02  0.19742137807E+02  0.33707315828E+02  0.82446569157E+02  0.00000000000E+00 0. -1.
</event>
<event>
 7    1  0.2619826E-009  0.1181437E+03  0.7561462E-02  0.1246191E+00
         -1   -1    0    0    0  501 -0.00000000000E+00  0.00000000000E+00  0.43537068551E+03  0.43537068551E+03  0.00000000000E+00 0.  1.
          1   -1    0    0  501    0  0.00000000000E+00 -0.00000000000E+00 -0.72156207915E+02  0.72156207915E+02  0.00000000000E+00 0. -1.
         25    2    1    2    0    0 -0.55201606444E+02 -0.12234899459E+02  0.87655384288E+01  0.13756129115E+03  0.12509741820E+03 0.  0.
          5    1    3    3  502    0 -0.48212051119E+02  0.50460444118E+02  0.21342904850E+02  0.73100275520E+02  0.41800000000E+01 0.  1.
         -5    1    3    3    0  502 -0.69895553249E+01 -0.62695343577E+02 -0.12577366421E+02  0.64461015629E+02  0.41800000000E+01 0.  1.
        -11    1    1    2    0    0  0.16258035660E+02  0.47751329196E+02  0.21629099439E+03  0.22209526654E+03  0.00000000000E+00 0.  1.
         11    1    1    2    0    0  0.38943570784E+02 -0.35516429737E+02  0.13815794478E+03  0.14787033574E+03  0.00000000000E+00 0. -1.
</event>
<event>
 7    1  0.2639571E-009  0.1611680E+03  0.7561462E-02  0.1187384E+00
          1   -1    0    0  501    0  0.00000000000E+00  0.00000000000E+00  0.17675300150E+03  0.17675300150E+03  0.00000000000E+00 0. -1.
         -1   -1    0    0    0  501 -0.00000000000E+00 -0.00000000000E+00 -0.17027070318E+03  0.17027070318E+03  0.00000000000E+00 0.  1.
         25    2    1    2    0    0 -0.13300835381E+03 -0.16306011685E+02  0.19742165745E+02  0.18437254956E+03  0.12508547368E+03 0.  0.
          5    1    3    3  502    0 -0.24641950779E+02  0.39581269042E+02 -0.26629553843E+02  0.53856365780E+02  0.41800000000E+01 0. -1.
         -5    1    3    3    0  502 -0.10836640303E+03 -0.55887280727E+02  0.46371719588E+02  0.13051618378E+03  0.41800000000E+01 0. -1.
        -11    1    1    2    0    0  0.13986504685E+02  0.30601147303E+02  0.18825227350E+02  0.38554399416E+02  0.00000000000E+00 0.  1.
         11    1    1    2    0    0  0.11902184912E+03 -0.14295135618E+02 -0.32085094773E+02  0.12409675571E+03  0.00000000000E+00 0. -1.
</event>
<event>
 7    1  0.2619826E-009  0.1225193E+03  0.7561462E-02  0.1238998E+00
          1   -1    0    0  501    0  0.00000000000E+00  0.00000000000E+00  0.22932987017E+03  0.22932987017E+03  0.00000000000E+00 0. -1.
         -1   -1    0    0    0  501 -0.00000000000E+00 -0.00000000000E+00 -0.10794682005E+03  0.10794682005E+03  0.00000000000E+00 0.  1.
         25    2    1    2    0    0  0.92467956179E+02  0.13678726929E+02 -0.57361201849E+01  0.15626412778E+03  0.12509254200E+03 0.  0.
          5    1    3    3  502    0  0.94335626417E+02 -0.24373278322E+02  0.31841172932E+02  0.10258947218E+03  0.41800000000E+01 0. -1.
         -5    1    3    3    0  502 -0.18676702388E+01  0.38052005252E+02 -0.37577293117E+02  0.53674655600E+02  0.41800000000E+01 0. -1.
        -11    1    1    2    0    0 -0.65514787354E+02  0.17660743274E+02  0.27602994971E+02  0.73253085576E+02  0.00000000000E+00 0.  1.
         11    1    1    2    0    0 -0.26953168824E+02 -0.31339470203E+02  0.99516175336E+02  0.10775947687E+03  0.00000000000E+00 0. -1.
</event>
<event>
 7    1  0.2619826E-009  0.1065553E+03  0.7561462E-02  0.1267085E+00
         -1   -1    0    0    0  501 -0.00000000000E+00  0.00000000000E+00  0.31828982754E+02  0.31828982754E+02  0.00000000000E+00 0.  1.
          1   -1    0    0  501    0  0.00000000000E+00 -0.00000000000E+00 -0.59920730374E+03  0.59920730374E+03  0.00000000000E+00 0. -1.
         25    2    1    2    0    0  0.18970689553E+02  0.82114721261E+02 -0.30333438871E+03  0.33876609361E+03  0.12509196737E+03 0.  0.
          5    1    3    3  502    0  0.32426462371E+02  0.12286230752E+02 -0.91861006547E+01  0.36114869143E+02  0.41800000000E+01 0.  1.
         -5    1    3    3    0  502 -0.13455772817E+02  0.69828490509E+02 -0.29414828805E+03  0.30265122447E+03  0.41800000000E+01 0.  1.
        -11    1    1    2    0    0 -0.36521171973E+02 -0.18467177828E+02 -0.34838628778E+02  0.53745350630E+02  0.00000000000E+00 0.  1.
         11    1    1    2    0    0  0.17550482419E+02 -0.63647543432E+02 -0.22920530350E+03  0.23852484225E+03  0.00000000000E+00 0. -1.
</event>
<event>
 7    1  0.2619826E-009  0.1113986E+03  0.7561462E-02  0.1258002E+00
         -1   -1    0    0    0  501 -0.00000000000E+00  0.00000000000E+00  0.70363224925E+03  0.70363224925E+03  0.00000000000E+00 0.  1.
          1   -1    0    0  501    0  0.00000000000E+00 -0.00000000000E+00 -0.29279123447E+02  0.29279123447E+02  0.00000000000E+00 0. -1.
         25    2    1    2    0    0 -0.63052686704E+02  0.12335476178E+02  0.54393030242E+03  0.56181453866E+03  0.12509035412E+03 0.  0.
          5    1    3    3  502    0  0.78901607765E+01 -0.46433842973E+02  0.21932030679E+03  0.22435959035E+03  0.41800000000E+01 0.  1.
         -5    1    3    3    0  502 -0.70942847480E+02  0.58769319151E+02  0.32460999563E+03  0.33745494832E+03  0.41800000000E+01 0.  1.
        -11    1    1    2    0    0  0.65271150140E+02 -0.25402733695E+02  0.13876263815E+03  0.15543709874E+03  0.00000000000E+00 0.  1.
         11    1    1    2    0    0 -0.22184634366E+01  0.13067257517E+02 -0.83398147635E+01  0.15659735289E+02  0.00000000000E+00 0. -1.
</event>
<event>
 7    1  0.2619826E-009  0.1092562E+03  0.7561462E-02  0.1261953E+00
          3   -1    0    0  501    0  0.00000000000E+00  0.00000000000E+00  0.61397661702E+02  0.61397661702E+02  0.00000000000E+00 0. -1.
         -3   -1    0    0    0  501 -0.00000000000E+00 -0.00000000000E+00 -0.25011151078E+03  0.25011151078E+03  0.00000000000E+00 0.  1.
         25    2    1    2    0    0  0.32006981571E+02  0.25926161980E+02 -0.64198167357E+02  0.14651504891E+03  0.12509453273E+03 0.  0.
          5    1    3    3  502    0 -0.38113476103E+02  0.24416341705E+02 -0.61141279590E+02  0.76187422012E+02  0.41800000000E+01 0.  1.
         -5    1    3    3    0  502  0.70120457675E+02  0.15098202749E+01 -0.30568877673E+01  0.70327626894E+02  0.41800000000E+01 0.  1.
        -11    1    1    2    0    0 -0.53052954329E+02 -0.48536517599E+02 -0.10859497951E+03  0.13024315367E+03  0.00000000000E+00 0.  1.
         11    1    1    2    0    0  0.21045972758E+02  0.22610355620E+02 -0.15920702217E+02  0.34750969909E+02  0.00000000000E+00 0. -1.
</event>
<event>
 7    1  0.2619826E-009  0.1022015E+03  0.7561462E-02  0.1275734E+00
          1   -1    0    0  501    0  0.00000000000E+00  0.00000000000E+00  0.65815081462E+03  0.65815081462E+03  0.00000000000E+00 0. -1.
         -1   -1    0    0    0  501 -0.00000000000E+00 -0.00000000000E+00 -0.25853368763E+02  0.25853368763E+02  0.00000000000E+00 0.  1.
         25    2    1    2    0    0  0.29017831409E+01 -0.51497285770E+02  0.47825415179E+03  0.49702639662E+03  0.12509122451E+03 0.  0.
          5    1    3    3  502    0  0.49466042545E+02 -0.69623410710E+01  0.86405826966E+02  0.99893958235E+02  0.41800000000E+01 0.  1.
         -5    1    3    3    0  502 -0.46564259404E+02 -0.44534944699E+02  0.39184832482E+03  0.39713243839E+03  0.41800000000E+01 0.  1.
        -11    1    1    2    0    0 -0.33326277539E+02  0.48893039276E+02  0.46710784736E+02  0.75386122562E+02  0.00000000000E+00 0.  1.
         11    1    1    2    0    0  0.30424494398E+02  0.26042464941E+01  0.10733250934E+03  0.11159166420E+03  0.00000000000E+00 0. -1.
</event>
<event>
 7    1  0.2619826E-009  0.4259811E+03  0.7561462E-02  0.1035137E+00
         -1   -1    0    0    0  501 -0.00000000000E+00  0.00000000000E+00  0.23207169289E+03  0.23207169289E+03  0.00000000000E+00 0.  1.
          1   -1    0    0  501    0  0.00000000000E+00 -0.00000000000E+00 -0.89320941275E+03  0.89320941275E+03  0.00000000000E+00 0. -1.
         25    2    1    2    0    0  0.34181420922E+03  0.24910398841E+03 -0.18017055680E+03  0.47644725543E+03  0.12510318542E+03 0.  0.
          5    1    3    3  502    0  0.95043626556E+02  0.52730901661E+02 -0.10719862378E+03  0.15271822510E+03  0.41800000000E+01 0.  1.
         -5    1    3    3    0  502  0.24677058266E+03  0.19637308675E+03 -0.72971933022E+02  0.32372903033E+03  0.41800000000E+01 0.  1.
        -11    1    1    2    0    0 -0.13640308836E+03 -0.13893979899E+03 -0.15915506685E+03  0.25147645130E+03  0.00000000000E+00 0. -1.
         11    1    1    2    0    0 -0.20541112086E+03 -0.11016418942E+03 -0.32181209621E+03  0.39735739891E+03  0.00000000000E+00 0.  1.
</event>
<event>
 7    1  0.2619826E-009  0.3857892E+03  0.7561462E-02  0.1048815E+00
          2   -1    0    0  501    0  0.00000000000E+00  0.00000000000E+00  0.22223615758E+04  0.22223615758E+04  0.00000000000E+00 0. -1.
         -2   -1    0    0    0  501 -0.00000000000E+00 -0.00000000000E+00 -0.84021085063E+02  0.84021085063E+02  0.00000000000E+00 0.  1.
         25    2    1    2    0    0  0.10913341530E+03 -0.36598093038E+03  0.15294534748E+04  0.15813687230E+04  0.12508781987E+03 0.  0.
          5    1    3    3  502    0  0.82317414246E+02 -0.27365870128E+03  0.13240078193E+04  0.13545033848E+04  0.41800000000E+01 0.  1.
         -5    1    3    3    0  502  0.26816001049E+02 -0.92322229100E+02  0.20544565549E+03  0.22686533816E+03  0.41800000000E+01 0.  1.
        -11    1    1    2    0    0  0.12042880335E+02  0.27169722924E+02  0.23538265839E+02  0.37911406848E+02  0.00000000000E+00 0.  1.
         11    1    1    2    0    0 -0.12117629563E+03  0.33881120746E+03  0.58534875008E+03  0.68710253102E+03  0.00000000000E+00 0. -1.
</event>
<event>
 7    1  0.2619826E-009  0.1160548E+03  0.7561462E-02  0.1249751E+00
         -2   -1    0    0    0  501 -0.00000000000E+00  0.00000000000E+00  0.54670679795E+02  0.54670679795E+02  0.00000000000E+00 0.  1.
          2   -1    0    0  501    0  0.00000000000E+00 -0.00000000000E+00 -0.45945934216E+03  0.45945934216E+03  0.00000000000E+00 0. -1.
         25    2    1    2    0    0  0.72349522803E+02  0.42615581736E+02 -0.34329515192E+03  0.37489916085E+03  0.12508908113E+03 0.  0.
          5    1    3    3  502    0  0.33977280789E+02 -0.42443023210E+02 -0.93879048496E+02  0.10856617326E+03  0.41800000000E+01 0. -1.
         -5    1    3    3    0  502  0.38372242014E+02  0.85058604947E+02 -0.24941610343E+03  0.26633298760E+03  0.41800000000E+01 0. -1.
        -11    1    1    2    0    0 -0.54612017905E+02 -0.35040961131E+02 -0.86196896340E+02  0.10788997356E+03  0.00000000000E+00 0. -1.
         11    1    1    2    0    0 -0.17737504898E+02 -0.75746206056E+01  0.24703385896E+02  0.31340887544E+02  0.00000000000E+00 0.  1.
</event>
<event>
 7    1  0.2654675E-009  0.1005143E+03  0.7561462E-02  0.1279218E+00
         -2   -1    0    0    0  501 -0.00000000000E+00  0.00000000000E+00  0.19911677693E+02  0.19911677693E+02  0.00000000000E+00 0.  1.
          2   -1    0    0  501    0  0.00000000000E+00 -0.00000000000E+00 -0.62535483381E+03  0.62535483381E+03  0.00000000000E+00 0. -1.
         25    2    1    2    0    0 -0.36978934160E+01  0.15981504290E+01 -0.27003079456E+03  0.29762428313E+03  0.12508938964E+03 0.  0.
          5    1    3    3  502    0 -0.54063971511E+02  0.20150489150E+02 -0.71755079009E+02  0.92169512270E+02  0.41800000000E+01 0.  1.
         -5    1    3    3    0  502  0.50366078095E+02 -0.18552338721E+02 -0.19827571555E+03  0.20545477086E+03  0.41800000000E+01 0.  1.
        -11    1    1    2    0    0  0.31214155018E+02 -0.34451596218E+02 -0.13760275686E+03  0.14524377663E+03  0.00000000000E+00 0.  1.
         11    1    1    2    0    0 -0.27516261602E+02  0.32853445790E+02 -0.19780960470E+03  0.20239845173E+03  0.00000000000E+00 0. -1.
</event>
<event>
 7    1  0.2619826E-009  0.1252906E+03  0.7561462E-02  0.1234616E+00
         -2   -1    0    0    0  501 -0.00000000000E+00  0.00000000000E+00  0.51438726742E+02  0.51438726742E+02  0.00000000000E+00 0.  1.
          2   -1    0    0  501    0  0.00000000000E+00 -0.00000000000E+00 -0.35250464202E+03  0.35250464202E+03  0.00000000000E+00 0. -1.
         25    2    1    2    0    0  0.13219399896E+02 -0.73667170414E+02 -0.20301545330E+03  0.24992744031E+03  0.12508735591E+03 0.  0.
          5    1    3    3  502    0  0.55177918055E+02  0.54860172421E+01 -0.68032310428E+02  0.87866755307E+02  0.41800000000E+01 0.  1.
         -5    1    3    3    0  502 -0.41958518160E+02 -0.79153187656E+02 -0.13498314287E+03  0.16206068500E+03  0.41800000000E+01 0.  1.
        -11    1    1    2    0    0 -0.37247169578E+02  0.72170750220E+02 -0.38692118804E+02  0.89961374414E+02  0.00000000000E+00 0.  1.
         11    1    1    2    0    0  0.24027769682E+02  0.14964201939E+01 -0.59358343171E+02  0.64054554040E+02  0.00000000000E+00 0. -1.
</event>
<event>
 7    1  0.2619826E-009  0.1234304E+03  0.7561462E-02  0.1237543E+00
         -2   -1    0    0    0  501 -0.00000000000E+00  0.00000000000E+00  0.47243158374E+02  0.47243158374E+02  0.00000000000E+00 0.  1.
          2   -1    0    0  501    0  0.00000000000E+00 -0.00000000000E+00 -0.33354951248E+03  0.33354951248E+03  0.00000000000E+00 0. -1.
         25    2    1    2    0    0  0.18975237329E+02  0.61607264637E+02 -0.17757507139E+03  0.22656576564E+03  0.12507447980E+03 0.  0.
          5    1    3    3  502    0  0.50715912637E+02  0.86278116174E+02 -0.12214490446E+03  0.15796476572E+03  0.41800000000E+01 0.  1.
         -5    1    3    3    0  502 -0.31740675308E+02 -0.24670851537E+02 -0.55430166928E+02  0.68600999921E+02  0.41800000000E+01 0.  1.
        -11    1    1    2    0    0 -0.20678504829E+02 -0.82632990278E+02 -0.10009282238E+03  0.13143205369E+03  0.00000000000E+00 0.  1.
         11    1    1    2    0    0  0.17032675000E+01  0.21025725641E+02 -0.86384603399E+01  0.22794851523E+02  0.00000000000E+00 0. -1.
</event>
<event>
 7    1  0.2619826E-009  0.1688264E+03  0.7561462E-02  0.1179077E+00
          2   -1    0    0  501    0  0.00000000000E+00  0.00000000000E+00  0.92139853963E+03  0.92139853963E+03  0.00000000000E+00 0. -1.
         -2   -1    0    0    0  501 -0.00000000000E+00 -0.00000000000E+00 -0.55195780308E+02  0.55195780308E+02  0.00000000000E+00 0.  1.
         25    2    1    2    0    0  0.15491340948E+03  0.23305408919E+02  0.70921247156E+03  0.73700134310E+03  0.12508934161E+03 0.  0.
          5    1    3    3  502    0  0.82673714039E+02  0.53934401941E+02  0.55709707217E+03  0.56579014035E+03  0.41800000000E+01 0.  1.
         -5    1    3    3    0  502  0.72239695439E+02 -0.30628993023E+02  0.15211539940E+03  0.17121120274E+03  0.41800000000E+01 0.  1.
        -11    1    1    2    0    0 -0.13288960027E+03 -0.73714124385E+01  0.74039746308E+02  0.15230189630E+03  0.00000000000E+00 0.  1.
         11    1    1    2    0    0 -0.22023809207E+02 -0.15933996480E+02  0.82950541446E+02  0.87291080541E+02  0.00000000000E+00 0. -1.
</event>
<event>
 7    1  0.2619826E-009  0.1598831E+03  0.7561462E-02  0.1188829E+00
          1   -1    0    0  501    0  0.00000000000E+00  0.00000000000E+00  0.11108068172E+04  0.11108068172E+04  0.00000000000E+00 0. -1.
         -1   -1    0    0    0  501 -0.00000000000E+00 -0.00000000000E+00 -0.29140441444E+02  0.29140441444E+02  0.00000000000E+00 0.  1.
         25    2    1    2    0    0  0.34489464547E+01 -0.13083698314E+03  0.38792433633E+03  0.42809231779E+03  0.12509008932E+03 0.  0.
          5    1    3    3  502    0  0.47761004395E+02 -0.52422229205E+02  0.27259583314E+03  0.28170048686E+03  0.41800000000E+01 0. -1.
         -5    1    3    3    0  502 -0.44312057941E+02 -0.78414753937E+02  0.11532850320E+03  0.14639183093E+03  0.41800000000E+01 0. -1.
        -11    1    1    2    0    0  0.36603501884E+02  0.10424327635E+03  0.51830179366E+03  0.52994643723E+03  0.00000000000E+00 0. -1.
         11    1    1    2    0    0 -0.40052448339E+02  0.26593706791E+02  0.17544024581E+03  0.18190850367E+03  0.00000000000E+00 0.  1.
</event>
<event>
 6    1  0.2619826E-009  0.1235711E+03  0.7561462E-02  0.1237320E+00
         -1   -1    0    0    0  501 -0.00000000000E+00  0.00000000000E+00  0.46651756439E+02  0.46651756439E+02  0.00000000000E+00 0.  1.
          1   -1    0    0  501    0  0.00000000000E+00 -0.00000000000E+00 -0.50409745136E+03  0.50409745136E+03  0.00000000000E+00 0. -1.
          5    1    1    2  502    0 -0.15045402590E+02 -0.51692812416E+02 -0.20376136280E+03  0.21079534237E+03  0.41800000000E+01 0. -1.
         -5    1    1    2    0  502 -0.49482100885E+02 -0.37659128967E+02 -0.14802015915E+02  0.64056696588E+02  0.41800000000E+01 0. -1.
        -11    1    1    2    0    0 -0.14451321496E+02  0.50683098885E+01 -0.69971743900E+01  0.16837128839E+02  0.00000000000E+00 0.  1.
         11    1    1    2    0    0  0.78978824971E+02  0.84283631495E+02 -0.23188514182E+03  0.25906004001E+03  0.00000000000E+00 0. -1.
</event>
<event>
 7    1  0.2619826E-009  0.1170771E+03  0.7561462E-02  0.1247998E+00
         -4   -1    0    0    0  501 -0.00000000000E+00  0.00000000000E+00  0.31578393275E+03  0.31578393275E+03  0.00000000000E+00 0. -1.
          4   -1    0    0  501    0  0.00000000000E+00 -0.00000000000E+00 -0.58041428241E+02  0.58041428241E+02  0.00000000000E+00 0.  1.
         25    2    1    2    0    0 -0.84479445364E+01 -0.52219788624E+02  0.22630238536E+03  0.26392918658E+03  0.12509025469E+03 0.  0.
          5    1    3    3  502    0  0.44485428123E+02 -0.65592759806E+02  0.11296408951E+03  0.13805694974E+03  0.41800000000E+01 0. -1.
         -5    1    3    3    0  502 -0.52933372659E+02  0.13372971182E+02  0.11333829586E+03  0.12587223684E+03  0.41800000000E+01 0. -1.
        -11    1    1    2    0    0 -0.35316297251E+02  0.42397876914E+02  0.34267207129E+02  0.64954309347E+02  0.00000000000E+00 0.  1.
         11    1    1    2    0    0  0.43764241788E+02  0.98219117105E+01 -0.28270879803E+01  0.44941865063E+02  0.00000000000E+00 0. -1.
</event>
<event>
 7    1  0.2619826E-009  0.6008844E+02  0.7561462E-02  0.1397461E+00
         -1   -1    0    0    0  501 -0.00000000000E+00  0.00000000000E+00  0.56115549132E+02  0.56115549132E+02  0.00000000000E+00 0.  1.
          1   -1    0    0  501    0  0.00000000000E+00 -0.00000000000E+00 -0.24064487686E+03  0.24064487686E+03  0.00000000000E+00 0. -1.
         25    2    1    2    0    0  0.48340535341E+02  0.13571746883E+02 -0.10670706813E+03  0.17191533085E+03  0.12508989936E+03 0.  0.
          5    1    3    3  502    0  0.23262766334E+02  0.17673404526E+02 -0.13233375424E+03  0.13558466151E+03  0.41800000000E+01 0. -1.
         -5    1    3    3    0  502  0.25077769008E+02 -0.41016576429E+01  0.25626686107E+02  0.36330669340E+02  0.41800000000E+01 0. -1.
        -11    1    1    2    0    0 -0.21903542356E+02 -0.27398463158E+02  0.62554109742E+01  0.35631041489E+02  0.00000000000E+00 0.  1.
         11    1    1    2    0    0 -0.26436992985E+02  0.13826716275E+02 -0.84077670564E+02  0.89214053649E+02  0.00000000000E+00 0. -1.
</event>
<event>
 7    1  0.2619826E-009  0.9249786E+02  0.7561462E-02  0.1296913E+00
         -2   -1    0    0    0  501 -0.00000000000E+00  0.00000000000E+00  0.26278194569E+02  0.26278194569E+02  0.00000000000E+00 0.  1.
          2   -1    0    0  501    0  0.00000000000E+00 -0.00000000000E+00 -0.70169195137E+03  0.70169195137E+03  0.00000000000E+00 0. -1.
         25    2    1    2    0    0  0.45976865813E+02 -0.67458571577E+02 -0.38407247855E+03  0.41209692539E+03  0.12509067140E+03 0.  0.
          5    1    3    3  502    0 -0.69921458684E+01 -0.25968539228E+02 -0.57525276414E+01  0.27817604277E+02  0.41800000000E+01 0.  1.
         -5    1    3    3    0  502  0.52969011682E+02 -0.41490032349E+02 -0.37831995091E+03  0.38427932111E+03  0.41800000000E+01 0.  1.
        -11    1    1    2    0    0 -0.10163018459E+02 -0.36084169911E+01  0.28118398215E+01  0.11145136184E+02  0.00000000000E+00 0.  1.
         11    1    1    2    0    0 -0.35813847355E+02  0.71066988568E+02 -0.29415311808E+03  0.30472808437E+03  0.00000000000E+00 0. -1.
</event>
<event>
 7    1  0.2619826E-009  0.1100947E+03  0.7561462E-02  0.1260395E+00
         -2   -1    0    0    0  501 -0.00000000000E+00  0.00000000000E+00  0.35066107264E+03  0.35066107264E+03  0.00000000000E+00 0.  1.
          2   -1    0    0  501    0  0.00000000000E+00 -0.00000000000E+00 -0.44204792456E+02  0.44204792456E+02  0.00000000000E+00 0. -1.
         25    2    1    2    0    0  0.54789790865E+02 -0.21435669999E+02  0.18910346377E+03  0.23424420583E+03  0.12509523901E+03 0.  0.
          5    1    3    3  502    0  0.16537987669E+02  0.37488662614E+02  0.14604356273E+03  0.15174023684E+03  0.41800000000E+01 0.  1.
         -5    1    3    3    0  502  0.38251803196E+02 -0.58924332612E+02  0.43059901038E+02  0.82503968989E+02  0.41800000000E+01 0.  1.
        -11    1    1    2    0    0  0.17189431208E+02 -0.19360244514E+02  0.38006120196E+02  0.45986528302E+02  0.00000000000E+00 0.  1.
         11    1    1    2    0    0 -0.71979222074E+02  0.40795914513E+02  0.79346696223E+02  0.11463513097E+03  0.00000000000E+00 0. -1.
</event>
<event>
 7    1  0.2619826E-009  0.1032733E+03  0.7561462E-02  0.1273559E+00
          4   -1    0    0  501    0  0.00000000000E+00  0.00000000000E+00  0.65248580634E+02  0.65248580634E+02  0.00000000000E+00 0. -1.
         -4   -1    0    0    0  501 -0.00000000000E+00 -0.00000000000E+00 -0.26993255936E+03  0.26993255936E+03  0.00000000000E+00 0.  1.
         25    2    1    2    0    0 -0.76944109222E+02 -0.71785296628E+01 -0.10491363102E+03  0.18065185813E+03  0.12512512394E+03 0.  0.
          5    1    3    3  502    0  0.15987900459E+02  0.25740069108E+02  0.70697530756E+01  0.31394552510E+02  0.41800000000E+01 0. -1.
         -5    1    3    3    0  502 -0.92932009681E+02 -0.32918598771E+02 -0.11198338409E+03  0.14925730562E+03  0.41800000000E+01 0. -1.
        -11    1    1    2    0    0  0.61861258886E+02  0.59737032651E+01 -0.11645775277E+03  0.13200344185E+03  0.00000000000E+00 0.  1.
         11    1    1    2    0    0  0.15082850336E+02  0.12048263978E+01  0.16687405053E+02  0.22525840014E+02  0.00000000000E+00 0. -1.
</event>
<event>
 7    1  0.2619826E-009  0.1152003E+03  0.7561462E-02  0.1251232E+00
         -1   -1    0    0    0  501 -0.00000000000E+00  0.00000000000E+00  0.12264565632E+02  0.12264565632E+02  0.00000000000E+00 0.  1.
          1   -1    0    0  501    0  0.00000000000E+00 -0.00000000000E+00 -0.11078325274E+04  0.11078325274E+04  0.00000000000E+00 0. -1.
         25    2    1    2    0    0 -0.11592929669E+02 -0.28634427031E+02 -0.64424422759E+03  0.65700263246E+03  0.12508999902E+03 0.  0.
          5    1    3    3  502    0 -0.63774452707E+02  0.55195720561E+01 -0.38651950797E+03  0.39180664739E+03  0.41800000000E+01 0. -1.
         -5    1    3    3    0  502  0.52181523038E+02 -0.34153999088E+02 -0.25772471962E+03  0.26519598508E+03  0.41800000000E+01 0. -1.
        -11    1    1    2    0    0  0.51161580836E+02  0.37206271281E+02 -0.27467411028E+03  0.28186464985E+03  0.00000000000E+00 0.  1.
         11    1    1    2    0    0 -0.39568651168E+02 -0.85718442498E+01 -0.17664962394E+03  0.18122981076E+03  0.00000000000E+00 0. -1.
</event>
<event>
 7    1  0.2619826E-009  0.9120152E+02  0.7561462E-02  0.1299968E+00
          1   -1    0    0  501    0  0.00000000000E+00  0.00000000000E+00  0.14752958626E+03  0.14752958626E+03  0.00000000000E+00 0. -1.
         -1   -1    0    0    0  501 -0.00000000000E+00 -0.00000000000E+00 -0.11184063929E+03  0.11184063929E+03  0.00000000000E+00 0.  1.
         25    2    1    2    0    0 -0.12854591031E+02 -0.68087072331E+02  0.30395985506E+02  0.14619951902E+03  0.12509713624E+03 0.  0.
          5    1    3    3  502    0 -0.43328583843E+02 -0.67835481210E+02  0.62307764893E+02  0.10187614370E+03  0.41800000000E+01 0. -1.
         -5    1    3    3    0  502  0.30473992812E+02 -0.25159112142E+00 -0.31911779387E+02  0.44323375319E+02  0.41800000000E+01 0. -1.
        -11    1    1    2    0    0 -0.36685743912E+01  0.15043656422E+02 -0.39100734829E+02  0.42055172105E+02  0.00000000000E+00 0.  1.
         11    1    1    2    0    0  0.16523165422E+02  0.53043415909E+02  0.44393696294E+02  0.71115534432E+02  0.00000000000E+00 0. -1.
</event>
<event>
 7    1  0.2619826E-009  0.2101665E+03  0.7561462E-02  0.1141434E+00
          1   -1    0    0  501    0  0.00000000000E+00  0.00000000000E+00  0.13756663736E+04  0.13756663736E+04  0.00000000000E+00 0. -1.
         -1   -1    0    0    0  501 -0.00000000000E+00 -0.00000000000E+00 -0.38661674226E+02  0.38661674226E+02  0.00000000000E+00 0.  1.
         25    2    1    2    0    0  0.11255467544E+03 -0.15318278025E+03  0.90681967542E+03  0.93493846023E+03  0.12511787072E+03 0.  0.
          5    1    3    3  502    0  0.82270125333E+02 -0.13094669365E+02  0.37148514937E+03  0.38073420189E+03  0.41800000000E+01 0. -1.
         -5    1    3    3    0  502  0.30284550103E+02 -0.14008811088E+03  0.53533452604E+03  0.55420425834E+03  0.41800000000E+01 0. -1.
        -11    1    1    2    0    0 -0.44302939968E+02  0.32693771539E+02  0.48550660430E+02  0.73408445123E+02  0.00000000000E+00 0.  1.
         11    1    1    2    0    0 -0.68251735469E+02  0.12048900871E+03  0.38163436352E+03  0.40598114246E+03  0.00000000000E+00 0. -1.
</event>
<event>
 7    1  0.2619826E-009  0.2662635E+03  0.7561462E-02  0.1103437E+00
          2   -1    0    0  501    0  0.00000000000E+00  0.00000000000E+00  0.13126683313E+04  0.13126683313E+04  0.00000000000E+00 0. -1.
         -2   -1    0    0    0  501 -0.00000000000E+00 -0.00000000000E+00 -0.71423315243E+02  0.71423315243E+02  0.00000000000E+00 0.  1.
         25    2    1    2    0    0  0.24583131597E+03  0.10011480456E+03  0.39084833210E+03  0.48873941753E+03  0.12509112495E+03 0.  0.
          5    1    3    3  502    0  0.52827792472E+02  0.31755139073E+02  0.19808281340E+03  0.20749322370E+03  0.41800000000E+01 0.  1.
         -5    1    3    3    0  502  0.19300352349E+03  0.68359665485E+02  0.19276551869E+03  0.28124619383E+03  0.41800000000E+01 0.  1.
        -11    1    1    2    0    0 -0.14408920756E+03 -0.49822414607E+02  0.62065652567E+03  0.63910757747E+03  0.00000000000E+00 0. -1.
         11    1    1    2    0    0 -0.10174210841E+03 -0.50292389952E+02  0.22974015828E+03  0.25624465153E+03  0.00000000000E+00 0.  1.
</event>
<event>
 7    1  0.2619826E-009  0.9833189E+02  0.7561462E-02  0.1283843E+00
         -2   -1    0    0    0  501 -0.00000000000E+00  0.00000000000E+00  0.35649890090E+02  0.35649890090E+02  0.00000000000E+00 0.  1.
          2   -1    0    0  501    0  0.00000000000E+00 -0.00000000000E+00 -0.37902797577E+03  0.37902797577E+03  0.00000000000E+00 0. -1.
         25    2    1    2    0    0 -0.17446054193E+02 -0.39498412468E+02 -0.19137439820E+03  0.23267203874E+03  0.12509047898E+03 0.  0.
          5    1    3    3  502    0 -0.69571524570E+02 -0.16707036749E+02 -0.79122560420E+02  0.10675754810E+03  0.41800000000E+01 0.  1.
         -5    1    3    3    0  502  0.52125470377E+02 -0.22791375720E+02 -0.11225183778E+03  0.12591449064E+03  0.41800000000E+01 0.  1.
        -11    1    1    2    0    0 -0.13172267135E+02 -0.48676554254E+01  0.58417606824E+01  0.15209498962E+02  0.00000000000E+00 0.  1.
         11    1    1    2    0    0  0.30618321328E+02  0.44366067894E+02 -0.15784544817E+03  0.16679632816E+03  0.00000000000E+00 0. -1.
</event>
<event>
 7    1  0.2619826E-009  0.1795270E+03  0.7561462E-02  0.1168262E+00
         -2   -1    0    0    0  501 -0.00000000000E+00  0.00000000000E+00  0.23007287992E+03  0.23007287992E+03  0.00000000000E+00 0.  1.
          2   -1    0    0  501    0  0.00000000000E+00 -0.00000000000E+00 -0.19936976314E+03  0.19936976314E+03  0.00000000000E+00 0. -1.
         25    2    1    2    0    0 -0.13124760098E+03 -0.76496099498E+02 -0.88577672380E+02  0.21580227657E+03  0.12508809907E+03 0.  0.
          5    1    3    3  502    0  0.18971702319E+02  0.59366074157E+01 -0.26753889214E+02  0.33591841041E+02  0.41800000000E+01 0.  1.
         -5    1    3    3    0  502 -0.15021930330E+03 -0.82432706914E+02 -0.61823783167E+02  0.18221043553E+03  0.41800000000E+01 0.  1.
        -11    1    1    2    0    0  0.42114354449E+02  0.65023297388E+02  0.90819459705E+02  0.11937261962E+03  0.00000000000E+00 0.  1.
         11    1    1    2    0    0  0.89133246529E+02  0.11472802110E+02  0.28461329455E+02  0.94267746867E+02  0.00000000000E+00 0. -1.
</event>
<event>
 7    1  0.2619826E-009  0.1066491E+03  0.7561462E-02  0.1266904E+00
         -1   -1    0    0    0  501 -0.00000000000E+00  0.00000000000E+00  0.28114166552E+03  0.28114166552E+03  0.00000000000E+00 0.  1.
          1   -1    0    0  501    0  0.00000000000E+00 -0.00000000000E+00 -0.72346846648E+02  0.72346846648E+02  0.00000000000E+00 0. -1.
         25    2    1    2    0    0  0.58831426056E+02  0.38158664454E+02  0.38814663682E+02  0.14856550309E+03  0.12509160734E+03 0.  0.
          5    1    3    3  502    0  0.71318507032E+02  0.65788351643E+02  0.57346401921E+02  0.11278527772E+03  0.41800000000E+01 0.  1.
         -5    1    3    3    0  502 -0.12487080976E+02 -0.27629687190E+02 -0.18531738239E+02  0.35780225372E+02  0.41800000000E+01 0.  1.
        -11    1    1    2    0    0 -0.50458395424E+02 -0.42401353207E+01  0.16110692887E+03  0.16887708828E+03  0.00000000000E+00 0.  1.
         11    1    1    2    0    0 -0.83730306315E+01 -0.33918529133E+02  0.88732263165E+01  0.36045920792E+02  0.00000000000E+00 0. -1.
</event>
<event>
 7    1  0.2619826E-009  0.1081848E+03  0.7561462E-02  0.1263969E+00
          1   -1    0    0  501    0  0.00000000000E+00  0.00000000000E+00  0.86672022228E+02  0.86672022228E+02  0.00000000000E+00 0. -1.
         -1   -1    0    0    0  501 -0.00000000000E+00 -0.00000000000E+00 -0.17877263666E+03  0.17877263666E+03  0.00000000000E+00 0.  1.
         25    2    1    2    0    0  0.31797870543E+02  0.40268670604E+02 -0.79191082696E+02  0.15668910000E+03  0.12509027171E+03 0.  0.
          5    1    3    3  502    0 -0.10631563759E+01 -0.44127218704E+02 -0.30078824930E+02  0.53577512458E+02  0.41800000000E+01 0. -1.
         -5    1    3    3    0  502  0.32861026919E+02  0.84395889308E+02 -0.49112257767E+02  0.10311158754E+03  0.41800000000E+01 0. -1.
        -11    1    1    2    0    0 -0.64245622764E+01 -0.52715889554E+02  0.27217858691E+02  0.59674549380E+02  0.00000000000E+00 0. -1.
         11    1    1    2    0    0 -0.25373308266E+02  0.12447218950E+02 -0.40127390430E+02  0.49081009511E+02  0.00000000000E+00 0.  1.
</event>
<event>
 7    1  0.2619826E-009  0.1024675E+03  0.7561462E-02  0.1275191E+00
          1   -1    0    0  501    0  0.00000000000E+00  0.00000000000E+00  0.66467101704E+02  0.66467101704E+02  0.00000000000E+00 0.  1.
         -1   -1    0    0    0  501 -0.00000000000E+00 -0.00000000000E+00 -0.18866449609E+03  0.18866449609E+03  0.00000000000E+00 0. -1.
         25    2    1    2    0    0 -0.17298032492E+01 -0.26323820605E+02 -0.77061139035E+02  0.14926969789E+03  0.12508832003E+03 0.  0.
          5    1    3    3  502    0 -0.62645970978E+02 -0.11096769322E+02 -0.48775066921E+02  0.80275373074E+02  0.41800000000E+01 0.  1.
         -5    1    3    3    0  502  0.60916167728E+02 -0.15227051283E+02 -0.28286072114E+02  0.68994324818E+02  0.41800000000E+01 0.  1.
        -11    1    1    2    0    0  0.24080216075E+02  0.43727940154E+02  0.29990588453E+01  0.50009838135E+02  0.00000000000E+00 0.  1.
         11    1    1    2    0    0 -0.22350412826E+02 -0.17404119549E+02 -0.48135314196E+02  0.55852061766E+02  0.00000000000E+00 0. -1.
</event>
<event>
 7    1  0.2891297E-009  0.1214137E+03  0.7561462E-02  0.1240783E+00
         -1   -1    0    0    0  501 -0.00000000000E+00  0.00000000000E+00  0.60332478646E+02  0.60332478646E+02  0.00000000000E+00 0.  1.
          1   -1    0    0  501    0  0.00000000000E+00 -0.00000000000E+00 -0.36216429939E+03  0.36216429939E+03  0.00000000000E+00 0. -1.
         25    2    1    2    0    0 -0.99067049370E+02 -0.37557629092E+01 -0.18416616730E+03  0.24370670301E+03  0.12508954347E+03 0.  0.
          5    1    3    3  502    0 -0.12039292617E+03  0.40957781711E+01 -0.18474976877E+03  0.22059279574E+03  0.41800000000E+01 0.  1.
         -5    1    3    3    0  502  0.21325876802E+02 -0.78515410803E+01  0.58360146503E+00  0.23113907272E+02  0.41800000000E+01 0.  1.
        -11    1    1    2    0    0  0.45696021465E+02  0.32637371170E+01  0.39455020385E+01  0.45982011091E+02  0.00000000000E+00 0.  1.
         11    1    1    2    0    0  0.53371027905E+02  0.49202579221E+00 -0.12161115548E+03  0.13280806393E+03  0.00000000000E+00 0. -1.
</event>
<event>
 7    1  0.2619826E-009  0.1057542E+03  0.7561462E-02  0.1268641E+00
         -3   -1    0    0    0  501 -0.00000000000E+00  0.00000000000E+00  0.72981656157E+02  0.72981656157E+02  0.00000000000E+00 0.  1.
          3   -1    0    0  501    0  0.00000000000E+00 -0.00000000000E+00 -0.21443011191E+03  0.21443011191E+03  0.00000000000E+00 0. -1.
         25    2    1    2    0    0  0.55922262502E+02  0.21933609395E+02 -0.64777060407E+02  0.15314049884E+03  0.12509021610E+03 0.  0.
          5    1    3    3  502    0  0.82289359516E+02  0.19255878776E+02 -0.17426540042E+01  0.84633544177E+02  0.41800000000E+01 0. -1.
         -5    1    3    3    0  502 -0.26367097014E+02  0.26777306187E+01 -0.63034406403E+02  0.68506954660E+02  0.41800000000E+01 0. -1.
        -11    1    1    2    0    0 -0.74955964047E+02 -0.28107221395E+02 -0.33675672082E+02  0.86847356499E+02  0.00000000000E+00 0.  1.
         11    1    1    2    0    0  0.19033701545E+02  0.61736120000E+01 -0.42995723267E+02  0.47423912733E+02  0.00000000000E+00 0. -1.
</event>
<event>
 7    1  0.2619826E-009  0.9596690E+02  0.7561462E-02  0.1289013E+00
          2   -1    0    0  501    0  0.00000000000E+00  0.00000000000E+00  0.75084502881E+02  0.75084502881E+02  0.00000000000E+00 0. -1.
         -2   -1    0    0    0  501 -0.00000000000E+00 -0.00000000000E+00 -0.17308667572E+03  0.17308667572E+03  0.00000000000E+00 0.  1.
         25    2    1    2    0    0 -0.18494222788E+02  0.29912116240E+02 -0.43164828935E+02  0.13692188027E+03  0.12509047871E+03 0.  0.
          5    1    3    3  502    0  0.12012789208E+02  0.58077516145E+02  0.18675799968E+02  0.62318238827E+02  0.41800000000E+01 0.  1.
         -5    1    3    3    0  502 -0.30507011996E+02 -0.28165399904E+02 -0.61840628903E+02  0.74603641438E+02  0.41800000000E+01 0.  1.
        -11    1    1    2    0    0  0.77249567763E+01  0.29435580515E+02 -0.37887294005E+02  0.48596043095E+02  0.00000000000E+00 0.  1.
         11    1    1    2    0    0  0.10769266012E+02 -0.59347696755E+02 -0.16950049899E+02  0.62653255240E+02  0.00000000000E+00 0. -1.
</event>
<event>
 7    1  0.2619826E-009  0.9672741E+02  0.7561462E-02  0.1287332E+00
          1   -1    0    0  501    0  0.00000000000E+00  0.00000000000E+00  0.25382659827E+02  0.25382659827E+02  0.00000000000E+00 0. -1.
         -1   -1    0    0    0  501 -0.00000000000E+00 -0.00000000000E+00 -0.64164562085E+03  0.64164562085E+03  0.00000000000E+00 0.  1.
         25    2    1    2    0    0 -0.12966761175E+01 -0.36294423642E+02 -0.19479840249E+03  0.23433484156E+03  0.12508970301E+03 0.  0.
          5    1    3    3  502    0 -0.43749698301E+02 -0.29979601120E+02 -0.24335880966E+02  0.58502308392E+02  0.41800000000E+01 0.  1.
         -5    1    3    3    0  502  0.42453022183E+02 -0.63148225217E+01 -0.17046252153E+03  0.17583253317E+03  0.41800000000E+01 0.  1.
        -11    1    1    2    0    0  0.45691477989E+02  0.17715550598E+02 -0.24026813219E+03  0.24521485934E+03  0.00000000000E+00 0.  1.
         11    1    1    2    0    0 -0.44394801871E+02  0.18578873045E+02 -0.18119642633E+03  0.18747857977E+03  0.00000000000E+00 0. -1.
</event>
<event>
 7    1  0.2619826E-009  0.1043148E+03  0.7561462E-02  0.1271476E+00
         -2   -1    0    0    0  501 -0.00000000000E+00  0.00000000000E+00  0.74659411356E+02  0.74659411356E+02  0.00000000000E+00 0.  1.
          2   -1    0    0  501    0  0.00000000000E+00 -0.00000000000E+00 -0.33534790158E+03  0.33534790158E+03  0.00000000000E+00 0. -1.
         25    2    1    2    0    0 -0.24155980474E+02  0.44431441956E+02 -0.26972605402E+03  0.30159116178E+03  0.12508964872E+03 0.  0.
          5    1    3    3  502    0  0.36614892985E+02 -0.89938339247E+01 -0.16432520354E+03  0.16864692216E+03  0.41800000000E+01 0.  1.
         -5    1    3    3    0  502 -0.60770873459E+02  0.53425275881E+02 -0.10540085049E+03  0.13294423962E+03  0.41800000000E+01 0.  1.
        -11    1    1    2    0    0 -0.21905593225E+02 -0.37022936741E+02  0.34611180554E+02  0.55213102420E+02  0.00000000000E+00 0.  1.
         11    1    1    2    0    0  0.46061573699E+02 -0.74085052152E+01 -0.25573616754E+02  0.53203048738E+02  0.00000000000E+00 0. -1.
</event>
<event>
 7    1  0.2619826E-009  0.1145494E+03  0.7561462E-02  0.1252370E+00
         -2   -1    0    0    0  501 -0.00000000000E+00  0.00000000000E+00  0.23715422743E+02  0.23715422743E+02  0.00000000000E+00 0.  1.
          2   -1    0    0  501    0  0.00000000000E+00 -0.00000000000E+00 -0.62829936409E+03  0.62829936409E+03  0.00000000000E+00 0. -1.
         25    2    1    2    0    0  0.16795904961E+02  0.53876367561E+02 -0.36040076675E+03  0.38564396553E+03  0.12509112707E+03 0.  0.
          5    1    3    3  502    0 -0.35929147034E+02  0.63794231683E+02 -0.27576385367E+03  0.28534852898E+03  0.41800000000E+01 0.  1.
         -5    1    3    3    0  502  0.52725051996E+02 -0.99178641227E+01 -0.84636913080E+02  0.10029543655E+03  0.41800000000E+01 0.  1.
        -11    1    1    2    0    0 -0.39648078306E+02  0.38806033060E+01 -0.60218772230E+02  0.72203391362E+02  0.00000000000E+00 0.  1.
         11    1    1    2    0    0  0.22852173345E+02 -0.57756970867E+02 -0.18396440237E+03  0.19416742994E+03  0.00000000000E+00 0. -1.
</event>
<event>
 7    1  0.2619826E-009  0.8756421E+02  0.7561462E-02  0.1308860E+00
         -1   -1    0    0    0  501 -0.00000000000E+00  0.00000000000E+00  0.31534311985E+02  0.31534311985E+02  0.00000000000E+00 0.  1.
          1   -1    0    0  501    0  0.00000000000E+00 -0.00000000000E+00 -0.36898901953E+03  0.36898901953E+03  0.00000000000E+00 0. -1.
         25    2    1    2    0    0  0.26944786354E+02  0.14969908081E+02 -0.20094096003E+03  0.23869328370E+03  0.12508834721E+03 0.  0.
          5    1    3    3  502    0 -0.55921707985E+01 -0.43109990704E+02 -0.24522630283E+02  0.50085681275E+02  0.41800000000E+01 0.  1.
         -5    1    3    3    0  502  0.32536957153E+02  0.58079898785E+02 -0.17641832974E+03  0.18860760243E+03  0.41800000000E+01 0.  1.
        -11    1    1    2    0    0 -0.68402467834E+01  0.21798738905E+02 -0.44488674690E+01  0.23275876260E+02  0.00000000000E+00 0.  1.
         11    1    1    2    0    0 -0.20104539571E+02 -0.36768646986E+02 -0.13206488005E+03  0.13855417155E+03  0.00000000000E+00 0. -1.
</event>
<event>
 7    1  0.2619826E-009  0.1386201E+03  0.7561462E-02  0.1215198E+00
          2   -1    0    0  501    0  0.00000000000E+00  0.00000000000E+00  0.82006482030E+03  0.82006482030E+03  0.00000000000E+00 0. -1.
         -2   -1    0    0    0  501 -0.00000000000E+00 -0.00000000000E+00 -0.25605455860E+02  0.25605455860E+02  0.00000000000E+00 0.  1.
         25    2    1    2    0    0 -0.78250630723E+02 -0.53059642247E+02  0.48238622888E+03  0.50723015294E+03  0.12508983733E+03 0.  0.
          5    1    3    3  502    0 -0.54534129310E+02 -0.94255760987E+02  0.32680218827E+03  0.34449276103E+03  0.41800000000E+01 0.  1.
         -5    1    3    3    0  502 -0.23716501413E+02  0.41196118740E+02  0.15558404060E+03  0.16273739192E+03  0.41800000000E+01 0.  1.
        -11    1    1    2    0    0  0.52259007228E+02 -0.92150514928E+01  0.74484380496E+02  0.91454053755E+02  0.00000000000E+00 0. -1.
         11    1    1    2    0    0  0.25991623495E+02  0.62274693740E+02  0.23758875507E+03  0.24698606946E+03  0.00000000000E+00 0.  1.
</event>
<event>
 7    1  0.2619826E-009  0.1120919E+03  0.7561462E-02  0.1256744E+00
         -2   -1    0    0    0  501 -0.00000000000E+00  0.00000000000E+00  0.33144749204E+02  0.33144749204E+02  0.00000000000E+00 0.  1.
          2   -1    0    0  501    0  0.00000000000E+00 -0.00000000000E+00 -0.49968965079E+03  0.49968965079E+03  0.00000000000E+00 0. -1.
         25    2    1    2    0    0  0.55680200975E+01  0.17751531754E+02 -0.13788614329E+03  0.18710236298E+03  0.12509430840E+03 0.  0.
          5    1    3    3  502    0  0.63112387934E+02 -0.14011759878E+01 -0.88446658743E+02  0.10874474998E+03  0.41800000000E+01 0. -1.
         -5    1    3    3    0  502 -0.57544367837E+02  0.19152707742E+02 -0.49439484544E+02  0.78357613003E+02  0.41800000000E+01 0. -1.
        -11    1    1    2    0    0 -0.37879224016E+02 -0.44314380379E+02 -0.24928997485E+03  0.25601580319E+03  0.00000000000E+00 0.  1.
         11    1    1    2    0    0  0.32311203919E+02  0.26562848624E+02 -0.79368783447E+02  0.89716233824E+02  0.00000000000E+00 0. -1.
</event>
<event>
 6    1  0.2619826E-009  0.1405698E+03  0.7561462E-02  0.1212564E+00
         -1   -1    0    0    0  501 -0.00000000000E+00  0.00000000000E+00  0.16620498650E+03  0.16620498650E+03  0.00000000000E+00 0.  1.
          1   -1    0    0  501    0  0.00000000000E+00 -0.00000000000E+00 -0.17605108199E+03  0.17605108199E+03  0.00000000000E+00 0. -1.
          5    1    1    2  502    0  0.46120416583E+02  0.17044643381E+01  0.43926335221E+02  0.63851337891E+02  0.41800000000E+01 0. -1.
         -5    1    1    2    0  502  0.66666627604E+02 -0.66888208551E+02 -0.72333427777E+02  0.11902969736E+03  0.41800000000E+01 0. -1.
        -11    1    1    2    0    0 -0.10348859056E+02  0.30356527980E+02  0.37702259185E+02  0.49498262822E+02  0.00000000000E+00 0.  1.
         11    1    1    2    0    0 -0.10243818513E+03  0.34827216232E+02 -0.19141262115E+02  0.10987677042E+03  0.00000000000E+00 0. -1.
</event>
<event>
 7    1  0.2619826E-009  0.1235462E+03  0.7561462E-02  0.1237359E+00
         -1   -1    0    0    0  501 -0.00000000000E+00  0.00000000000E+00  0.30254307519E+03  0.30254307519E+03  0.00000000000E+00 0.  1.
          1   -1    0    0  501    0  0.00000000000E+00 -0.00000000000E+00 -0.52344528621E+02  0.52344528621E+02  0.00000000000E+00 0. -1.
         25    2    1    2    0    0  0.10208513764E+02  0.48556054210E+02  0.14001577645E+03  0.19420152633E+03  0.12509161051E+03 0.  0.
          5    1    3    3  502    0  0.38922447940E+02  0.81554035135E+02  0.89615972572E+02  0.12733621849E+03  0.41800000000E+01 0. -1.
         -5    1    3    3    0  502 -0.28713934176E+02 -0.32997980925E+02  0.50399803879E+02  0.66865307837E+02  0.41800000000E+01 0. -1.
        -11    1    1    2    0    0  0.36324696473E+02  0.10207745107E+02  0.17800811423E+02  0.41719905577E+02  0.00000000000E+00 0. -1.
         11    1    1    2    0    0 -0.46533210237E+02 -0.58763799316E+02  0.92381958691E+02  0.11896617190E+03  0.00000000000E+00 0.  1.
</event>
<event>
 7    1  0.2619826E-009  0.7714541E+02  0.7561462E-02  0.1337353E+00
         -2   -1    0    0    0  501 -0.00000000000E+00  0.00000000000E+00  0.38525347931E+02  0.38525347931E+02  0.00000000000E+00 0.  1.
          2   -1    0    0  501    0  0.00000000000E+00 -0.00000000000E+00 -0.42805011491E+03  0.42805011491E+03  0.00000000000E+00 0. -1.
         25    2    1    2    0    0  0.13305856480E+01  0.30550392770E+02 -0.33067809864E+03  0.35486791314E+03  0.12509250139E+03 0.  0.
          5    1    3    3  502    0  0.59296961166E+02  0.25667906851E+02 -0.12106270945E+03  0.13729028758E+03  0.41800000000E+01 0.  1.
         -5    1    3    3    0  502 -0.57966375518E+02  0.48824859192E+01 -0.20961538919E+03  0.21757762556E+03  0.41800000000E+01 0.  1.
        -11    1    1    2    0    0  0.25238048046E+01 -0.14110969217E+02  0.23565706012E+02  0.27583174995E+02  0.00000000000E+00 0.  1.
         11    1    1    2    0    0 -0.38543904526E+01 -0.16439423553E+02 -0.82412374351E+02  0.84124374700E+02  0.00000000000E+00 0. -1.
</event>
<event>
 7    1  0.2619826E-009  0.1204542E+03  0.7561462E-02  0.1242350E+00
          2   -1    0    0  501    0  0.00000000000E+00  0.00000000000E+00  0.12045134073E+03  0.12045134073E+03  0.00000000000E+00 0. -1.
         -2   -1    0    0    0  501 -0.00000000000E+00 -0.00000000000E+00 -0.21965401878E+03  0.21965401878E+03  0.00000000000E+00 0.  1.
         25    2    1    2    0    0  0.47298495039E+02 -0.67099682960E+02 -0.12638881111E+03  0.19586279274E+03  0.12509431210E+03 0.  0.
          5    1    3    3  502    0  0.68481450421E+02 -0.67301319872E+02 -0.35516016781E+02  0.10245992659E+03  0.41800000000E+01 0. -1.
         -5    1    3    3    0  502 -0.21182955382E+02  0.20163691200E+00 -0.90872794328E+02  0.93402866151E+02  0.41800000000E+01 0. -1.
        -11    1    1    2    0    0  0.17794839487E+02 -0.11474905409E+02 -0.22377217185E+02  0.30806973488E+02  0.00000000000E+00 0.  1.
         11    1    1    2    0    0 -0.65093334526E+02  0.78574588370E+02  0.49563350246E+02  0.11343559329E+03  0.00000000000E+00 0. -1.
</event>
<event>
 7    1  0.2619826E-009  0.1104997E+03  0.7561462E-02  0.1259647E+00
          1   -1    0    0  501    0  0.00000000000E+00  0.00000000000E+00  0.17373176935E+04  0.17373176935E+04  0.00000000000E+00 0. -1.
         -1   -1    0    0    0  501 -0.00000000000E+00 -0.00000000000E+00 -0.75042320857E+01  0.75042320857E+01  0.00000000000E+00 0.  1.
         25    2    1    2    0    0 -0.18195753542E+02  0.13214412903E+02  0.11784644645E+04  0.11852960477E+04  0.12507006216E+03 0.  0.
          5    1    3    3  502    0  0.28238553720E+02  0.55747023979E+02  0.50130902022E+03  0.50520624774E+03  0.41800000000E+01 0.  1.
         -5    1    3    3    0  502 -0.46434307261E+02 -0.42532611077E+02  0.67715544427E+03  0.68008979996E+03  0.41800000000E+01 0.  1.
        -11    1    1    2    0    0 -0.32711195550E+02 -0.27116710822E+02  0.25467887013E+03  0.25819888693E+03  0.00000000000E+00 0. -1.
         11    1    1    2    0    0  0.50906949092E+02  0.13902297919E+02  0.29667012678E+03  0.30132699095E+03  0.00000000000E+00 0.  1.
</event>
<event>
 7    1  0.2619826E-009  0.2316503E+03  0.7561462E-02  0.1125484E+00
         -2   -1    0    0    0  501 -0.00000000000E+00  0.00000000000E+00  0.27801802738E+02  0.27801802738E+02  0.00000000000E+00 0.  1.
          2   -1    0    0  501    0  0.00000000000E+00 -0.00000000000E+00 -0.19756843767E+04  0.19756843767E+04  0.00000000000E+00 0. -1.
         25    2    1    2    0    0 -0.15720039144E+03 -0.12881394034E+03 -0.11281989363E+04  0.11531633006E+04  0.12509102159E+03 0.  0.
          5    1    3    3  502    0 -0.16992453202E+03 -0.82023257458E+02 -0.84578983972E+03  0.86659107238E+03  0.41800000000E+01 0. -1.
         -5    1    3    3    0  502  0.12724140580E+02 -0.46790682879E+02 -0.28240909659E+03  0.28657222823E+03  0.41800000000E+01 0. -1.
        -11    1    1    2    0    0  0.13080248435E+03  0.45479062542E+02 -0.52369336366E+03  0.54169398573E+03  0.00000000000E+00 0. -1.
         11    1    1    2    0    0  0.26397907089E+02  0.83334877796E+02 -0.29599027402E+03  0.30862889312E+03  0.00000000000E+00 0.  1.
</event>
<event>
 7    1  0.2619826E-009  0.1152158E+03  0.7561462E-02  0.1251205E+00
          2   -1    0    0  501    0  0.00000000000E+00  0.00000000000E+00  0.84424549097E+02  0.84424549097E+02  0.00000000000E+00 0. -1.
         -2   -1    0    0    0  501 -0.00000000000E+00 -0.00000000000E+00 -0.19309549662E+03  0.19309549662E+03  0.00000000000E+00 0.  1.
         25    2    1    2    0    0 -0.37576858186E+02  0.44274438410E+02 -0.96620931527E+02  0.16836486804E+03  0.12505550053E+03 0.  0.
          5    1    3    3  502    0 -0.79507953177E+02  0.43578226507E+02 -0.85695799885E+02  0.12482715635E+03  0.41800000000E+01 0. -1.
         -5    1    3    3    0  502  0.41931094991E+02  0.69621190282E+00 -0.10925131642E+02  0.43537711694E+02  0.41800000000E+01 0. -1.
        -11    1    1    2    0    0 -0.21215283929E+02 -0.30476506917E+02 -0.28218156126E+02  0.46638718692E+02  0.00000000000E+00 0.  1.
         11    1    1    2    0    0  0.58792142115E+02 -0.13797931493E+02  0.16168140135E+02  0.62516458980E+02  0.00000000000E+00 0. -1.
</event>
<event>
 7    1  0.2619826E-009  0.1131493E+03  0.7561462E-02  0.1254847E+00
          1   -1    0    0  501    0  0.00000000000E+00  0.00000000000E+00  0.34197482652E+03  0.34197482652E+03  0.00000000000E+00 0. -1.
         -1   -1    0    0    0  501 -0.00000000000E+00 -0.00000000000E+00 -0.49757735974E+02  0.49757735974E+02  0.00000000000E+00 0.  1.
         25    2    1    2    0    0 -0.41890992366E+02 -0.64765603931E+01  0.10229724702E+03  0.16706170276E+03  0.12509230474E+03 0.  0.
          5    1    3    3  502    0 -0.23210806879E+02 -0.61800190402E+02  0.81432546983E+02  0.10491299823E+03  0.41800000000E+01 0.  1.
         -5    1    3    3    0  502 -0.18680185487E+02  0.55323630009E+02  0.20864700034E+02  0.62148704530E+02  0.41800000000E+01 0.  1.
        -11    1    1    2    0    0  0.21489927089E+02  0.49516790492E+02  0.39493924034E+02  0.66884224916E+02  0.00000000000E+00 0.  1.
         11    1    1    2    0    0  0.20401065277E+02 -0.43040230099E+02  0.15042591949E+03  0.15778663482E+03  0.00000000000E+00 0. -1.
</event>
<event>
 7    1  0.2619826E-009  0.7310573E+02  0.7561462E-02  0.1349839E+00
         -2   -1    0    0    0  501 -0.00000000000E+00  0.00000000000E+00  0.74447110139E+02  0.74447110139E+02  0.00000000000E+00 0.  1.
          2   -1    0    0  501    0  0.00000000000E+00 -0.00000000000E+00 -0.22938901250E+03  0.22938901250E+03  0.00000000000E+00 0. -1.
         25    2    1    2    0    0  0.14763377381E+02 -0.18083238806E+02 -0.16612817421E+03  0.20927890925E+03  0.12511646875E+03 0.  0.
          5    1    3    3  502    0  0.50610330307E+02 -0.24050801015E+01 -0.16191126274E+03  0.16970538986E+03  0.41800000000E+01 0. -1.
         -5    1    3    3    0  502 -0.35846952926E+02 -0.15678158705E+02 -0.42169114617E+01  0.39573519387E+02  0.41800000000E+01 0. -1.
        -11    1    1    2    0    0  0.14497151064E+02 -0.82313162637E+01 -0.32029688205E+02  0.36108487685E+02  0.00000000000E+00 0. -1.
         11    1    1    2    0    0 -0.29260528445E+02  0.26314555070E+02  0.43215960051E+02  0.58448725705E+02  0.00000000000E+00 0.  1.
</event>
<event>
 7    1  0.2619826E-009  0.1682388E+03  0.7561462E-02  0.1179697E+00
         -1   -1    0    0    0  501 -0.00000000000E+00  0.00000000000E+00  0.82545939758E+02  0.82545939758E+02  0.00000000000E+00 0.  1.
          1   -1    0    0  501    0  0.00000000000E+00 -0.00000000000E+00 -0.43780632252E+03  0.43780632252E+03  0.00000000000E+00 0. -1.
         25    2    1    2    0    0  0.80706248986E+01  0.15174632415E+03 -0.13752178595E+03  0.24010936153E+03  0.12509269364E+03 0.  0.
          5    1    3    3  502    0 -0.19970677500E+02  0.93818054300E+02 -0.14633071927E+03  0.17501659085E+03  0.41800000000E+01 0. -1.
         -5    1    3    3    0  502  0.28041302399E+02  0.57928269850E+02  0.88089333146E+01  0.65092770675E+02  0.41800000000E+01 0. -1.
        -11    1    1    2    0    0  0.37956279039E+02 -0.98671386181E+02 -0.12086963696E+03  0.16058079184E+03  0.00000000000E+00 0. -1.
         11    1    1    2    0    0 -0.46026903938E+02 -0.53074937970E+02 -0.96868959849E+02  0.11966210891E+03  0.00000000000E+00 0.  1.
</event>
<event>
 7    1  0.2619826E-009  0.1005279E+03  0.7561462E-02  0.1279190E+00
         -2   -1    0    0    0  501 -0.00000000000E+00  0.00000000000E+00  0.50867463451E+02  0.50867463451E+02  0.00000000000E+00 0.  1.
          2   -1    0    0  501    0  0.00000000000E+00 -0.00000000000E+00 -0.36610113930E+03  0.36610113930E+03  0.00000000000E+00 0. -1.
         25    2    1    2    0    0 -0.78241516598E+02  0.81022953949E+01 -0.20461473314E+03  0.25240325920E+03  0.12511128697E+03 0.  0.
          5    1    3    3  502    0 -0.61504280835E+02 -0.14118204996E+02 -0.20987435024E+02  0.66633663431E+02  0.41800000000E+01 0.  1.
         -5    1    3    3    0  502 -0.16737235763E+02  0.22220500391E+02 -0.18362729812E+03  0.18576959577E+03  0.41800000000E+01 0.  1.
        -11    1    1    2    0    0  0.56083550501E+02 -0.41384001217E+02 -0.10220138831E+03  0.12370579600E+03  0.00000000000E+00 0.  1.
         11    1    1    2    0    0  0.22157966096E+02  0.33281705822E+02 -0.84175544092E+01  0.40859547552E+02  0.00000000000E+00 0. -1.
</event>
<event>
 7    1  0.2619826E-009  0.1547346E+03  0.7561462E-02  0.1194773E+00
         -1   -1    0    0    0  501 -0.00000000000E+00  0.00000000000E+00  0.36550375568E+03  0.36550375568E+03  0.00000000000E+00 0.  1.
          1   -1    0    0  501    0  0.00000000000E+00 -0.00000000000E+00 -0.74681033718E+02  0.74681033718E+02  0.00000000000E+00 0. -1.
         25    2    1    2    0    0  0.11428569446E+03  0.45057954910E+02  0.12034924308E+03  0.21265473079E+03  0.12508658984E+03 0.  0.
          5    1    3    3  502    0 -0.17658471397E+02  0.21744593717E+02 -0.54240052408E+01  0.28836456108E+02  0.41800000000E+01 0.  1.
         -5    1    3    3    0  502  0.13194416586E+03  0.23313361193E+02  0.12577324832E+03  0.18381827469E+03  0.41800000000E+01 0.  1.
        -11    1    1    2    0    0 -0.30392187756E+02 -0.54773155787E+02  0.48735468978E+02  0.79365796210E+02  0.00000000000E+00 0. -1.
         11    1    1    2    0    0 -0.83893506708E+02  0.97152008772E+01  0.12173800990E+03  0.14816426239E+03  0.00000000000E+00 0.  1.
</event>
<event>
 7    1  0.2619826E-009  0.2065993E+03  0.7561462E-02  0.1144288E+00
         -1   -1    0    0    0  501 -0.00000000000E+00  0.00000000000E+00  0.12819047487E+03  0.12819047487E+03  0.00000000000E+00 0.  1.
          1   -1    0    0  501    0  0.00000000000E+00 -0.00000000000E+00 -0.42296890225E+03  0.42296890225E+03  0.00000000000E+00 0. -1.
         25    2    1    2    0    0  0.11127712276E+03  0.13480683240E+03 -0.27512745183E+03  0.34913922979E+03  0.12509039497E+03 0.  0.
          5    1    3    3  502    0 -0.22080825657E+02 -0.20329266694E+00 -0.14608728088E+02  0.26804692238E+02  0.41800000000E+01 0. -1.
         -5    1    3    3    0  502  0.13335794842E+03  0.13501012507E+03 -0.26051872374E+03  0.32233453755E+03  0.41800000000E+01 0. -1.
        -11    1    1    2    0    0 -0.98602036966E+02 -0.41887758477E+02 -0.65588306184E+01  0.10733109644E+03  0.00000000000E+00 0.  1.
         11    1    1    2    0    0 -0.12675085798E+02 -0.92919073927E+02 -0.13092144942E+02  0.94689050891E+02  0.00000000000E+00 0. -1.
</event>
<event>
 7    1  0.2619826E-009  0.1848869E+03  0.7561462E-02  0.1163156E+00
          1   -1    0    0  501    0  0.00000000000E+00  0.00000000000E+00  0.40084445431E+03  0.40084445431E+03  0.00000000000E+00 0. -1.
         -1   -1    0    0    0  501 -0.00000000000E+00 -0.00000000000E+00 -0.34287576024E+03  0.34287576024E+03  0.00000000000E+00 0.  1.
         25    2    1    2    0    0  0.15829711146E+03  0.22002200352E+02 -0.28696735413E+03  0.35148275388E+03  0.12509113327E+03 0.  0.
          5    1    3    3  502    0  0.92280448429E+02 -0.34630463836E+02 -0.22169832956E+03  0.24265731376E+03  0.41800000000E+01 0.  1.
         -5    1    3    3    0  502  0.66016663033E+02  0.56632664188E+02 -0.65269024564E+02  0.10882544013E+03  0.41800000000E+01 0.  1.
        -11    1    1    2    0    0 -0.13879814868E+03 -0.52036494945E+02  0.24830899909E+03  0.28918866145E+03  0.00000000000E+00 0.  1.
         11    1    1    2    0    0 -0.19498962779E+02  0.30034294593E+02  0.96627049106E+02  0.10304879922E+03  0.00000000000E+00 0. -1.
</event>
<event>
 7    1  0.2619826E-009  0.1069141E+03  0.7561462E-02  0.1266394E+00
         -3   -1    0    0    0  501 -0.00000000000E+00  0.00000000000E+00  0.13666142101E+03  0.13666142101E+03  0.00000000000E+00 0.  1.
          3   -1    0    0  501    0  0.00000000000E+00 -0.00000000000E+00 -0.10114377807E+03  0.10114377807E+03  0.00000000000E+00 0. -1.
         25    2    1    2    0    0 -0.35891751618E+01 -0.19728585269E+02  0.59000271054E+02  0.13975120824E+03  0.12508904414E+03 0.  0.
          5    1    3    3  502    0  0.48769285351E+02 -0.41671194405E+02  0.51431259368E+02  0.82326049808E+02  0.41800000000E+01 0.  1.
         -5    1    3    3    0  502 -0.52358460513E+02  0.21942609137E+02  0.75690116867E+01  0.57425158432E+02  0.41800000000E+01 0.  1.
        -11    1    1    2    0    0  0.46961300570E+02  0.13016989151E+02 -0.10001484873E+01  0.48742240970E+02  0.00000000000E+00 0.  1.
         11    1    1    2    0    0 -0.43372125408E+02  0.67115961174E+01 -0.22482479628E+02  0.49311749868E+02  0.00000000000E+00 0. -1.
</event>
<event>
 7    1  0.2619826E-009  0.7960335E+02  0.7561462E-02  0.1330181E+00
         -2   -1    0    0    0  501 -0.00000000000E+00  0.00000000000E+00  0.23770853049E+03  0.23770853049E+03  0.00000000000E+00 0.  1.
          2   -1    0    0  501    0  0.00000000000E+00 -0.00000000000E+00 -0.53434701387E+02  0.53434701387E+02  0.00000000000E+00 0. -1.
         25    2    1    2    0    0  0.26068223872E+02 -0.90211152356E+01  0.14435345710E+03  0.19298897212E+03  0.12508353196E+03 0.  0.
          5    1    3    3  502    0  0.63045384191E+02  0.47647958112E+01  0.26585398491E+02  0.68714478532E+02  0.41800000000E+01 0.  1.
         -5    1    3    3    0  502 -0.36977160319E+02 -0.13785911047E+02  0.11776805861E+03  0.12427449359E+03  0.41800000000E+01 0.  1.
        -11    1    1    2    0    0  0.13594662763E+02 -0.43972380583E+01  0.52519662809E+02  0.54428536080E+02  0.00000000000E+00 0.  1.
         11    1    1    2    0    0 -0.39662886635E+02  0.13418353294E+02 -0.12599290812E+02  0.43725723669E+02  0.00000000000E+00 0. -1.
</event>
<event>
 7    1  0.2619826E-009  0.1006050E+03  0.7561462E-02  0.1279029E+00
          2   -1    0    0  501    0  0.00000000000E+00  0.00000000000E+00  0.88371023333E+02  0.88371023333E+02  0.00000000000E+00 0. -1.
         -2   -1    0    0    0  501 -0.00000000000E+00 -0.00000000000E+00 -0.15803853657E+03  0.15803853657E+03  0.00000000000E+00 0.  1.
         25    2    1    2    0    0 -0.33393442408E+02  0.34457296847E+02 -0.60130173582E+02  0.14687154789E+03  0.12511269521E+03 0.  0.
          5    1    3    3  502    0 -0.31078052117E+01  0.79067374752E+02 -0.28429896371E+02  0.84184556844E+02  0.41800000000E+01 0. -1.
         -5    1    3    3    0  502 -0.30285637196E+02 -0.44610077905E+02 -0.31700277211E+02  0.62686991045E+02  0.41800000000E+01 0. -1.
        -11    1    1    2    0    0  0.17790370015E+02  0.10254533300E+02  0.31011556128E+02  0.37193673279E+02  0.00000000000E+00 0. -1.
         11    1    1    2    0    0  0.15603072393E+02 -0.44711830147E+02 -0.40548895786E+02  0.62344338738E+02  0.00000000000E+00 0.  1.
</event>
<event>
 7    1  0.2619826E-009  0.1155621E+03  0.7561462E-02  0.1250603E+00
          3   -1    0    0  501    0  0.00000000000E+00  0.00000000000E+00  0.16172527821E+03  0.16172527821E+03  0.00000000000E+00 0. -1.
         -3   -1    0    0    0  501 -0.00000000000E+00 -0.00000000000E+00 -0.83273283351E+02  0.83273283351E+02  0.00000000000E+00 0.  1.
         25    2    1    2    0    0 -0.29386133642E+02  0.27520865406E+02  0.37785528924E+02  0.13677566308E+03  0.12513549829E+03 0.  0.
          5    1    3    3  502    0 -0.78503596023E+02  0.17947394041E+02  0.16899165409E+02  0.82389184563E+02  0.41800000000E+01 0.  1.
         -5    1    3    3    0  502  0.49117462381E+02  0.95734713648E+01  0.20886363515E+02  0.54386478518E+02  0.41800000000E+01 0.  1.
        -11    1    1    2    0    0 -0.52409757382E-01 -0.57939572363E+02  0.24591040869E+02  0.62942164591E+02  0.00000000000E+00 0.  1.
         11    1    1    2    0    0  0.29438543400E+02  0.30418706957E+02  0.16075425066E+02  0.45280733888E+02  0.00000000000E+00 0. -1.
</event>
<event>
 7    1  0.2619826E-009  0.1372933E+03  0.7561462E-02  0.1217018E+00
          2   -1    0    0  501    0  0.00000000000E+00  0.00000000000E+00  0.11887859823E+03  0.11887859823E+03  0.00000000000E+00 0.  1.
         -2   -1    0    0    0  501 -0.00000000000E+00 -0.00000000000E+00 -0.22736458179E+03  0.22736458179E+03  0.00000000000E+00 0. -1.
         25    2    1    2    0    0 -0.35088163031E+02  0.92753720510E+02 -0.14281864082E+03  0.21419349440E+03  0.12508899642E+03 0.  0.
          5    1    3    3  502    0 -0.57561217861E+02  0.64781632504E+01 -0.98971461697E+02  0.11475226809E+03  0.41800000000E+01 0.  1.
         -5    1    3    3    0  502  0.22473054830E+02  0.86275557259E+02 -0.43847179126E+02  0.99441226315E+02  0.41800000000E+01 0.  1.
        -11    1    1    2    0    0 -0.25707590546E+02 -0.20863286326E+02  0.12588136311E+02  0.35420588699E+02  0.00000000000E+00 0. -1.
         11    1    1    2    0    0  0.60795753577E+02 -0.71890434183E+02  0.21744520952E+02  0.96629096920E+02  0.00000000000E+00 0.  1.
</event>
<event>
 7    1  0.2619826E-009  0.9136497E+02  0.7561462E-02  0.1299580E+00
         -1   -1    0    0    0  501 -0.00000000000E+00  0.00000000000E+00  0.86728885911E+02  0.86728885911E+02  0.00000000000E+00 0.  1.
          1   -1    0    0  501    0  0.00000000000E+00 -0.00000000000E+00 -0.18614739235E+03  0.18614739235E+03  0.00000000000E+00 0. -1.
         25    2    1    2    0    0  0.44805763455E+02 -0.41302632092E+02 -0.10656452537E+03  0.17526106343E+03  0.12508788283E+03 0.  0.
          5    1    3    3  502    0 -0.17703880948E+02 -0.27355319592E+02 -0.10610732507E+03  0.11107645000E+03  0.41800000000E+01 0. -1.
         -5    1    3    3    0  502  0.62509644403E+02 -0.13947312500E+02 -0.45720030017E+00  0.64184613432E+02  0.41800000000E+01 0. -1.
        -11    1    1    2    0    0 -0.57300537696E+02  0.19429126272E+02 -0.16868110306E+02  0.62812225826E+02  0.00000000000E+00 0. -1.
         11    1    1    2    0    0  0.12494774241E+02  0.21873505819E+02  0.24014129241E+02  0.34802989000E+02  0.00000000000E+00 0.  1.
</event>
<event>
 7    1  0.2619826E-009  0.9929754E+02  0.7561462E-02  0.1281780E+00
          2   -1    0    0  501    0  0.00000000000E+00  0.00000000000E+00  0.63491552752E+03  0.63491552752E+03  0.00000000000E+00 0. -1.
         -2   -1    0    0    0  501 -0.00000000000E+00 -0.00000000000E+00 -0.21175876414E+02  0.21175876414E+02  0.00000000000E+00 0.  1.
         25    2    1    2    0    0  0.11167901291E+02 -0.12361430047E+02  0.44787834338E+03  0.46531516862E+03  0.12508264751E+03 0.  0.
          5    1    3    3  502    0  0.32647023711E+02 -0.60045083087E+02  0.18530570995E+03  0.19755231889E+03  0.41800000000E+01 0.  1.
         -5    1    3    3    0  502 -0.21479122421E+02  0.47683653040E+02  0.26257263343E+03  0.26776284973E+03  0.41800000000E+01 0.  1.
        -11    1    1    2    0    0  0.72504887455E+01  0.42076053181E+02  0.34649197036E+02  0.54986641046E+02  0.00000000000E+00 0.  1.
         11    1    1    2    0    0 -0.18418390036E+02 -0.29714623134E+02  0.13121211069E+03  0.13578959427E+03  0.00000000000E+00 0. -1.
</event>
<event>
 7    1  0.2619826E-009  0.1086767E+03  0.7561462E-02  0.1263040E+00
         -3   -1    0    0    0  501 -0.00000000000E+00  0.00000000000E+00  0.13507597675E+03  0.13507597675E+03  0.00000000000E+00 0.  1.
          3   -1    0    0  501    0  0.00000000000E+00 -0.00000000000E+00 -0.93403264445E+02  0.93403264445E+02  0.00000000000E+00 0. -1.
         25    2    1    2    0    0 -0.20641695171E+02 -0.67110145985E+01  0.59517301804E+01  0.12709814241E+03  0.12508955758E+03 0.  0.
          5    1    3    3  502    0  0.15951255122E+02  0.52533538201E+02 -0.88985373708E+01  0.55775187523E+02  0.41800000000E+01 0.  1.
         -5    1    3    3    0  502 -0.36592950293E+02 -0.59244552800E+02  0.14850267551E+02  0.71322954888E+02  0.41800000000E+01 0.  1.
        -11    1    1    2    0    0 -0.21429100113E+02 -0.29884062915E+02  0.25352378576E+02  0.44665497282E+02  0.00000000000E+00 0.  1.
         11    1    1    2    0    0  0.42070795284E+02  0.36595077514E+02  0.10368603548E+02  0.56715601501E+02  0.00000000000E+00 0. -1.
</event>
<event>
 7    1  0.2619826E-009  0.9357122E+02  0.7561462E-02  0.1294427E+00
         -3   -1    0    0    0  501 -0.00000000000E+00  0.00000000000E+00  0.23367161893E+03  0.23367161893E+03  0.00000000000E+00 0.  1.
          3   -1    0    0  501    0  0.00000000000E+00 -0.00000000000E+00 -0.10833713283E+03  0.10833713283E+03  0.00000000000E+00 0. -1.
         25    2    1    2    0    0  0.54528407440E+02  0.37814605289E+02  0.17015145526E+03  0.22136543653E+03  0.12509135531E+03 0.  0.
          5    1    3    3  502    0 -0.27300224161E+02 -0.54054556341E+01  0.10346268353E+03  0.10722182834E+03  0.41800000000E+01 0.  1.
         -5    1    3    3    0  502  0.81828631601E+02  0.43220060923E+02  0.66688771727E+02  0.11414360819E+03  0.41800000000E+01 0.  1.
        -11    1    1    2    0    0 -0.33793095240E+02 -0.22861431402E+02 -0.72356695048E+02  0.83066898641E+02  0.00000000000E+00 0. -1.
         11    1    1    2    0    0 -0.20735312200E+02 -0.14953173887E+02  0.27539725892E+02  0.37576416588E+02  0.00000000000E+00 0.  1.
</event>
<event>
 7    1  0.2619826E-009  0.1368585E+03  0.7561462E-02  0.1217620E+00
          2   -1    0    0  501    0  0.00000000000E+00  0.00000000000E+00  0.90801227032E+02  0.90801227032E+02  0.00000000000E+00 0. -1.
         -2   -1    0    0    0  501 -0.00000000000E+00 -0.00000000000E+00 -0.26006486051E+03  0.26006486051E+03  0.00000000000E+00 0.  1.
         25    2    1    2    0    0 -0.91676364122E+02 -0.22318574405E+02 -0.30082300918E+02  0.15954456413E+03  0.12508736392E+03 0.  0.
          5    1    3    3  502    0 -0.61300354848E+02 -0.70131001993E+02 -0.40744162790E+02  0.10175288766E+03  0.41800000000E+01 0. -1.
         -5    1    3    3    0  502 -0.30376009274E+02  0.47812427588E+02  0.10661861872E+02  0.57791676476E+02  0.41800000000E+01 0. -1.
        -11    1    1    2    0    0  0.48283050755E+02 -0.29117007752E+02 -0.96095420450E+02  0.11141536233E+03  0.00000000000E+00 0.  1.
         11    1    1    2    0    0  0.43393313367E+02  0.51435582157E+02 -0.43085912107E+02  0.79906161082E+02  0.00000000000E+00 0. -1.
</event>
<event>
 7    1  0.2619826E-009  0.1378301E+03  0.7561462E-02  0.1216279E+00
         -2   -1    0    0    0  501 -0.00000000000E+00  0.00000000000E+00  0.32543006398E+02  0.32543006398E+02  0.00000000000E+00 0. -1.
          2   -1    0    0  501    0  0.00000000000E+00 -0.00000000000E+00 -0.83379031233E+03  0.83379031233E+03  0.00000000000E+00 0.  1.
         25    2    1    2    0    0  0.11344635654E+03  0.43546204562E+02 -0.39615710676E+03  0.43284463643E+03  0.12509068032E+03 0.  0.
          5    1    3    3  502    0  0.10735269373E+03  0.68697438420E+02 -0.21633611855E+03  0.25112293302E+03  0.41800000000E+01 0.  1.
         -5    1    3    3    0  502  0.60936628123E+01 -0.25151233858E+02 -0.17982098821E+03  0.18172170341E+03  0.41800000000E+01 0.  1.
        -11    1    1    2    0    0 -0.57042787736E+02 -0.27235388967E+02 -0.34001423346E+03  0.34584002805E+03  0.00000000000E+00 0.  1.
         11    1    1    2    0    0 -0.56403568802E+02 -0.16310815595E+02 -0.65075965709E+02  0.87648654251E+02  0.00000000000E+00 0. -1.
</event>
<event>
 7    1  0.2695156E-009  0.9442987E+02  0.7561462E-02  0.1292465E+00
          1   -1    0    0  501    0  0.00000000000E+00  0.00000000000E+00  0.25880520051E+03  0.25880520051E+03  0.00000000000E+00 0. -1.
         -1   -1    0    0    0  501 -0.00000000000E+00 -0.00000000000E+00 -0.79813080297E+02  0.79813080297E+02  0.00000000000E+00 0.  1.
         25    2    1    2    0    0  0.29962537751E+01 -0.45772974620E+02  0.19363529110E+03  0.23504295221E+03  0.12508565337E+03 0.  0.
          5    1    3    3  502    0  0.37433358215E+02 -0.10197033460E+02  0.42558899980E+01  0.39253290286E+02  0.41800000000E+01 0.  1.
         -5    1    3    3    0  502 -0.34437104440E+02 -0.35575941161E+02  0.18937940111E+03  0.19578966192E+03  0.41800000000E+01 0.  1.
        -11    1    1    2    0    0 -0.26212313503E+02 -0.18320345998E+02  0.55957754893E+01  0.32465876855E+02  0.00000000000E+00 0.  1.
         11    1    1    2    0    0  0.23216059728E+02  0.64093320618E+02 -0.20238946379E+02  0.71109451747E+02  0.00000000000E+00 0. -1.
</event>
<event>
 7    1  0.2619826E-009  0.1980754E+03  0.7561462E-02  0.1151373E+00
         -2   -1    0    0    0  501 -0.00000000000E+00  0.00000000000E+00  0.11028532954E+03  0.11028532954E+03  0.00000000000E+00 0.  1.
          2   -1    0    0  501    0  0.00000000000E+00 -0.00000000000E+00 -0.49280448241E+03  0.49280448241E+03  0.00000000000E+00 0. -1.
         25    2    1    2    0    0 -0.16689734150E+03 -0.57414142532E+02 -0.61217069784E+02  0.22482618549E+03  0.12509267640E+03 0.  0.
          5    1    3    3  502    0  0.15609991951E+02  0.11489489804E+02  0.14580336068E+01  0.19881611772E+02  0.41800000000E+01 0. -1.
         -5    1    3    3    0  502 -0.18250733345E+03 -0.68903632336E+02 -0.62675103390E+02  0.20494457372E+03  0.41800000000E+01 0. -1.
        -11    1    1    2    0    0  0.71854184833E+02  0.46362639445E+02 -0.73963824429E+02  0.11306266200E+03  0.00000000000E+00 0. -1.
         11    1    1    2    0    0  0.95043156666E+02  0.11051503087E+02 -0.24733825866E+03  0.26520096445E+03  0.00000000000E+00 0.  1.
</event>
<event>
 7    1  0.3307874E-009  0.1753255E+03  0.7561462E-02  0.1172405E+00
         -3   -1    0    0    0  501 -0.00000000000E+00  0.00000000000E+00  0.14583835109E+03  0.14583835109E+03  0.00000000000E+00 0.  1.
          3   -1    0    0  501    0  0.00000000000E+00 -0.00000000000E+00 -0.32920680203E+03  0.32920680203E+03  0.00000000000E+00 0. -1.
         25    2    1    2    0    0 -0.13029719617E+03  0.83733100540E+02  0.23984206312E+02  0.20052808313E+03  0.12509068117E+03 0.  0.
          5    1    3    3  502    0 -0.89920919863E+02  0.12406582853E+02  0.62078489063E+02  0.11004956307E+03  0.41800000000E+01 0. -1.
         -5    1    3    3    0  502 -0.40376276305E+02  0.71326517687E+02 -0.38094282752E+02  0.90478520059E+02  0.41800000000E+01 0. -1.
        -11    1    1    2    0    0  0.35975368165E+02 -0.74760654686E+02 -0.75675080866E+02  0.11229470365E+03  0.00000000000E+00 0.  1.
         11    1    1    2    0    0  0.94321828002E+02 -0.89724458539E+01 -0.13167757638E+03  0.16222236635E+03  0.00000000000E+00 0. -1.
</event>
<event>
 7    1  0.2619826E-009  0.1460554E+03  0.7561462E-02  0.1205406E+00
          1   -1    0    0  501    0  0.00000000000E+00  0.00000000000E+00  0.62682165306E+03  0.62682165306E+03  0.00000000000E+00 0. -1.
         -1   -1    0    0    0  501 -0.00000000000E+00 -0.00000000000E+00 -0.44406593002E+02  0.44406593002E+02  0.00000000000E+00 0.  1.
         25    2    1    2    0    0  0.69400246965E+02  0.10577010319E+03  0.30327601106E+03  0.35160906117E+03  0.12509549954E+03 0.  0.
          5    1    3    3  502    0 -0.12255224660E+02  0.53963047970E+02  0.20991748264E+03  0.21712904687E+03  0.41800000000E+01 0.  1.
         -5    1    3    3    0  502  0.81655471626E+02  0.51807055216E+02  0.93358528416E+02  0.13448001429E+03  0.41800000000E+01 0.  1.
        -11    1    1    2    0    0 -0.40980415598E+02 -0.13302105110E+02  0.30397553190E+02  0.52729040413E+02  0.00000000000E+00 0. -1.
         11    1    1    2    0    0 -0.28419831368E+02 -0.92467998075E+02  0.24874149581E+03  0.26689014448E+03  0.00000000000E+00 0.  1.
</event>
<event>
 7    1  0.2619826E-009  0.1163403E+03  0.7561462E-02  0.1249259E+00
         -1   -1    0    0    0  501 -0.00000000000E+00  0.00000000000E+00  0.57726875128E+02  0.57726875128E+02  0.00000000000E+00 0.  1.
          1   -1    0    0  501    0  0.00000000000E+00 -0.00000000000E+00 -0.24839475278E+03  0.24839475278E+03  0.00000000000E+00 0. -1.
         25    2    1    2    0    0  0.38154671747E+02  0.30020119933E+02 -0.12037507964E+03  0.18026294615E+03  0.12509030091E+03 0.  0.
          5    1    3    3  502    0 -0.13135267441E+02  0.65639116117E+02 -0.38934227043E+02  0.77552403256E+02  0.41800000000E+01 0.  1.
         -5    1    3    3    0  502  0.51289939188E+02 -0.35618996183E+02 -0.81440852594E+02  0.10271054290E+03  0.41800000000E+01 0.  1.
        -11    1    1    2    0    0 -0.65897148021E+02 -0.57198424563E+01 -0.54639367871E+02  0.85794004664E+02  0.00000000000E+00 0.  1.
         11    1    1    2    0    0  0.27742476274E+02 -0.24300277477E+02 -0.15653430149E+02  0.40064677095E+02  0.00000000000E+00 0. -1.
</event>
<event>
 7    1  0.2619826E-009  0.2443298E+03  0.7561462E-02  0.1116942E+00
         -3   -1    0    0    0  501 -0.00000000000E+00  0.00000000000E+00  0.62674073971E+03  0.62674073971E+03  0.00000000000E+00 0.  1.
          3   -1    0    0  501    0  0.00000000000E+00 -0.00000000000E+00 -0.10784478563E+03  0.10784478563E+03  0.00000000000E+00 0. -1.
         25    2    1    2    0    0 -0.23271473572E+03  0.35533381787E+02  0.24458273052E+03  0.36178382158E+03  0.12509217420E+03 0.  0.
          5    1    3    3  502    0 -0.66077044541E+02 -0.11229265718E+02  0.15036935599E+03  0.16468359919E+03  0.41800000000E+01 0.  1.
         -5    1    3    3    0  502 -0.16663769118E+03  0.46762647505E+02  0.94213374536E+02  0.19710022239E+03  0.41800000000E+01 0.  1.
        -11    1    1    2    0    0  0.85807455342E+01 -0.22256054738E+02  0.96532424734E+01  0.25732202717E+02  0.00000000000E+00 0. -1.
         11    1    1    2    0    0  0.22413399019E+03 -0.13277327049E+02  0.26465998108E+03  0.34706950105E+03  0.00000000000E+00 0.  1.
</event>
<event>
 7    1  0.2619826E-009  0.4762979E+03  0.7561462E-02  0.1020158E+00
          2   -1    0    0  501    0  0.00000000000E+00  0.00000000000E+00  0.35946767735E+03  0.35946767735E+03  0.00000000000E+00 0. -1.
         -2   -1    0    0    0  501 -0.00000000000E+00 -0.00000000000E+00 -0.91542083527E+03  0.91542083527E+03  0.00000000000E+00 0.  1.
         25    2    1    2    0    0  0.75893449094E+02 -0.46696825077E+03 -0.61872841828E+03  0.78885447523E+03  0.12508942664E+03 0.  0.
          5    1    3    3  502    0  0.73125776080E+02 -0.40372684059E+03 -0.45198850942E+03  0.61045378693E+03  0.41800000000E+01 0. -1.
         -5    1    3    3    0  502  0.27676730139E+01 -0.63241410184E+02 -0.16673990886E+03  0.17840068829E+03  0.41800000000E+01 0. -1.
        -11    1    1    2    0    0 -0.21537007698E+02  0.34054555231E+03  0.19522851338E+02  0.34178393412E+03  0.00000000000E+00 0.  1.
         11    1    1    2    0    0 -0.54356441396E+02  0.12642269846E+03  0.43252409022E+02  0.14425010327E+03  0.00000000000E+00 0. -1.
</event>
<event>
 7    1  0.2619826E-009  0.7857077E+02  0.7561462E-02  0.1333157E+00
         -2   -1    0    0    0  501 -0.00000000000E+00  0.00000000000E+00  0.21235173952E+03  0.21235173952E+03  0.00000000000E+00 0.  1.
          2   -1    0    0  501    0  0.00000000000E+00 -0.00000000000E+00 -0.39438121831E+02  0.39438121831E+02  0.00000000000E+00 0. -1.
         25    2    1    2    0    0 -0.98762094070E+01 -0.25412644936E+01  0.11886126944E+03  0.17285712680E+03  0.12509031688E+03 0.  0.
          5    1    3    3  502    0 -0.25980540897E+02 -0.55766292208E+02  0.31572539454E+02  0.69276009553E+02  0.41800000000E+01 0.  1.
         -5    1    3    3    0  502  0.16104331490E+02  0.53225027715E+02  0.87288729989E+02  0.10358111725E+03  0.41800000000E+01 0.  1.
        -11    1    1    2    0    0  0.18485675498E+02  0.15521303358E+02  0.15710024581E+01  0.24188821907E+02  0.00000000000E+00 0. -1.
         11    1    1    2    0    0 -0.86094660910E+01 -0.12980038864E+02  0.52481345784E+02  0.54743912635E+02  0.00000000000E+00 0.  1.
</event>
<event>
 7    1  0.2619826E-009  0.1148621E+03  0.7561462E-02  0.1251822E+00
          2   -1    0    0  501    0  0.00000000000E+00  0.00000000000E+00  0.16693944161E+03  0.16693944161E+03  0.00000000000E+00 0. -1.
         -2   -1    0    0    0  501 -0.00000000000E+00 -0.00000000000E+00 -0.10865843701E+03  0.10865843701E+03  0.00000000000E+00 0.  1.
         25    2    1    2    0    0  0.22955525147E+02  0.46364859048E+02 -0.28844845902E+02  0.13840649591E+03  0.12509067386E+03 0.  0.
          5    1    3    3  502    0 -0.49093644026E+02  0.27071893537E+02 -0.29939395603E+02  0.63693901690E+02  0.41800000000E+01 0. -1.
         -5    1    3    3    0  502  0.72049169173E+02  0.19292965511E+02  0.10945497004E+01  0.74712594225E+02  0.41800000000E+01 0. -1.
        -11    1    1    2    0    0 -0.10746188102E+02 -0.70733316415E+02  0.83074362726E+02  0.10963590813E+03  0.00000000000E+00 0. -1.
         11    1    1    2    0    0 -0.12209337045E+02  0.24368457367E+02  0.40514877712E+01  0.27555474569E+02  0.00000000000E+00 0.  1.
</event>
<event>
 7    1  0.2619826E-009  0.1130469E+03  0.7561462E-02  0.1255029E+00
          2   -1    0    0  501    0  0.00000000000E+00  0.00000000000E+00  0.51013640336E+02  0.51013640336E+02  0.00000000000E+00 0.  1.
         -2   -1    0    0    0  501 -0.00000000000E+00 -0.00000000000E+00 -0.39330172282E+03  0.39330172282E+03  0.00000000000E+00 0. -1.
         25    2    1    2    0    0  0.85305614624E+02  0.26241254527E+02 -0.21316121530E+03  0.26277386626E+03  0.12508696876E+03 0.  0.
          5    1    3    3  502    0  0.67161513792E+02 -0.11006192827E+02 -0.29228340456E+02  0.74186073499E+02  0.41800000000E+01 0. -1.
         -5    1    3    3    0  502  0.18144100832E+02  0.37247447354E+02 -0.18393287484E+03  0.18858779276E+03  0.41800000000E+01 0. -1.
        -11    1    1    2    0    0  0.37025903758E+01 -0.27002053228E+02 -0.68830577867E+02  0.74030186435E+02  0.00000000000E+00 0.  1.
         11    1    1    2    0    0 -0.89008205000E+02  0.76079870124E+00 -0.60296289313E+02  0.10751131046E+03  0.00000000000E+00 0. -1.
</event>
<event>
 7    1  0.2619826E-009  0.1013149E+03  0.7561462E-02  0.1277555E+00
          1   -1    0    0  501    0  0.00000000000E+00  0.00000000000E+00  0.46240515696E+02  0.46240515696E+02  0.00000000000E+00 0. -1.
         -1   -1    0    0    0  501 -0.00000000000E+00 -0.00000000000E+00 -0.31604561136E+03  0.31604561136E+03  0.00000000000E+00 0.  1.
         25    2    1    2    0    0  0.36475033574E+01 -0.28876393189E+02 -0.21918752394E+03  0.25403991851E+03  0.12508380862E+03 0.  0.
          5    1    3    3  502    0  0.47519518673E+02  0.93800880998E+01 -0.17274682241E+03  0.17945759321E+03  0.41800000000E+01 0.  1.
         -5    1    3    3    0  502 -0.43872015315E+02 -0.38256481289E+02 -0.46440701537E+02  0.74582325303E+02  0.41800000000E+01 0.  1.
        -11    1    1    2    0    0 -0.39408898084E+02  0.41969094726E+02 -0.29176976900E+02  0.64542715633E+02  0.00000000000E+00 0.  1.
         11    1    1    2    0    0  0.35761394727E+02 -0.13092701536E+02 -0.21440594815E+02  0.43703492908E+02  0.00000000000E+00 0. -1.
</event>
<event>
 7    1  0.2619826E-009  0.1282702E+03  0.7561462E-02  0.1230045E+00
          2   -1    0    0  501    0  0.00000000000E+00  0.00000000000E+00  0.42648571114E+02  0.42648571114E+02  0.00000000000E+00 0.  1.
         -2   -1    0    0    0  501 -0.00000000000E+00 -0.00000000000E+00 -0.42385219456E+03  0.42385219456E+03  0.00000000000E+00 0. -1.
         25    2    1    2    0    0  0.37676234065E+02 -0.71847425056E+02 -0.20890193953E+03  0.25664313858E+03  0.12507649315E+03 0.  0.
          5    1    3    3  502    0  0.57504478764E+02  0.11986186045E+02 -0.11461988911E+03  0.12886281509E+03  0.41800000000E+01 0.  1.
         -5    1    3    3    0  502 -0.19828244699E+02 -0.83833611101E+02 -0.94282050424E+02  0.12778032349E+03  0.41800000000E+01 0.  1.
        -11    1    1    2    0    0 -0.60199806114E+02  0.63184463699E+02 -0.95573889588E+02  0.12942434655E+03  0.00000000000E+00 0.  1.
         11    1    1    2    0    0  0.22523572049E+02  0.86629613577E+01 -0.76727794328E+02  0.80433280548E+02  0.00000000000E+00 0. -1.
</event>
<event>
 7    1  0.2619826E-009  0.9821700E+02  0.7561462E-02  0.1284091E+00
         -2   -1    0    0    0  501 -0.00000000000E+00  0.00000000000E+00  0.57657152097E+02  0.57657152097E+02  0.00000000000E+00 0.  1.
          2   -1    0    0  501    0  0.00000000000E+00 -0.00000000000E+00 -0.27786329435E+03  0.27786329435E+03  0.00000000000E+00 0. -1.
         25    2    1    2    0    0  0.81665853598E+01 -0.33726565850E+02 -0.19243258645E+03  0.23212625621E+03  0.12509246234E+03 0.  0.
          5    1    3    3  502    0  0.62944056641E+02 -0.37211949603E+02 -0.91957134742E+02  0.11755964652E+03  0.41800000000E+01 0.  1.
         -5    1    3    3    0  502 -0.54777471281E+02  0.34853837531E+01 -0.10047545171E+03  0.11456660969E+03  0.41800000000E+01 0.  1.
        -11    1    1    2    0    0  0.16954182829E+02 -0.85358864689E+01  0.24920270942E+02  0.31326116533E+02  0.00000000000E+00 0.  1.
         11    1    1    2    0    0 -0.25120768189E+02  0.42262452319E+02 -0.52693826739E+02  0.72068073700E+02  0.00000000000E+00 0. -1.
</event>
<event>
 7    1  0.2619826E-009  0.1003973E+03  0.7561462E-02  0.1279463E+00
          4   -1    0    0  501    0  0.00000000000E+00  0.00000000000E+00  0.26961234513E+03  0.26961234513E+03  0.00000000000E+00 0. -1.
         -4   -1    0    0    0  501 -0.00000000000E+00 -0.00000000000E+00 -0.54931983084E+02  0.54931983084E+02  0.00000000000E+00 0.  1.
         25    2    1    2    0    0  0.23415363642E+02 -0.16440054066E+01  0.18473001352E+03  0.22432916250E+03  0.12508962084E+03 0.  0.
          5    1    3    3  502    0 -0.30454739815E+02 -0.32564144265E+02  0.21589093396E+02  0.49713941933E+02  0.41800000000E+01 0.  1.
         -5    1    3    3    0  502  0.53870103456E+02  0.30920138858E+02  0.16314092012E+03  0.17461522056E+03  0.41800000000E+01 0.  1.
        -11    1    1    2    0    0  0.47479455254E+01  0.43254352421E+02  0.23792228126E+02  0.49593871691E+02  0.00000000000E+00 0.  1.
         11    1    1    2    0    0 -0.28163309167E+02 -0.41610347015E+02  0.61581203980E+01  0.50621294025E+02  0.00000000000E+00 0. -1.
</event>
<event>
 7    1  0.2619826E-009  0.1151769E+03  0.7561462E-02  0.1251273E+00
         -3   -1    0    0    0  501 -0.00000000000E+00  0.00000000000E+00  0.80699690736E+03  0.80699690736E+03  0.00000000000E+00 0.  1.
          3   -1    0    0  501    0  0.00000000000E+00 -0.00000000000E+00 -0.23745202352E+02  0.23745202352E+02  0.00000000000E+00 0. -1.
         25    2    1    2    0    0  0.67238264198E+02 -0.52422501952E+02  0.39757372615E+03  0.42542183687E+03  0.12509903549E+03 0.  0.
          5    1    3    3  502    0  0.56141800828E+02 -0.38279686889E+01  0.35581603829E+03  0.36026251630E+03  0.41800000000E+01 0.  1.
         -5    1    3    3    0  502  0.11096463370E+02 -0.48594533263E+02  0.41757687857E+02  0.65159320573E+02  0.41800000000E+01 0.  1.
        -11    1    1    2    0    0 -0.89750888688E+02  0.42455391499E+02  0.32533775915E+03  0.34015046643E+03  0.00000000000E+00 0.  1.
         11    1    1    2    0    0  0.22512624490E+02  0.99671104535E+01  0.60340219711E+02  0.65169806406E+02  0.00000000000E+00 0. -1.
</event>
<event>
 7    1  0.3640217E-009  0.1022933E+03  0.7561462E-02  0.1275546E+00
          1   -1    0    0  501    0  0.00000000000E+00  0.00000000000E+00  0.92455137575E+03  0.92455137575E+03  0.00000000000E+00 0. -1.
         -1   -1    0    0    0  501 -0.00000000000E+00 -0.00000000000E+00 -0.22059910658E+02  0.22059910658E+02  0.00000000000E+00 0.  1.
         25    2    1    2    0    0 -0.45644576135E+02 -0.36865438064E+02  0.72918448592E+03  0.74215913817E+03  0.12509070313E+03 0.  0.
          5    1    3    3  502    0 -0.81722809490E+02  0.28316675467E+01  0.36875921297E+03  0.37773994425E+03  0.41800000000E+01 0. -1.
         -5    1    3    3    0  502  0.36078233355E+02 -0.39697105610E+02  0.36042527295E+03  0.36441919392E+03  0.41800000000E+01 0. -1.
        -11    1    1    2    0    0  0.14387409824E+02 -0.62195035758E+01 -0.64726588038E+01  0.16958039338E+02  0.00000000000E+00 0.  1.
         11    1    1    2    0    0  0.31257166311E+02  0.43084941640E+02  0.17977963797E+03  0.18749410890E+03  0.00000000000E+00 0. -1.
</event>
<event>
 7    1  0.2619826E-009  0.1141059E+03  0.7561462E-02  0.1253150E+00
         -2   -1    0    0    0  501 -0.00000000000E+00  0.00000000000E+00  0.42515498879E+02  0.42515498879E+02  0.00000000000E+00 0.  1.
          2   -1    0    0  501    0  0.00000000000E+00 -0.00000000000E+00 -0.43570595663E+03  0.43570595663E+03  0.00000000000E+00 0. -1.
         25    2    1    2    0    0 -0.28943819497E+02 -0.26007779580E+02 -0.34333205962E+03  0.36747695583E+03  0.12509300787E+03 0.  0.
          5    1    3    3  502    0 -0.77419341599E+02 -0.89346158396E+01 -0.23219815675E+03  0.24496334055E+03  0.41800000000E+01 0. -1.
         -5    1    3    3    0  502  0.48475522102E+02 -0.17073163740E+02 -0.11113390287E+03  0.12251361529E+03  0.41800000000E+01 0. -1.
        -11    1    1    2    0    0 -0.13115560226E+02  0.48961330609E+02 -0.29814742248E+02  0.58806025800E+02  0.00000000000E+00 0. -1.
         11    1    1    2    0    0  0.42059379724E+02 -0.22953551030E+02 -0.20043655885E+02  0.51938473879E+02  0.00000000000E+00 0.  1.
</event>
<event>
 7    1  0.2619826E-009  0.1699454E+03  0.7561462E-02  0.1177905E+00
         -2   -1    0    0    0  501 -0.00000000000E+00  0.00000000000E+00  0.47812972480E+02  0.47812972480E+02  0.00000000000E+00 0.  1.
          2   -1    0    0  501    0  0.00000000000E+00 -0.00000000000E+00 -0.72860695717E+03  0.72860695717E+03  0.00000000000E+00 0. -1.
         25    2    1    2    0    0  0.12234081109E+03  0.90317001792E+02 -0.39694501063E+03  0.44309668004E+03  0.12507954080E+03 0.  0.
          5    1    3    3  502    0  0.55713642016E+02  0.90948991539E+02 -0.13141130550E+03  0.16929894442E+03  0.41800000000E+01 0. -1.
         -5    1    3    3    0  502  0.66627169072E+02 -0.63198974736E+00 -0.26553370513E+03  0.27379773562E+03  0.41800000000E+01 0. -1.
        -11    1    1    2    0    0 -0.28014225464E+01  0.99693589169E+01 -0.11473063863E+01  0.10418848182E+02  0.00000000000E+00 0.  1.
         11    1    1    2    0    0 -0.11953938854E+03 -0.10028636071E+03 -0.28270166767E+03  0.32290440143E+03  0.00000000000E+00 0. -1.
</event>
<event>
 7    1  0.2619826E-009  0.1305382E+03  0.7561462E-02  0.1226659E+00
         -1   -1    0    0    0  501 -0.00000000000E+00  0.00000000000E+00  0.10093803464E+03  0.10093803464E+03  0.00000000000E+00 0.  1.
          1   -1    0    0  501    0  0.00000000000E+00 -0.00000000000E+00 -0.28171300339E+03  0.28171300339E+03  0.00000000000E+00 0. -1.
         25    2    1    2    0    0 -0.10845346881E+03  0.46303582956E+02 -0.15720895419E+03  0.23295416880E+03  0.12508722075E+03 0.  0.
          5    1    3    3  502    0 -0.50969061281E+02  0.26131332853E+02  0.69092962595E+01  0.57843777015E+02  0.41800000000E+01 0.  1.
         -5    1    3    3    0  502 -0.57484407525E+02  0.20172250103E+02 -0.16411825045E+03  0.17511039179E+03  0.41800000000E+01 0.  1.
        -11    1    1    2    0    0  0.72903983276E+02 -0.69021469013E+02  0.19116446376E+01  0.10041219223E+03  0.00000000000E+00 0.  1.
         11    1    1    2    0    0  0.35549485530E+02  0.22717886057E+02 -0.25477659204E+02  0.49284676999E+02  0.00000000000E+00 0. -1.
</event>
<event>
 7    1  0.2619826E-009  0.1281138E+03  0.7561462E-02  0.1230282E+00
          1   -1    0    0  501    0  0.00000000000E+00  0.00000000000E+00  0.18314217025E+03  0.18314217025E+03  0.00000000000E+00 0. -1.
         -1   -1    0    0    0  501 -0.00000000000E+00 -0.00000000000E+00 -0.22491951559E+03  0.22491951559E+03  0.00000000000E+00 0.  1.
         25    2    1    2    0    0  0.84588567637E+02 -0.50794261564E+01 -0.17135350008E+03  0.22845213482E+03  0.12508928639E+03 0.  0.
          5    1    3    3  502    0  0.14273499689E+02  0.51866664858E+02 -0.98097957470E+02  0.11195787322E+03  0.41800000000E+01 0. -1.
         -5    1    3    3    0  502  0.70315067949E+02 -0.56946091014E+02 -0.73255542606E+02  0.11649426160E+03  0.41800000000E+01 0. -1.
        -11    1    1    2    0    0 -0.15863053789E+02  0.33698475129E+02  0.85089555627E+02  0.92884100784E+02  0.00000000000E+00 0.  1.
         11    1    1    2    0    0 -0.68725513848E+02 -0.28619048972E+02  0.44486599113E+02  0.86725450235E+02  0.00000000000E+00 0. -1.
</event>
<event>
 7    1  0.2619826E-009  0.1429066E+03  0.7561462E-02  0.1209471E+00
          1   -1    0    0  501    0  0.00000000000E+00  0.00000000000E+00  0.56796299559E+03  0.56796299559E+03  0.00000000000E+00 0. -1.
         -1   -1    0    0    0  501 -0.00000000000E+00 -0.00000000000E+00 -0.45139069290E+02  0.45139069290E+02  0.00000000000E+00 0.  1.
         25    2    1    2    0    0 -0.98225008322E+02  0.43544030413E+02  0.37054465780E+03  0.40558023277E+03  0.12509095468E+03 0.  0.
          5    1    3    3  502    0  0.15592946917E+02 -0.24352942405E+02  0.10171150749E+03  0.10582489760E+03  0.41800000000E+01 0. -1.
         -5    1    3    3    0  502 -0.11381795524E+03  0.67896972818E+02  0.26883315032E+03  0.29975533517E+03  0.41800000000E+01 0. -1.
        -11    1    1    2    0    0  0.79321528070E+02 -0.31316847806E+01  0.44804353122E+02  0.91154497002E+02  0.00000000000E+00 0.  1.
         11    1    1    2    0    0  0.18903480251E+02 -0.40412345633E+02  0.10747491538E+03  0.11636733511E+03  0.00000000000E+00 0. -1.
</event>
<event>
 7    1  0.2619826E-009  0.1026635E+03  0.7561462E-02  0.1274793E+00
         -1   -1    0    0    0  501 -0.00000000000E+00  0.00000000000E+00  0.35655860929E+02  0.35655860929E+02  0.00000000000E+00 0.  1.
          1   -1    0    0  501    0  0.00000000000E+00 -0.00000000000E+00 -0.53674517320E+03  0.53674517320E+03  0.00000000000E+00 0. -1.
         25    2    1    2    0    0 -0.71276577297E+02 -0.48095289804E+02 -0.25221035180E+03  0.29436425009E+03  0.12508694097E+03 0.  0.
          5    1    3    3  502    0  0.98474013237E+01 -0.42176398122E+00  0.10672817906E+02  0.15117229896E+02  0.41800000000E+01 0.  1.
         -5    1    3    3    0  502 -0.81123978621E+02 -0.47673525823E+02 -0.26288316971E+03  0.27924702020E+03  0.41800000000E+01 0.  1.
        -11    1    1    2    0    0  0.10272085384E+02  0.37036216588E+02 -0.18525773575E+03  0.18920260499E+03  0.00000000000E+00 0. -1.
         11    1    1    2    0    0  0.61004491913E+02  0.11059073216E+02 -0.63621224718E+02  0.88834179056E+02  0.00000000000E+00 0.  1.
</event>
<event>
 7    1  0.2650419E-009  0.1106126E+03  0.7561462E-02  0.1259440E+00
          1   -1    0    0  501    0  0.00000000000E+00  0.00000000000E+00  0.11623792166E+03  0.11623792166E+03  0.00000000000E+00 0. -1.
         -1   -1    0    0    0  501 -0.00000000000E+00 -0.00000000000E+00 -0.20749181070E+03  0.20749181070E+03  0.00000000000E+00 0.  1.
         25    2    1    2    0    0 -0.37804476362E+02 -0.21374435633E+02 -0.15555542848E+03  0.20428256568E+03  0.12509128819E+03 0.  0.
          5    1    3    3  502    0  0.36040190669E+01  0.49704634340E+02 -0.61154194047E+02  0.78999034664E+02  0.41800000000E+01 0. -1.
         -5    1    3    3    0  502 -0.41408495429E+02 -0.71079069973E+02 -0.94401234431E+02  0.12528353102E+03  0.41800000000E+01 0. -1.
        -11    1    1    2    0    0 -0.16872600963E+02  0.29090032288E+02  0.53485260071E+02  0.63179013024E+02  0.00000000000E+00 0. -1.
         11    1    1    2    0    0  0.54677077325E+02 -0.77155966547E+01  0.10816279366E+02  0.56268153656E+02  0.00000000000E+00 0.  1.
</event>
<event>
 7    1  0.2619826E-009  0.8014616E+02  0.7561462E-02  0.1328637E+00
         -1   -1    0    0    0  501 -0.00000000000E+00  0.00000000000E+00  0.10730438787E+03  0.10730438787E+03  0.00000000000E+00 0.  1.
          1   -1    0    0  501    0  0.00000000000E+00 -0.00000000000E+00 -0.14073078361E+03  0.14073078361E+03  0.00000000000E+00 0. -1.
         25    2    1    2    0    0  0.47608205960E+02 -0.26201651166E+02 -0.41936299541E+01  0.13645352972E+03  0.12509560920E+03 0.  0.
          5    1    3    3  502    0  0.19515683316E+01  0.89748641915E+01 -0.57172462657E+02  0.58056177040E+02  0.41800000000E+01 0. -1.
         -5    1    3    3    0  502  0.45656637628E+02 -0.35176515357E+02  0.52978832703E+02  0.78397352677E+02  0.41800000000E+01 0. -1.
        -11    1    1    2    0    0  0.18610584664E+02 -0.49146802870E+01  0.16454787281E+02  0.25323269306E+02  0.00000000000E+00 0.  1.
         11    1    1    2    0    0 -0.66218790624E+02  0.31116331453E+02 -0.45687553068E+02  0.86258372464E+02  0.00000000000E+00 0. -1.
</event>
<event>
 7    1  0.2619826E-009  0.1014466E+03  0.7561462E-02  0.1277283E+00
         -2   -1    0    0    0  501 -0.00000000000E+00  0.00000000000E+00  0.46144928171E+02  0.46144928171E+02  0.00000000000E+00 0.  1.
          2   -1    0    0  501    0  0.00000000000E+00 -0.00000000000E+00 -0.33215338567E+03  0.33215338567E+03  0.00000000000E+00 0. -1.
         25    2    1    2    0    0  0.36310096871E+00 -0.12151893806E+02 -0.25006566119E+03  0.27986618795E+03  0.12507776734E+03 0.  0.
          5    1    3    3  502    0  0.59531143526E+02 -0.25328310050E+02 -0.13393014885E+03  0.14879595932E+03  0.41800000000E+01 0.  1.
         -5    1    3    3    0  502 -0.59168042558E+02  0.13176416244E+02 -0.11613551234E+03  0.13107022863E+03  0.41800000000E+01 0.  1.
        -11    1    1    2    0    0  0.29231062266E+02 -0.18580585518E+02 -0.42970745187E+02  0.55192192395E+02  0.00000000000E+00 0. -1.
         11    1    1    2    0    0 -0.29594163235E+02  0.30732479324E+02  0.70279488850E+01  0.43239933493E+02  0.00000000000E+00 0.  1.
</event>
<event>
 7    1  0.2619826E-009  0.1204313E+03  0.7561462E-02  0.1242387E+00
          2   -1    0    0  501    0  0.00000000000E+00  0.00000000000E+00  0.40572841320E+02  0.40572841320E+02  0.00000000000E+00 0. -1.
         -2   -1    0    0    0  501 -0.00000000000E+00 -0.00000000000E+00 -0.62966305450E+03  0.62966305450E+03  0.00000000000E+00 0.  1.
         25    2    1    2    0    0 -0.39635921477E+02 -0.84611411810E+02 -0.46155633118E+03  0.48724997090E+03  0.12509272565E+03 0.  0.
          5    1    3    3  502    0  0.68263746002E+01  0.70187577512E+01  0.33096062455E+01  0.11148463753E+02  0.41800000000E+01 0. -1.
         -5    1    3    3    0  502 -0.46462296077E+02 -0.91630169561E+02 -0.46486593742E+03  0.47610150715E+03  0.41800000000E+01 0. -1.
        -11    1    1    2    0    0  0.67308118519E+02  0.55601465549E+02 -0.10650432687E+03  0.13771375179E+03  0.00000000000E+00 0.  1.
         11    1    1    2    0    0 -0.27672197043E+02  0.29009946260E+02 -0.21029555136E+02  0.45272173136E+02  0.00000000000E+00 0. -1.
</event>
<event>
 7    1  0.2619826E-009  0.2719965E+03  0.7561462E-02  0.1100142E+00
         -1   -1    0    0    0  501 -0.00000000000E+00  0.00000000000E+00  0.90484288035E+02  0.90484288035E+02  0.00000000000E+00 0.  1.
          1   -1    0    0  501    0  0.00000000000E+00 -0.00000000000E+00 -0.11151214004E+04  0.11151214004E+04  0.00000000000E+00 0. -1.
         25    2    1    2    0    0 -0.26921622724E+03  0.21794584730E+02 -0.28157871200E+03  0.40973957513E+03  0.12509023720E+03 0.  0.
          5    1    3    3  502    0 -0.18539972043E+03  0.30843869746E+02 -0.26305095937E+03  0.32332287309E+03  0.41800000000E+01 0. -1.
         -5    1    3    3    0  502 -0.83816506816E+02 -0.90492850162E+01 -0.18527752625E+02  0.86416702040E+02  0.41800000000E+01 0. -1.
        -11    1    1    2    0    0  0.79467640558E+02  0.65518920132E+01 -0.34350487163E+03  0.35263810063E+03  0.00000000000E+00 0.  1.
         11    1    1    2    0    0  0.18974858669E+03 -0.28346476743E+02 -0.39955352877E+03  0.44322801270E+03  0.00000000000E+00 0. -1.
</event>
<event>
 7    1  0.2619826E-009  0.1201172E+03  0.7561462E-02  0.1242904E+00
          1   -1    0    0  501    0  0.00000000000E+00  0.00000000000E+00  0.10682787717E+03  0.10682787717E+03  0.00000000000E+00 0. -1.
         -1   -1    0    0    0  501 -0.00000000000E+00 -0.00000000000E+00 -0.19480837887E+03  0.19480837887E+03  0.00000000000E+00 0.  1.
         25    2    1    2    0    0 -0.67815110690E+01  0.78748859793E+02  0.76565503896E+01  0.14816288290E+03  0.12508495232E+03 0.  0.
          5    1    3    3  502    0 -0.65471007366E+02  0.33835909547E+02  0.69038659697E+01  0.74138096453E+02  0.41800000000E+01 0. -1.
         -5    1    3    3    0  502  0.58689496297E+02  0.44912950246E+02  0.75268441984E+00  0.74024786452E+02  0.41800000000E+01 0. -1.
        -11    1    1    2    0    0  0.25082034319E+02 -0.24170549516E+02 -0.88943156781E+02  0.95520725749E+02  0.00000000000E+00 0.  1.
         11    1    1    2    0    0 -0.18300523250E+02 -0.54578310277E+02 -0.66938953120E+01  0.57952647380E+02  0.00000000000E+00 0. -1.
</event>
<event>
 6    1  0.2619826E-009  0.1544834E+03  0.7561462E-02  0.1195070E+00
         -1   -1    0    0    0  501 -0.00000000000E+00  0.00000000000E+00  0.10289053922E+04  0.10289053922E+04  0.00000000000E+00 0.  1.
          1   -1    0    0  501    0  0.00000000000E+00 -0.00000000000E+00 -0.32636682337E+02  0.32636682337E+02  0.00000000000E+00 0. -1.
          5    1    1    2  502    0 -0.25795281327E+02 -0.10751225220E+03  0.51072994780E+03  0.52257710713E+03  0.41800000000E+01 0.  1.
         -5    1    1    2    0  502 -0.41107217827E+02 -0.22645961714E+02  0.43398952992E+02  0.64059226191E+02  0.41800000000E+01 0.  1.
        -11    1    1    2    0    0  0.58299188524E+02  0.73088768618E+02  0.14726167278E+03  0.17443269118E+03  0.00000000000E+00 0. -1.
         11    1    1    2    0    0  0.86033106298E+01  0.57069445300E+02  0.29487813629E+03  0.30047305005E+03  0.00000000000E+00 0.  1.
</event>
<event>
 7    1  0.2619826E-009  0.1342617E+03  0.7561462E-02  0.1221266E+00
         -3   -1    0    0    0  501 -0.00000000000E+00  0.00000000000E+00  0.30783354669E+03  0.30783354669E+03  0.00000000000E+00 0.  1.
          3   -1    0    0  501    0  0.00000000000E+00 -0.00000000000E+00 -0.75783709323E+02  0.75783709323E+02  0.00000000000E+00 0. -1.
         25    2    1    2    0    0  0.65170000693E+02 -0.66528100788E+02  0.58160241387E+02  0.16648525365E+03  0.12514634960E+03 0.  0.
          5    1    3    3  502    0  0.53695105308E+02  0.23813262089E+02  0.45562845969E+02  0.74455900492E+02  0.41800000000E+01 0. -1.
         -5    1    3    3    0  502  0.11474895385E+02 -0.90341362877E+02  0.12597395418E+02  0.92029353154E+02  0.41800000000E+01 0. -1.
        -11    1    1    2    0    0 -0.47932926625E+02 -0.18372763092E+01  0.11728864625E+03  0.12671845793E+03  0.00000000000E+00 0.  1.
         11    1    1    2    0    0 -0.17237074067E+02  0.68365377097E+02  0.56600949724E+02  0.90413544437E+02  0.00000000000E+00 0. -1.
</event>
<event>
 7    1  0.2619826E-009  0.1062134E+03  0.7561462E-02  0.1267747E+00
          1   -1    0    0  501    0  0.00000000000E+00  0.00000000000E+00  0.33892273153E+03  0.33892273153E+03  0.00000000000E+00 0. -1.
         -1   -1    0    0    0  501 -0.00000000000E+00 -0.00000000000E+00 -0.38026262301E+02  0.38026262301E+02  0.00000000000E+00 0.  1.
         25    2    1    2    0    0  0.22750536326E+02  0.91271979829E+01  0.20927271359E+03  0.24503739508E+03  0.12508942278E+03 0.  0.
          5    1    3    3  502    0  0.72298617928E+02  0.23675900480E+01  0.89340004581E+02  0.11502958078E+03  0.41800000000E+01 0.  1.
         -5    1    3    3    0  502 -0.49548081602E+02  0.67596079350E+01  0.11993270900E+03  0.13000781430E+03  0.41800000000E+01 0.  1.
        -11    1    1    2    0    0 -0.54135954772E+02 -0.18205605869E+02  0.36342540361E+02  0.67697311054E+02  0.00000000000E+00 0.  1.
         11    1    1    2    0    0  0.31385418446E+02  0.90784078860E+01  0.55281215287E+02  0.64214287697E+02  0.00000000000E+00 0. -1.
</event>
<event>
 7    1  0.2619826E-009  0.1446960E+03  0.7561462E-02  0.1207146E+00
          1   -1    0    0  501    0  0.00000000000E+00  0.00000000000E+00  0.16696486873E+03  0.16696486873E+03  0.00000000000E+00 0. -1.
         -1   -1    0    0    0  501 -0.00000000000E+00 -0.00000000000E+00 -0.15571704482E+03  0.15571704482E+03  0.00000000000E+00 0.  1.
         25    2    1    2    0    0  0.10395141613E+03 -0.46657029671E+02 -0.31138094503E+02  0.17204667262E+03  0.12509077223E+03 0.  0.
          5    1    3    3  502    0 -0.25341101121E+02 -0.14934276178E+02 -0.24804500491E+02  0.38703225390E+02  0.41800000000E+01 0. -1.
         -5    1    3    3    0  502  0.12929251725E+03 -0.31722753494E+02 -0.63335940125E+01  0.13334344723E+03  0.41800000000E+01 0. -1.
        -11    1    1    2    0    0 -0.37271926480E+02 -0.10437516992E+02 -0.19392644984E+02  0.43292181095E+02  0.00000000000E+00 0.  1.
         11    1    1    2    0    0 -0.66679489649E+02  0.57094546664E+02  0.61778563396E+02  0.10734305983E+03  0.00000000000E+00 0. -1.
</event>
<event>
 7    1  0.2619826E-009  0.1035080E+03  0.7561462E-02  0.1273087E+00
          2   -1    0    0  501    0  0.00000000000E+00  0.00000000000E+00  0.10051251678E+04  0.10051251678E+04  0.00000000000E+00 0. -1.
         -2   -1    0    0    0  501 -0.00000000000E+00 -0.00000000000E+00 -0.23064932885E+02  0.23064932885E+02  0.00000000000E+00 0.  1.
         25    2    1    2    0    0  0.34700446335E+02 -0.26431067020E+02  0.85504024540E+03  0.86524189410E+03  0.12508793617E+03 0.  0.
          5    1    3    3  502    0 -0.91004158972E+01  0.46221161619E+02  0.33145029462E+03  0.33480738277E+03  0.41800000000E+01 0.  1.
         -5    1    3    3    0  502  0.43800862233E+02 -0.72652228639E+02  0.52358995078E+03  0.53043451134E+03  0.41800000000E+01 0.  1.
        -11    1    1    2    0    0  0.14428039001E+02  0.20829432897E+02 -0.13600715524E+01  0.25374857219E+02  0.00000000000E+00 0.  1.
         11    1    1    2    0    0 -0.49128485337E+02  0.56016341230E+01  0.12838006110E+03  0.13757334940E+03  0.00000000000E+00 0. -1.
</event>
<event>
 7    1  0.2619826E-009  0.1718066E+03  0.7561462E-02  0.1175977E+00
         -2   -1    0    0    0  501 -0.00000000000E+00  0.00000000000E+00  0.57166465373E+02  0.57166465373E+02  0.00000000000E+00 0.  1.
          2   -1    0    0  501    0  0.00000000000E+00 -0.00000000000E+00 -0.73472972797E+03  0.73472972797E+03  0.00000000000E+00 0. -1.
         25    2    1    2    0    0 -0.66393839487E+02 -0.14033717848E+03 -0.50036453954E+03  0.53862290833E+03  0.12508916562E+03 0.  0.
          5    1    3    3  502    0 -0.59642170326E+02 -0.15320414637E+02 -0.26395917457E+03  0.27107899554E+03  0.41800000000E+01 0. -1.
         -5    1    3    3    0  502 -0.67516691610E+01 -0.12501676385E+03 -0.23640536498E+03  0.26754391279E+03  0.41800000000E+01 0. -1.
        -11    1    1    2    0    0  0.20121037330E+02  0.23380017595E+02  0.56320984700E+01  0.31356050439E+02  0.00000000000E+00 0.  1.
         11    1    1    2    0    0  0.46272802157E+02  0.11695716089E+03 -0.18283082152E+03  0.22191723457E+03  0.00000000000E+00 0. -1.
</event>
<event>
 7    1  0.2619826E-009  0.7845764E+02  0.7561462E-02  0.1333486E+00
          2   -1    0    0  501    0  0.00000000000E+00  0.00000000000E+00  0.11336361747E+03  0.11336361747E+03  0.00000000000E+00 0.  1.
         -2   -1    0    0    0  501 -0.00000000000E+00 -0.00000000000E+00 -0.19065694984E+03  0.19065694984E+03  0.00000000000E+00 0. -1.
         25    2    1    2    0    0  0.31374019941E+01 -0.50488351370E+01 -0.14466492222E+03  0.19133759829E+03  0.12508718068E+03 0.  0.
          5    1    3    3  502    0 -0.19374857474E+02 -0.49003255385E+02 -0.12891984763E+03  0.13933593812E+03  0.41800000000E+01 0. -1.
         -5    1    3    3    0  502  0.22512259468E+02  0.43954420248E+02 -0.15745074591E+02  0.52001660162E+02  0.41800000000E+01 0. -1.
        -11    1    1    2    0    0 -0.89655593083E+01  0.28735380077E+02  0.79812701721E+02  0.85300472906E+02  0.00000000000E+00 0.  1.
         11    1    1    2    0    0  0.58281573142E+01 -0.23686544940E+02 -0.12441111872E+02  0.27382496115E+02  0.00000000000E+00 0. -1.
</event>
<event>
 7    1  0.2619826E-009  0.1699546E+03  0.7561462E-02  0.1177895E+00
         -3   -1    0    0    0  501 -0.00000000000E+00  0.00000000000E+00  0.36152283965E+03  0.36152283965E+03  0.00000000000E+00 0.  1.
          3   -1    0    0  501    0  0.00000000000E+00 -0.00000000000E+00 -0.10332511267E+03  0.10332511267E+03  0.00000000000E+00 0. -1.
         25    2    1    2    0    0  0.13367446025E+03  0.87213018239E+02  0.12737218275E+03  0.23947169719E+03  0.12509216180E+03 0.  0.
          5    1    3    3  502    0  0.64779966277E+02  0.26261749663E+02  0.12966081648E+03  0.14736187857E+03  0.41800000000E+01 0. -1.
         -5    1    3    3    0  502  0.68894493974E+02  0.60951268576E+02 -0.22886337334E+01  0.92109818615E+02  0.41800000000E+01 0. -1.
        -11    1    1    2    0    0 -0.97140866199E+02 -0.99694444502E+02  0.76807729430E+02  0.15898036813E+03  0.00000000000E+00 0. -1.
         11    1    1    2    0    0 -0.36533594052E+02  0.12481426263E+02  0.54017814798E+02  0.66395887007E+02  0.00000000000E+00 0.  1.
</event>
<event>
 7    1  0.2619826E-009  0.1854639E+03  0.7561462E-02  0.1162617E+00
         -2   -1    0    0    0  501 -0.00000000000E+00  0.00000000000E+00  0.37463564125E+03  0.37463564125E+03  0.00000000000E+00 0.  1.
          2   -1    0    0  501    0  0.00000000000E+00 -0.00000000000E+00 -0.11341550164E+03  0.11341550164E+03  0.00000000000E+00 0. -1.
         25    2    1    2    0    0 -0.51950727870E+02 -0.14179673182E+03  0.31284048113E+02  0.19857334647E+03  0.12508993157E+03 0.  0.
          5    1    3    3  502    0 -0.45248532283E+02  0.71160748081E+01  0.15873423847E+02  0.48657025999E+02  0.41800000000E+01 0.  1.
         -5    1    3    3    0  502 -0.67021955868E+01 -0.14891280663E+03  0.15410624266E+02  0.14991632047E+03  0.41800000000E+01 0.  1.
        -11    1    1    2    0    0  0.62004406926E+00  0.12006928358E+03  0.15381684510E+03  0.19513236315E+03  0.00000000000E+00 0. -1.
         11    1    1    2    0    0  0.51330683800E+02  0.21727448239E+02  0.76119246395E+02  0.94345433266E+02  0.00000000000E+00 0.  1.
</event>
<event>
 6    1  0.2619826E-009  0.1275167E+03  0.7561462E-02  0.1231188E+00
          2   -1    0    0  501    0  0.00000000000E+00  0.00000000000E+00  0.18504301043E+03  0.18504301043E+03  0.00000000000E+00 0. -1.
         -2   -1    0    0    0  501 -0.00000000000E+00 -0.00000000000E+00 -0.13678739137E+03  0.13678739137E+03  0.00000000000E+00 0.  1.
          5    1    1    2  502    0  0.11785950015E+02  0.39483906524E+02  0.41980519412E+02  0.58972229924E+02  0.41800000000E+01 0. -1.
         -5    1    1    2    0  502 -0.56108595475E+02  0.52478303642E+02 -0.71888791658E+02  0.10529775689E+03  0.41800000000E+01 0. -1.
        -11    1    1    2    0    0  0.55832132969E+02 -0.13586897260E+02  0.36234798193E+02  0.67932256323E+02  0.00000000000E+00 0. -1.
         11    1    1    2    0    0 -0.11509487509E+02 -0.78375312905E+02  0.41929093123E+02  0.89628158666E+02  0.00000000000E+00 0.  1.
</event>
<event>
 7    1  0.2619826E-009  0.2360351E+03  0.7561462E-02  0.1122463E+00
         -2   -1    0    0    0  501 -0.00000000000E+00  0.00000000000E+00  0.65443641089E+02  0.65443641089E+02  0.00000000000E+00 0.  1.
          2   -1    0    0  501    0  0.00000000000E+00 -0.00000000000E+00 -0.10524294717E+04  0.10524294717E+04  0.00000000000E+00 0. -1.
         25    2    1    2    0    0 -0.98020247963E+02  0.19777961882E+03 -0.31280967681E+03  0.40276978863E+03  0.12509541196E+03 0.  0.
          5    1    3    3  502    0 -0.73984484700E+02  0.19734688555E+03 -0.21168591065E+03  0.29874386082E+03  0.41800000000E+01 0. -1.
         -5    1    3    3    0  502 -0.24035763263E+02  0.43273327694E+00 -0.10112376616E+03  0.10402592781E+03  0.41800000000E+01 0. -1.
        -11    1    1    2    0    0  0.87819502042E+02 -0.20589011055E+03 -0.61389257041E+03  0.65342718842E+03  0.00000000000E+00 0.  1.
         11    1    1    2    0    0  0.10200745920E+02  0.81104917257E+01 -0.60283583390E+02  0.61676135739E+02  0.00000000000E+00 0. -1.
</event>
<event>
 7    1  0.2619826E-009  0.1430919E+03  0.7561462E-02  0.1209228E+00
          1   -1    0    0  501    0  0.00000000000E+00  0.00000000000E+00  0.40284344116E+02  0.40284344116E+02  0.00000000000E+00 0. -1.
         -1   -1    0    0    0  501 -0.00000000000E+00 -0.00000000000E+00 -0.89671778301E+03  0.89671778301E+03  0.00000000000E+00 0.  1.
         25    2    1    2    0    0  0.79981149359E+02  0.10530314613E+03 -0.24697233706E+03  0.30680307231E+03  0.12508818119E+03 0.  0.
          5    1    3    3  502    0  0.33686386707E+02  0.40302997050E+02 -0.61285671077E+01  0.53048430282E+02  0.41800000000E+01 0.  1.
         -5    1    3    3    0  502  0.46294762652E+02  0.65000149081E+02 -0.24084376995E+03  0.25375464203E+03  0.41800000000E+01 0.  1.
        -11    1    1    2    0    0  0.14518734589E+02 -0.27801116427E+02 -0.64758830978E+02  0.71954165399E+02  0.00000000000E+00 0. -1.
         11    1    1    2    0    0 -0.94499883949E+02 -0.77502029704E+02 -0.54470227086E+03  0.55824488941E+03  0.00000000000E+00 0.  1.
</event>
<event>
 7    1  0.2619826E-009  0.9149585E+02  0.7561462E-02  0.1299269E+00
         -1   -1    0    0    0  501 -0.00000000000E+00  0.00000000000E+00  0.28595398783E+02  0.28595398783E+02  0.00000000000E+00 0.  1.
          1   -1    0    0  501    0  0.00000000000E+00 -0.00000000000E+00 -0.64103839683E+03  0.64103839683E+03  0.00000000000E+00 0. -1.
         25    2    1    2    0    0 -0.43135888268E+02 -0.67385926055E+02 -0.33238698297E+03  0.36405283272E+03  0.12510711681E+03 0.  0.
          5    1    3    3  502    0 -0.71084352820E+01 -0.40851381443E+02 -0.31188632188E+03  0.31465841065E+03  0.41800000000E+01 0. -1.
         -5    1    3    3    0  502 -0.36027452986E+02 -0.26534544612E+02 -0.20500661093E+02  0.49394422070E+02  0.41800000000E+01 0. -1.
        -11    1    1    2    0    0 -0.12281444406E+02  0.59728497298E+01 -0.97349813119E-01  0.13657169824E+02  0.00000000000E+00 0.  1.
         11    1    1    2    0    0  0.55417332674E+02  0.61413076326E+02 -0.27995866526E+03  0.29192379307E+03  0.00000000000E+00 0. -1.
</event>
<event>
 7    1  0.2619826E-009  0.1593019E+03  0.7561462E-02  0.1189487E+00
          2   -1    0    0  501    0  0.00000000000E+00  0.00000000000E+00  0.80634754757E+03  0.80634754757E+03  0.00000000000E+00 0. -1.
         -2   -1    0    0    0  501 -0.00000000000E+00 -0.00000000000E+00 -0.32603290548E+02  0.32603290548E+02  0.00000000000E+00 0.  1.
         25    2    1    2    0    0  0.11075938888E+03  0.35643103295E+02  0.48472491501E+03  0.51394882266E+03  0.12508827302E+03 0.  0.
          5    1    3    3  502    0  0.47996267909E+02  0.79773177998E+02  0.29026509681E+03  0.30485849256E+03  0.41800000000E+01 0. -1.
         -5    1    3    3    0  502  0.62763120971E+02 -0.44130074702E+02  0.19445981820E+03  0.20909033010E+03  0.41800000000E+01 0. -1.
        -11    1    1    2    0    0  0.16623300178E+02 -0.68319724157E+01  0.31850542597E+02  0.36571396194E+02  0.00000000000E+00 0.  1.
         11    1    1    2    0    0 -0.12738268906E+03 -0.28811130879E+02  0.25716879941E+03  0.28843061926E+03  0.00000000000E+00 0. -1.
</event>
<event>
 7    1  0.2619826E-009  0.1006274E+03  0.7561462E-02  0.1278982E+00
          3   -1    0    0  501    0  0.00000000000E+00  0.00000000000E+00  0.18580440908E+03  0.18580440908E+03  0.00000000000E+00 0.  1.
         -3   -1    0    0    0  501 -0.00000000000E+00 -0.00000000000E+00 -0.67099019596E+02  0.67099019596E+02  0.00000000000E+00 0. -1.
         25    2    1    2    0    0  0.20394539605E+02 -0.10668456136E+02  0.51052760109E+02  0.13705491419E+03  0.12509161437E+03 0.  0.
          5    1    3    3  502    0 -0.46706039559E+02 -0.29415230852E+02  0.10526880783E+02  0.56347116664E+02  0.41800000000E+01 0.  1.
         -5    1    3    3    0  502  0.67100579163E+02  0.18746774716E+02  0.40525879326E+02  0.80707797526E+02  0.41800000000E+01 0.  1.
        -11    1    1    2    0    0  0.14652973662E+02  0.31916114484E+02  0.66080619001E+02  0.74833122402E+02  0.00000000000E+00 0.  1.
         11    1    1    2    0    0 -0.35047513267E+02 -0.21247658348E+02  0.15720103771E+01  0.41015392087E+02  0.00000000000E+00 0. -1.
</event>
<event>
 7    1  0.2619826E-009  0.1831550E+03  0.7561462E-02  0.1164784E+00
          1   -1    0    0  501    0  0.00000000000E+00  0.00000000000E+00  0.92982098096E+03  0.92982098096E+03  0.00000000000E+00 0. -1.
         -1   -1    0    0    0  501 -0.00000000000E+00 -0.00000000000E+00 -0.45529268931E+02  0.45529268931E+02  0.00000000000E+00 0.  1.
         25    2    1    2    0    0  0.12014992530E+03  0.11599110541E+03  0.58125886398E+03  0.61757630748E+03  0.12509471420E+03 0.  0.
          5    1    3    3  502    0 -0.53225946940E+01  0.55025751509E+02  0.28168058959E+03  0.28708463960E+03  0.41800000000E+01 0.  1.
         -5    1    3    3    0  502  0.12547252000E+03  0.60965353904E+02  0.29957827439E+03  0.33049166788E+03  0.41800000000E+01 0.  1.
        -11    1    1    2    0    0 -0.71223335436E+02 -0.42251915168E+02  0.22511924404E+03  0.23986800929E+03  0.00000000000E+00 0. -1.
         11    1    1    2    0    0 -0.48926589867E+02 -0.73739190246E+02  0.77913604007E+02  0.11790593311E+03  0.00000000000E+00 0.  1.
</event>
<event>
 7    1  0.2619826E-009  0.2769425E+03  0.7561462E-02  0.1097371E+00
          2   -1    0    0  501    0  0.00000000000E+00  0.00000000000E+00  0.81848330370E+03  0.81848330370E+03  0.00000000000E+00 0. -1.
         -2   -1    0    0    0  501 -0.00000000000E+00 -0.00000000000E+00 -0.10982381001E+03  0.10982381001E+03  0.00000000000E+00 0.  1.
         25    2    1    2    0    0 -0.23272669092E+03  0.13904666940E+03  0.26315077048E+03  0.39798449125E+03  0.12509052056E+03 0.  0.
          5    1    3    3  502    0 -0.14576052755E+03  0.12170894727E+03  0.10605945461E+03  0.21754374169E+03  0.41800000000E+01 0.  1.
         -5    1    3    3    0  502 -0.86966163373E+02  0.17337722133E+02  0.15709131587E+03  0.18044074956E+03  0.41800000000E+01 0.  1.
        -11    1    1    2    0    0  0.87299911424E+02 -0.79331391779E+02  0.27032726761E+03  0.29494334349E+03  0.00000000000E+00 0. -1.
         11    1    1    2    0    0  0.14542677950E+03 -0.59715277626E+02  0.17518145560E+03  0.23537927896E+03  0.00000000000E+00 0.  1.
</event>
<event>
 7    1  0.2619826E-009  0.3038837E+03  0.7561462E-02  0.1083315E+00
         -1   -1    0    0    0  501 -0.00000000000E+00  0.00000000000E+00  0.10455718716E+03  0.10455718716E+03  0.00000000000E+00 0.  1.
          1   -1    0    0  501    0  0.00000000000E+00 -0.00000000000E+00 -0.94816688430E+03  0.94816688430E+03  0.00000000000E+00 0. -1.
         25    2    1    2    0    0 -0.28319702267E+03  0.73987040287E+02 -0.36307980843E+03  0.48285444728E+03  0.12508730628E+03 0.  0.
          5    1    3    3  502    0 -0.23995999006E+03  0.22982245648E+02 -0.22683894497E+03  0.33103226398E+03  0.41800000000E+01 0.  1.
         -5    1    3    3    0  502 -0.43237032615E+02  0.51004794638E+02 -0.13624086346E+03  0.15182218330E+03  0.41800000000E+01 0.  1.
        -11    1    1    2    0    0  0.11924953541E+03 -0.64212561884E+02 -0.27699572480E+03  0.30833477967E+03  0.00000000000E+00 0. -1.
         11    1    1    2    0    0  0.16394748727E+03 -0.97744784024E+01 -0.20353416392E+03  0.26153484451E+03  0.00000000000E+00 0.  1.
</event>
<event>
 7    1  0.2619826E-009  0.1295333E+03  0.7561462E-02  0.1228150E+00
          1   -1    0    0  501    0  0.00000000000E+00  0.00000000000E+00  0.72257895455E+03  0.72257895455E+03  0.00000000000E+00 0. -1.
         -1   -1    0    0    0  501 -0.00000000000E+00 -0.00000000000E+00 -0.31094365597E+02  0.31094365597E+02  0.00000000000E+00 0.  1.
         25    2    1    2    0    0 -0.10202088800E+03  0.14162708795E+02  0.35369268913E+03  0.38905459956E+03  0.12512441483E+03 0.  0.
          5    1    3    3  502    0 -0.14969786737E+02 -0.22563809562E+02  0.51111621072E+01  0.27871426138E+02  0.41800000000E+01 0.  1.
         -5    1    3    3    0  502 -0.87051101260E+02  0.36726518357E+02  0.34858152702E+03  0.36118317342E+03  0.41800000000E+01 0.  1.
        -11    1    1    2    0    0  0.94246476731E+02  0.24725844903E+02  0.23148765937E+03  0.25115792288E+03  0.00000000000E+00 0. -1.
         11    1    1    2    0    0  0.77744112658E+01 -0.38888553698E+02  0.10630424045E+03  0.11346079771E+03  0.00000000000E+00 0.  1.
</event>
<event>
 7    1  0.2619826E-009  0.1033241E+03  0.7561462E-02  0.1273457E+00
         -2   -1    0    0    0  501 -0.00000000000E+00  0.00000000000E+00  0.51747000527E+02  0.51747000527E+02  0.00000000000E+00 0.  1.
          2   -1    0    0  501    0  0.00000000000E+00 -0.00000000000E+00 -0.27653122727E+03  0.27653122727E+03  0.00000000000E+00 0. -1.
         25    2    1    2    0    0  0.35511884121E+02 -0.86607780026E+01 -0.81457368958E+02  0.15372558021E+03  0.12514051328E+03 0.  0.
          5    1    3    3  502    0  0.68327762463E+02 -0.30854217981E+02 -0.15498164179E+02  0.76670277053E+02  0.41800000000E+01 0.  1.
         -5    1    3    3    0  502 -0.32815878342E+02  0.22193439979E+02 -0.65959204779E+02  0.77055303157E+02  0.41800000000E+01 0.  1.
        -11    1    1    2    0    0 -0.19197017381E+02  0.46614693411E+02 -0.43762830808E+02  0.66758074256E+02  0.00000000000E+00 0. -1.
         11    1    1    2    0    0 -0.16314866740E+02 -0.37953915408E+02 -0.99564026974E+02  0.10779457333E+03  0.00000000000E+00 0.  1.
</event>
<event>
 7    1  0.2619826E-009  0.1070975E+03  0.7561462E-02  0.1266041E+00
          2   -1    0    0  501    0  0.00000000000E+00  0.00000000000E+00  0.79995897998E+02  0.79995897998E+02  0.00000000000E+00 0. -1.
         -2   -1    0    0    0  501 -0.00000000000E+00 -0.00000000000E+00 -0.18069392372E+03  0.18069392372E+03  0.00000000000E+00 0.  1.
         25    2    1    2    0    0 -0.30147919713E+02 -0.32769964800E+02 -0.78091318184E+02  0.15404052888E+03  0.12508981935E+03 0.  0.
          5    1    3    3  502    0  0.18614638432E+02  0.27847352896E+02  0.11175172847E+02  0.35557512785E+02  0.41800000000E+01 0. -1.
         -5    1    3    3    0  502 -0.48762558145E+02 -0.60617317696E+02 -0.89266491031E+02  0.11848301609E+03  0.41800000000E+01 0. -1.
        -11    1    1    2    0    0 -0.32472875487E+02  0.21389092778E+02 -0.17965038677E+02  0.42833673050E+02  0.00000000000E+00 0.  1.
         11    1    1    2    0    0  0.62620795200E+02  0.11380872023E+02 -0.46416688626E+01  0.63815619791E+02  0.00000000000E+00 0. -1.
</event>
<event>
 7    1  0.2619826E-009  0.1013643E+03  0.7561462E-02  0.1277453E+00
          2   -1    0    0  501    0  0.00000000000E+00  0.00000000000E+00  0.25150408822E+03  0.25150408822E+03  0.00000000000E+00 0. -1.
         -2   -1    0    0    0  501 -0.00000000000E+00 -0.00000000000E+00 -0.47740168124E+02  0.47740168124E+02  0.00000000000E+00 0.  1.
         25    2    1    2    0    0 -0.45141838157E+01 -0.76396815427E+01  0.98719216350E+02  0.15960018093E+03  0.12509193214E+03 0.  0.
          5    1    3    3  502    0  0.37564435793E+01  0.52907529786E+02  0.13926053189E+02  0.54997499342E+02  0.41800000000E+01 0. -1.
         -5    1    3    3    0  502 -0.82706273951E+01 -0.60547211329E+02  0.84793163161E+02  0.10460268159E+03  0.41800000000E+01 0. -1.
        -11    1    1    2    0    0 -0.15878549938E+02 -0.36414541353E+02  0.28078539964E+02  0.48647215507E+02  0.00000000000E+00 0.  1.
         11    1    1    2    0    0  0.20392733754E+02  0.44054222896E+02  0.76966163786E+02  0.90996859907E+02  0.00000000000E+00 0. -1.
</event>
<event>
 7    1  0.2619826E-009  0.1005293E+03  0.7561462E-02  0.1279187E+00
          1   -1    0    0  501    0  0.00000000000E+00  0.00000000000E+00  0.27952961536E+02  0.27952961536E+02  0.00000000000E+00 0. -1.
         -1   -1    0    0    0  501 -0.00000000000E+00 -0.00000000000E+00 -0.97718608588E+03  0.97718608588E+03  0.00000000000E+00 0.  1.
         25    2    1    2    0    0 -0.39639095133E+02  0.62511855235E+02 -0.79526311502E+03  0.80843652382E+03  0.12508877258E+03 0.  0.
          5    1    3    3  502    0 -0.23993037550E+02  0.68234291639E+02 -0.19656211188E+03  0.20948918978E+03  0.41800000000E+01 0.  1.
         -5    1    3    3    0  502 -0.15646057584E+02 -0.57224364040E+01 -0.59870100314E+03  0.59894733404E+03  0.41800000000E+01 0.  1.
        -11    1    1    2    0    0  0.62425192803E+02 -0.62932791620E+02 -0.14900495477E+03  0.17337796141E+03  0.00000000000E+00 0.  1.
         11    1    1    2    0    0 -0.22786097669E+02  0.42093638461E+00 -0.49650545577E+01  0.23324562187E+02  0.00000000000E+00 0. -1.
</event>
<event>
 7    1  0.2619826E-009  0.1016887E+03  0.7561462E-02  0.1276784E+00
         -1   -1    0    0    0  501 -0.00000000000E+00  0.00000000000E+00  0.72811039662E+03  0.72811039662E+03  0.00000000000E+00 0. -1.
          1   -1    0    0  501    0  0.00000000000E+00 -0.00000000000E+00 -0.23655164742E+02  0.23655164742E+02  0.00000000000E+00 0.  1.
         25    2    1    2    0    0  0.27859773577E+02  0.64297738686E+02  0.45883880798E+03  0.48071960965E+03  0.12509166723E+03 0.  0.
          5    1    3    3  502    0  0.21106942137E+02  0.76143410565E+02  0.45967328598E+03  0.46643362253E+03  0.41800000000E+01 0.  1.
         -5    1    3    3    0  502  0.67528314398E+01 -0.11845671879E+02 -0.83447799504E+00  0.14285987129E+02  0.41800000000E+01 0.  1.
        -11    1    1    2    0    0  0.21812067294E+02 -0.55385335686E+02  0.17014288534E+03  0.18025510567E+03  0.00000000000E+00 0.  1.
         11    1    1    2    0    0 -0.49671840870E+02 -0.89124030002E+01  0.75473538560E+02  0.90790846044E+02  0.00000000000E+00 0. -1.
</event>
<event>
 7    1  0.2619826E-009  0.9205712E+02  0.7561462E-02  0.1297945E+00
          2   -1    0    0  501    0  0.00000000000E+00  0.00000000000E+00  0.79756321841E+03  0.79756321841E+03  0.00000000000E+00 0. -1.
         -2   -1    0    0    0  501 -0.00000000000E+00 -0.00000000000E+00 -0.16538475425E+02  0.16538475425E+02  0.00000000000E+00 0.  1.
         25    2    1    2    0    0  0.66638892768E+01  0.60473444161E+00  0.56330644756E+03  0.57706685153E+03  0.12508886499E+03 0.  0.
          5    1    3    3  502    0  0.59578903907E+02  0.17132508353E+02  0.19701549977E+03  0.20658109348E+03  0.41800000000E+01 0. -1.
         -5    1    3    3    0  502 -0.52915014630E+02 -0.16527773911E+02  0.36629094780E+03  0.37048575805E+03  0.41800000000E+01 0. -1.
        -11    1    1    2    0    0  0.23343407244E+02 -0.19930771708E+02  0.21205872652E+02  0.37307363315E+02  0.00000000000E+00 0.  1.
         11    1    1    2    0    0 -0.30007296520E+02  0.19326037266E+02  0.19651242277E+03  0.19972747899E+03  0.00000000000E+00 0. -1.
</event>
<event>
 7    1  0.2619826E-009  0.9385266E+02  0.7561462E-02  0.1293781E+00
          2   -1    0    0  501    0  0.00000000000E+00  0.00000000000E+00  0.33656911370E+03  0.33656911370E+03  0.00000000000E+00 0. -1.
         -2   -1    0    0    0  501 -0.00000000000E+00 -0.00000000000E+00 -0.51439937012E+02  0.51439937012E+02  0.00000000000E+00 0.  1.
         25    2    1    2    0    0 -0.36019390709E+02  0.88249173205E+01  0.25208255511E+03  0.28384572990E+03  0.12509000008E+03 0.  0.
          5    1    3    3  502    0  0.40581448880E+02  0.29267913328E+00  0.15243340931E+03  0.15779846745E+03  0.41800000000E+01 0.  1.
         -5    1    3    3    0  502 -0.76600839589E+02  0.85322381872E+01  0.99649145794E+02  0.12604726245E+03  0.41800000000E+01 0.  1.
        -11    1    1    2    0    0 -0.16567266238E+02 -0.17358356146E+01 -0.22072998648E+02  0.27653294653E+02  0.00000000000E+00 0.  1.
         11    1    1    2    0    0  0.52586656947E+02 -0.70890817059E+01  0.55119620224E+02  0.76510026153E+02  0.00000000000E+00 0. -1.
</event>
<event>
 7    1  0.2619826E-009  0.1398297E+03  0.7561462E-02  0.1213558E+00
          1   -1    0    0  501    0  0.00000000000E+00  0.00000000000E+00  0.12704583747E+04  0.12704583747E+04  0.00000000000E+00 0. -1.
         -1   -1    0    0    0  501 -0.00000000000E+00 -0.00000000000E+00 -0.16216611161E+02  0.16216611161E+02  0.00000000000E+00 0.  1.
         25    2    1    2    0    0  0.56932848063E+02 -0.69485726020E+02  0.59209826230E+03  0.61179788678E+03  0.12508671690E+03 0.  0.
          5    1    3    3  502    0  0.61656346219E+02  0.19466774115E+02  0.24286653908E+03  0.25136047527E+03  0.41800000000E+01 0.  1.
         -5    1    3    3    0  502 -0.47234981560E+01 -0.88952500135E+02  0.34923172322E+03  0.36043741151E+03  0.41800000000E+01 0.  1.
        -11    1    1    2    0    0 -0.34674689943E+02  0.89360426092E+02  0.57054614622E+03  0.57854172265E+03  0.00000000000E+00 0. -1.
         11    1    1    2    0    0 -0.22258158120E+02 -0.19874700072E+02  0.91597354989E+02  0.96335376404E+02  0.00000000000E+00 0.  1.
</event>
<event>
 7    1  0.2619826E-009  0.1077553E+03  0.7561462E-02  0.1264784E+00
          3   -1    0    0  501    0  0.00000000000E+00  0.00000000000E+00  0.55579721987E+03  0.55579721987E+03  0.00000000000E+00 0. -1.
         -3   -1    0    0    0  501 -0.00000000000E+00 -0.00000000000E+00 -0.41515389500E+02  0.41515389500E+02  0.00000000000E+00 0.  1.
         25    2    1    2    0    0  0.46889411089E+02 -0.46388385259E+02  0.11366734069E+03  0.18143465680E+03  0.12509105160E+03 0.  0.
          5    1    3    3  502    0  0.35708310496E+02  0.22084593777E+02 -0.64239373089E+01  0.42679644929E+02  0.41800000000E+01 0.  1.
         -5    1    3    3    0  502  0.11181100593E+02 -0.68472979036E+02  0.12009127799E+03  0.13875501187E+03  0.41800000000E+01 0.  1.
        -11    1    1    2    0    0 -0.21906002173E+02  0.67585804629E+02  0.33602133120E+03  0.34345021319E+03  0.00000000000E+00 0. -1.
         11    1    1    2    0    0 -0.24983408916E+02 -0.21197419370E+02  0.64593158489E+02  0.72427739387E+02  0.00000000000E+00 0.  1.
</event>
<event>
 7    1  0.2619826E-009  0.9509574E+02  0.7561462E-02  0.1290961E+00
         -2   -1    0    0    0  501 -0.00000000000E+00  0.00000000000E+00  0.10176721084E+03  0.10176721084E+03  0.00000000000E+00 0. -1.
          2   -1    0    0  501    0  0.00000000000E+00 -0.00000000000E+00 -0.12409040323E+03  0.12409040323E+03  0.00000000000E+00 0.  1.
         25    2    1    2    0    0 -0.52137213714E+02 -0.59010793210E+01  0.33366215710E+02  0.13970033352E+03  0.12509902895E+03 0.  0.
          5    1    3    3  502    0  0.40791173470E+02 -0.10439034919E+02  0.68277572781E+01  0.42860050776E+02  0.41800000000E+01 0. -1.
         -5    1    3    3    0  502 -0.92928387183E+02  0.45379555984E+01  0.26538458432E+02  0.96840282741E+02  0.41800000000E+01 0. -1.
        -11    1    1    2    0    0  0.21445609751E+02 -0.52712822628E+01 -0.47652666276E+02  0.52521207122E+02  0.00000000000E+00 0.  1.
         11    1    1    2    0    0  0.30691603962E+02  0.11172361584E+02 -0.80367418203E+01  0.33636073436E+02  0.00000000000E+00 0. -1.
</event>
<event>
 7    1  0.2619826E-009  0.1216648E+03  0.7561462E-02  0.1240376E+00
          2   -1    0    0  501    0  0.00000000000E+00  0.00000000000E+00  0.63084056385E+02  0.63084056385E+02  0.00000000000E+00 0. -1.
         -2   -1    0    0    0  501 -0.00000000000E+00 -0.00000000000E+00 -0.25476159888E+03  0.25476159888E+03  0.00000000000E+00 0.  1.
         25    2    1    2    0    0 -0.31783743363E+02 -0.56767587533E+02 -0.11338004683E+03  0.18092691857E+03  0.12508696777E+03 0.  0.
          5    1    3    3  502    0 -0.11604639069E+02 -0.90620670639E+02 -0.45084419512E+02  0.10196494926E+03  0.41800000000E+01 0. -1.
         -5    1    3    3    0  502 -0.20179104294E+02  0.33853083106E+02 -0.68295627321E+02  0.78961969308E+02  0.41800000000E+01 0. -1.
        -11    1    1    2    0    0  0.60799182841E+02  0.56832947289E+02 -0.60303315444E+02  0.10277652643E+03  0.00000000000E+00 0. -1.
         11    1    1    2    0    0 -0.29015439478E+02 -0.65359755515E-01 -0.17994180214E+02  0.34142210262E+02  0.00000000000E+00 0.  1.
</event>
<event>
 7    1  0.2619826E-009  0.7701045E+02  0.7561462E-02  0.1337756E+00
          3   -1    0    0  501    0  0.00000000000E+00  0.00000000000E+00  0.20187586195E+03  0.20187586195E+03  0.00000000000E+00 0. -1.
         -3   -1    0    0    0  501 -0.00000000000E+00 -0.00000000000E+00 -0.75492771679E+02  0.75492771679E+02  0.00000000000E+00 0.  1.
         25    2    1    2    0    0  0.56831116581E+02 -0.13690543770E+02  0.82615604112E+02  0.16089619564E+03  0.12508013803E+03 0.  0.
          5    1    3    3  502    0 -0.94773781216E+01  0.14447969969E+02 -0.25397110844E+02  0.31000809207E+02  0.41800000000E+01 0.  1.
         -5    1    3    3    0  502  0.66308494702E+02 -0.28138513738E+02  0.10801271496E+03  0.12989538644E+03  0.41800000000E+01 0.  1.
        -11    1    1    2    0    0 -0.49149380372E+02  0.21036021981E+02 -0.15970471028E+02  0.55796341785E+02  0.00000000000E+00 0.  1.
         11    1    1    2    0    0 -0.76817362087E+01 -0.73454782109E+01  0.59737957183E+02  0.60676096197E+02  0.00000000000E+00 0. -1.
</event>
<event>
 7    1  0.2619826E-009  0.8801290E+02  0.7561462E-02  0.1307736E+00
         -3   -1    0    0    0  501 -0.00000000000E+00  0.00000000000E+00  0.69529710941E+02  0.69529710941E+02  0.00000000000E+00 0.  1.
          3   -1    0    0  501    0  0.00000000000E+00 -0.00000000000E+00 -0.28389989543E+03  0.28389989543E+03  0.00000000000E+00 0. -1.
         25    2    1    2    0    0 -0.47221979313E+02  0.34379127427E+02 -0.20458115382E+03  0.24680593327E+03  0.12509148839E+03 0.  0.
          5    1    3    3  502    0 -0.68584362233E-02  0.54776304593E+02 -0.18265715013E+03  0.19073948329E+03  0.41800000000E+01 0.  1.
         -5    1    3    3    0  502 -0.47215120877E+02 -0.20397177166E+02 -0.21924003684E+02  0.56066449979E+02  0.41800000000E+01 0.  1.
        -11    1    1    2    0    0  0.32715494956E+02 -0.59471384483E+00  0.35506377841E+02  0.48284160573E+02  0.00000000000E+00 0.  1.
         11    1    1    2    0    0  0.14506484356E+02 -0.33784413582E+02 -0.45295408513E+02  0.58339512526E+02  0.00000000000E+00 0. -1.
</event>
<event>
 7    1  0.2619826E-009  0.1385404E+03  0.7561462E-02  0.1215307E+00
         -2   -1    0    0    0  501 -0.00000000000E+00  0.00000000000E+00  0.12532291565E+03  0.12532291565E+03  0.00000000000E+00 0.  1.
          2   -1    0    0  501    0  0.00000000000E+00 -0.00000000000E+00 -0.17715391951E+03  0.17715391951E+03  0.00000000000E+00 0. -1.
         25    2    1    2    0    0  0.68334343783E+02  0.73356234157E+02 -0.49255218809E+02  0.16771732573E+03  0.12510917288E+03 0.  0.
          5    1    3    3  502    0  0.92465790738E+02  0.73413730919E+02 -0.63449315079E+01  0.11830988505E+03  0.41800000000E+01 0. -1.
         -5    1    3    3    0  502 -0.24131446955E+02 -0.57496762646E-01 -0.42910287301E+02  0.49407440677E+02  0.41800000000E+01 0. -1.
        -11    1    1    2    0    0 -0.18573833081E+02 -0.81884200401E+02 -0.58468942501E+01  0.84167664356E+02  0.00000000000E+00 0. -1.
         11    1    1    2    0    0 -0.49760510702E+02  0.85279662447E+01  0.32711091995E+01  0.50591845084E+02  0.00000000000E+00 0.  1.
</event>
<event>
 7    1  0.3203500E-009  0.1157001E+03  0.7561462E-02  0.1250364E+00
          1   -1    0    0  501    0  0.00000000000E+00  0.00000000000E+00  0.55817690952E+03  0.55817690952E+03  0.00000000000E+00 0. -1.
         -1   -1    0    0    0  501 -0.00000000000E+00 -0.00000000000E+00 -0.34110322788E+02  0.34110322788E+02  0.00000000000E+00 0.  1.
         25    2    1    2    0    0  0.59962580579E+02  0.44497681983E+02  0.37143751512E+03  0.39898550359E+03  0.12509216471E+03 0.  0.
          5    1    3    3  502    0  0.95981446669E+02  0.39229444988E+02  0.22101956821E+03  0.24416901808E+03  0.41800000000E+01 0.  1.
         -5    1    3    3    0  502 -0.36018866090E+02  0.52682369949E+01  0.15041794691E+03  0.15481648551E+03  0.41800000000E+01 0.  1.
        -11    1    1    2    0    0 -0.25630742043E+02 -0.50027909283E+02  0.25905737340E+02  0.61893730474E+02  0.00000000000E+00 0.  1.
         11    1    1    2    0    0 -0.34331838537E+02  0.55302272997E+01  0.12672333427E+03  0.13140799824E+03  0.00000000000E+00 0. -1.
</event>
<event>
 7    1  0.2619826E-009  0.8781396E+02  0.7561462E-02  0.1308234E+00
         -1   -1    0    0    0  501 -0.00000000000E+00  0.00000000000E+00  0.49229401977E+02  0.49229401977E+02  0.00000000000E+00 0.  1.
          1   -1    0    0  501    0  0.00000000000E+00 -0.00000000000E+00 -0.25303775951E+03  0.25303775951E+03  0.00000000000E+00 0. -1.
         25    2    1    2    0    0  0.55374383865E+01 -0.18552339304E+02 -0.86750849824E+02  0.15345023972E+03  0.12508562510E+03 0.  0.
          5    1    3    3  502    0 -0.56549568293E+02  0.10811977926E+02 -0.41542432762E+02  0.71119608130E+02  0.41800000000E+01 0.  1.
         -5    1    3    3    0  502  0.62087006680E+02 -0.29364317230E+02 -0.45208417063E+02  0.82330631591E+02  0.41800000000E+01 0.  1.
        -11    1    1    2    0    0  0.16384838386E+02  0.21438818880E+02  0.26236482589E+01  0.27110319329E+02  0.00000000000E+00 0.  1.
         11    1    1    2    0    0 -0.21922276772E+02 -0.28864795761E+01 -0.11968115597E+03  0.12170660244E+03  0.00000000000E+00 0. -1.
</event>
<event>
 7    1  0.2619826E-009  0.1332390E+03  0.7561462E-02  0.1222727E+00
         -1   -1    0    0    0  501 -0.00000000000E+00  0.00000000000E+00  0.69737421246E+02  0.69737421246E+02  0.00000000000E+00 0.  1.
          1   -1    0    0  501    0  0.00000000000E+00 -0.00000000000E+00 -0.30726282520E+03  0.30726282520E+03  0.00000000000E+00 0. -1.
         25    2    1    2    0    0  0.55101157189E+01 -0.90146004945E+02 -0.18845569402E+03  0.24355933833E+03  0.12509571974E+03 0.  0.
          5    1    3    3  502    0  0.53632228533E+02 -0.12451441165E+02 -0.10983012196E+03  0.12292917641E+03  0.41800000000E+01 0.  1.
         -5    1    3    3    0  502 -0.48122112814E+02 -0.77694563780E+02 -0.78625572060E+02  0.12063016192E+03  0.41800000000E+01 0.  1.
        -11    1    1    2    0    0 -0.31466596918E+02  0.64160427133E+01 -0.29533091484E+02  0.43629299998E+02  0.00000000000E+00 0. -1.
         11    1    1    2    0    0  0.25956481199E+02  0.83729962232E+02 -0.19536618449E+02  0.89811608114E+02  0.00000000000E+00 0.  1.
</event>
<event>
 7    1  0.2619826E-009  0.1363330E+03  0.7561462E-02  0.1218350E+00
          1   -1    0    0  501    0  0.00000000000E+00  0.00000000000E+00  0.94261132181E+02  0.94261132181E+02  0.00000000000E+00 0. -1.
         -1   -1    0    0    0  501 -0.00000000000E+00 -0.00000000000E+00 -0.27672224253E+03  0.27672224253E+03  0.00000000000E+00 0.  1.
         25    2    1    2    0    0 -0.47200461602E+02 -0.90878550852E+02 -0.29362274616E+02  0.16430606260E+03  0.12509014533E+03 0.  0.
          5    1    3    3  502    0 -0.57005001163E+02 -0.10298152614E+03 -0.58116275261E+02  0.13133826074E+03  0.41800000000E+01 0.  1.
         -5    1    3    3    0  502  0.98045395612E+01  0.12102975287E+02  0.28754000645E+02  0.32967801867E+02  0.41800000000E+01 0.  1.
        -11    1    1    2    0    0 -0.39569389112E+01  0.87392951824E+02 -0.99896533623E+02  0.13278743474E+03  0.00000000000E+00 0. -1.
         11    1    1    2    0    0  0.51157400513E+02  0.34855990276E+01 -0.53202302112E+02  0.73889877370E+02  0.00000000000E+00 0.  1.
</event>
<event>
 7    1  0.2619826E-009  0.1037884E+03  0.7561462E-02  0.1272525E+00
         -2   -1    0    0    0  501 -0.00000000000E+00  0.00000000000E+00  0.20394456715E+02  0.20394456715E+02  0.00000000000E+00 0. -1.
          2   -1    0    0  501    0  0.00000000000E+00 -0.00000000000E+00 -0.88103262067E+03  0.88103262067E+03  0.00000000000E+00 0.  1.
         25    2    1    2    0    0 -0.57081970030E+01 -0.17014528770E+02 -0.72664950418E+03  0.73755729501E+03  0.12509669782E+03 0.  0.
          5    1    3    3  502    0  0.53772711572E+02  0.18534690862E+00 -0.48797541230E+03  0.49094705853E+03  0.41800000000E+01 0. -1.
         -5    1    3    3    0  502 -0.59480908575E+02 -0.17199875678E+02 -0.23867409187E+03  0.24661023649E+03  0.41800000000E+01 0. -1.
        -11    1    1    2    0    0  0.47101010268E+02  0.17332535205E+02 -0.53473466410E+02  0.73337122624E+02  0.00000000000E+00 0. -1.
         11    1    1    2    0    0 -0.41392813265E+02 -0.31800643544E+00 -0.80515193372E+02  0.90532659752E+02  0.00000000000E+00 0.  1.
</event>
<event>
 7    1  0.2619826E-009  0.1137470E+03  0.7561462E-02  0.1253784E+00
          1   -1    0    0  501    0  0.00000000000E+00  0.00000000000E+00  0.12463335631E+03  0.12463335631E+03  0.00000000000E+00 0. -1.
         -1   -1    0    0    0  501 -0.00000000000E+00 -0.00000000000E+00 -0.18089306986E+03  0.18089306986E+03  0.00000000000E+00 0.  1.
         25    2    1    2    0    0  0.17708255976E+02  0.72458421616E+02  0.42616937336E+02  0.15174296060E+03  0.12508364221E+03 0.  0.
          5    1    3    3  502    0  0.60014087610E+02  0.51387445156E+02 -0.11299808904E+02  0.79921951382E+02  0.41800000000E+01 0.  1.
         -5    1    3    3    0  502 -0.42305831635E+02  0.21070976460E+02  0.53916746241E+02  0.71821009214E+02  0.41800000000E+01 0.  1.
        -11    1    1    2    0    0 -0.19781092570E+02  0.73424497187E+01  0.60427984184E+01  0.21948088843E+02  0.00000000000E+00 0. -1.
         11    1    1    2    0    0  0.20728365941E+01 -0.79800871335E+02 -0.10491944930E+03  0.13183537673E+03  0.00000000000E+00 0.  1.
</event>
<event>
 7    1  0.2619826E-009  0.1105829E+03  0.7561462E-02  0.1259494E+00
          2   -1    0    0  501    0  0.00000000000E+00  0.00000000000E+00  0.75074756750E+03  0.75074756750E+03  0.00000000000E+00 0. -1.
         -2   -1    0    0    0  501 -0.00000000000E+00 -0.00000000000E+00 -0.22698280035E+02  0.22698280035E+02  0.00000000000E+00 0.  1.
         25    2    1    2    0    0  0.70166062959E+02 -0.48746209178E+01  0.35305403005E+03  0.38110654584E+03  0.12509201744E+03 0.  0.
          5    1    3    3  502    0  0.33407321408E+02 -0.50298825748E+02  0.28479018653E+03  0.29115106687E+03  0.41800000000E+01 0. -1.
         -5    1    3    3    0  502  0.36758741551E+02  0.45424204831E+02  0.68263843518E+02  0.89955478970E+02  0.41800000000E+01 0. -1.
        -11    1    1    2    0    0  0.52061167644E+01  0.23784338188E+02  0.29681534261E+02  0.38389997016E+02  0.00000000000E+00 0.  1.
         11    1    1    2    0    0 -0.75372179723E+02 -0.18909717271E+02  0.34531372315E+03  0.35394930467E+03  0.00000000000E+00 0. -1.
</event>
<event>
 7    1  0.2619826E-009  0.2307592E+03  0.7561462E-02  0.1126107E+00
         -1   -1    0    0    0  501 -0.00000000000E+00  0.00000000000E+00  0.61557105213E+02  0.61557105213E+02  0.00000000000E+00 0.  1.
          1   -1    0    0  501    0  0.00000000000E+00 -0.00000000000E+00 -0.94140710569E+03  0.94140710569E+03  0.00000000000E+00 0. -1.
         25    2    1    2    0    0 -0.11783287896E+03 -0.17506726328E+03 -0.53699851408E+03  0.59038148621E+03  0.12509900520E+03 0.  0.
          5    1    3    3  502    0  0.50376160320E+01 -0.72795734391E+02 -0.26460525331E+03  0.27451413261E+03  0.41800000000E+01 0.  1.
         -5    1    3    3    0  502 -0.12287049500E+03 -0.10227152888E+03 -0.27239326077E+03  0.31586735361E+03  0.41800000000E+01 0.  1.
        -11    1    1    2    0    0  0.10988169186E+02  0.93358562026E+02 -0.12231862954E+03  0.15426732674E+03  0.00000000000E+00 0.  1.
         11    1    1    2    0    0  0.10684470978E+03  0.81708701249E+02 -0.22053285685E+03  0.25831539795E+03  0.00000000000E+00 0. -1.
</event>
<event>
 7    1  0.2619826E-009  0.1089935E+03  0.7561462E-02  0.1262445E+00
          1   -1    0    0  501    0  0.00000000000E+00  0.00000000000E+00  0.66924946427E+02  0.66924946427E+02  0.00000000000E+00 0. -1.
         -1   -1    0    0    0  501 -0.00000000000E+00 -0.00000000000E+00 -0.23438329548E+03  0.23438329548E+03  0.00000000000E+00 0.  1.
         25    2    1    2    0    0 -0.53368272616E+02  0.27847526957E+01 -0.14472401972E+03  0.19861591021E+03  0.12508921031E+03 0.  0.
          5    1    3    3  502    0 -0.89371486659E+02 -0.14725231818E+02 -0.12319889488E+03  0.15296906609E+03  0.41800000000E+01 0.  1.
         -5    1    3    3    0  502  0.36003214043E+02  0.17509984513E+02 -0.21525124841E+02  0.45646844124E+02  0.41800000000E+01 0.  1.
        -11    1    1    2    0    0 -0.16437474565E+02  0.40276255741E+01 -0.27611823292E+02  0.32385569677E+02  0.00000000000E+00 0. -1.
         11    1    1    2    0    0  0.69805747181E+02 -0.68123782698E+01  0.48774939669E+01  0.70306762012E+02  0.00000000000E+00 0.  1.
</event>
<event>
 7    1  0.2619826E-009  0.1449495E+03  0.7561462E-02  0.1206820E+00
         -2   -1    0    0    0  501 -0.00000000000E+00  0.00000000000E+00  0.10552833434E+03  0.10552833434E+03  0.00000000000E+00 0.  1.
          2   -1    0    0  501    0  0.00000000000E+00 -0.00000000000E+00 -0.22760164414E+03  0.22760164414E+03  0.00000000000E+00 0. -1.
         25    2    1    2    0    0 -0.16926054349E+02 -0.10861554818E+03 -0.53730879865E+02  0.17498166067E+03  0.12509094890E+03 0.  0.
          5    1    3    3  502    0 -0.59055242592E+02 -0.10884881297E+03 -0.35550941955E+02  0.12890666250E+03  0.41800000000E+01 0. -1.
         -5    1    3    3    0  502  0.42129188243E+02  0.23326478347E+00 -0.18179937910E+02  0.46074998175E+02  0.41800000000E+01 0. -1.
        -11    1    1    2    0    0  0.33753380388E+02  0.98261427609E+02 -0.83462572135E+02  0.13326890031E+03  0.00000000000E+00 0. -1.
         11    1    1    2    0    0 -0.16827326039E+02  0.10354120574E+02  0.15120142203E+02  0.24879417491E+02  0.00000000000E+00 0.  1.
</event>
<event>
 7    1  0.2619826E-009  0.1091072E+03  0.7561462E-02  0.1262232E+00
         -1   -1    0    0    0  501 -0.00000000000E+00  0.00000000000E+00  0.50920945602E+03  0.50920945602E+03  0.00000000000E+00 0.  1.
          1   -1    0    0  501    0  0.00000000000E+00 -0.00000000000E+00 -0.34265863183E+02  0.34265863183E+02  0.00000000000E+00 0. -1.
         25    2    1    2    0    0 -0.34148668842E+02  0.25480941066E+02  0.12906909101E+03  0.18472532298E+03  0.12509678156E+03 0.  0.
          5    1    3    3  502    0 -0.61030349267E+02 -0.27946646569E+02  0.92954873426E+02  0.11473360223E+03  0.41800000000E+01 0. -1.
         -5    1    3    3    0  502  0.26881680424E+02  0.53427587635E+02  0.36114217583E+02  0.69991720757E+02  0.41800000000E+01 0. -1.
        -11    1    1    2    0    0  0.17526434538E+02 -0.54672098553E+02  0.16299249612E+03  0.17280847219E+03  0.00000000000E+00 0. -1.
         11    1    1    2    0    0  0.16622234305E+02  0.29191157486E+02  0.18288200570E+03  0.18594152403E+03  0.00000000000E+00 0.  1.
</event>
<event>
 7    1  0.2619826E-009  0.2671531E+03  0.7561462E-02  0.1102920E+00
         -2   -1    0    0    0  501 -0.00000000000E+00  0.00000000000E+00  0.81696283297E+03  0.81696283297E+03  0.00000000000E+00 0.  1.
          2   -1    0    0  501    0  0.00000000000E+00 -0.00000000000E+00 -0.13575391430E+03  0.13575391430E+03  0.00000000000E+00 0. -1.
         25    2    1    2    0    0 -0.18320868500E+03 -0.18832250982E+03  0.59363403415E+03  0.66112040373E+03  0.12509209312E+03 0.  0.
          5    1    3    3  502    0 -0.14967424259E+03 -0.15092591337E+03  0.32889111093E+03  0.39162206969E+03  0.41800000000E+01 0.  1.
         -5    1    3    3    0  502 -0.33534442413E+02 -0.37396596454E+02  0.26474292323E+03  0.26949833405E+03  0.41800000000E+01 0.  1.
        -11    1    1    2    0    0  0.82715711937E+02  0.39335647697E+02  0.60717353484E+02  0.10988985028E+03  0.00000000000E+00 0.  1.
         11    1    1    2    0    0  0.10049297306E+03  0.14898686213E+03  0.26857531032E+02  0.18170649326E+03  0.00000000000E+00 0. -1.
</event>
<event>
 7    1  0.2619826E-009  0.1144453E+03  0.7561462E-02  0.1252553E+00
          4   -1    0    0  501    0  0.00000000000E+00  0.00000000000E+00  0.28221891832E+02  0.28221891832E+02  0.00000000000E+00 0. -1.
         -4   -1    0    0    0  501 -0.00000000000E+00 -0.00000000000E+00 -0.12043462431E+04  0.12043462431E+04  0.00000000000E+00 0.  1.
         25    2    1    2    0    0  0.90170400927E+01  0.93106100940E+02 -0.10146416551E+04  0.10265940752E+04  0.12509058238E+03 0.  0.
          5    1    3    3  502    0 -0.86837489256E+01  0.10845136473E+03 -0.51487425867E+03  0.52626046844E+03  0.41800000000E+01 0. -1.
         -5    1    3    3    0  502  0.17700789018E+02 -0.15345263785E+02 -0.49976739645E+03  0.50033360671E+03  0.41800000000E+01 0. -1.
        -11    1    1    2    0    0  0.70247166447E+01 -0.43952814576E+02 -0.96032371310E+01  0.45534807746E+02  0.00000000000E+00 0. -1.
         11    1    1    2    0    0 -0.16041756737E+02 -0.49153286364E+02 -0.15187945898E+03  0.16043925199E+03  0.00000000000E+00 0.  1.
</event>
<event>
 7    1  0.2619826E-009  0.1186027E+03  0.7561462E-02  0.1245420E+00
          1   -1    0    0  501    0  0.00000000000E+00  0.00000000000E+00  0.68851470622E+02  0.68851470622E+02  0.00000000000E+00 0. -1.
         -1   -1    0    0    0  501 -0.00000000000E+00 -0.00000000000E+00 -0.31956059459E+03  0.31956059459E+03  0.00000000000E+00 0.  1.
         25    2    1    2    0    0  0.30604153190E+02  0.87619689222E+02 -0.18991508836E+03  0.24561958723E+03  0.12508963472E+03 0.  0.
          5    1    3    3  502    0 -0.40320389383E+02  0.28567046695E+02 -0.11974427830E+03  0.12960700036E+03  0.41800000000E+01 0.  1.
         -5    1    3    3    0  502  0.70924542573E+02  0.59052642528E+02 -0.70170810053E+02  0.11601258687E+03  0.41800000000E+01 0.  1.
        -11    1    1    2    0    0  0.14210646052E+01 -0.23633897958E+02 -0.66913184162E+02  0.70978551493E+02  0.00000000000E+00 0.  1.
         11    1    1    2    0    0 -0.32025217795E+02 -0.63985791264E+02  0.61191485507E+01  0.71813926487E+02  0.00000000000E+00 0. -1.
</event>
<event>
 7    1  0.2619826E-009  0.1088961E+03  0.7561462E-02  0.1262628E+00
          1   -1    0    0  501    0  0.00000000000E+00  0.00000000000E+00  0.24141067687E+04  0.24141067687E+04  0.00000000000E+00 0. -1.
         -1   -1    0    0    0  501 -0.00000000000E+00 -0.00000000000E+00 -0.99307785392E+01  0.99307785392E+01  0.00000000000E+00 0.  1.
         25    2    1    2    0    0 -0.19716139360E+02 -0.37196868473E+02  0.20990503994E+04  0.21031958476E+04  0.12509141141E+03 0.  0.
          5    1    3    3  502    0 -0.66132491570E+02 -0.17820702330E+02  0.73068264856E+03  0.73389760129E+03  0.41800000000E+01 0. -1.
         -5    1    3    3    0  502  0.46416352211E+02 -0.19376166143E+02  0.13683677508E+04  0.13692982463E+04  0.41800000000E+01 0. -1.
        -11    1    1    2    0    0  0.54888888252E+02  0.30838660040E+02  0.20944046271E+03  0.21869869782E+03  0.00000000000E+00 0. -1.
         11    1    1    2    0    0 -0.35172748893E+02  0.63582084327E+01  0.95685128035E+02  0.10214300175E+03  0.00000000000E+00 0.  1.
</event>
<event>
 7    1  0.2619826E-009  0.1653119E+03  0.7561462E-02  0.1182827E+00
          1   -1    0    0  501    0  0.00000000000E+00  0.00000000000E+00  0.19046125424E+03  0.19046125424E+03  0.00000000000E+00 0. -1.
         -1   -1    0    0    0  501 -0.00000000000E+00 -0.00000000000E+00 -0.19476439759E+03  0.19476439759E+03  0.00000000000E+00 0.  1.
         25    2    1    2    0    0 -0.15354235852E+03  0.11989869240E+02 -0.39164114460E+02  0.20222784890E+03  0.12507302740E+03 0.  0.
          5    1    3    3  502    0 -0.18791010478E+02 -0.12820496339E+02  0.38324049250E+02  0.44762398864E+02  0.41800000000E+01 0.  1.
         -5    1    3    3    0  502 -0.13475134804E+03  0.24810365579E+02 -0.77488163710E+02  0.15746545003E+03  0.41800000000E+01 0.  1.
        -11    1    1    2    0    0  0.10423908799E+03  0.26860604653E+02 -0.64754638256E+01  0.10783882037E+03  0.00000000000E+00 0.  1.
         11    1    1    2    0    0  0.49303270525E+02 -0.38850473893E+02  0.41336434930E+02  0.75158982557E+02  0.00000000000E+00 0. -1.
</event>
<event>
 7    1  0.2619826E-009  0.1168454E+03  0.7561462E-02  0.1248394E+00
         -3   -1    0    0    0  501 -0.00000000000E+00  0.00000000000E+00  0.32564295633E+02  0.32564295633E+02  0.00000000000E+00 0.  1.
          3   -1    0    0  501    0  0.00000000000E+00 -0.00000000000E+00 -0.47281066392E+03  0.47281066392E+03  0.00000000000E+00 0. -1.
         25    2    1    2    0    0  0.51247822391E+02  0.26975369581E+02 -0.28286529577E+03  0.31466474874E+03  0.12508844343E+03 0.  0.
          5    1    3    3  502    0 -0.31870890765E+02  0.42340001821E+02 -0.10482077056E+03  0.11752997819E+03  0.41800000000E+01 0. -1.
         -5    1    3    3    0  502  0.83118713156E+02 -0.15364632240E+02 -0.17804452522E+03  0.19713477055E+03  0.41800000000E+01 0. -1.
        -11    1    1    2    0    0 -0.23753177008E+02 -0.52977426028E+02 -0.13448002850E+03  0.14647764045E+03  0.00000000000E+00 0. -1.
         11    1    1    2    0    0 -0.27494645382E+02  0.26002056447E+02 -0.22901044012E+02  0.44232570364E+02  0.00000000000E+00 0.  1.
</event>
<event>
 7    1  0.2619826E-009  0.9176241E+02  0.7561462E-02  0.1298639E+00
          1   -1    0    0  501    0  0.00000000000E+00  0.00000000000E+00  0.60813414865E+03  0.60813414865E+03  0.00000000000E+00 0. -1.
         -1   -1    0    0    0  501 -0.00000000000E+00 -0.00000000000E+00 -0.27596197569E+02  0.27596197569E+02  0.00000000000E+00 0.  1.
         25    2    1    2    0    0 -0.33811767560E+02  0.14840326093E+02  0.17367054386E+03  0.21719117749E+03  0.12508828430E+03 0.  0.
          5    1    3    3  502    0 -0.50008015630E+02  0.33576630307E+02  0.18118000562E+03  0.19097606804E+03  0.41800000000E+01 0.  1.
         -5    1    3    3    0  502  0.16196248070E+02 -0.18736304213E+02 -0.75094617566E+01  0.26215109441E+02  0.41800000000E+01 0.  1.
        -11    1    1    2    0    0  0.11039364447E+02 -0.52702391813E+02  0.21298366124E+03  0.21968488711E+03  0.00000000000E+00 0.  1.
         11    1    1    2    0    0  0.22772403113E+02  0.37862065720E+02  0.19388374598E+03  0.19885428163E+03  0.00000000000E+00 0. -1.
</event>
<event>
 7    1  0.2619826E-009  0.2286782E+03  0.7561462E-02  0.1127574E+00
          2   -1    0    0  501    0  0.00000000000E+00  0.00000000000E+00  0.46244412392E+03  0.46244412392E+03  0.00000000000E+00 0. -1.
         -2   -1    0    0    0  501 -0.00000000000E+00 -0.00000000000E+00 -0.20279374173E+03  0.20279374173E+03  0.00000000000E+00 0.  1.
         25    2    1    2    0    0  0.45952318409E+02  0.22023561711E+03 -0.59483233573E+02  0.26419944699E+03  0.12509096731E+03 0.  0.
          5    1    3    3  502    0  0.26543160715E+02  0.27104203817E+02 -0.58738236640E+02  0.70048769360E+02  0.41800000000E+01 0. -1.
         -5    1    3    3    0  502  0.19409157694E+02  0.19313141330E+03 -0.74499693234E+00  0.19415067763E+03  0.41800000000E+01 0. -1.
        -11    1    1    2    0    0 -0.25167574985E+02 -0.13333614985E+03  0.26180050614E+03  0.29487529687E+03  0.00000000000E+00 0. -1.
         11    1    1    2    0    0 -0.20784743424E+02 -0.86899467268E+02  0.57333109619E+02  0.10616312179E+03  0.00000000000E+00 0.  1.
</event>
<event>
 7    1  0.2839494E-009  0.1050557E+03  0.7561462E-02  0.1270010E+00
          3   -1    0    0  501    0  0.00000000000E+00  0.00000000000E+00  0.47368298690E+02  0.47368298690E+02  0.00000000000E+00 0. -1.
         -3   -1    0    0    0  501 -0.00000000000E+00 -0.00000000000E+00 -0.34802023428E+03  0.34802023428E+03  0.00000000000E+00 0.  1.
         25    2    1    2    0    0  0.34664986347E+01  0.67220795091E+02 -0.15198797577E+03  0.20803372123E+03  0.12508809890E+03 0.  0.
          5    1    3    3  502    0 -0.39572446879E+02 -0.19794815353E+02 -0.40309010268E+02  0.60000849791E+02  0.41800000000E+01 0. -1.
         -5    1    3    3    0  502  0.43038945514E+02  0.87015610444E+02 -0.11167896550E+03  0.14803287144E+03  0.41800000000E+01 0. -1.
        -11    1    1    2    0    0  0.48194475503E+01 -0.28199735052E+02 -0.14443402099E+03  0.14724007114E+03  0.00000000000E+00 0. -1.
         11    1    1    2    0    0 -0.82859461850E+01 -0.39021060039E+02 -0.42299388382E+01  0.40114740599E+02  0.00000000000E+00 0.  1.
</event>
<event>
 7    1  0.2619826E-009  0.9613415E+02  0.7561462E-02  0.1288642E+00
         -4   -1    0    0    0  501 -0.00000000000E+00  0.00000000000E+00  0.92913201369E+02  0.92913201369E+02  0.00000000000E+00 0.  1.
          4   -1    0    0  501    0  0.00000000000E+00 -0.00000000000E+00 -0.18668208830E+03  0.18668208830E+03  0.00000000000E+00 0. -1.
         25    2    1    2    0    0 -0.66863844535E+02  0.20828173637E+02 -0.43541434375E+02  0.14981674473E+03  0.12507843128E+03 0.  0.
          5    1    3    3  502    0 -0.49602617156E+02  0.50529216335E+01 -0.86958855411E+02  0.10032580217E+03  0.41800000000E+01 0. -1.
         -5    1    3    3    0  502 -0.17261227379E+02  0.15775252004E+02  0.43417421035E+02  0.49490942563E+02  0.41800000000E+01 0. -1.
        -11    1    1    2    0    0  0.84860969002E+02 -0.38563380174E+02 -0.31732224263E+02  0.98465488406E+02  0.00000000000E+00 0.  1.
         11    1    1    2    0    0 -0.17997124467E+02  0.17735206537E+02 -0.18495228294E+02  0.31313056536E+02  0.00000000000E+00 0. -1.
</event>
<event>
 7    1  0.2619826E-009  0.1131048E+03  0.7561462E-02  0.1254926E+00
         -4   -1    0    0    0  501 -0.00000000000E+00  0.00000000000E+00  0.90564147641E+02  0.90564147641E+02  0.00000000000E+00 0. -1.
          4   -1    0    0  501    0  0.00000000000E+00 -0.00000000000E+00 -0.17468337093E+03  0.17468337093E+03  0.00000000000E+00 0.  1.
         25    2    1    2    0    0  0.20080371921E+02 -0.54942645188E+02 -0.75601470617E+02  0.15744198665E+03  0.12510188329E+03 0.  0.
          5    1    3    3  502    0 -0.16874846077E+02 -0.86427689654E+02 -0.38510808623E+02  0.96203226297E+02  0.41800000000E+01 0. -1.
         -5    1    3    3    0  502  0.36955217998E+02  0.31485044466E+02 -0.37090661994E+02  0.61238760352E+02  0.41800000000E+01 0. -1.
        -11    1    1    2    0    0  0.12167629450E+01  0.65528107388E+02  0.21983512109E+02  0.69128056349E+02  0.00000000000E+00 0. -1.
         11    1    1    2    0    0 -0.21297134866E+02 -0.10585462199E+02 -0.30501264781E+02  0.38677475573E+02  0.00000000000E+00 0.  1.
</event>
<event>
 7    1  0.2619826E-009  0.3447494E+03  0.7561462E-02  0.1064791E+00
         -2   -1    0    0    0  501 -0.00000000000E+00  0.00000000000E+00  0.42793565164E+02  0.42793565164E+02  0.00000000000E+00 0.  1.
          2   -1    0    0  501    0  0.00000000000E+00 -0.00000000000E+00 -0.29897584334E+04  0.29897584334E+04  0.00000000000E+00 0. -1.
         25    2    1    2    0    0 -0.22129652401E+03  0.25420409884E+03 -0.12884615443E+04  0.13376708335E+04  0.12505291819E+03 0.  0.
          5    1    3    3  502    0 -0.42869009879E+02  0.10223654366E+03 -0.25724154313E+03  0.28014415357E+03  0.41800000000E+01 0. -1.
         -5    1    3    3    0  502 -0.17842751413E+03  0.15196755518E+03 -0.10312200012E+04  0.10575266800E+04  0.41800000000E+01 0. -1.
        -11    1    1    2    0    0  0.19168804738E+03 -0.24875543213E+03 -0.15776950933E+04  0.16086470651E+04  0.00000000000E+00 0.  1.
         11    1    1    2    0    0  0.29608476630E+02 -0.54486667071E+01 -0.80808230610E+02  0.86234099935E+02  0.00000000000E+00 0. -1.
</event>
<event>
 7    1  0.2619826E-009  0.1282100E+03  0.7561462E-02  0.1230136E+00
          2   -1    0    0  501    0  0.00000000000E+00  0.00000000000E+00  0.71977938857E+03  0.71977938857E+03  0.00000000000E+00 0. -1.
         -2   -1    0    0    0  501 -0.00000000000E+00 -0.00000000000E+00 -0.33416912233E+02  0.33416912233E+02  0.00000000000E+00 0.  1.
         25    2    1    2    0    0 -0.70839919940E+02  0.89360281254E+02  0.34776193268E+03  0.38677150593E+03  0.12510108653E+03 0.  0.
          5    1    3    3  502    0 -0.14065549238E+02  0.45594187247E+01  0.23153265327E+03  0.23204195721E+03  0.41800000000E+01 0.  1.
         -5    1    3    3    0  502 -0.56774370701E+02  0.84800862529E+02  0.11622927941E+03  0.15472954872E+03  0.41800000000E+01 0.  1.
        -11    1    1    2    0    0  0.87898783727E+02 -0.82435899095E+02  0.30769212055E+03  0.33044865666E+03  0.00000000000E+00 0. -1.
         11    1    1    2    0    0 -0.17058863788E+02 -0.69243821590E+01  0.30908423108E+02  0.35976138217E+02  0.00000000000E+00 0.  1.
</event>
<event>
 7    1  0.2619826E-009  0.1313480E+03  0.7561462E-02  0.1225469E+00
         -1   -1    0    0    0  501 -0.00000000000E+00  0.00000000000E+00  0.19238419162E+03  0.19238419162E+03  0.00000000000E+00 0.  1.
          1   -1    0    0  501    0  0.00000000000E+00 -0.00000000000E+00 -0.13896288216E+03  0.13896288216E+03  0.00000000000E+00 0. -1.
         25    2    1    2    0    0  0.11190901855E+03 -0.13139285588E-01  0.78291828564E+02  0.18519840863E+03  0.12508082001E+03 0.  0.
          5    1    3    3  502    0  0.84688257188E+02  0.31122324554E+02  0.10287997110E+03  0.13690310750E+03  0.41800000000E+01 0.  1.
         -5    1    3    3    0  502  0.27220761359E+02 -0.31135463840E+02 -0.24588142534E+02  0.48295301125E+02  0.41800000000E+01 0.  1.
        -11    1    1    2    0    0 -0.49134358284E+02 -0.33671451529E+02 -0.41992490639E+02  0.72878810927E+02  0.00000000000E+00 0.  1.
         11    1    1    2    0    0 -0.62774660263E+02  0.33684590815E+02  0.17121971531E+02  0.73269854228E+02  0.00000000000E+00 0. -1.
</event>
<event>
 7    1  0.2619826E-009  0.1737684E+03  0.7561462E-02  0.1173974E+00
         -1   -1    0    0    0  501 -0.00000000000E+00  0.00000000000E+00  0.89794746483E+02  0.89794746483E+02  0.00000000000E+00 0.  1.
          1   -1    0    0  501    0  0.00000000000E+00 -0.00000000000E+00 -0.38989163610E+03  0.38989163610E+03  0.00000000000E+00 0. -1.
         25    2    1    2    0    0  0.85827908297E+02 -0.12564859686E+03 -0.15233441848E+03  0.24900842727E+03  0.12508166158E+03 0.  0.
          5    1    3    3  502    0  0.14125655852E+02 -0.11811534716E+03 -0.12269343202E+03  0.17094420157E+03  0.41800000000E+01 0. -1.
         -5    1    3    3    0  502  0.71702252445E+02 -0.75332496957E+01 -0.29640986463E+02  0.78064225706E+02  0.41800000000E+01 0. -1.
        -11    1    1    2    0    0 -0.27131464392E+02  0.71326139771E+02 -0.18253132425E+02  0.78464714477E+02  0.00000000000E+00 0.  1.
         11    1    1    2    0    0 -0.58696443905E+02  0.54322457088E+02 -0.12950933871E+03  0.15221324084E+03  0.00000000000E+00 0. -1.
</event>
<event>
 7    1  0.2619826E-009  0.2248784E+03  0.7561462E-02  0.1130297E+00
         -2   -1    0    0    0  501 -0.00000000000E+00  0.00000000000E+00  0.10322605452E+03  0.10322605452E+03  0.00000000000E+00 0.  1.
          2   -1    0    0  501    0  0.00000000000E+00 -0.00000000000E+00 -0.54840936956E+03  0.54840936956E+03  0.00000000000E+00 0. -1.
         25    2    1    2    0    0 -0.19002295282E+03 -0.92738227544E+02 -0.23279193665E+03  0.33845015143E+03  0.12508923930E+03 0.  0.
          5    1    3    3  502    0 -0.15623440657E+03 -0.48237613792E+02 -0.23015695949E+03  0.28235749606E+03  0.41800000000E+01 0. -1.
         -5    1    3    3    0  502 -0.33788546247E+02 -0.44500613752E+02 -0.26349771616E+01  0.56092655370E+02  0.41800000000E+01 0. -1.
        -11    1    1    2    0    0  0.56983704116E+02 -0.15048930275E+02 -0.54938418179E+02  0.80571971734E+02  0.00000000000E+00 0.  1.
         11    1    1    2    0    0  0.13303924870E+03  0.10778715782E+03 -0.15745296021E+03  0.23261330092E+03  0.00000000000E+00 0. -1.
</event>
<event>
 7    1  0.2619826E-009  0.2521420E+03  0.7561462E-02  0.1111959E+00
          4   -1    0    0  501    0  0.00000000000E+00  0.00000000000E+00  0.63805358578E+02  0.63805358578E+02  0.00000000000E+00 0. -1.
         -4   -1    0    0    0  501 -0.00000000000E+00 -0.00000000000E+00 -0.12198029061E+04  0.12198029061E+04  0.00000000000E+00 0.  1.
         25    2    1    2    0    0  0.20226813388E+03 -0.12512811702E+03 -0.81330127543E+03  0.85654868611E+03  0.12508894200E+03 0.  0.
          5    1    3    3  502    0  0.44617491756E+02 -0.69707904510E+02 -0.43702826356E+03  0.44481579117E+03  0.41800000000E+01 0.  1.
         -5    1    3    3    0  502  0.15765064213E+03 -0.55420212510E+02 -0.37627301187E+03  0.41173289494E+03  0.41800000000E+01 0.  1.
        -11    1    1    2    0    0 -0.10869511037E+03  0.14975364547E+02 -0.16222873981E+03  0.19584956621E+03  0.00000000000E+00 0. -1.
         11    1    1    2    0    0 -0.93573023511E+02  0.11015275247E+03 -0.18046753226E+03  0.23121001234E+03  0.00000000000E+00 0.  1.
</event>
<event>
 7    1  0.2619826E-009  0.9474884E+02  0.7561462E-02  0.1291743E+00
          1   -1    0    0  501    0  0.00000000000E+00  0.00000000000E+00  0.79881746401E+02  0.79881746401E+02  0.00000000000E+00 0. -1.
         -1   -1    0    0    0  501 -0.00000000000E+00 -0.00000000000E+00 -0.15945437774E+03  0.15945437774E+03  0.00000000000E+00 0.  1.
         25    2    1    2    0    0  0.23753233481E+02 -0.12936944000E+02 -0.27703023820E+02  0.13094533724E+03  0.12509053999E+03 0.  0.
          5    1    3    3  502    0  0.48326818995E+02 -0.42651422959E+02 -0.53912598824E+02  0.84134808650E+02  0.41800000000E+01 0.  1.
         -5    1    3    3    0  502 -0.24573585515E+02  0.29714478959E+02  0.26209575004E+02  0.46810528589E+02  0.41800000000E+01 0.  1.
        -11    1    1    2    0    0 -0.10127207843E+02 -0.34921548598E+02  0.20911782742E+00  0.36360949182E+02  0.00000000000E+00 0. -1.
         11    1    1    2    0    0 -0.13626025638E+02  0.47858492598E+02 -0.52078725348E+02  0.72029837722E+02  0.00000000000E+00 0.  1.
</event>
<event>
 7    1  0.2619826E-009  0.1038870E+03  0.7561462E-02  0.1272328E+00
         -1   -1    0    0    0  501 -0.00000000000E+00  0.00000000000E+00  0.30528191730E+02  0.30528191730E+02  0.00000000000E+00 0. -1.
          1   -1    0    0  501    0  0.00000000000E+00 -0.00000000000E+00 -0.45167693009E+03  0.45167693009E+03  0.00000000000E+00 0.  1.
         25    2    1    2    0    0 -0.33393657838E+02  0.20679726243E+02 -0.19532852638E+03  0.23524979210E+03  0.12508574662E+03 0.  0.
          5    1    3    3  502    0 -0.63996884616E+02 -0.93731295970E+01 -0.17686270518E+03  0.18836492689E+03  0.41800000000E+01 0.  1.
         -5    1    3    3    0  502  0.30603226778E+02  0.30052855840E+02 -0.18465821193E+02  0.46884865210E+02  0.41800000000E+01 0.  1.
        -11    1    1    2    0    0  0.49211495924E+02 -0.47712317833E+02 -0.14987320788E+03  0.16480356502E+03  0.00000000000E+00 0.  1.
         11    1    1    2    0    0 -0.15817838086E+02  0.27032591590E+02 -0.75947004108E+02  0.82151764697E+02  0.00000000000E+00 0. -1.
</event>
<event>
 7    1  0.2619826E-009  0.1345776E+03  0.7561462E-02  0.1220817E+00
          2   -1    0    0  501    0  0.00000000000E+00  0.00000000000E+00  0.17363846608E+04  0.17363846608E+04  0.00000000000E+00 0. -1.
         -2   -1    0    0    0  501 -0.00000000000E+00 -0.00000000000E+00 -0.16226395742E+02  0.16226395742E+02  0.00000000000E+00 0.  1.
         25    2    1    2    0    0  0.27567758492E+02 -0.11131934569E+03  0.12176236133E+04  0.12293928575E+04  0.12509019329E+03 0.  0.
          5    1    3    3  502    0  0.52575932077E+02 -0.22417206592E+02  0.21467832339E+03  0.22219589267E+03  0.41800000000E+01 0.  1.
         -5    1    3    3    0  502 -0.25008173585E+02 -0.88902139098E+02  0.10029452899E+04  0.10071969648E+04  0.41800000000E+01 0.  1.
        -11    1    1    2    0    0 -0.60062534141E+01  0.85720018200E+02  0.46523178337E+03  0.47310105565E+03  0.00000000000E+00 0. -1.
         11    1    1    2    0    0 -0.21561505077E+02  0.25599327490E+02  0.37302868423E+02  0.50117143391E+02  0.00000000000E+00 0.  1.
</event>
<event>
 7    1  0.2619826E-009  0.1230160E+03  0.7561462E-02  0.1238203E+00
          1   -1    0    0  501    0  0.00000000000E+00  0.00000000000E+00  0.55106363306E+03  0.55106363306E+03  0.00000000000E+00 0. -1.
         -1   -1    0    0    0  501 -0.00000000000E+00 -0.00000000000E+00 -0.39501974965E+02  0.39501974965E+02  0.00000000000E+00 0.  1.
         25    2    1    2    0    0 -0.13730445047E+02 -0.58397394585E+02  0.11928437789E+03  0.18295735182E+03  0.12508336804E+03 0.  0.
          5    1    3    3  502    0 -0.37609923592E+02 -0.89038044323E+02  0.10086452037E+03  0.13976195318E+03  0.41800000000E+01 0.  1.
         -5    1    3    3    0  502  0.23879478545E+02  0.30640649739E+02  0.18419857525E+02  0.43195398635E+02  0.41800000000E+01 0.  1.
        -11    1    1    2    0    0  0.48282826597E+02  0.77449051769E+01  0.19391997188E+03  0.19999042576E+03  0.00000000000E+00 0. -1.
         11    1    1    2    0    0 -0.34552381551E+02  0.50652489408E+02  0.19835730833E+03  0.20761783045E+03  0.00000000000E+00 0.  1.
</event>
<event>
 7    1  0.2619826E-009  0.1603186E+03  0.7561462E-02  0.1188337E+00
          2   -1    0    0  501    0  0.00000000000E+00  0.00000000000E+00  0.55883221206E+03  0.55883221206E+03  0.00000000000E+00 0. -1.
         -2   -1    0    0    0  501 -0.00000000000E+00 -0.00000000000E+00 -0.52381709142E+02  0.52381709142E+02  0.00000000000E+00 0.  1.
         25    2    1    2    0    0 -0.83673747657E+02 -0.83746509975E+02  0.37161143877E+03  0.40958225063E+03  0.12509110531E+03 0.  0.
          5    1    3    3  502    0 -0.62735131266E+02  0.19285421474E+02  0.16744034061E+03  0.17989264643E+03  0.41800000000E+01 0. -1.
         -5    1    3    3    0  502 -0.20938616391E+02 -0.10303193145E+03  0.20417109816E+03  0.22968960420E+03  0.41800000000E+01 0. -1.
        -11    1    1    2    0    0  0.74823277044E+02  0.10132056203E+02  0.73985538195E+02  0.10571206749E+03  0.00000000000E+00 0. -1.
         11    1    1    2    0    0  0.88504706126E+01  0.73614453772E+02  0.60853525951E+02  0.95919603080E+02  0.00000000000E+00 0.  1.
</event>
<event>
 7    1  0.2619826E-009  0.1464751E+03  0.7561462E-02  0.1204873E+00
          1   -1    0    0  501    0  0.00000000000E+00  0.00000000000E+00  0.87146024634E+02  0.87146024634E+02  0.00000000000E+00 0. -1.
         -1   -1    0    0    0  501 -0.00000000000E+00 -0.00000000000E+00 -0.39818945797E+03  0.39818945797E+03  0.00000000000E+00 0.  1.
         25    2    1    2    0    0 -0.49163399540E+02 -0.11016581854E+03 -0.45464672196E+02  0.17963262326E+03  0.12508915018E+03 0.  0.
          5    1    3    3  502    0  0.19333234548E+02 -0.84462268803E+02 -0.59272107790E+02  0.10506333314E+03  0.41800000000E+01 0.  1.
         -5    1    3    3    0  502 -0.68496634087E+02 -0.25703549736E+02  0.13807435594E+02  0.74569290113E+02  0.41800000000E+01 0.  1.
        -11    1    1    2    0    0 -0.71934985633E+01  0.49884453115E+02 -0.17956542716E+03  0.18650455146E+03  0.00000000000E+00 0.  1.
         11    1    1    2    0    0  0.56356898103E+02  0.60281365423E+02 -0.86013333987E+02  0.11919830789E+03  0.00000000000E+00 0. -1.
</event>
<event>
 7    1  0.2619826E-009  0.1040676E+03  0.7561462E-02  0.1271968E+00
         -1   -1    0    0    0  501 -0.00000000000E+00  0.00000000000E+00  0.55885613733E+02  0.55885613733E+02  0.00000000000E+00 0.  1.
          1   -1    0    0  501    0  0.00000000000E+00 -0.00000000000E+00 -0.22419037794E+03  0.22419037794E+03  0.00000000000E+00 0. -1.
         25    2    1    2    0    0  0.22779517060E+02 -0.14383213621E+01 -0.11811293057E+03  0.17354818116E+03  0.12508929471E+03 0.  0.
          5    1    3    3  502    0  0.37695917707E+02 -0.57241613389E+02 -0.72240199987E+02  0.99667965813E+02  0.41800000000E+01 0. -1.
         -5    1    3    3    0  502 -0.14916400647E+02  0.55803292027E+02 -0.45872730581E+02  0.73880215350E+02  0.41800000000E+01 0. -1.
        -11    1    1    2    0    0  0.11099262299E+02  0.33267533476E+02 -0.48706772763E+02  0.60018931349E+02  0.00000000000E+00 0. -1.
         11    1    1    2    0    0 -0.33878779359E+02 -0.31829212114E+02 -0.14850608730E+01  0.46508879158E+02  0.00000000000E+00 0.  1.
</event>
<event>
 7    1  0.2619826E-009  0.1252839E+03  0.7561462E-02  0.1234626E+00
         -2   -1    0    0    0  501 -0.00000000000E+00  0.00000000000E+00  0.70981460607E+03  0.70981460607E+03  0.00000000000E+00 0.  1.
          2   -1    0    0  501    0  0.00000000000E+00 -0.00000000000E+00 -0.29970195577E+02  0.29970195577E+02  0.00000000000E+00 0. -1.
         25    2    1    2    0    0  0.17534532656E+02 -0.95797814257E+02  0.41203651845E+03  0.44148237503E+03  0.12509162189E+03 0.  0.
          5    1    3    3  502    0 -0.36702345306E+02 -0.20447011174E+02  0.40522394777E+02  0.58520759525E+02  0.41800000000E+01 0.  1.
         -5    1    3    3    0  502  0.54236877962E+02 -0.75350803082E+02  0.37151412368E+03  0.38296161550E+03  0.41800000000E+01 0.  1.
        -11    1    1    2    0    0  0.92324111009E+01  0.86627061076E+02  0.25030440233E+03  0.26503165651E+03  0.00000000000E+00 0.  1.
         11    1    1    2    0    0 -0.26766943756E+02  0.91707531801E+01  0.17503489710E+02  0.33270770114E+02  0.00000000000E+00 0. -1.
</event>
<event>
 7    1  0.2619826E-009  0.1806221E+03  0.7561462E-02  0.1167202E+00
          1   -1    0    0  501    0  0.00000000000E+00  0.00000000000E+00  0.40087166511E+03  0.40087166511E+03  0.00000000000E+00 0. -1.
         -1   -1    0    0    0  501 -0.00000000000E+00 -0.00000000000E+00 -0.96849834465E+02  0.96849834465E+02  0.00000000000E+00 0.  1.
         25    2    1    2    0    0  0.52335417955E+01 -0.14586614412E+03  0.65988318913E+02  0.20323820890E+03  0.12508792653E+03 0.  0.
          5    1    3    3  502    0  0.62028177171E+02 -0.72727625115E+02  0.13250873460E+02  0.96591201801E+02  0.41800000000E+01 0. -1.
         -5    1    3    3    0  502 -0.56794635375E+02 -0.73138519006E+02  0.52737445453E+02  0.10664700710E+03  0.41800000000E+01 0. -1.
        -11    1    1    2    0    0  0.19271099906E+02  0.14707956585E+03  0.19586539167E+03  0.24569701999E+03  0.00000000000E+00 0. -1.
         11    1    1    2    0    0 -0.24504641702E+02 -0.12134217280E+01  0.42168120071E+02  0.48786270687E+02  0.00000000000E+00 0.  1.
</event>
<event>
 7    1  0.2619826E-009  0.1804757E+03  0.7561462E-02  0.1167343E+00
         -1   -1    0    0    0  501 -0.00000000000E+00  0.00000000000E+00  0.13905115194E+03  0.13905115194E+03  0.00000000000E+00 0.  1.
          1   -1    0    0  501    0  0.00000000000E+00 -0.00000000000E+00 -0.27350936484E+03  0.27350936484E+03  0.00000000000E+00 0. -1.
         25    2    1    2    0    0  0.66307164516E+02  0.14427838852E+03 -0.98779989085E+02  0.22498305241E+03  0.12508794573E+03 0.  0.
          5    1    3    3  502    0 -0.35951094768E+02  0.21050192318E+02 -0.17877429290E+02  0.45526549284E+02  0.41800000000E+01 0.  1.
         -5    1    3    3    0  502  0.10225825928E+03  0.12322819620E+03 -0.80902559795E+02  0.17945650312E+03  0.41800000000E+01 0.  1.
        -11    1    1    2    0    0 -0.58654313471E+02 -0.12264293152E+03  0.10148786285E+02  0.13632540116E+03  0.00000000000E+00 0.  1.
         11    1    1    2    0    0 -0.76528510446E+01 -0.21635457007E+02 -0.45827010093E+02  0.51252063208E+02  0.00000000000E+00 0. -1.
</event>
<event>
 7    1  0.2619826E-009  0.1062956E+03  0.7561462E-02  0.1267588E+00
          1   -1    0    0  501    0  0.00000000000E+00  0.00000000000E+00  0.50925808251E+03  0.50925808251E+03  0.00000000000E+00 0. -1.
         -1   -1    0    0    0  501 -0.00000000000E+00 -0.00000000000E+00 -0.23859724127E+02  0.23859724127E+02  0.00000000000E+00 0.  1.
         25    2    1    2    0    0 -0.73083140376E+01  0.12018694589E+02  0.23132699184E+03  0.26335799519E+03  0.12508955193E+03 0.  0.
          5    1    3    3  502    0 -0.61816252579E+02  0.29178197879E+02  0.12081473681E+03  0.13887508540E+03  0.41800000000E+01 0. -1.
         -5    1    3    3    0  502  0.54507938542E+02 -0.17159503290E+02  0.11051225503E+03  0.12448290979E+03  0.41800000000E+01 0. -1.
        -11    1    1    2    0    0  0.29247688682E+02  0.28433368252E+02  0.81222479543E+02  0.90889905416E+02  0.00000000000E+00 0.  1.
         11    1    1    2    0    0 -0.21939374644E+02 -0.40452062841E+02  0.17284888700E+03  0.17886990604E+03  0.00000000000E+00 0. -1.
</event>
<event>
 7    1  0.2619826E-009  0.9182678E+02  0.7561462E-02  0.1298487E+00
          1   -1    0    0  501    0  0.00000000000E+00  0.00000000000E+00  0.26146404847E+02  0.26146404847E+02  0.00000000000E+00 0.  1.
         -1   -1    0    0    0  501 -0.00000000000E+00 -0.00000000000E+00 -0.50015505539E+03  0.50015505539E+03  0.00000000000E+00 0. -1.
         25    2    1    2    0    0  0.53238970714E+01  0.37307908268E+02 -0.25901651824E+03  0.29009740846E+03  0.12508687289E+03 0.  0.
          5    1    3    3  502    0  0.42755481522E+02  0.23939170711E+02 -0.24150744477E+03  0.24646385815E+03  0.41800000000E+01 0. -1.
         -5    1    3    3    0  502 -0.37431584450E+02  0.13368737558E+02 -0.17509073473E+02  0.43633550305E+02  0.41800000000E+01 0. -1.
        -11    1    1    2    0    0 -0.35018388581E+02 -0.50954686551E+02 -0.16756605018E+03  0.17860864703E+03  0.00000000000E+00 0. -1.
         11    1    1    2    0    0  0.29694491510E+02  0.13646778282E+02 -0.47426082119E+02  0.57595404753E+02  0.00000000000E+00 0.  1.
</event>
<event>
 7    1  0.3981896E-009  0.9131822E+02  0.7561462E-02  0.1299690E+00
         -2   -1    0    0    0  501 -0.00000000000E+00  0.00000000000E+00  0.65964905883E+02  0.65964905883E+02  0.00000000000E+00 0.  1.
          2   -1    0    0  501    0  0.00000000000E+00 -0.00000000000E+00 -0.29008934446E+03  0.29008934446E+03  0.00000000000E+00 0. -1.
         25    2    1    2    0    0  0.10870025771E+02  0.85094416718E+02 -0.13057684847E+03  0.20014212972E+03  0.12508933414E+03 0.  0.
          5    1    3    3  502    0  0.13898080365E+02  0.11908103297E+02  0.23149688661E+02  0.29805033922E+02  0.41800000000E+01 0.  1.
         -5    1    3    3    0  502 -0.30280545935E+01  0.73186313421E+02 -0.15372653714E+03  0.17033709580E+03  0.41800000000E+01 0.  1.
        -11    1    1    2    0    0 -0.15011059874E+02 -0.18736161112E+02  0.15225129556E+02  0.28428510720E+02  0.00000000000E+00 0.  1.
         11    1    1    2    0    0  0.41410341032E+01 -0.66358255606E+02 -0.10877271965E+03  0.12748360989E+03  0.00000000000E+00 0. -1.
</event>
<event>
 7    1  0.2619826E-009  0.1102618E+03  0.7561462E-02  0.1260086E+00
         -1   -1    0    0    0  501 -0.00000000000E+00  0.00000000000E+00  0.31416925243E+02  0.31416925243E+02  0.00000000000E+00 0.  1.
          1   -1    0    0  501    0  0.00000000000E+00 -0.00000000000E+00 -0.54355812360E+03  0.54355812360E+03  0.00000000000E+00 0. -1.
         25    2    1    2    0    0 -0.65107802466E+02  0.38815134747E+02 -0.28884214469E+03  0.32376121532E+03  0.12508356956E+03 0.  0.
          5    1    3    3  502    0 -0.33868119315E+02  0.83405110586E+02 -0.15640644128E+03  0.18051013614E+03  0.41800000000E+01 0. -1.
         -5    1    3    3    0  502 -0.31239683151E+02 -0.44589975838E+02 -0.13243570341E+03  0.14325107918E+03  0.41800000000E+01 0. -1.
        -11    1    1    2    0    0  0.30898149593E+02 -0.18799548940E+02 -0.14962631392E+02  0.39140759149E+02  0.00000000000E+00 0.  1.
         11    1    1    2    0    0  0.34209652873E+02 -0.20015585807E+02 -0.20833642228E+03  0.21207307438E+03  0.00000000000E+00 0. -1.
</event>
<event>
 7    1  0.2619826E-009  0.9394006E+02  0.7561462E-02  0.1293581E+00
         -4   -1    0    0    0  501 -0.00000000000E+00  0.00000000000E+00  0.57241455269E+03  0.57241455269E+03  0.00000000000E+00 0.  1.
          4   -1    0    0  501    0  0.00000000000E+00 -0.00000000000E+00 -0.24772635200E+02  0.24772635200E+02  0.00000000000E+00 0. -1.
         25    2    1    2    0    0 -0.49042462526E+02 -0.22763196749E+02  0.30684709092E+03  0.33574656453E+03  0.12508913674E+03 0.  0.
          5    1    3    3  502    0 -0.37267733722E+02 -0.46480834520E+02  0.30280208324E+03  0.30863558766E+03  0.41800000000E+01 0. -1.
         -5    1    3    3    0  502 -0.11774728804E+02  0.23717637772E+02  0.40450076809E+01  0.27110976873E+02  0.41800000000E+01 0. -1.
        -11    1    1    2    0    0  0.44121243820E+02  0.53996980964E+02  0.17698848196E+03  0.19022954780E+03  0.00000000000E+00 0.  1.
         11    1    1    2    0    0  0.49212187063E+01 -0.31233784216E+02  0.63806344615E+02  0.71211075565E+02  0.00000000000E+00 0. -1.
</event>
<event>
 7    1  0.2619826E-009  0.2294424E+03  0.7561462E-02  0.1127033E+00
          1   -1    0    0  501    0  0.00000000000E+00  0.00000000000E+00  0.23995430953E+03  0.23995430953E+03  0.00000000000E+00 0. -1.
         -1   -1    0    0    0  501 -0.00000000000E+00 -0.00000000000E+00 -0.23962720997E+03  0.23962720997E+03  0.00000000000E+00 0.  1.
         25    2    1    2    0    0  0.21221808426E+03  0.43137899549E+02 -0.14878757571E+02  0.25053164753E+03  0.12508930938E+03 0.  0.
          5    1    3    3  502    0  0.10808962155E+03  0.76437206313E+02 -0.39846334832E+02  0.13831563757E+03  0.41800000000E+01 0. -1.
         -5    1    3    3    0  502  0.10412846271E+03 -0.33299306764E+02  0.24967577260E+02  0.11221600996E+03  0.41800000000E+01 0. -1.
        -11    1    1    2    0    0 -0.12552642991E+03 -0.32672045390E+02 -0.26328863032E+02  0.13235390506E+03  0.00000000000E+00 0.  1.
         11    1    1    2    0    0 -0.86691654348E+02 -0.10465854159E+02  0.41534720170E+02  0.96695966909E+02  0.00000000000E+00 0. -1.
</event>
<event>
 7    1  0.2619826E-009  0.1287284E+03  0.7561462E-02  0.1229355E+00
         -2   -1    0    0    0  501 -0.00000000000E+00  0.00000000000E+00  0.54464283663E+02  0.54464283663E+02  0.00000000000E+00 0.  1.
          2   -1    0    0  501    0  0.00000000000E+00 -0.00000000000E+00 -0.31682424213E+03  0.31682424213E+03  0.00000000000E+00 0. -1.
         25    2    1    2    0    0  0.16888340697E+02 -0.66901953014E+02 -0.17718771447E+03  0.22759292210E+03  0.12506784023E+03 0.  0.
          5    1    3    3  502    0 -0.23909039139E+02 -0.91737098682E+02 -0.11811380249E+03  0.15151132026E+03  0.41800000000E+01 0.  1.
         -5    1    3    3    0  502  0.40797379835E+02  0.24835145669E+02 -0.59073911983E+02  0.76081601842E+02  0.41800000000E+01 0.  1.
        -11    1    1    2    0    0  0.37442765162E+02  0.18101243046E+02 -0.40700195024E+02  0.58190390424E+02  0.00000000000E+00 0. -1.
         11    1    1    2    0    0 -0.54331105859E+02  0.48800709968E+02 -0.44472048975E+02  0.85505213275E+02  0.00000000000E+00 0.  1.
</event>
<event>
 7    1  0.2619826E-009  0.1056893E+03  0.7561462E-02  0.1268767E+00
          1   -1    0    0  501    0  0.00000000000E+00  0.00000000000E+00  0.10781447515E+03  0.10781447515E+03  0.00000000000E+00 0. -1.
         -1   -1    0    0    0  501 -0.00000000000E+00 -0.00000000000E+00 -0.15491136852E+03  0.15491136852E+03  0.00000000000E+00 0.  1.
         25    2    1    2    0    0 -0.31768129160E+02  0.45307013093E+02 -0.72975785207E+02  0.15503160814E+03  0.12508954725E+03 0.  0.
          5    1    3    3  502    0  0.21002910142E+02 -0.21148432320E+02 -0.62572741263E+02  0.69434852727E+02  0.41800000000E+01 0. -1.
         -5    1    3    3    0  502 -0.52771039303E+02  0.66455445413E+02 -0.10403043944E+02  0.85596755414E+02  0.41800000000E+01 0. -1.
        -11    1    1    2    0    0  0.32277980898E+02  0.15292522653E+02 -0.10226220804E+02  0.37152454723E+02  0.00000000000E+00 0.  1.
         11    1    1    2    0    0 -0.50985173795E+00 -0.60599535746E+02  0.36105112642E+02  0.70541780813E+02  0.00000000000E+00 0. -1.
</event>
<event>
 7    1  0.2619826E-009  0.1048144E+03  0.7561462E-02  0.1270486E+00
          1   -1    0    0  501    0  0.00000000000E+00  0.00000000000E+00  0.24987734238E+03  0.24987734238E+03  0.00000000000E+00 0. -1.
         -1   -1    0    0    0  501 -0.00000000000E+00 -0.00000000000E+00 -0.59809405552E+02  0.59809405552E+02  0.00000000000E+00 0.  1.
         25    2    1    2    0    0 -0.23395301253E+02 -0.31388016361E+02  0.15603390333E+03  0.20377892656E+03  0.12508686674E+03 0.  0.
          5    1    3    3  502    0  0.18675651986E+02  0.39354217842E+02  0.82230242887E+02  0.93149448116E+02  0.41800000000E+01 0. -1.
         -5    1    3    3    0  502 -0.42070953239E+02 -0.70742234203E+02  0.73803660442E+02  0.11062947845E+03  0.41800000000E+01 0. -1.
        -11    1    1    2    0    0 -0.24424226074E+02 -0.29244958515E+01 -0.15420528407E+02  0.29032536776E+02  0.00000000000E+00 0.  1.
         11    1    1    2    0    0  0.47819527328E+02  0.34312512213E+02  0.49454561905E+02  0.76875284594E+02  0.00000000000E+00 0. -1.
</event>
<event>
 7    1  0.2619826E-009  0.9658747E+02  0.7561462E-02  0.1287640E+00
         -1   -1    0    0    0  501 -0.00000000000E+00  0.00000000000E+00  0.11800259537E+03  0.11800259537E+03  0.00000000000E+00 0. -1.
          1   -1    0    0  501    0  0.00000000000E+00 -0.00000000000E+00 -0.11178849144E+03  0.11178849144E+03  0.00000000000E+00 0.  1.
         25    2    1    2    0    0 -0.23020370330E+02  0.24690287758E+02 -0.14881130067E+02  0.13041675099E+03  0.12509010012E+03 0.  0.
          5    1    3    3  502    0 -0.19350075590E+02 -0.39562551870E+02 -0.41489274340E+02  0.60650253264E+02  0.41800000000E+01 0. -1.
         -5    1    3    3    0  502 -0.36702947404E+01  0.64252839628E+02  0.26608144273E+02  0.69766497729E+02  0.41800000000E+01 0. -1.
        -11    1    1    2    0    0  0.23280864713E+02 -0.52082648512E+02 -0.10016057204E+02  0.57921691443E+02  0.00000000000E+00 0. -1.
         11    1    1    2    0    0 -0.26049438269E+00  0.27392360753E+02  0.31111291200E+02  0.41452644368E+02  0.00000000000E+00 0.  1.
</event>
<event>
 7    1  0.2619826E-009  0.1487828E+03  0.7561462E-02  0.1201977E+00
         -1   -1    0    0    0  501 -0.00000000000E+00  0.00000000000E+00  0.39302930128E+02  0.39302930128E+02  0.00000000000E+00 0.  1.
          1   -1    0    0  501    0  0.00000000000E+00 -0.00000000000E+00 -0.59817854386E+03  0.59817854386E+03  0.00000000000E+00 0. -1.
         25    2    1    2    0    0  0.71946050083E+01 -0.10753486206E+03 -0.27322153628E+03  0.31923887961E+03  0.12509174820E+03 0.  0.
          5    1    3    3  502    0 -0.53571478783E+02 -0.55909130917E+02 -0.18304942716E+03  0.19879713137E+03  0.41800000000E+01 0. -1.
         -5    1    3    3    0  502  0.60766083791E+02 -0.51625731146E+02 -0.90172109120E+02  0.12044174824E+03  0.41800000000E+01 0. -1.
        -11    1    1    2    0    0  0.11599508816E+02 -0.13437918723E+02 -0.40536581319E+02  0.44253143271E+02  0.00000000000E+00 0.  1.
         11    1    1    2    0    0 -0.18794113824E+02  0.12097278079E+03 -0.24511749613E+03  0.27398945110E+03  0.00000000000E+00 0. -1.
</event>
<event>
 7    1  0.2619826E-009  0.1044103E+03  0.7561462E-02  0.1271286E+00
          2   -1    0    0  501    0  0.00000000000E+00  0.00000000000E+00  0.67997458300E+03  0.67997458300E+03  0.00000000000E+00 0. -1.
         -2   -1    0    0    0  501 -0.00000000000E+00 -0.00000000000E+00 -0.17385086390E+02  0.17385086390E+02  0.00000000000E+00 0.  1.
         25    2    1    2    0    0 -0.17719038462E+02  0.72301273320E+01  0.37360554073E+03  0.39445520941E+03  0.12509025982E+03 0.  0.
          5    1    3    3  502    0  0.41938008103E+02 -0.33691244423E+02  0.16817529636E+03  0.17661907932E+03  0.41800000000E+01 0.  1.
         -5    1    3    3    0  502 -0.59657046565E+02  0.40921371754E+02  0.20543024437E+03  0.21783613009E+03  0.41800000000E+01 0.  1.
        -11    1    1    2    0    0 -0.25584541980E+02  0.18913241221E+02  0.55218054677E+02  0.63728431992E+02  0.00000000000E+00 0.  1.
         11    1    1    2    0    0  0.43303580442E+02 -0.26143368553E+02  0.23376590120E+03  0.23917602798E+03  0.00000000000E+00 0. -1.
</event>
<event>
 7    1  0.2619826E-009  0.1090374E+03  0.7561462E-02  0.1262363E+00
          2   -1    0    0  501    0  0.00000000000E+00  0.00000000000E+00  0.22568360171E+02  0.22568360171E+02  0.00000000000E+00 0. -1.
         -2   -1    0    0    0  501 -0.00000000000E+00 -0.00000000000E+00 -0.57964245851E+03  0.57964245851E+03  0.00000000000E+00 0.  1.
         25    2    1    2    0    0  0.14206898048E+02 -0.16864816627E+02 -0.23720672552E+03  0.26907287740E+03  0.12508766815E+03 0.  0.
          5    1    3    3  502    0  0.92650146962E+01  0.53581698190E+02 -0.12566350956E+03  0.13698769621E+03  0.41800000000E+01 0.  1.
         -5    1    3    3    0  502  0.49418833515E+01 -0.70446514818E+02 -0.11154321596E+03  0.13208518118E+03  0.41800000000E+01 0.  1.
        -11    1    1    2    0    0 -0.38566717847E+02 -0.23852244100E+02 -0.16959783126E+03  0.17555553436E+03  0.00000000000E+00 0.  1.
         11    1    1    2    0    0  0.24359819799E+02  0.40717060727E+02 -0.15026954156E+03  0.15758240693E+03  0.00000000000E+00 0. -1.
</event>
<event>
 7    1  0.2619826E-009  0.9755242E+02  0.7561462E-02  0.1285529E+00
         -1   -1    0    0    0  501 -0.00000000000E+00  0.00000000000E+00  0.21162251042E+02  0.21162251042E+02  0.00000000000E+00 0.  1.
          1   -1    0    0  501    0  0.00000000000E+00 -0.00000000000E+00 -0.71511720052E+03  0.71511720052E+03  0.00000000000E+00 0. -1.
         25    2    1    2    0    0  0.37571195700E+02 -0.12102854593E+02 -0.33442251107E+03  0.35922686953E+03  0.12508978393E+03 0.  0.
          5    1    3    3  502    0  0.63899230240E+02 -0.25384461048E+02 -0.31767589164E+03  0.32505834402E+03  0.41800000000E+01 0.  1.
         -5    1    3    3    0  502 -0.26328034541E+02  0.13281606455E+02 -0.16746619429E+02  0.34168525503E+02  0.41800000000E+01 0.  1.
        -11    1    1    2    0    0  0.23521844222E+02 -0.16748091317E+02 -0.34111027612E+02  0.44691586715E+02  0.00000000000E+00 0.  1.
         11    1    1    2    0    0 -0.61093039922E+02  0.28850945911E+02 -0.32542141080E+03  0.33236099532E+03  0.00000000000E+00 0. -1.
</event>
<event>
 7    1  0.2619826E-009  0.1047621E+03  0.7561462E-02  0.1270589E+00
          2   -1    0    0  501    0  0.00000000000E+00  0.00000000000E+00  0.50565544726E+03  0.50565544726E+03  0.00000000000E+00 0. -1.
         -2   -1    0    0    0  501 -0.00000000000E+00 -0.00000000000E+00 -0.31287504174E+02  0.31287504174E+02  0.00000000000E+00 0.  1.
         25    2    1    2    0    0  0.55602086082E+02  0.27823963495E+02  0.32761576559E+03  0.35615221762E+03  0.12508615965E+03 0.  0.
          5    1    3    3  502    0  0.80044136297E+02  0.11929644049E+02  0.31290723216E+03  0.32323024069E+03  0.41800000000E+01 0.  1.
         -5    1    3    3    0  502 -0.24442050215E+02  0.15894319446E+02  0.14708533432E+02  0.32921976932E+02  0.41800000000E+01 0.  1.
        -11    1    1    2    0    0 -0.33179362825E+02  0.25068850546E+02  0.32038529529E+02  0.52495568952E+02  0.00000000000E+00 0.  1.
         11    1    1    2    0    0 -0.22422723257E+02 -0.52892814041E+02  0.11471364798E+03  0.12829516486E+03  0.00000000000E+00 0. -1.
</event>
<event>
 7    1  0.2619826E-009  0.1107144E+03  0.7561462E-02  0.1259253E+00
          1   -1    0    0  501    0  0.00000000000E+00  0.00000000000E+00  0.46212152689E+03  0.46212152689E+03  0.00000000000E+00 0. -1.
         -1   -1    0    0    0  501 -0.00000000000E+00 -0.00000000000E+00 -0.29883854248E+02  0.29883854248E+02  0.00000000000E+00 0.  1.
         25    2    1    2    0    0  0.27249385905E+02  0.22058363247E+02  0.30582977573E+03  0.33227698470E+03  0.12508813860E+03 0.  0.
          5    1    3    3  502    0 -0.29453679501E+02 -0.34208048568E+02  0.15571229486E+03  0.16217737510E+03  0.41800000000E+01 0. -1.
         -5    1    3    3    0  502  0.56703065406E+02  0.56266411814E+02  0.15011748087E+03  0.17009960960E+03  0.41800000000E+01 0. -1.
        -11    1    1    2    0    0 -0.26727913322E+02  0.32197047089E+02  0.41282433722E+02  0.58781549196E+02  0.00000000000E+00 0. -1.
         11    1    1    2    0    0 -0.52147258254E+00 -0.54255410336E+02  0.85125463190E+02  0.10094684724E+03  0.00000000000E+00 0.  1.
</event>
<event>
 7    1  0.2619826E-009  0.1183125E+03  0.7561462E-02  0.1245907E+00
         -3   -1    0    0    0  501 -0.00000000000E+00  0.00000000000E+00  0.53599878514E+02  0.53599878514E+02  0.00000000000E+00 0.  1.
          3   -1    0    0  501    0  0.00000000000E+00 -0.00000000000E+00 -0.44435391409E+03  0.44435391409E+03  0.00000000000E+00 0. -1.
         25    2    1    2    0    0  0.60176141254E+02 -0.56391038186E+02 -0.32088445213E+03  0.35414071756E+03  0.12509076323E+03 0.  0.
          5    1    3    3  502    0 -0.32501126792E+02 -0.41941253747E+02 -0.14997920751E+03  0.15914341675E+03  0.41800000000E+01 0. -1.
         -5    1    3    3    0  502  0.92677268045E+02 -0.14449784440E+02 -0.17090524463E+03  0.19499730081E+03  0.41800000000E+01 0. -1.
        -11    1    1    2    0    0 -0.57512080681E+02  0.33689557066E+02  0.37186871364E+01  0.66756679917E+02  0.00000000000E+00 0.  1.
         11    1    1    2    0    0 -0.26640605724E+01  0.22701481121E+02 -0.73588270579E+02  0.77056395131E+02  0.00000000000E+00 0. -1.
</event>
<event>
 7    1  0.2619826E-009  0.2169088E+03  0.7561462E-02  0.1136209E+00
         -1   -1    0    0    0  501 -0.00000000000E+00  0.00000000000E+00  0.67624395270E+03  0.67624395270E+03  0.00000000000E+00 0.  1.
          1   -1    0    0  501    0  0.00000000000E+00 -0.00000000000E+00 -0.85888641090E+02  0.85888641090E+02  0.00000000000E+00 0. -1.
         25    2    1    2    0    0  0.20125763600E+03 -0.39602098700E+02  0.40395215378E+03  0.46999776743E+03  0.12509035365E+03 0.  0.
          5    1    3    3  502    0  0.13927966733E+03 -0.46167047720E+02  0.37183250111E+03  0.39975880642E+03  0.41800000000E+01 0. -1.
         -5    1    3    3    0  502  0.61977968671E+02  0.65649490202E+01  0.32119652666E+02  0.70238961008E+02  0.41800000000E+01 0. -1.
        -11    1    1    2    0    0 -0.81471243922E+02  0.62403360196E+02  0.76807867990E+02  0.12818420938E+03  0.00000000000E+00 0.  1.
         11    1    1    2    0    0 -0.11978639208E+03 -0.22801261496E+02  0.10959528985E+03  0.16395061699E+03  0.00000000000E+00 0. -1.
</event>
<event>
 7    1  0.2619826E-009  0.1888473E+03  0.7561462E-02  0.1159505E+00
         -2   -1    0    0    0  501 -0.00000000000E+00  0.00000000000E+00  0.17844593831E+03  0.17844593831E+03  0.00000000000E+00 0.  1.
          2   -1    0    0  501    0  0.00000000000E+00 -0.00000000000E+00 -0.22953148362E+03  0.22953148362E+03  0.00000000000E+00 0. -1.
         25    2    1    2    0    0  0.48053803332E+02  0.15937827995E+03 -0.68443879367E+02  0.21917343659E+03  0.12506728810E+03 0.  0.
          5    1    3    3  502    0  0.31268134987E+01 -0.12904996249E+02  0.16726572035E+02  0.21761583189E+02  0.41800000000E+01 0. -1.
         -5    1    3    3    0  502  0.44926989834E+02  0.17228327620E+03 -0.85170451402E+02  0.19741185340E+03  0.41800000000E+01 0. -1.
        -11    1    1    2    0    0 -0.71504095581E+02 -0.11327703318E+03  0.25736545864E+02  0.13640708091E+03  0.00000000000E+00 0.  1.
         11    1    1    2    0    0  0.23450292249E+02 -0.46101246769E+02 -0.83782117995E+01  0.52396904423E+02  0.00000000000E+00 0. -1.
</event>
<event>
 7    1  0.2619826E-009  0.1029727E+03  0.7561462E-02  0.1274166E+00
          2   -1    0    0  501    0  0.00000000000E+00  0.00000000000E+00  0.10863918468E+04  0.10863918468E+04  0.00000000000E+00 0. -1.
         -2   -1    0    0    0  501 -0.00000000000E+00 -0.00000000000E+00 -0.13680668161E+02  0.13680668161E+02  0.00000000000E+00 0.  1.
         25    2    1    2    0    0  0.18081187041E+02 -0.26699755562E+02  0.81268371685E+03  0.82288671041E+03  0.12509159949E+03 0.  0.
          5    1    3    3  502    0 -0.38643073423E+02  0.12538130265E+02  0.11988622672E+03  0.12665177295E+03  0.41800000000E+01 0. -1.
         -5    1    3    3    0  502  0.56724260464E+02 -0.39237885827E+02  0.69279749013E+03  0.69623493746E+03  0.41800000000E+01 0. -1.
        -11    1    1    2    0    0  0.35087505299E+02  0.24493444219E+02  0.11706515672E+03  0.12464073474E+03  0.00000000000E+00 0. -1.
         11    1    1    2    0    0 -0.53168692340E+02  0.22063113428E+01  0.14296230510E+03  0.15254506985E+03  0.00000000000E+00 0.  1.
</event>
<event>
 7    1  0.2619826E-009  0.1167173E+03  0.7561462E-02  0.1248613E+00
          2   -1    0    0  501    0  0.00000000000E+00  0.00000000000E+00  0.69409213722E+02  0.69409213722E+02  0.00000000000E+00 0. -1.
         -2   -1    0    0    0  501 -0.00000000000E+00 -0.00000000000E+00 -0.22616133158E+03  0.22616133158E+03  0.00000000000E+00 0.  1.
         25    2    1    2    0    0 -0.15230701220E+02 -0.51382791331E+02 -0.51582711944E+02  0.14554375207E+03  0.12510012826E+03 0.  0.
          5    1    3    3  502    0  0.15047869367E+02  0.38081814601E+02 -0.20797464394E+02  0.46115831349E+02  0.41800000000E+01 0. -1.
         -5    1    3    3    0  502 -0.30278570588E+02 -0.89464605932E+02 -0.30785247551E+02  0.99427920718E+02  0.41800000000E+01 0. -1.
        -11    1    1    2    0    0  0.19933831214E+02  0.72967651369E+02 -0.10305334671E+03  0.12783437738E+03  0.00000000000E+00 0.  1.
         11    1    1    2    0    0 -0.47031299931E+01 -0.21584860038E+02 -0.21160592005E+01  0.22192415848E+02  0.00000000000E+00 0. -1.
</event>
<event>
 7    1  0.2619826E-009  0.1465487E+03  0.7561462E-02  0.1204779E+00
         -2   -1    0    0    0  501 -0.00000000000E+00  0.00000000000E+00  0.35069904231E+02  0.35069904231E+02  0.00000000000E+00 0.  1.
          2   -1    0    0  501    0  0.00000000000E+00 -0.00000000000E+00 -0.88061230844E+03  0.88061230844E+03  0.00000000000E+00 0. -1.
         25    2    1    2    0    0 -0.29987280368E+02  0.12916505923E+03 -0.35122229591E+03  0.39571081119E+03  0.12508835052E+03 0.  0.
          5    1    3    3  502    0 -0.81561108825E+01  0.78272856084E+02 -0.32477604158E+03  0.33420070575E+03  0.41800000000E+01 0.  1.
         -5    1    3    3    0  502 -0.21831169486E+02  0.50892203143E+02 -0.26446254331E+02  0.61510105430E+02  0.41800000000E+01 0.  1.
        -11    1    1    2    0    0  0.28844361020E+02 -0.14249058111E+03 -0.41980297117E+03  0.44426354506E+03  0.00000000000E+00 0.  1.
         11    1    1    2    0    0  0.11429193478E+01  0.13325521885E+02 -0.74517137129E+02  0.75707856422E+02  0.00000000000E+00 0. -1.
</event>
<event>
 7    1  0.2619826E-009  0.2316865E+03  0.7561462E-02  0.1125458E+00
          1   -1    0    0  501    0  0.00000000000E+00  0.00000000000E+00  0.58406251897E+03  0.58406251897E+03  0.00000000000E+00 0. -1.
         -1   -1    0    0    0  501 -0.00000000000E+00 -0.00000000000E+00 -0.10947008790E+03  0.10947008790E+03  0.00000000000E+00 0.  1.
         25    2    1    2    0    0  0.61217868953E+02  0.20857663240E+03  0.15028992256E+03  0.29237888997E+03  0.12508603205E+03 0.  0.
          5    1    3    3  502    0  0.19367617794E+02  0.17837764597E+03  0.61730821184E+02  0.18979424619E+03  0.41800000000E+01 0. -1.
         -5    1    3    3    0  502  0.41850251159E+02  0.30198986432E+02  0.88559101380E+02  0.10258464379E+03  0.41800000000E+01 0. -1.
        -11    1    1    2    0    0 -0.75747089973E+02 -0.11686846934E+03  0.15745070334E+03  0.21020605307E+03  0.00000000000E+00 0. -1.
         11    1    1    2    0    0  0.14529221020E+02 -0.91708163063E+02  0.16685180516E+03  0.19094766383E+03  0.00000000000E+00 0.  1.
</event>
<event>
 7    1  0.2619826E-009  0.9930915E+02  0.7561462E-02  0.1281755E+00
         -1   -1    0    0    0  501 -0.00000000000E+00  0.00000000000E+00  0.45809984342E+02  0.45809984342E+02  0.00000000000E+00 0.  1.
          1   -1    0    0  501    0  0.00000000000E+00 -0.00000000000E+00 -0.34835275538E+03  0.34835275538E+03  0.00000000000E+00 0. -1.
         25    2    1    2    0    0 -0.46065091395E+02 -0.44655486047E+02 -0.16272766057E+03  0.21504290225E+03  0.12508818176E+03 0.  0.
          5    1    3    3  502    0 -0.60986257356E+02 -0.62006384902E+02 -0.50978230087E+02  0.10089780819E+03  0.41800000000E+01 0.  1.
         -5    1    3    3    0  502  0.14921165961E+02  0.17350898855E+02 -0.11174943049E+03  0.11414509406E+03  0.41800000000E+01 0.  1.
        -11    1    1    2    0    0  0.20606255391E+02  0.56546498078E+02 -0.32932094102E+02  0.68605007311E+02  0.00000000000E+00 0.  1.
         11    1    1    2    0    0  0.25458836004E+02 -0.11891012031E+02 -0.10688301636E+03  0.11051483015E+03  0.00000000000E+00 0. -1.
</event>
<event>
 7    1  0.2619826E-009  0.1319531E+03  0.7561462E-02  0.1224586E+00
         -2   -1    0    0    0  501 -0.00000000000E+00  0.00000000000E+00  0.19226918421E+03  0.19226918421E+03  0.00000000000E+00 0.  1.
          2   -1    0    0  501    0  0.00000000000E+00 -0.00000000000E+00 -0.10427023487E+03  0.10427023487E+03  0.00000000000E+00 0. -1.
         25    2    1    2    0    0  0.49397778412E+02  0.70475298619E+02  0.77534639306E+02  0.17048734242E+03  0.12508958952E+03 0.  0.
          5    1    3    3  502    0  0.13412523078E+02 -0.30143768145E+02 -0.72210513041E+01  0.34031728067E+02  0.41800000000E+01 0. -1.
         -5    1    3    3    0  502  0.35985255335E+02  0.10061906676E+03  0.84755690611E+02  0.13645561435E+03  0.41800000000E+01 0. -1.
        -11    1    1    2    0    0 -0.57149307327E+02 -0.45525504576E+01 -0.60585613049E+01  0.57649589840E+02  0.00000000000E+00 0. -1.
         11    1    1    2    0    0  0.77515289146E+01 -0.65922748161E+02  0.16522871342E+02  0.68402486819E+02  0.00000000000E+00 0.  1.
</event>
<event>
 7    1  0.2619826E-009  0.2884320E+03  0.7561462E-02  0.1091171E+00
         -1   -1    0    0    0  501 -0.00000000000E+00  0.00000000000E+00  0.12794670548E+03  0.12794670548E+03  0.00000000000E+00 0.  1.
          1   -1    0    0  501    0  0.00000000000E+00 -0.00000000000E+00 -0.75036673012E+03  0.75036673012E+03  0.00000000000E+00 0. -1.
         25    2    1    2    0    0 -0.27026599247E+03  0.64742752905E+02 -0.19827255580E+03  0.36358629527E+03  0.12509059511E+03 0.  0.
          5    1    3    3  502    0 -0.20636797666E+03  0.77694262476E+02 -0.92277538147E+02  0.23907479302E+03  0.41800000000E+01 0. -1.
         -5    1    3    3    0  502 -0.63898015811E+02 -0.12951509571E+02 -0.10599501765E+03  0.12451150224E+03  0.41800000000E+01 0. -1.
        -11    1    1    2    0    0  0.13046073960E+03 -0.75557838437E+02 -0.20273140175E+03  0.25264404363E+03  0.00000000000E+00 0. -1.
         11    1    1    2    0    0  0.13980525287E+03  0.10815085532E+02 -0.22141606710E+03  0.26208309670E+03  0.00000000000E+00 0.  1.
</event>
<event>
 7    1  0.2619826E-009  0.1252656E+03  0.7561462E-02  0.1234655E+00
         -1   -1    0    0    0  501 -0.00000000000E+00  0.00000000000E+00  0.10784520602E+03  0.10784520602E+03  0.00000000000E+00 0.  1.
          1   -1    0    0  501    0  0.00000000000E+00 -0.00000000000E+00 -0.40622120145E+03  0.40622120145E+03  0.00000000000E+00 0. -1.
         25    2    1    2    0    0 -0.43266669737E+02 -0.52167674419E+02 -0.35437112044E+03  0.38186415430E+03  0.12509144804E+03 0.  0.
          5    1    3    3  502    0 -0.40973982280E+02 -0.90747127478E+02 -0.29023023553E+03  0.30686311343E+03  0.41800000000E+01 0. -1.
         -5    1    3    3    0  502 -0.22926874570E+01  0.38579453059E+02 -0.64140884909E+02  0.75001040867E+02  0.41800000000E+01 0. -1.
        -11    1    1    2    0    0 -0.19339335029E+02  0.45008985363E+02  0.48171410555E+02  0.68704464467E+02  0.00000000000E+00 0.  1.
         11    1    1    2    0    0  0.62606004765E+02  0.71586890560E+01  0.78237144619E+01  0.63497788699E+02  0.00000000000E+00 0. -1.
</event>
<event>
 7    1  0.2619826E-009  0.1137551E+03  0.7561462E-02  0.1253770E+00
          2   -1    0    0  501    0  0.00000000000E+00  0.00000000000E+00  0.13353126280E+04  0.13353126280E+04  0.00000000000E+00 0. -1.
         -2   -1    0    0    0  501 -0.00000000000E+00 -0.00000000000E+00 -0.13909848075E+02  0.13909848075E+02  0.00000000000E+00 0.  1.
         25    2    1    2    0    0 -0.72502960720E+02  0.21059101807E+02  0.87322855332E+03  0.88536767057E+03  0.12509052993E+03 0.  0.
          5    1    3    3  502    0  0.92044634768E+01  0.37985589768E+02  0.97087851423E+02  0.10474325979E+03  0.41800000000E+01 0. -1.
         -5    1    3    3    0  502 -0.81707424197E+02 -0.16926487961E+02  0.77614070190E+03  0.78062441078E+03  0.41800000000E+01 0. -1.
        -11    1    1    2    0    0  0.49199717286E+02 -0.48205181813E+02  0.38620915231E+03  0.39230327689E+03  0.00000000000E+00 0. -1.
         11    1    1    2    0    0  0.23303243434E+02  0.27146080006E+02  0.61965074312E+02  0.71551528626E+02  0.00000000000E+00 0.  1.
</event>
<event>
 7    1  0.2619826E-009  0.1197247E+03  0.7561462E-02  0.1243552E+00
          2   -1    0    0  501    0  0.00000000000E+00  0.00000000000E+00  0.14753471411E+04  0.14753471411E+04  0.00000000000E+00 0. -1.
         -2   -1    0    0    0  501 -0.00000000000E+00 -0.00000000000E+00 -0.12022470516E+02  0.12022470516E+02  0.00000000000E+00 0.  1.
         25    2    1    2    0    0  0.36046747304E+02  0.61886763471E+02  0.97069004846E+03  0.98133350425E+03  0.12508771677E+03 0.  0.
          5    1    3    3  502    0  0.79327454453E+02  0.34171639518E+02  0.46089274436E+03  0.46893511297E+03  0.41800000000E+01 0. -1.
         -5    1    3    3    0  502 -0.43280707149E+02  0.27715123953E+02  0.50979730411E+03  0.51239839128E+03  0.41800000000E+01 0. -1.
        -11    1    1    2    0    0 -0.13861462106E+02  0.15565671632E+02  0.30565594573E+02  0.36995754306E+02  0.00000000000E+00 0.  1.
         11    1    1    2    0    0 -0.22185285198E+02 -0.77452435102E+02  0.46206902756E+03  0.46904035307E+03  0.00000000000E+00 0. -1.
</event>
<event>
 7    1  0.2619826E-009  0.1019750E+03  0.7561462E-02  0.1276197E+00
          2   -1    0    0  501    0  0.00000000000E+00  0.00000000000E+00  0.16992609600E+03  0.16992609600E+03  0.00000000000E+00 0. -1.
         -2   -1    0    0    0  501 -0.00000000000E+00 -0.00000000000E+00 -0.83370123814E+02  0.83370123814E+02  0.00000000000E+00 0.  1.
         25    2    1    2    0    0 -0.47972821535E+02 -0.66556371580E+01  0.56755777136E+02  0.14565184322E+03  0.12509017580E+03 0.  0.
          5    1    3    3  502    0 -0.40845059317E+02  0.50151896777E+02  0.59770288316E+02  0.88167405465E+02  0.41800000000E+01 0. -1.
         -5    1    3    3    0  502 -0.71277622172E+01 -0.56807533935E+02 -0.30145111803E+01  0.57484437752E+02  0.41800000000E+01 0. -1.
        -11    1    1    2    0    0  0.23967184975E+02  0.36353209632E+02 -0.17435319560E+02  0.46903860975E+02  0.00000000000E+00 0.  1.
         11    1    1    2    0    0  0.24005636559E+02 -0.29697572474E+02  0.47235514608E+02  0.60740515620E+02  0.00000000000E+00 0. -1.
</event>
<event>
 7    1  0.2619826E-009  0.9873639E+02  0.7561462E-02  0.1282976E+00
         -1   -1    0    0    0  501 -0.00000000000E+00  0.00000000000E+00  0.32885237022E+03  0.32885237022E+03  0.00000000000E+00 0.  1.
          1   -1    0    0  501    0  0.00000000000E+00 -0.00000000000E+00 -0.41281383093E+02  0.41281383093E+02  0.00000000000E+00 0. -1.
         25    2    1    2    0    0  0.22274235293E+02  0.12519401999E+02  0.21131696461E+03  0.24691027204E+03  0.12512771845E+03 0.  0.
          5    1    3    3  502    0 -0.31822167135E+02 -0.35825918086E+02  0.47046055852E+02  0.67282616619E+02  0.41800000000E+01 0. -1.
         -5    1    3    3    0  502  0.54096402428E+02  0.48345320085E+02  0.16427090876E+03  0.17962765543E+03  0.41800000000E+01 0. -1.
        -11    1    1    2    0    0 -0.68158113497E+01 -0.42460945741E+02  0.78441005515E+02  0.89456014575E+02  0.00000000000E+00 0.  1.
         11    1    1    2    0    0 -0.15458423943E+02  0.29941543742E+02 -0.21869829939E+01  0.33767466696E+02  0.00000000000E+00 0. -1.
</event>
<event>
 7    1  0.2619826E-009  0.1116488E+03  0.7561462E-02  0.1257547E+00
          2   -1    0    0  501    0  0.00000000000E+00  0.00000000000E+00  0.20490622638E+03  0.20490622638E+03  0.00000000000E+00 0.  1.
         -2   -1    0    0    0  501 -0.00000000000E+00 -0.00000000000E+00 -0.82756506203E+02  0.82756506203E+02  0.00000000000E+00 0. -1.
         25    2    1    2    0    0 -0.67905022480E+02  0.24876342458E+01  0.92646027702E+02  0.16984687998E+03  0.12508955108E+03 0.  0.
          5    1    3    3  502    0 -0.98274092600E+02 -0.24460749944E+02  0.62145773308E+02  0.11889362937E+03  0.41800000000E+01 0. -1.
         -5    1    3    3    0  502  0.30369070120E+02  0.26948384190E+02  0.30500254394E+02  0.50953250618E+02  0.41800000000E+01 0. -1.
        -11    1    1    2    0    0 -0.10088925586E+00 -0.12397927029E+02 -0.26438502925E+02  0.29201253572E+02  0.00000000000E+00 0. -1.
         11    1    1    2    0    0  0.68005911735E+02  0.99102927833E+01  0.55942195400E+02  0.88614599024E+02  0.00000000000E+00 0.  1.
</event>
<event>
 7    1  0.2619826E-009  0.1264901E+03  0.7561462E-02  0.1232759E+00
          1   -1    0    0  501    0  0.00000000000E+00  0.00000000000E+00  0.24809948024E+03  0.24809948024E+03  0.00000000000E+00 0. -1.
         -1   -1    0    0    0  501 -0.00000000000E+00 -0.00000000000E+00 -0.13088565292E+03  0.13088565292E+03  0.00000000000E+00 0.  1.
         25    2    1    2    0    0  0.34766929128E+02 -0.81479483629E+02  0.18011798629E+03  0.23649077867E+03  0.12505100479E+03 0.  0.
          5    1    3    3  502    0  0.80473611282E+02 -0.65567122463E+02  0.11124938126E+03  0.15221349116E+03  0.41800000000E+01 0.  1.
         -5    1    3    3    0  502 -0.45706682154E+02 -0.15912361166E+02  0.68868605026E+02  0.84277287508E+02  0.41800000000E+01 0.  1.
        -11    1    1    2    0    0  0.57793349567E+01  0.46817551755E+02 -0.74240937500E+02  0.87960222065E+02  0.00000000000E+00 0.  1.
         11    1    1    2    0    0 -0.40546264084E+02  0.34661931874E+02  0.11336778534E+02  0.54534132431E+02  0.00000000000E+00 0. -1.
</event>
<event>
 7    1  0.2619826E-009  0.1352475E+03  0.7561462E-02  0.1219871E+00
         -1   -1    0    0    0  501 -0.00000000000E+00  0.00000000000E+00  0.16248387016E+03  0.16248387016E+03  0.00000000000E+00 0.  1.
          1   -1    0    0  501    0  0.00000000000E+00 -0.00000000000E+00 -0.15145868312E+03  0.15145868312E+03  0.00000000000E+00 0. -1.
         25    2    1    2    0    0 -0.10483332105E+03  0.18526336650E+02  0.43692533254E+02  0.16996901025E+03  0.12508867508E+03 0.  0.
          5    1    3    3  502    0 -0.15215052716E+02  0.62187217348E+02  0.11911933925E+02  0.65254228985E+02  0.41800000000E+01 0. -1.
         -5    1    3    3    0  502 -0.89618268334E+02 -0.43660880698E+02  0.31780599329E+02  0.10471478127E+03  0.41800000000E+01 0. -1.
        -11    1    1    2    0    0  0.89738879241E+02 -0.14166966199E+02  0.16518109636E+02  0.92339684452E+02  0.00000000000E+00 0.  1.
         11    1    1    2    0    0  0.15094441808E+02 -0.43593704515E+01 -0.49185455852E+02  0.51633858577E+02  0.00000000000E+00 0. -1.
</event>
<event>
 7    1  0.2619826E-009  0.1123785E+03  0.7561462E-02  0.1256228E+00
         -2   -1    0    0    0  501 -0.00000000000E+00  0.00000000000E+00  0.47845045554E+03  0.47845045554E+03  0.00000000000E+00 0.  1.
          2   -1    0    0  501    0  0.00000000000E+00 -0.00000000000E+00 -0.31352221142E+02  0.31352221142E+02  0.00000000000E+00 0. -1.
         25    2    1    2    0    0 -0.37678873033E+02 -0.26266272155E+02  0.17493723345E+03  0.21991068913E+03  0.12509221007E+03 0.  0.
          5    1    3    3  502    0  0.22927231686E+02  0.35381751704E+02  0.33153904345E+02  0.53797584330E+02  0.41800000000E+01 0. -1.
         -5    1    3    3    0  502 -0.60606104719E+02 -0.61648023859E+02  0.14178332910E+03  0.16611310480E+03  0.41800000000E+01 0. -1.
        -11    1    1    2    0    0  0.23979382236E+02 -0.29727484964E+02  0.15041611343E+03  0.15518937243E+03  0.00000000000E+00 0.  1.
         11    1    1    2    0    0  0.13699490797E+02  0.55993757119E+02  0.12174488752E+03  0.13470261513E+03  0.00000000000E+00 0. -1.
</event>
<event>
 7    1  0.2619826E-009  0.1219637E+03  0.7561462E-02  0.1239892E+00
         -1   -1    0    0    0  501 -0.00000000000E+00  0.00000000000E+00  0.43714534821E+02  0.43714534821E+02  0.00000000000E+00 0.  1.
          1   -1    0    0  501    0  0.00000000000E+00 -0.00000000000E+00 -0.40927428750E+03  0.40927428750E+03  0.00000000000E+00 0. -1.
         25    2    1    2    0    0 -0.30388241210E+02  0.58729062190E+02 -0.25940525227E+03  0.29548439203E+03  0.12508954024E+03 0.  0.
          5    1    3    3  502    0  0.16170004575E+02 -0.33733702144E+02 -0.61686423425E+02  0.72264230040E+02  0.41800000000E+01 0.  1.
         -5    1    3    3    0  502 -0.46558245785E+02  0.92462764333E+02 -0.19771882884E+03  0.22322016199E+03  0.41800000000E+01 0.  1.
        -11    1    1    2    0    0  0.54108751091E+01  0.19667809498E+02  0.32051109913E+01  0.20648802299E+02  0.00000000000E+00 0.  1.
         11    1    1    2    0    0  0.24977366101E+02 -0.78396871688E+02 -0.10935961140E+03  0.13685562799E+03  0.00000000000E+00 0. -1.
</event>
<event>
 7    1  0.2619826E-009  0.1241463E+03  0.7561462E-02  0.1236410E+00
         -3   -1    0    0    0  501 -0.00000000000E+00  0.00000000000E+00  0.54153704451E+03  0.54153704451E+03  0.00000000000E+00 0.  1.
          3   -1    0    0  501    0  0.00000000000E+00 -0.00000000000E+00 -0.38927628923E+02  0.38927628923E+02  0.00000000000E+00 0. -1.
         25    2    1    2    0    0 -0.31476218529E+02 -0.72894257950E+02  0.38315658548E+03  0.41080452030E+03  0.12508820781E+03 0.  0.
          5    1    3    3  502    0 -0.65795547777E+02 -0.84085114436E+02  0.32609650853E+03  0.34315560006E+03  0.41800000000E+01 0.  1.
         -5    1    3    3    0  502  0.34319329248E+02  0.11190856487E+02  0.57060076950E+02  0.67648920246E+02  0.41800000000E+01 0.  1.
        -11    1    1    2    0    0 -0.12399511195E+02  0.57164474833E+02  0.10613202267E+03  0.12118387392E+03  0.00000000000E+00 0.  1.
         11    1    1    2    0    0  0.43875729724E+02  0.15729783117E+02  0.13320807441E+02  0.48476279216E+02  0.00000000000E+00 0. -1.
</event>
<event>
 7    1  0.2619826E-009  0.1190472E+03  0.7561462E-02  0.1244677E+00
         -1   -1    0    0    0  501 -0.00000000000E+00  0.00000000000E+00  0.64867926439E+02  0.64867926439E+02  0.00000000000E+00 0.  1.
          1   -1    0    0  501    0  0.00000000000E+00 -0.00000000000E+00 -0.29486876235E+03  0.29486876235E+03  0.00000000000E+00 0. -1.
         25    2    1    2    0    0  0.17482743998E+02 -0.72300367400E+02 -0.17718353504E+03  0.22929114077E+03  0.12508969855E+03 0.  0.
          5    1    3    3  502    0  0.70080572337E+02 -0.48171762056E+02 -0.12509249847E+03  0.15131890448E+03  0.41800000000E+01 0. -1.
         -5    1    3    3    0  502 -0.52597828339E+02 -0.24128605344E+02 -0.52091036568E+02  0.77972236293E+02  0.41800000000E+01 0. -1.
        -11    1    1    2    0    0  0.22001562646E+02  0.27431655154E+02  0.16563897869E+02  0.38870646714E+02  0.00000000000E+00 0.  1.
         11    1    1    2    0    0 -0.39484306644E+02  0.44868712247E+02 -0.69381198741E+02  0.91574901303E+02  0.00000000000E+00 0. -1.
</event>
<event>
 7    1  0.2619826E-009  0.7452932E+02  0.7561462E-02  0.1345335E+00
          2   -1    0    0  501    0  0.00000000000E+00  0.00000000000E+00  0.99947057183E+02  0.99947057183E+02  0.00000000000E+00 0. -1.
         -2   -1    0    0    0  501 -0.00000000000E+00 -0.00000000000E+00 -0.16338572519E+03  0.16338572519E+03  0.00000000000E+00 0.  1.
         25    2    1    2    0    0 -0.59489743961E+02 -0.27442965379E+02 -0.55142505193E+02  0.15159181601E+03  0.12508891564E+03 0.  0.
          5    1    3    3  502    0 -0.67285385904E+02 -0.30616251003E+02  0.19334440024E+02  0.76524316089E+02  0.41800000000E+01 0. -1.
         -5    1    3    3    0  502  0.77956419434E+01  0.31732856244E+01 -0.74476945217E+02  0.75067499918E+02  0.41800000000E+01 0. -1.
        -11    1    1    2    0    0  0.36589129109E+02  0.18855063434E+02 -0.49160022257E+02  0.64116967914E+02  0.00000000000E+00 0.  1.
         11    1    1    2    0    0  0.22900614852E+02  0.85879019447E+01  0.40863859442E+02  0.47623998455E+02  0.00000000000E+00 0. -1.
</event>
<event>
 7    1  0.2619826E-009  0.1027549E+03  0.7561462E-02  0.1274607E+00
         -2   -1    0    0    0  501 -0.00000000000E+00  0.00000000000E+00  0.40000906618E+02  0.40000906618E+02  0.00000000000E+00 0.  1.
          2   -1    0    0  501    0  0.00000000000E+00 -0.00000000000E+00 -0.30783854223E+03  0.30783854223E+03  0.00000000000E+00 0. -1.
         25    2    1    2    0    0  0.47120995643E+01 -0.18606895276E+02 -0.10381893721E+03  0.16369053267E+03  0.12509116007E+03 0.  0.
          5    1    3    3  502    0  0.61644157447E+02  0.50870171347E+01 -0.68963716179E+02  0.92732661128E+02  0.41800000000E+01 0.  1.
         -5    1    3    3    0  502 -0.56932057883E+02 -0.23693912411E+02 -0.34855221030E+02  0.70957871538E+02  0.41800000000E+01 0.  1.
        -11    1    1    2    0    0 -0.26060432946E+02  0.42382837338E+02 -0.11862473680E+03  0.12863622836E+03  0.00000000000E+00 0.  1.
         11    1    1    2    0    0  0.21348333382E+02 -0.23775942061E+02 -0.45393961605E+02  0.55512687823E+02  0.00000000000E+00 0. -1.
</event>
<event>
 7    1  0.2619826E-009  0.9194425E+02  0.7561462E-02  0.1298211E+00
          1   -1    0    0  501    0  0.00000000000E+00  0.00000000000E+00  0.82494670642E+02  0.82494670642E+02  0.00000000000E+00 0. -1.
         -1   -1    0    0    0  501 -0.00000000000E+00 -0.00000000000E+00 -0.20802648788E+03  0.20802648788E+03  0.00000000000E+00 0.  1.
         25    2    1    2    0    0  0.57207709092E+01 -0.94056090577E+01 -0.15104902569E+03  0.19642348512E+03  0.12508071251E+03 0.  0.
          5    1    3    3  502    0 -0.58345169382E+02 -0.76796831538E+01 -0.91302749873E+02  0.10870510962E+03  0.41800000000E+01 0. -1.
         -5    1    3    3    0  502  0.64065940291E+02 -0.17259259040E+01 -0.59746275816E+02  0.87718375495E+02  0.41800000000E+01 0. -1.
        -11    1    1    2    0    0  0.59029772034E+00 -0.25342757981E+02  0.46540977325E+02  0.52996852773E+02  0.00000000000E+00 0. -1.
         11    1    1    2    0    0 -0.63110686295E+01  0.34748367039E+02 -0.21023768878E+02  0.41100820636E+02  0.00000000000E+00 0.  1.
</event>
<event>
 7    1  0.2619826E-009  0.1284325E+03  0.7561462E-02  0.1229800E+00
          2   -1    0    0  501    0  0.00000000000E+00  0.00000000000E+00  0.61339462710E+03  0.61339462710E+03  0.00000000000E+00 0.  1.
         -2   -1    0    0    0  501 -0.00000000000E+00 -0.00000000000E+00 -0.39131415536E+02  0.39131415536E+02  0.00000000000E+00 0. -1.
         25    2    1    2    0    0 -0.39919998983E+02 -0.95997734496E+02  0.22435872145E+03  0.27711944904E+03  0.12509668979E+03 0.  0.
          5    1    3    3  502    0  0.10882269084E+02 -0.54044563980E+02  0.14551198781E+02  0.57170346004E+02  0.41800000000E+01 0. -1.
         -5    1    3    3    0  502 -0.50802268067E+02 -0.41953170515E+02  0.20980752267E+03  0.21994910303E+03  0.41800000000E+01 0. -1.
        -11    1    1    2    0    0  0.22971742115E+02 -0.12221729985E+02  0.55901813199E+02  0.61661043930E+02  0.00000000000E+00 0. -1.
         11    1    1    2    0    0  0.16948256868E+02  0.10821946448E+03  0.29400267691E+03  0.31374554967E+03  0.00000000000E+00 0.  1.
</event>
<event>
 6    1  0.2619826E-009  0.1394252E+03  0.7561462E-02  0.1214105E+00
          2   -1    0    0  501    0  0.00000000000E+00  0.00000000000E+00  0.13627416507E+03  0.13627416507E+03  0.00000000000E+00 0. -1.
         -2   -1    0    0    0  501 -0.00000000000E+00 -0.00000000000E+00 -0.18591865220E+03  0.18591865220E+03  0.00000000000E+00 0.  1.
          5    1    1    2  502    0 -0.44624613510E+02  0.47916547351E+02  0.51272769803E+02  0.83268967594E+02  0.41800000000E+01 0.  1.
         -5    1    1    2    0  502 -0.67323839465E+02 -0.17875233937E+02 -0.53140881324E+02  0.87712308238E+02  0.41800000000E+01 0.  1.
        -11    1    1    2    0    0  0.37753622458E+02  0.29832141911E+02 -0.15268495158E+02  0.50481874412E+02  0.00000000000E+00 0.  1.
         11    1    1    2    0    0  0.74194830517E+02 -0.59873455325E+02 -0.32507880444E+02  0.10072966702E+03  0.00000000000E+00 0. -1.
</event>
<event>
 7    1  0.2619826E-009  0.9336251E+02  0.7561462E-02  0.1294907E+00
          1   -1    0    0  501    0  0.00000000000E+00  0.00000000000E+00  0.79720989499E+03  0.79720989499E+03  0.00000000000E+00 0. -1.
         -1   -1    0    0    0  501 -0.00000000000E+00 -0.00000000000E+00 -0.16879380937E+02  0.16879380937E+02  0.00000000000E+00 0.  1.
         25    2    1    2    0    0  0.21410727245E+02  0.16980021458E+01  0.49751938137E+03  0.51345358367E+03  0.12509094811E+03 0.  0.
          5    1    3    3  502    0  0.59520223446E+02  0.26622855508E+02  0.40515433487E+03  0.41038876800E+03  0.41800000000E+01 0. -1.
         -5    1    3    3    0  502 -0.38109496200E+02 -0.24924853362E+02  0.92365046498E+02  0.10306481568E+03  0.41800000000E+01 0. -1.
        -11    1    1    2    0    0  0.22495709932E+02 -0.18014652123E+02  0.23666557935E+02  0.37291964562E+02  0.00000000000E+00 0.  1.
         11    1    1    2    0    0 -0.43906437177E+02  0.16316649977E+02  0.25914457475E+03  0.26334372769E+03  0.00000000000E+00 0. -1.
</event>
<event>
 7    1  0.2619826E-009  0.2225404E+03  0.7561462E-02  0.1132003E+00
         -1   -1    0    0    0  501 -0.00000000000E+00  0.00000000000E+00  0.11138481979E+03  0.11138481979E+03  0.00000000000E+00 0.  1.
          1   -1    0    0  501    0  0.00000000000E+00 -0.00000000000E+00 -0.49029186689E+03  0.49029186689E+03  0.00000000000E+00 0. -1.
         25    2    1    2    0    0  0.13163220005E+03  0.14936735070E+03 -0.12578843390E+03  0.26665733830E+03  0.12508303011E+03 0.  0.
          5    1    3    3  502    0  0.47994525930E+02 -0.14575127963E+02 -0.35672857213E+02  0.61692252481E+02  0.41800000000E+01 0. -1.
         -5    1    3    3    0  502  0.83637674119E+02  0.16394247867E+03 -0.90115576688E+02  0.20496508582E+03  0.41800000000E+01 0. -1.
        -11    1    1    2    0    0 -0.66291361428E+02 -0.26299030347E+02 -0.13360170325E+03  0.15144503528E+03  0.00000000000E+00 0.  1.
         11    1    1    2    0    0 -0.65340838621E+02 -0.12306832036E+03 -0.11951690995E+03  0.18357431310E+03  0.00000000000E+00 0. -1.
</event>
<event>
 7    1  0.2619826E-009  0.1048474E+03  0.7561462E-02  0.1270421E+00
         -2   -1    0    0    0  501 -0.00000000000E+00  0.00000000000E+00  0.33456723842E+02  0.33456723842E+02  0.00000000000E+00 0.  1.
          2   -1    0    0  501    0  0.00000000000E+00 -0.00000000000E+00 -0.15043067682E+04  0.15043067682E+04  0.00000000000E+00 0. -1.
         25    2    1    2    0    0 -0.75235663244E+02 -0.58134899546E+01 -0.13850016202E+04  0.13926847932E+04  0.12508894228E+03 0.  0.
          5    1    3    3  502    0 -0.16905852800E+02  0.40852349318E+02 -0.18128251974E+03  0.18664283181E+03  0.41800000000E+01 0.  1.
         -5    1    3    3    0  502 -0.58329810444E+02 -0.46665839273E+02 -0.12037191005E+04  0.12060419614E+04  0.41800000000E+01 0.  1.
        -11    1    1    2    0    0  0.12623488112E+02  0.22386486998E+02  0.11497470425E+02  0.28154912154E+02  0.00000000000E+00 0.  1.
         11    1    1    2    0    0  0.62612175133E+02 -0.16572997043E+02 -0.97345894509E+02  0.11692378665E+03  0.00000000000E+00 0. -1.
</event>
<event>
 7    1  0.2619826E-009  0.8880391E+02  0.7561462E-02  0.1305774E+00
          1   -1    0    0  501    0  0.00000000000E+00  0.00000000000E+00  0.88540367275E+02  0.88540367275E+02  0.00000000000E+00 0. -1.
         -1   -1    0    0    0  501 -0.00000000000E+00 -0.00000000000E+00 -0.17876768817E+03  0.17876768817E+03  0.00000000000E+00 0.  1.
         25    2    1    2    0    0 -0.20994714436E+02  0.56353618479E+02 -0.75530495957E+02  0.15801612612E+03  0.12509089473E+03 0.  0.
          5    1    3    3  502    0  0.62226968252E+01  0.35969064388E+02  0.29765940724E+02  0.47286141478E+02  0.41800000000E+01 0.  1.
         -5    1    3    3    0  502 -0.27217411261E+02  0.20384554091E+02 -0.10529643668E+03  0.11072998464E+03  0.41800000000E+01 0.  1.
        -11    1    1    2    0    0 -0.12829526424E+02  0.19620045374E+02  0.46717213317E+01  0.23903303306E+02  0.00000000000E+00 0.  1.
         11    1    1    2    0    0  0.33824240860E+02 -0.75973663853E+02 -0.19368546272E+02  0.85388626020E+02  0.00000000000E+00 0. -1.
</event>
<event>
 7    1  0.2619826E-009  0.1090918E+03  0.7561462E-02  0.1262261E+00
          2   -1    0    0  501    0  0.00000000000E+00  0.00000000000E+00  0.22146169791E+03  0.22146169791E+03  0.00000000000E+00 0. -1.
         -2   -1    0    0    0  501 -0.00000000000E+00 -0.00000000000E+00 -0.76375529780E+02  0.76375529780E+02  0.00000000000E+00 0.  1.
         25    2    1    2    0    0  0.55760089099E+01 -0.31195908332E+02  0.13962365600E+03  0.19012187796E+03  0.12508911461E+03 0.  0.
          5    1    3    3  502    0 -0.40884318546E+02  0.24530225626E+02  0.90581733766E+02  0.10244892564E+03  0.41800000000E+01 0.  1.
         -5    1    3    3    0  502  0.46460327456E+02 -0.55726133958E+02  0.49041922234E+02  0.87672952326E+02  0.41800000000E+01 0.  1.
        -11    1    1    2    0    0  0.22868185700E+02  0.55632315083E+02 -0.18838756961E+02  0.63030208334E+02  0.00000000000E+00 0.  1.
         11    1    1    2    0    0 -0.28444194610E+02 -0.24436406751E+02  0.24301269093E+02  0.44685141395E+02  0.00000000000E+00 0. -1.
</event>
<event>
 7    1  0.2619826E-009  0.1019379E+03  0.7561462E-02  0.1276273E+00
         -2   -1    0    0    0  501 -0.00000000000E+00  0.00000000000E+00  0.66063308232E+02  0.66063308232E+02  0.00000000000E+00 0.  1.
          2   -1    0    0  501    0  0.00000000000E+00 -0.00000000000E+00 -0.24728617532E+03  0.24728617532E+03  0.00000000000E+00 0. -1.
         25    2    1    2    0    0  0.46340820737E+02  0.39127059631E+02 -0.56993186342E+02  0.15024760497E+03  0.12509085117E+03 0.  0.
          5    1    3    3  502    0 -0.24066400812E+02 -0.17200096139E+02 -0.51846771673E+02  0.59838073900E+02  0.41800000000E+01 0. -1.
         -5    1    3    3    0  502  0.70407221549E+02  0.56327155770E+02 -0.51464146695E+01  0.90409531065E+02  0.41800000000E+01 0. -1.
        -11    1    1    2    0    0 -0.22749732176E+01 -0.39604184958E+02 -0.10977589772E+03  0.11672366808E+03  0.00000000000E+00 0. -1.
         11    1    1    2    0    0 -0.44065847519E+02  0.47712532746E+00 -0.14453783024E+02  0.46378210507E+02  0.00000000000E+00 0.  1.
</event>
<event>
 7    1  0.2619826E-009  0.1054368E+03  0.7561462E-02  0.1269261E+00
         -2   -1    0    0    0  501 -0.00000000000E+00  0.00000000000E+00  0.36408871412E+02  0.36408871412E+02  0.00000000000E+00 0.  1.
          2   -1    0    0  501    0  0.00000000000E+00 -0.00000000000E+00 -0.58661850203E+03  0.58661850203E+03  0.00000000000E+00 0. -1.
         25    2    1    2    0    0 -0.12979306461E+02  0.61250442850E+02 -0.45830946280E+03  0.47918164439E+03  0.12508958982E+03 0.  0.
          5    1    3    3  502    0 -0.53101556071E+02  0.62313067125E+02 -0.39972365622E+03  0.40804309495E+03  0.41800000000E+01 0. -1.
         -5    1    3    3    0  502  0.40122249610E+02 -0.10626242750E+01 -0.58585806579E+02  0.71138549441E+02  0.41800000000E+01 0. -1.
        -11    1    1    2    0    0  0.31884810340E+02 -0.61897342781E+02 -0.10114301883E+03  0.12279182559E+03  0.00000000000E+00 0. -1.
         11    1    1    2    0    0 -0.18905503878E+02  0.64689993078E+00  0.92428510077E+01  0.21053903466E+02  0.00000000000E+00 0.  1.
</event>
<event>
 7    1  0.2619826E-009  0.1106372E+03  0.7561462E-02  0.1259394E+00
          1   -1    0    0  501    0  0.00000000000E+00  0.00000000000E+00  0.95157308419E+02  0.95157308419E+02  0.00000000000E+00 0. -1.
         -1   -1    0    0    0  501 -0.00000000000E+00 -0.00000000000E+00 -0.22228297682E+03  0.22228297682E+03  0.00000000000E+00 0.  1.
         25    2    1    2    0    0 -0.41067891185E+02 -0.80906503185E+02 -0.10591973132E+03  0.18734567889E+03  0.12508788899E+03 0.  0.
          5    1    3    3  502    0 -0.12779160692E+02 -0.14431504002E+01 -0.10190494755E+03  0.10279825080E+03  0.41800000000E+01 0.  1.
         -5    1    3    3    0  502 -0.28288730493E+02 -0.79463352784E+02 -0.40147837708E+01  0.84547428094E+02  0.41800000000E+01 0.  1.
        -11    1    1    2    0    0 -0.24544549405E+02  0.36822010306E+02 -0.25240160848E+02  0.50944686358E+02  0.00000000000E+00 0.  1.
         11    1    1    2    0    0  0.65612440590E+02  0.44084492879E+02  0.40342237732E+01  0.79149919987E+02  0.00000000000E+00 0. -1.
</event>
<event>
 7    1  0.2619826E-009  0.1654468E+03  0.7561462E-02  0.1182681E+00
          2   -1    0    0  501    0  0.00000000000E+00  0.00000000000E+00  0.40011061979E+03  0.40011061979E+03  0.00000000000E+00 0. -1.
         -2   -1    0    0    0  501 -0.00000000000E+00 -0.00000000000E+00 -0.82594031116E+02  0.82594031116E+02  0.00000000000E+00 0.  1.
         25    2    1    2    0    0 -0.10699490775E+03  0.97536851551E+02  0.20266121357E+03  0.27871265680E+03  0.12509128619E+03 0.  0.
          5    1    3    3  502    0 -0.23632811965E+02  0.85516907304E+02  0.44201244414E+02  0.99211257647E+02  0.41800000000E+01 0.  1.
         -5    1    3    3    0  502 -0.83362095784E+02  0.12019944247E+02  0.15845996916E+03  0.17950139915E+03  0.41800000000E+01 0.  1.
        -11    1    1    2    0    0  0.55262388390E+02 -0.89793320330E+02  0.40210806588E+02  0.11284361264E+03  0.00000000000E+00 0.  1.
         11    1    1    2    0    0  0.51732519359E+02 -0.77435312212E+01  0.74644568512E+02  0.91148381463E+02  0.00000000000E+00 0. -1.
</event>
<event>
 7    1  0.2619826E-009  0.3401084E+03  0.7561462E-02  0.1066750E+00
          1   -1    0    0  501    0  0.00000000000E+00  0.00000000000E+00  0.70930190900E+03  0.70930190900E+03  0.00000000000E+00 0. -1.
         -1   -1    0    0    0  501 -0.00000000000E+00 -0.00000000000E+00 -0.18892537763E+03  0.18892537763E+03  0.00000000000E+00 0.  1.
         25    2    1    2    0    0  0.17123991274E+03  0.28636683471E+03  0.13693101085E+03  0.38174215205E+03  0.12509155521E+03 0.  0.
          5    1    3    3  502    0  0.12543935464E+03  0.24792795787E+03  0.15620517337E+03  0.31878022613E+03  0.41800000000E+01 0.  1.
         -5    1    3    3    0  502  0.45800558100E+02  0.38438876834E+02 -0.19274162514E+02  0.62961925916E+02  0.41800000000E+01 0.  1.
        -11    1    1    2    0    0 -0.29247926067E+02 -0.12073506338E+03  0.10434233172E+03  0.16223353198E+03  0.00000000000E+00 0.  1.
         11    1    1    2    0    0 -0.14199198667E+03 -0.16563177133E+03  0.27910318879E+03  0.35425160260E+03  0.00000000000E+00 0. -1.
</event>
<event>
 7    1  0.2619826E-009  0.3744517E+03  0.7561462E-02  0.1053004E+00
         -1   -1    0    0    0  501 -0.00000000000E+00  0.00000000000E+00  0.14557238555E+03  0.14557238555E+03  0.00000000000E+00 0.  1.
          1   -1    0    0  501    0  0.00000000000E+00 -0.00000000000E+00 -0.11098284863E+04  0.11098284863E+04  0.00000000000E+00 0. -1.
         25    2    1    2    0    0 -0.10877641572E+03 -0.34803272093E+03 -0.68980839508E+03  0.79021674574E+03  0.12509116625E+03 0.  0.
          5    1    3    3  502    0 -0.10554868144E+03 -0.20477821514E+03 -0.51464502984E+03  0.56387198963E+03  0.41800000000E+01 0.  1.
         -5    1    3    3    0  502 -0.32277342776E+01 -0.14325450578E+03 -0.17516336524E+03  0.22634475611E+03  0.41800000000E+01 0.  1.
        -11    1    1    2    0    0  0.34461052577E+02  0.24871440503E+03 -0.19446767407E+03  0.31759108248E+03  0.00000000000E+00 0.  1.
         11    1    1    2    0    0  0.74315363139E+02  0.99318315892E+02 -0.79980031587E+02  0.14759304361E+03  0.00000000000E+00 0. -1.
</event>
<event>
 7    1  0.2619826E-009  0.2169405E+03  0.7561462E-02  0.1136185E+00
         -2   -1    0    0    0  501 -0.00000000000E+00  0.00000000000E+00  0.93118712877E+02  0.93118712877E+02  0.00000000000E+00 0.  1.
          2   -1    0    0  501    0  0.00000000000E+00 -0.00000000000E+00 -0.56078336984E+03  0.56078336984E+03  0.00000000000E+00 0. -1.
         25    2    1    2    0    0  0.15189692838E+03 -0.13023650324E+03 -0.21871419523E+03  0.32174318896E+03  0.12509419180E+03 0.  0.
          5    1    3    3  502    0  0.15763237333E+03 -0.79290219195E+02 -0.20063451859E+03  0.26722010858E+03  0.41800000000E+01 0. -1.
         -5    1    3    3    0  502 -0.57354449471E+01 -0.50946284046E+02 -0.18079676636E+02  0.54523080380E+02  0.41800000000E+01 0. -1.
        -11    1    1    2    0    0 -0.10197471242E+03  0.55595164009E+02 -0.80648470701E+02  0.14139957588E+03  0.00000000000E+00 0. -1.
         11    1    1    2    0    0 -0.49922215964E+02  0.74641339231E+02 -0.16830199104E+03  0.19075931788E+03  0.00000000000E+00 0.  1.
</event>
<event>
 7    1  0.2619826E-009  0.1681693E+03  0.7561462E-02  0.1179771E+00
          3   -1    0    0  501    0  0.00000000000E+00  0.00000000000E+00  0.33728224822E+02  0.33728224822E+02  0.00000000000E+00 0. -1.
         -3   -1    0    0    0  501 -0.00000000000E+00 -0.00000000000E+00 -0.10772346193E+04  0.10772346193E+04  0.00000000000E+00 0.  1.
         25    2    1    2    0    0 -0.19162618550E+02  0.13039804665E+03 -0.79186315007E+03  0.81244427169E+03  0.12509032593E+03 0.  0.
          5    1    3    3  502    0  0.18214051177E+02  0.14027540370E+03 -0.65812173329E+03  0.67316463720E+03  0.41800000000E+01 0. -1.
         -5    1    3    3    0  502 -0.37376669726E+02 -0.98773570490E+01 -0.13374141677E+03  0.13927963448E+03  0.41800000000E+01 0. -1.
        -11    1    1    2    0    0  0.52307736020E+02 -0.82752417293E+02 -0.19069091900E+03  0.21435271961E+03  0.00000000000E+00 0.  1.
         11    1    1    2    0    0 -0.33145117471E+02 -0.47645629360E+02 -0.60952325423E+02  0.84165852837E+02  0.00000000000E+00 0. -1.
</event>
<event>
 7    1  0.2619826E-009  0.2064969E+03  0.7561462E-02  0.1144370E+00
          1   -1    0    0  501    0  0.00000000000E+00  0.00000000000E+00  0.92189688720E+03  0.92189688720E+03  0.00000000000E+00 0. -1.
         -1   -1    0    0    0  501 -0.00000000000E+00 -0.00000000000E+00 -0.54308159059E+02  0.54308159059E+02  0.00000000000E+00 0.  1.
         25    2    1    2    0    0 -0.18538141484E+03 -0.18257309614E+02  0.57378613187E+03  0.61609849685E+03  0.12508890585E+03 0.  0.
          5    1    3    3  502    0 -0.67934312248E+02  0.53519570909E+02  0.21308591848E+03  0.23000542668E+03  0.41800000000E+01 0.  1.
         -5    1    3    3    0  502 -0.11744710259E+03 -0.71776880523E+02  0.36070021340E+03  0.38609307017E+03  0.41800000000E+01 0.  1.
        -11    1    1    2    0    0  0.69654480073E+02  0.21601027229E+02  0.45019270536E+02  0.85703475374E+02  0.00000000000E+00 0.  1.
         11    1    1    2    0    0  0.11572693477E+03 -0.33437176153E+01  0.24878332573E+03  0.27440307403E+03  0.00000000000E+00 0. -1.
</event>
<event>
 7    1  0.2619826E-009  0.1002135E+03  0.7561462E-02  0.1279848E+00
          2   -1    0    0  501    0  0.00000000000E+00  0.00000000000E+00  0.33316459119E+03  0.33316459119E+03  0.00000000000E+00 0. -1.
         -2   -1    0    0    0  501 -0.00000000000E+00 -0.00000000000E+00 -0.41681837450E+02  0.41681837450E+02  0.00000000000E+00 0.  1.
         25    2    1    2    0    0 -0.42423901387E+02 -0.59263399624E+01  0.19095783179E+03  0.23226522261E+03  0.12508929290E+03 0.  0.
          5    1    3    3  502    0 -0.54598671136E+02 -0.41184211943E+02  0.18084936448E+03  0.19339368975E+03  0.41800000000E+01 0. -1.
         -5    1    3    3    0  502  0.12174769750E+02  0.35257871980E+02  0.10108467306E+02  0.38871532853E+02  0.41800000000E+01 0. -1.
        -11    1    1    2    0    0  0.41958092949E+02  0.41373170625E+02  0.36262773676E+02  0.69189663723E+02  0.00000000000E+00 0.  1.
         11    1    1    2    0    0  0.46580843796E+00 -0.35446830663E+02  0.64262148274E+02  0.73391542308E+02  0.00000000000E+00 0. -1.
</event>
<event>
 7    1  0.2619826E-009  0.1473507E+03  0.7561462E-02  0.1203767E+00
          3   -1    0    0  501    0  0.00000000000E+00  0.00000000000E+00  0.63342400502E+02  0.63342400502E+02  0.00000000000E+00 0. -1.
         -3   -1    0    0    0  501 -0.00000000000E+00 -0.00000000000E+00 -0.38144325224E+03  0.38144325224E+03  0.00000000000E+00 0.  1.
         25    2    1    2    0    0  0.12800615487E+02 -0.10787331135E+03 -0.13939593311E+03  0.21652334247E+03  0.12510245645E+03 0.  0.
          5    1    3    3  502    0 -0.14799515509E+02 -0.12823792974E+03 -0.95343765783E+02  0.16053628362E+03  0.41800000000E+01 0. -1.
         -5    1    3    3    0  502  0.27600130996E+02  0.20364618394E+02 -0.44052167325E+02  0.55987058856E+02  0.41800000000E+01 0. -1.
        -11    1    1    2    0    0 -0.36932425596E+02  0.24806883480E+02 -0.10708741388E+03  0.11596163046E+03  0.00000000000E+00 0.  1.
         11    1    1    2    0    0  0.24131810108E+02  0.83066427870E+02 -0.71617504756E+02  0.11230067981E+03  0.00000000000E+00 0. -1.
</event>
<event>
 7    1  0.2619826E-009  0.1159168E+03  0.7561462E-02  0.1249989E+00
         -2   -1    0    0    0  501 -0.00000000000E+00  0.00000000000E+00  0.16003744923E+03  0.16003744923E+03  0.00000000000E+00 0.  1.
          2   -1    0    0  501    0  0.00000000000E+00 -0.00000000000E+00 -0.11477085256E+03  0.11477085256E+03  0.00000000000E+00 0. -1.
         25    2    1    2    0    0 -0.25280284126E+02  0.52225314344E+02 -0.32074194561E+02  0.14156483892E+03  0.12508106747E+03 0.  0.
          5    1    3    3  502    0  0.40463389438E+02  0.50612250083E+02 -0.38279894173E+02  0.75377108204E+02  0.41800000000E+01 0.  1.
         -5    1    3    3    0  502 -0.65743673564E+02  0.16130642606E+01  0.62056996114E+01  0.66187730719E+02  0.41800000000E+01 0.  1.
        -11    1    1    2    0    0 -0.23536848399E+02  0.67116639026E+01  0.42749260780E+02  0.49259810821E+02  0.00000000000E+00 0.  1.
         11    1    1    2    0    0  0.48817132525E+02 -0.58936978246E+02  0.34591530446E+02  0.83983652048E+02  0.00000000000E+00 0. -1.
</event>
<event>
 7    1  0.2619826E-009  0.1587848E+03  0.7561462E-02  0.1190076E+00
         -2   -1    0    0    0  501 -0.00000000000E+00  0.00000000000E+00  0.26732510528E+02  0.26732510528E+02  0.00000000000E+00 0.  1.
          2   -1    0    0  501    0  0.00000000000E+00 -0.00000000000E+00 -0.10233049878E+04  0.10233049878E+04  0.00000000000E+00 0. -1.
         25    2    1    2    0    0 -0.11780373955E+03  0.84615548574E+01 -0.40386118972E+03  0.43897527945E+03  0.12508443726E+03 0.  0.
          5    1    3    3  502    0 -0.30216892913E+02 -0.53799961159E+02 -0.18607499127E+03  0.19608383721E+03  0.41800000000E+01 0. -1.
         -5    1    3    3    0  502 -0.87586846633E+02  0.62261516016E+02 -0.21778619845E+03  0.24289144224E+03  0.41800000000E+01 0. -1.
        -11    1    1    2    0    0  0.26925122385E+02  0.37638878031E+02 -0.20774867878E+03  0.21284069369E+03  0.00000000000E+00 0.  1.
         11    1    1    2    0    0  0.90878617161E+02 -0.46100432888E+02 -0.38496260873E+03  0.39822152514E+03  0.00000000000E+00 0. -1.
</event>
<event>
 7    1  0.2619826E-009  0.1293651E+03  0.7561462E-02  0.1228401E+00
         -2   -1    0    0    0  501 -0.00000000000E+00  0.00000000000E+00  0.31898718886E+03  0.31898718886E+03  0.00000000000E+00 0.  1.
          2   -1    0    0  501    0  0.00000000000E+00 -0.00000000000E+00 -0.61006316102E+02  0.61006316102E+02  0.00000000000E+00 0. -1.
         25    2    1    2    0    0  0.69940180774E+01 -0.76693343626E+02  0.91243498547E+02  0.17294422657E+03  0.12511412483E+03 0.  0.
          5    1    3    3  502    0  0.55802314283E+02 -0.55386701250E+01  0.16213053043E+02  0.58522736052E+02  0.41800000000E+01 0.  1.
         -5    1    3    3    0  502 -0.48808296205E+02 -0.71154673501E+02  0.75030445504E+02  0.11442149052E+03  0.41800000000E+01 0.  1.
        -11    1    1    2    0    0 -0.46351464769E+02  0.51948359988E+02  0.13121629330E+03  0.14854227014E+03  0.00000000000E+00 0.  1.
         11    1    1    2    0    0  0.39357446691E+02  0.24744983638E+02  0.35521080910E+02  0.58507008250E+02  0.00000000000E+00 0. -1.
</event>
<event>
 7    1  0.2619826E-009  0.1275894E+03  0.7561462E-02  0.1231077E+00
         -2   -1    0    0    0  501 -0.00000000000E+00  0.00000000000E+00  0.11409503108E+03  0.11409503108E+03  0.00000000000E+00 0.  1.
          2   -1    0    0  501    0  0.00000000000E+00 -0.00000000000E+00 -0.20900843513E+03  0.20900843513E+03  0.00000000000E+00 0. -1.
         25    2    1    2    0    0 -0.57141853141E+02 -0.67659005952E+02 -0.80401311144E+02  0.17307036006E+03  0.12508415660E+03 0.  0.
          5    1    3    3  502    0 -0.85538313568E+01  0.11088615667E+02  0.27331426752E+02  0.30993623805E+02  0.41800000000E+01 0.  1.
         -5    1    3    3    0  502 -0.48588021784E+02 -0.78747621619E+02 -0.10773273790E+03  0.14207673626E+03  0.41800000000E+01 0.  1.
        -11    1    1    2    0    0  0.61411933718E+02 -0.16564578200E+02  0.38585884994E+01  0.63723618534E+02  0.00000000000E+00 0.  1.
         11    1    1    2    0    0 -0.42700805768E+01  0.84223584152E+02 -0.18370681403E+02  0.86309487606E+02  0.00000000000E+00 0. -1.
</event>
<event>
 7    1  0.2619826E-009  0.8508208E+02  0.7561462E-02  0.1315218E+00
         -2   -1    0    0    0  501 -0.00000000000E+00  0.00000000000E+00  0.31782963608E+02  0.31782963608E+02  0.00000000000E+00 0.  1.
          2   -1    0    0  501    0  0.00000000000E+00 -0.00000000000E+00 -0.44016434929E+03  0.44016434929E+03  0.00000000000E+00 0. -1.
         25    2    1    2    0    0  0.13110702156E-01 -0.41131633394E+02 -0.19026169408E+03  0.23138446849E+03  0.12508976212E+03 0.  0.
          5    1    3    3  502    0 -0.28733327444E+02 -0.56081606258E+02 -0.33958703262E+02  0.71703672107E+02  0.41800000000E+01 0.  1.
         -5    1    3    3    0  502  0.28746438146E+02  0.14949972864E+02 -0.15630299082E+03  0.15968079638E+03  0.41800000000E+01 0.  1.
        -11    1    1    2    0    0 -0.25592625719E+02  0.41503122021E+02 -0.20700563959E+03  0.21267069956E+03  0.00000000000E+00 0. -1.
         11    1    1    2    0    0  0.25579515017E+02 -0.37148862720E+00 -0.11114052017E+02  0.27892144854E+02  0.00000000000E+00 0.  1.
</event>
<event>
 7    1  0.2619826E-009  0.1079456E+03  0.7561462E-02  0.1264422E+00
          1   -1    0    0  501    0  0.00000000000E+00  0.00000000000E+00  0.31552924690E+03  0.31552924690E+03  0.00000000000E+00 0. -1.
         -1   -1    0    0    0  501 -0.00000000000E+00 -0.00000000000E+00 -0.49643129555E+02  0.49643129555E+02  0.00000000000E+00 0.  1.
         25    2    1    2    0    0 -0.97124544581E+01 -0.23055109466E+02  0.23588362586E+03  0.26816830953E+03  0.12508911802E+03 0.  0.
          5    1    3    3  502    0 -0.63117157285E+02 -0.34755273664E+02  0.12146482457E+03  0.14129005839E+03  0.41800000000E+01 0.  1.
         -5    1    3    3    0  502  0.53404702827E+02  0.11700164198E+02  0.11441880129E+03  0.12687825115E+03  0.41800000000E+01 0.  1.
        -11    1    1    2    0    0  0.34940800648E+02  0.43936744448E+02  0.61147776750E+01  0.56468465258E+02  0.00000000000E+00 0. -1.
         11    1    1    2    0    0 -0.25228346190E+02 -0.20881634982E+02  0.23887713819E+02  0.40535601667E+02  0.00000000000E+00 0.  1.
</event>
<event>
 7    1  0.2619826E-009  0.5869122E+02  0.7561462E-02  0.1403408E+00
          1   -1    0    0  501    0  0.00000000000E+00  0.00000000000E+00  0.38451619243E+03  0.38451619243E+03  0.00000000000E+00 0. -1.
         -1   -1    0    0    0  501 -0.00000000000E+00 -0.00000000000E+00 -0.42672710601E+02  0.42672710601E+02  0.00000000000E+00 0.  1.
         25    2    1    2    0    0  0.33810103875E+02 -0.34051892263E+02  0.27093516198E+03  0.30225340868E+03  0.12509439065E+03 0.  0.
          5    1    3    3  502    0  0.29804576767E+02 -0.35557372981E+02  0.19101284120E+02  0.50348495753E+02  0.41800000000E+01 0. -1.
         -5    1    3    3    0  502  0.40055271082E+01  0.15054807181E+01  0.25183387786E+03  0.25190491293E+03  0.41800000000E+01 0. -1.
        -11    1    1    2    0    0 -0.29554055763E+02 -0.93736888472E+00 -0.14211284441E+02  0.32806729156E+02  0.00000000000E+00 0.  1.
         11    1    1    2    0    0 -0.42560481123E+01  0.34989261148E+02  0.85119604286E+02  0.92128765188E+02  0.00000000000E+00 0. -1.
</event>
<event>
 7    1  0.2619826E-009  0.1194843E+03  0.7561462E-02  0.1243950E+00
         -1   -1    0    0    0  501 -0.00000000000E+00  0.00000000000E+00  0.87300561524E+02  0.87300561524E+02  0.00000000000E+00 0.  1.
          1   -1    0    0  501    0  0.00000000000E+00 -0.00000000000E+00 -0.23430725806E+03  0.23430725806E+03  0.00000000000E+00 0. -1.
         25    2    1    2    0    0  0.40798429441E+02 -0.64079558509E+02 -0.14214659953E+03  0.20401849620E+03  0.12508872599E+03 0.  0.
          5    1    3    3  502    0  0.35629534777E+02  0.32344112571E+02 -0.61073330968E+02  0.77865457823E+02  0.41800000000E+01 0. -1.
         -5    1    3    3    0  502  0.51688946641E+01 -0.96423671081E+02 -0.81073268564E+02  0.12615303838E+03  0.41800000000E+01 0. -1.
        -11    1    1    2    0    0 -0.84409419383E+01  0.60920856880E+02 -0.37080874585E+02  0.71816373925E+02  0.00000000000E+00 0.  1.
         11    1    1    2    0    0 -0.32357487503E+02  0.31587016297E+01  0.32220777584E+02  0.45772949453E+02  0.00000000000E+00 0. -1.
</event>
<event>
 7    1  0.2619826E-009  0.7847744E+02  0.7561462E-02  0.1333429E+00
          2   -1    0    0  501    0  0.00000000000E+00  0.00000000000E+00  0.43598716296E+03  0.43598716296E+03  0.00000000000E+00 0. -1.
         -2   -1    0    0    0  501 -0.00000000000E+00 -0.00000000000E+00 -0.38157665571E+02  0.38157665571E+02  0.00000000000E+00 0.  1.
         25    2    1    2    0    0  0.34081863427E+02  0.53767730146E+01  0.33578859897E+03  0.35998353107E+03  0.12507468305E+03 0.  0.
          5    1    3    3  502    0 -0.28210677549E+02 -0.22190911640E+01  0.13526821176E+02  0.31641965560E+02  0.41800000000E+01 0.  1.
         -5    1    3    3    0  502  0.62292540976E+02  0.75958641786E+01  0.32226177780E+03  0.32834156551E+03  0.41800000000E+01 0.  1.
        -11    1    1    2    0    0  0.77623578455E+01 -0.19743924148E+02 -0.14539915367E+02  0.25719367779E+02  0.00000000000E+00 0. -1.
         11    1    1    2    0    0 -0.41844221272E+02  0.14367151134E+02  0.76580813779E+02  0.88441929675E+02  0.00000000000E+00 0.  1.
</event>
<event>
 7    1  0.2619826E-009  0.1380586E+03  0.7561462E-02  0.1215965E+00
         -2   -1    0    0    0  501 -0.00000000000E+00  0.00000000000E+00  0.10156883781E+03  0.10156883781E+03  0.00000000000E+00 0.  1.
          2   -1    0    0  501    0  0.00000000000E+00 -0.00000000000E+00 -0.19956639530E+03  0.19956639530E+03  0.00000000000E+00 0. -1.
         25    2    1    2    0    0  0.78540384423E+02 -0.31386931933E+02 -0.89704274752E+02  0.17563689563E+03  0.12509088982E+03 0.  0.
          5    1    3    3  502    0 -0.78324094057E+01  0.38680297045E+02 -0.22393740949E+02  0.45568235102E+02  0.41800000000E+01 0. -1.
         -5    1    3    3    0  502  0.86372793828E+02 -0.70067228979E+02 -0.67310533803E+02  0.13006866053E+03  0.41800000000E+01 0. -1.
        -11    1    1    2    0    0 -0.28295119020E+01  0.47618323864E+02 -0.84619579166E+00  0.47709820294E+02  0.00000000000E+00 0. -1.
         11    1    1    2    0    0 -0.75710872521E+02 -0.16231391931E+02 -0.74470869520E+01  0.77788517186E+02  0.00000000000E+00 0.  1.
</event>
<event>
 7    1  0.2619826E-009  0.9993641E+02  0.7561462E-02  0.1280430E+00
          2   -1    0    0  501    0  0.00000000000E+00  0.00000000000E+00  0.36343170491E+03  0.36343170491E+03  0.00000000000E+00 0. -1.
         -2   -1    0    0    0  501 -0.00000000000E+00 -0.00000000000E+00 -0.44669878628E+02  0.44669878628E+02  0.00000000000E+00 0.  1.
         25    2    1    2    0    0  0.10240135468E+02 -0.60668837793E+02  0.21193821651E+03  0.25367536755E+03  0.12509123162E+03 0.  0.
          5    1    3    3  502    0 -0.20778921733E+02 -0.72308736840E+02  0.55167728292E+02  0.93387727549E+02  0.41800000000E+01 0. -1.
         -5    1    3    3    0  502  0.31019057201E+02  0.11639899047E+02  0.15677048822E+03  0.16028764000E+03  0.41800000000E+01 0. -1.
        -11    1    1    2    0    0  0.16570531179E+02  0.62106225517E+02  0.26136701781E+02  0.69389429537E+02  0.00000000000E+00 0.  1.
         11    1    1    2    0    0 -0.26810666647E+02 -0.14373877242E+01  0.80686907984E+02  0.85036786449E+02  0.00000000000E+00 0. -1.
</event>
<event>
 7    1  0.2619826E-009  0.1430452E+03  0.7561462E-02  0.1209289E+00
          2   -1    0    0  501    0  0.00000000000E+00  0.00000000000E+00  0.57674497015E+02  0.57674497015E+02  0.00000000000E+00 0. -1.
         -2   -1    0    0    0  501 -0.00000000000E+00 -0.00000000000E+00 -0.48093463973E+03  0.48093463973E+03  0.00000000000E+00 0.  1.
         25    2    1    2    0    0  0.11406483630E+03 -0.46876277650E+02 -0.18602388936E+03  0.25585480492E+03  0.12509445033E+03 0.  0.
          5    1    3    3  502    0  0.11770692309E+03 -0.52541593627E+02 -0.84865698669E+02  0.15438652148E+03  0.41800000000E+01 0.  1.
         -5    1    3    3    0  502 -0.36420867912E+01  0.56653159772E+01 -0.10115819069E+03  0.10146828344E+03  0.41800000000E+01 0.  1.
        -11    1    1    2    0    0 -0.93235987387E+02  0.71096252455E+02 -0.21111599801E+03  0.24149035399E+03  0.00000000000E+00 0. -1.
         11    1    1    2    0    0 -0.20828848913E+02 -0.24219974805E+02 -0.26120255348E+02  0.41263977826E+02  0.00000000000E+00 0.  1.
</event>
<event>
 7    1  0.2619826E-009  0.1445961E+03  0.7561462E-02  0.1207275E+00
         -4   -1    0    0    0  501 -0.00000000000E+00  0.00000000000E+00  0.70833228057E+03  0.70833228057E+03  0.00000000000E+00 0.  1.
          4   -1    0    0  501    0  0.00000000000E+00 -0.00000000000E+00 -0.34466369188E+02  0.34466369188E+02  0.00000000000E+00 0. -1.
         25    2    1    2    0    0 -0.58785527153E+02 -0.88122799332E+02  0.27041534927E+03  0.31621892861E+03  0.12509429932E+03 0.  0.
          5    1    3    3  502    0  0.17930920954E+02 -0.76571849094E+02  0.88849855366E+02  0.11872883053E+03  0.41800000000E+01 0.  1.
         -5    1    3    3    0  502 -0.76716448107E+02 -0.11550950238E+02  0.18156549391E+03  0.19749009808E+03  0.41800000000E+01 0.  1.
        -11    1    1    2    0    0 -0.16952753596E+01  0.69415718610E+02  0.14920539073E+03  0.16457115352E+03  0.00000000000E+00 0.  1.
         11    1    1    2    0    0  0.60480802512E+02  0.18707080722E+02  0.25424517138E+03  0.26200856763E+03  0.00000000000E+00 0. -1.
</event>
<event>
 7    1  0.2619826E-009  0.9444109E+02  0.7561462E-02  0.1292440E+00
          1   -1    0    0  501    0  0.00000000000E+00  0.00000000000E+00  0.18175557385E+03  0.18175557385E+03  0.00000000000E+00 0. -1.
         -1   -1    0    0    0  501 -0.00000000000E+00 -0.00000000000E+00 -0.68148398046E+02  0.68148398046E+02  0.00000000000E+00 0.  1.
         25    2    1    2    0    0 -0.24131968682E+02  0.10845242806E+02  0.52855465746E+02  0.13835313592E+03  0.12509164143E+03 0.  0.
          5    1    3    3  502    0 -0.54174636070E+02  0.52764038835E+02  0.26152695765E+02  0.80127216870E+02  0.41800000000E+01 0.  1.
         -5    1    3    3    0  502  0.30042667389E+02 -0.41918796029E+02  0.26702769981E+02  0.58225919048E+02  0.41800000000E+01 0.  1.
        -11    1    1    2    0    0 -0.12688365140E+02  0.12493883048E+02 -0.15571417250E+02  0.23655036645E+02  0.00000000000E+00 0.  1.
         11    1    1    2    0    0  0.36820333821E+02 -0.23339125854E+02  0.76323127312E+02  0.87895799337E+02  0.00000000000E+00 0. -1.
</event>
<event>
 7    1  0.2619826E-009  0.1869529E+03  0.7561462E-02  0.1161239E+00
          1   -1    0    0  501    0  0.00000000000E+00  0.00000000000E+00  0.70237326079E+03  0.70237326079E+03  0.00000000000E+00 0. -1.
         -1   -1    0    0    0  501 -0.00000000000E+00 -0.00000000000E+00 -0.52422231388E+02  0.52422231388E+02  0.00000000000E+00 0.  1.
         25    2    1    2    0    0 -0.60627039449E+02 -0.14112767461E+03  0.41226147373E+03  0.45738414937E+03  0.12509228160E+03 0.  0.
          5    1    3    3  502    0 -0.13229984398E+02 -0.14659129740E+03  0.34200645246E+03  0.37235725706E+03  0.41800000000E+01 0.  1.
         -5    1    3    3    0  502 -0.47397055051E+02  0.54636227899E+01  0.70255021270E+02  0.85026892305E+02  0.41800000000E+01 0.  1.
        -11    1    1    2    0    0 -0.16662319334E+02  0.75668163162E+02  0.10308498341E+03  0.12895665010E+03  0.00000000000E+00 0. -1.
         11    1    1    2    0    0  0.77289358783E+02  0.65459511452E+02  0.13460457226E+03  0.16845469271E+03  0.00000000000E+00 0.  1.
</event>
<event>
 7    1  0.2619826E-009  0.9970789E+02  0.7561462E-02  0.1280911E+00
          3   -1    0    0  501    0  0.00000000000E+00  0.00000000000E+00  0.59396469447E+02  0.59396469447E+02  0.00000000000E+00 0. -1.
         -3   -1    0    0    0  501 -0.00000000000E+00 -0.00000000000E+00 -0.22516599806E+03  0.22516599806E+03  0.00000000000E+00 0.  1.
         25    2    1    2    0    0 -0.35345249065E+02  0.23544545104E+02 -0.83169170317E+02  0.15609655191E+03  0.12508153497E+03 0.  0.
          5    1    3    3  502    0  0.34530482372E+02  0.40038919125E+02 -0.10909681172E+02  0.54147601986E+02  0.41800000000E+01 0. -1.
         -5    1    3    3    0  502 -0.69875731438E+02 -0.16494374021E+02 -0.72259489145E+02  0.10194894992E+03  0.41800000000E+01 0. -1.
        -11    1    1    2    0    0 -0.71092752170E+01 -0.30608012114E+02  0.40824125137E+01  0.31686878855E+02  0.00000000000E+00 0. -1.
         11    1    1    2    0    0  0.42454524282E+02  0.70634670095E+01 -0.86682770807E+02  0.96779036744E+02  0.00000000000E+00 0.  1.
</event>
<event>
 7    1  0.2619826E-009  0.8392662E+02  0.7561462E-02  0.1318264E+00
          2   -1    0    0  501    0  0.00000000000E+00  0.00000000000E+00  0.10622373503E+03  0.10622373503E+03  0.00000000000E+00 0. -1.
         -2   -1    0    0    0  501 -0.00000000000E+00 -0.00000000000E+00 -0.12263023801E+03  0.12263023801E+03  0.00000000000E+00 0.  1.
         25    2    1    2    0    0 -0.14157677741E+01 -0.32330559000E+02 -0.17861012718E+01  0.12921797773E+03  0.12508727421E+03 0.  0.
          5    1    3    3  502    0  0.33841628026E+01 -0.60795753734E+02  0.43782999770E+02  0.75113245828E+02  0.41800000000E+01 0.  1.
         -5    1    3    3    0  502 -0.47999305766E+01  0.28465194734E+02 -0.45569101041E+02  0.54104731905E+02  0.41800000000E+01 0.  1.
        -11    1    1    2    0    0  0.17542837603E+02  0.50439362915E+02  0.20292149082E+02  0.57128379960E+02  0.00000000000E+00 0. -1.
         11    1    1    2    0    0 -0.16127069829E+02 -0.18108803915E+02 -0.34912550784E+02  0.42507615350E+02  0.00000000000E+00 0.  1.
</event>
<event>
 7    1  0.2619826E-009  0.1408582E+03  0.7561462E-02  0.1212179E+00
          3   -1    0    0  501    0  0.00000000000E+00  0.00000000000E+00  0.57780808625E+03  0.57780808625E+03  0.00000000000E+00 0. -1.
         -3   -1    0    0    0  501 -0.00000000000E+00 -0.00000000000E+00 -0.73867582452E+02  0.73867582452E+02  0.00000000000E+00 0.  1.
         25    2    1    2    0    0 -0.92338462073E+02 -0.85877444921E+02  0.45372264359E+03  0.48725231783E+03  0.12509698959E+03 0.  0.
          5    1    3    3  502    0 -0.20557344161E+02 -0.54915761544E+02  0.53633997118E+02  0.79576524879E+02  0.41800000000E+01 0. -1.
         -5    1    3    3    0  502 -0.71781117912E+02 -0.30961683377E+02  0.40008864647E+03  0.40767579295E+03  0.41800000000E+01 0. -1.
        -11    1    1    2    0    0  0.54567752373E+02  0.91422370618E+02  0.63542445110E+02  0.12398924058E+03  0.00000000000E+00 0. -1.
         11    1    1    2    0    0  0.37770709700E+02 -0.55449256967E+01 -0.13324584901E+02  0.40434110291E+02  0.00000000000E+00 0.  1.
</event>
<event>
 7    1  0.2619826E-009  0.1450406E+03  0.7561462E-02  0.1206703E+00
          3   -1    0    0  501    0  0.00000000000E+00  0.00000000000E+00  0.74485002855E+02  0.74485002855E+02  0.00000000000E+00 0. -1.
         -3   -1    0    0    0  501 -0.00000000000E+00 -0.00000000000E+00 -0.32734564949E+03  0.32734564949E+03  0.00000000000E+00 0.  1.
         25    2    1    2    0    0  0.10549531392E+03 -0.35360231376E+02 -0.15587739472E+03  0.22874524885E+03  0.12508804684E+03 0.  0.
          5    1    3    3  502    0  0.26098308930E+02 -0.70220672248E+02 -0.10181377100E+03  0.12647363720E+03  0.41800000000E+01 0.  1.
         -5    1    3    3    0  502  0.79397004995E+02  0.34860440872E+02 -0.54063623716E+02  0.10227161165E+03  0.41800000000E+01 0.  1.
        -11    1    1    2    0    0 -0.10770477756E+03  0.46184872416E+02 -0.54597674372E+02  0.12928367103E+03  0.00000000000E+00 0. -1.
         11    1    1    2    0    0  0.22094636344E+01 -0.10824641041E+02 -0.42385577545E+02  0.43801732467E+02  0.00000000000E+00 0.  1.
</event>
<event>
 7    1  0.2619826E-009  0.9390570E+02  0.7561462E-02  0.1293660E+00
         -1   -1    0    0    0  501 -0.00000000000E+00  0.00000000000E+00  0.39171790444E+02  0.39171790444E+02  0.00000000000E+00 0.  1.
          1   -1    0    0  501    0  0.00000000000E+00 -0.00000000000E+00 -0.49327801148E+03  0.49327801148E+03  0.00000000000E+00 0. -1.
         25    2    1    2    0    0  0.64415799667E+02  0.39077623768E+02 -0.16465088453E+03  0.22007991752E+03  0.12509516534E+03 0.  0.
          5    1    3    3  502    0  0.30494204147E+02  0.65665954168E+01  0.14623464480E+02  0.34703526843E+02  0.41800000000E+01 0. -1.
         -5    1    3    3    0  502  0.33921595521E+02  0.32511028351E+02 -0.17927434901E+03  0.18537639067E+03  0.41800000000E+01 0. -1.
        -11    1    1    2    0    0 -0.80968284584E+02 -0.43665035718E+02 -0.18607829916E+03  0.20757560519E+03  0.00000000000E+00 0.  1.
         11    1    1    2    0    0  0.16552484916E+02  0.45874119499E+01 -0.10337703735E+03  0.10479427921E+03  0.00000000000E+00 0. -1.
</event>
<event>
 7    1  0.2619826E-009  0.1329587E+03  0.7561462E-02  0.1223130E+00
          1   -1    0    0  501    0  0.00000000000E+00  0.00000000000E+00  0.18979953028E+03  0.18979953028E+03  0.00000000000E+00 0. -1.
         -1   -1    0    0    0  501 -0.00000000000E+00 -0.00000000000E+00 -0.12726539008E+03  0.12726539008E+03  0.00000000000E+00 0.  1.
         25    2    1    2    0    0  0.43462890656E+02 -0.88530570001E+02  0.74164787383E+02  0.17571254956E+03  0.12509116554E+03 0.  0.
          5    1    3    3  502    0 -0.29112234569E+02 -0.77307441928E+02  0.22163765602E+02  0.85630997219E+02  0.41800000000E+01 0.  1.
         -5    1    3    3    0  502  0.72575125225E+02 -0.11223128073E+02  0.52001021781E+02  0.90081552337E+02  0.41800000000E+01 0.  1.
        -11    1    1    2    0    0 -0.20292700347E+02  0.23753634134E+01  0.35118740409E+02  0.40629570101E+02  0.00000000000E+00 0. -1.
         11    1    1    2    0    0 -0.23170190309E+02  0.86155206588E+02 -0.46749387585E+02  0.10072280070E+03  0.00000000000E+00 0.  1.
</event>
<event>
 7    1  0.2619826E-009  0.1085258E+03  0.7561462E-02  0.1263325E+00
          2   -1    0    0  501    0  0.00000000000E+00  0.00000000000E+00  0.76752273091E+03  0.76752273091E+03  0.00000000000E+00 0. -1.
         -2   -1    0    0    0  501 -0.00000000000E+00 -0.00000000000E+00 -0.19092741804E+02  0.19092741804E+02  0.00000000000E+00 0.  1.
         25    2    1    2    0    0  0.39316262840E+02 -0.37670735894E+02  0.43392580016E+03  0.45486917691E+03  0.12509802234E+03 0.  0.
          5    1    3    3  502    0  0.71250543703E+02 -0.15087563745E+02  0.38616638549E+03  0.39299646848E+03  0.41800000000E+01 0. -1.
         -5    1    3    3    0  502 -0.31934280863E+02 -0.22583172148E+02  0.47759414669E+02  0.61872708427E+02  0.41800000000E+01 0. -1.
        -11    1    1    2    0    0 -0.66418325079E+02  0.12113190373E+02  0.22143943567E+03  0.23150280119E+03  0.00000000000E+00 0. -1.
         11    1    1    2    0    0  0.27102062239E+02  0.25557545521E+02  0.93064753282E+02  0.10024349462E+03  0.00000000000E+00 0.  1.
</event>
<event>
 7    1  0.2619826E-009  0.9217403E+02  0.7561462E-02  0.1297671E+00
          1   -1    0    0  501    0  0.00000000000E+00  0.00000000000E+00  0.45974440920E+03  0.45974440920E+03  0.00000000000E+00 0. -1.
         -1   -1    0    0    0  501 -0.00000000000E+00 -0.00000000000E+00 -0.27753122982E+02  0.27753122982E+02  0.00000000000E+00 0.  1.
         25    2    1    2    0    0 -0.13591385504E+02 -0.19553038853E+02  0.29989908967E+03  0.32581289065E+03  0.12509008209E+03 0.  0.
          5    1    3    3  502    0  0.89543406407E+01  0.43176572516E+02  0.48451022256E+02  0.65645796425E+02  0.41800000000E+01 0. -1.
         -5    1    3    3    0  502 -0.22545726145E+02 -0.62729611369E+02  0.25144806742E+03  0.26016709422E+03  0.41800000000E+01 0. -1.
        -11    1    1    2    0    0  0.30059177263E+02 -0.16023230155E+02  0.13260241206E+02  0.36553139936E+02  0.00000000000E+00 0.  1.
         11    1    1    2    0    0 -0.16467791759E+02  0.35576269009E+02  0.11883195534E+03  0.12513150160E+03  0.00000000000E+00 0. -1.
</event>
<event>
 7    1  0.2619826E-009  0.7570593E+02  0.7561462E-02  0.1341699E+00
         -2   -1    0    0    0  501 -0.00000000000E+00  0.00000000000E+00  0.67383077549E+03  0.67383077549E+03  0.00000000000E+00 0.  1.
          2   -1    0    0  501    0  0.00000000000E+00 -0.00000000000E+00 -0.19666048465E+02  0.19666048465E+02  0.00000000000E+00 0. -1.
         25    2    1    2    0    0  0.27066171601E+02  0.21380935033E+02  0.44458086675E+03  0.46312977690E+03  0.12508925272E+03 0.  0.
          5    1    3    3  502    0  0.10657449024E+00  0.28177381232E+02  0.14195502723E+02  0.31827046184E+02  0.41800000000E+01 0. -1.
         -5    1    3    3    0  502  0.26959597111E+02 -0.67964461989E+01  0.43038536402E+03  0.43130273072E+03  0.41800000000E+01 0. -1.
        -11    1    1    2    0    0  0.12390738413E+02  0.28578391341E+02  0.83547884837E+02  0.89165598247E+02  0.00000000000E+00 0. -1.
         11    1    1    2    0    0 -0.39456910014E+02 -0.49959326374E+02  0.12603597544E+03  0.14120144880E+03  0.00000000000E+00 0.  1.
</event>
<event>
 7    1  0.2619826E-009  0.1005515E+03  0.7561462E-02  0.1279141E+00
         -2   -1    0    0    0  501 -0.00000000000E+00  0.00000000000E+00  0.71260908080E+02  0.71260908080E+02  0.00000000000E+00 0.  1.
          2   -1    0    0  501    0  0.00000000000E+00 -0.00000000000E+00 -0.19688299742E+03  0.19688299742E+03  0.00000000000E+00 0. -1.
         25    2    1    2    0    0  0.28346815356E+02  0.52229682284E+01 -0.42546328249E+02  0.13523488251E+03  0.12508981598E+03 0.  0.
          5    1    3    3  502    0 -0.16496195022E+02  0.45146773151E+02 -0.55636210377E+02  0.73642486930E+02  0.41800000000E+01 0. -1.
         -5    1    3    3    0  502  0.44843010378E+02 -0.39923804922E+02  0.13089882128E+02  0.61592395581E+02  0.41800000000E+01 0. -1.
        -11    1    1    2    0    0  0.24294895835E+02 -0.26445745138E+02 -0.48148331860E+01  0.36232609872E+02  0.00000000000E+00 0.  1.
         11    1    1    2    0    0 -0.52641711191E+02  0.21222776909E+02 -0.78260927905E+02  0.96676413119E+02  0.00000000000E+00 0. -1.
</event>
<event>
 7    1  0.2619826E-009  0.2722692E+03  0.7561462E-02  0.1099988E+00
         -1   -1    0    0    0  501 -0.00000000000E+00  0.00000000000E+00  0.60462165096E+02  0.60462165096E+02  0.00000000000E+00 0.  1.
          1   -1    0    0  501    0  0.00000000000E+00 -0.00000000000E+00 -0.12636669542E+04  0.12636669542E+04  0.00000000000E+00 0. -1.
         25    2    1    2    0    0 -0.23437134736E+03  0.90748825625E+02 -0.65362212499E+03  0.71136107571E+03  0.12508964762E+03 0.  0.
          5    1    3    3  502    0 -0.38466872707E+02  0.74703874878E+02 -0.19683418327E+03  0.21405965832E+03  0.41800000000E+01 0.  1.
         -5    1    3    3    0  502 -0.19590447466E+03  0.16044950746E+02 -0.45678794172E+03  0.49730141739E+03  0.41800000000E+01 0.  1.
        -11    1    1    2    0    0  0.87650222566E+02 -0.76594284438E+02 -0.17449270673E+03  0.20975450085E+03  0.00000000000E+00 0. -1.
         11    1    1    2    0    0  0.14672112480E+03 -0.14154541187E+02 -0.37508995735E+03  0.40301354270E+03  0.00000000000E+00 0.  1.
</event>
<event>
 7    1  0.2619826E-009  0.1237792E+03  0.7561462E-02  0.1236990E+00
         -1   -1    0    0    0  501 -0.00000000000E+00  0.00000000000E+00  0.14527473112E+03  0.14527473112E+03  0.00000000000E+00 0.  1.
          1   -1    0    0  501    0  0.00000000000E+00 -0.00000000000E+00 -0.12171245754E+03  0.12171245754E+03  0.00000000000E+00 0. -1.
         25    2    1    2    0    0 -0.61483889882E+02  0.45407884730E+02  0.25336845912E+02  0.14876608362E+03  0.12508895700E+03 0.  0.
          5    1    3    3  502    0  0.20341256797E+02 -0.28058917286E+02  0.15770535527E+02  0.38304722400E+02  0.41800000000E+01 0.  1.
         -5    1    3    3    0  502 -0.81825146679E+02  0.73466802016E+02  0.95663103846E+01  0.11046136122E+03  0.41800000000E+01 0.  1.
        -11    1    1    2    0    0  0.11589547696E+02 -0.51089543764E+02 -0.30248642953E+02  0.60493301268E+02  0.00000000000E+00 0. -1.
         11    1    1    2    0    0  0.49894342187E+02  0.56816590341E+01  0.28474070618E+02  0.57727803780E+02  0.00000000000E+00 0.  1.
</event>
<event>
 7    1  0.2619826E-009  0.2261424E+03  0.7561462E-02  0.1129385E+00
          1   -1    0    0  501    0  0.00000000000E+00  0.00000000000E+00  0.65604700521E+03  0.65604700521E+03  0.00000000000E+00 0. -1.
         -1   -1    0    0    0  501 -0.00000000000E+00 -0.00000000000E+00 -0.12671759857E+03  0.12671759857E+03  0.00000000000E+00 0.  1.
         25    2    1    2    0    0 -0.15949839810E+03 -0.12575122204E+03  0.50475772449E+03  0.55828363381E+03  0.12508855465E+03 0.  0.
          5    1    3    3  502    0  0.13336985931E+02 -0.26393103577E+02  0.25766355051E+02  0.39444246256E+02  0.41800000000E+01 0. -1.
         -5    1    3    3    0  502 -0.17283538403E+03 -0.99358118461E+02  0.47899136944E+03  0.51883938755E+03  0.41800000000E+01 0. -1.
        -11    1    1    2    0    0  0.12486229929E+03  0.40935870435E+02  0.18031416436E+02  0.13263284379E+03  0.00000000000E+00 0. -1.
         11    1    1    2    0    0  0.34636098806E+02  0.84815351603E+02  0.65402657147E+01  0.91848126185E+02  0.00000000000E+00 0.  1.
</event>
<event>
 7    1  0.2619826E-009  0.9885551E+02  0.7561462E-02  0.1282721E+00
          1   -1    0    0  501    0  0.00000000000E+00  0.00000000000E+00  0.59522946754E+02  0.59522946754E+02  0.00000000000E+00 0. -1.
         -1   -1    0    0    0  501 -0.00000000000E+00 -0.00000000000E+00 -0.20449438492E+03  0.20449438492E+03  0.00000000000E+00 0.  1.
         25    2    1    2    0    0 -0.11688285966E+02  0.13290116839E+02 -0.10719320090E+03  0.16568137787E+03  0.12508674357E+03 0.  0.
          5    1    3    3  502    0 -0.40981826961E+02  0.57452273248E+02 -0.44718125005E+02  0.83650803621E+02  0.41800000000E+01 0.  1.
         -5    1    3    3    0  502  0.29293540995E+02 -0.44162156409E+02 -0.62475075898E+02  0.82030574246E+02  0.41800000000E+01 0.  1.
        -11    1    1    2    0    0 -0.28220322738E+02  0.70163710207E+01 -0.44395933982E+02  0.53071791301E+02  0.00000000000E+00 0.  1.
         11    1    1    2    0    0  0.39908608705E+02 -0.20306487860E+02  0.66176967154E+01  0.45264162510E+02  0.00000000000E+00 0. -1.
</event>
<event>
 7    1  0.2619826E-009  0.1244949E+03  0.7561462E-02  0.1235861E+00
          2   -1    0    0  501    0  0.00000000000E+00  0.00000000000E+00  0.48884420867E+03  0.48884420867E+03  0.00000000000E+00 0. -1.
         -2   -1    0    0    0  501 -0.00000000000E+00 -0.00000000000E+00 -0.33380829449E+02  0.33380829449E+02  0.00000000000E+00 0.  1.
         25    2    1    2    0    0 -0.59115481893E+02 -0.30018843981E+02  0.27412582546E+03  0.30852583268E+03  0.12508976797E+03 0.  0.
          5    1    3    3  502    0 -0.44504663338E+02 -0.76071973847E+02  0.21262119174E+03  0.23020176767E+03  0.41800000000E+01 0.  1.
         -5    1    3    3    0  502 -0.14610818555E+02  0.46053129866E+02  0.61504633724E+02  0.78324065005E+02  0.41800000000E+01 0.  1.
        -11    1    1    2    0    0  0.40018973496E+02 -0.29523707755E+02  0.93129196371E+02  0.10557563533E+03  0.00000000000E+00 0. -1.
         11    1    1    2    0    0  0.19096508398E+02  0.59542551735E+02  0.88208357393E+02  0.10812357011E+03  0.00000000000E+00 0.  1.
</event>
<event>
 7    1  0.2619826E-009  0.3503306E+03  0.7561462E-02  0.1062479E+00
         -2   -1    0    0    0  501 -0.00000000000E+00  0.00000000000E+00  0.20280127764E+03  0.20280127764E+03  0.00000000000E+00 0.  1.
          2   -1    0    0  501    0  0.00000000000E+00 -0.00000000000E+00 -0.67063535404E+03  0.67063535404E+03  0.00000000000E+00 0. -1.
         25    2    1    2    0    0  0.30923791078E+03 -0.13740784320E+03 -0.35321516604E+03  0.50489260005E+03  0.12508630314E+03 0.  0.
          5    1    3    3  502    0 -0.94326695791E+01 -0.16352135943E+02 -0.13264511216E+02  0.23447542794E+02  0.41800000000E+01 0. -1.
         -5    1    3    3    0  502  0.31867058036E+03 -0.12105570726E+03 -0.33995065482E+03  0.48144505726E+03  0.41800000000E+01 0. -1.
        -11    1    1    2    0    0 -0.11903254533E+03  0.33414991930E+02 -0.84340999167E+02  0.14966199476E+03  0.00000000000E+00 0. -1.
         11    1    1    2    0    0 -0.19020536545E+03  0.10399285127E+03 -0.30277911190E+02  0.21888203687E+03  0.00000000000E+00 0.  1.
</event>
<event>
 7    1  0.2619826E-009  0.1725953E+03  0.7561462E-02  0.1175168E+00
          1   -1    0    0  501    0  0.00000000000E+00  0.00000000000E+00  0.18480853481E+03  0.18480853481E+03  0.00000000000E+00 0. -1.
         -1   -1    0    0    0  501 -0.00000000000E+00 -0.00000000000E+00 -0.20461465981E+03  0.20461465981E+03  0.00000000000E+00 0.  1.
         25    2    1    2    0    0  0.11336977579E+03  0.78489108152E+02 -0.90990164887E+02  0.20722133170E+03  0.12509286168E+03 0.  0.
          5    1    3    3  502    0 -0.10581945841E+02 -0.17342565899E+02 -0.35197140167E+02  0.40854048094E+02  0.41800000000E+01 0. -1.
         -5    1    3    3    0  502  0.12395172163E+03  0.95831674051E+02 -0.55793024720E+02  0.16636728360E+03  0.41800000000E+01 0. -1.
        -11    1    1    2    0    0  0.14362101082E+02  0.48984905344E+01  0.60381336332E+01  0.16331693567E+02  0.00000000000E+00 0. -1.
         11    1    1    2    0    0 -0.12773187687E+03 -0.83387598686E+02  0.65145906247E+02  0.16587016936E+03  0.00000000000E+00 0.  1.
</event>
<event>
 7    1  0.2619826E-009  0.1572505E+03  0.7561462E-02  0.1191836E+00
         -1   -1    0    0    0  501 -0.00000000000E+00  0.00000000000E+00  0.12357140456E+03  0.12357140456E+03  0.00000000000E+00 0.  1.
          1   -1    0    0  501    0  0.00000000000E+00 -0.00000000000E+00 -0.41584665469E+03  0.41584665469E+03  0.00000000000E+00 0. -1.
         25    2    1    2    0    0 -0.10688183286E+03  0.90203630719E+02 -0.31867168594E+03  0.36981024739E+03  0.12509018530E+03 0.  0.
          5    1    3    3  502    0 -0.28192724701E+01  0.25157135727E+02  0.26809540566E+01  0.25797086849E+02  0.41800000000E+01 0. -1.
         -5    1    3    3    0  502 -0.10406256039E+03  0.65046494992E+02 -0.32135264000E+03  0.34401316054E+03  0.41800000000E+01 0. -1.
        -11    1    1    2    0    0  0.99849578801E+02 -0.28343550008E+02  0.55153756742E+01  0.10394091871E+03  0.00000000000E+00 0.  1.
         11    1    1    2    0    0  0.70322540595E+01 -0.61860080712E+02  0.20881060139E+02  0.65666893145E+02  0.00000000000E+00 0. -1.
</event>
<event>
 7    1  0.2619826E-009  0.1346587E+03  0.7561462E-02  0.1220702E+00
         -2   -1    0    0    0  501 -0.00000000000E+00  0.00000000000E+00  0.11374828663E+04  0.11374828663E+04  0.00000000000E+00 0. -1.
          2   -1    0    0  501    0  0.00000000000E+00 -0.00000000000E+00 -0.16652855909E+02  0.16652855909E+02  0.00000000000E+00 0.  1.
         25    2    1    2    0    0 -0.83860878510E+02 -0.11051516656E+02  0.64326303138E+03  0.66076000347E+03  0.12514660074E+03 0.  0.
          5    1    3    3  502    0  0.16281297365E+02  0.34138174831E+02  0.22977040097E+03  0.23289998967E+03  0.41800000000E+01 0. -1.
         -5    1    3    3    0  502 -0.10014217588E+03 -0.45189691487E+02  0.41349263041E+03  0.42786001380E+03  0.41800000000E+01 0. -1.
        -11    1    1    2    0    0  0.60203545357E+02  0.48306547440E+02  0.25297102392E+03  0.26448502480E+03  0.00000000000E+00 0.  1.
         11    1    1    2    0    0  0.23657333154E+02 -0.37255030784E+02  0.22459595505E+03  0.22889069390E+03  0.00000000000E+00 0. -1.
</event>
<event>
 7    1  0.2619826E-009  0.1261368E+03  0.7561462E-02  0.1233303E+00
          1   -1    0    0  501    0  0.00000000000E+00  0.00000000000E+00  0.29629289133E+03  0.29629289133E+03  0.00000000000E+00 0. -1.
         -1   -1    0    0    0  501 -0.00000000000E+00 -0.00000000000E+00 -0.73251111145E+02  0.73251111145E+02  0.00000000000E+00 0.  1.
         25    2    1    2    0    0  0.15378116181E+01 -0.82036605663E+02  0.19549987173E+03  0.24617140612E+03  0.12509113402E+03 0.  0.
          5    1    3    3  502    0 -0.52728356195E+02 -0.67961484669E+02  0.79216947001E+02  0.11701213628E+03  0.41800000000E+01 0.  1.
         -5    1    3    3    0  502  0.54266167814E+02 -0.14075120994E+02  0.11628292473E+03  0.12915926983E+03  0.41800000000E+01 0.  1.
        -11    1    1    2    0    0  0.33210037968E+02  0.19820331257E+02 -0.13708494330E+02  0.41032608615E+02  0.00000000000E+00 0. -1.
         11    1    1    2    0    0 -0.34747849586E+02  0.62216274406E+02  0.41250402787E+02  0.82339987745E+02  0.00000000000E+00 0.  1.
</event>
<event>
 7    1  0.2619826E-009  0.1084340E+03  0.7561462E-02  0.1263498E+00
         -1   -1    0    0    0  501 -0.00000000000E+00  0.00000000000E+00  0.13584450990E+03  0.13584450990E+03  0.00000000000E+00 0.  1.
          1   -1    0    0  501    0  0.00000000000E+00 -0.00000000000E+00 -0.15227072691E+03  0.15227072691E+03  0.00000000000E+00 0. -1.
         25    2    1    2    0    0  0.17774285827E+02  0.47077554679E+02  0.67852243762E+02  0.15093941103E+03  0.12508619998E+03 0.  0.
          5    1    3    3  502    0  0.51472096759E+02 -0.63727742004E+01 -0.74352066852E+01  0.52561808324E+02  0.41800000000E+01 0.  1.
         -5    1    3    3    0  502 -0.33697810932E+02  0.53450328879E+02  0.75287450448E+02  0.98377602704E+02  0.41800000000E+01 0.  1.
        -11    1    1    2    0    0 -0.52237914100E+02 -0.41242751479E+02 -0.76437467072E+02  0.10135309858E+03  0.00000000000E+00 0. -1.
         11    1    1    2    0    0  0.34463628272E+02 -0.58348031996E+01 -0.78409937051E+01  0.35822727204E+02  0.00000000000E+00 0.  1.
</event>
<event>
 7    1  0.2619826E-009  0.8921381E+02  0.7561462E-02  0.1304767E+00
          1   -1    0    0  501    0  0.00000000000E+00  0.00000000000E+00  0.56802004941E+02  0.56802004941E+02  0.00000000000E+00 0. -1.
         -1   -1    0    0    0  501 -0.00000000000E+00 -0.00000000000E+00 -0.31109608523E+03  0.31109608523E+03  0.00000000000E+00 0.  1.
         25    2    1    2    0    0 -0.26066589943E+00  0.50688025759E+02 -0.60851271142E+02  0.14805134904E+03  0.12508789250E+03 0.  0.
          5    1    3    3  502    0  0.32894196766E+02  0.33426407984E+02 -0.89259585999E+02  0.10091629712E+03  0.41800000000E+01 0. -1.
         -5    1    3    3    0  502 -0.33154862665E+02  0.17261617775E+02  0.28408314857E+02  0.47135051921E+02  0.41800000000E+01 0. -1.
        -11    1    1    2    0    0 -0.22874356398E+02  0.12763696543E+02 -0.10693900755E+03  0.11010040629E+03  0.00000000000E+00 0.  1.
         11    1    1    2    0    0  0.23135022298E+02 -0.63451722302E+02 -0.86503801597E+02  0.10974633484E+03  0.00000000000E+00 0. -1.
</event>
<event>
 7    1  0.2619826E-009  0.6759043E+02  0.7561462E-02  0.1368484E+00
         -2   -1    0    0    0  501 -0.00000000000E+00  0.00000000000E+00  0.29139419964E+02  0.29139419964E+02  0.00000000000E+00 0.  1.
          2   -1    0    0  501    0  0.00000000000E+00 -0.00000000000E+00 -0.49651065636E+03  0.49651065636E+03  0.00000000000E+00 0. -1.
         25    2    1    2    0    0  0.98290048490E+01 -0.47838755779E+02 -0.29646578198E+03  0.32546106244E+03  0.12509111637E+03 0.  0.
          5    1    3    3  502    0  0.23914591524E+02 -0.46837932472E+02 -0.34396878024E+02  0.62978704526E+02  0.41800000000E+01 0.  1.
         -5    1    3    3    0  502 -0.14085586675E+02 -0.10008233072E+01 -0.26206890395E+03  0.26248235792E+03  0.41800000000E+01 0.  1.
        -11    1    1    2    0    0  0.33518163302E+00  0.55166853352E+02 -0.17760789546E+03  0.18597865088E+03  0.00000000000E+00 0. -1.
         11    1    1    2    0    0 -0.10164186482E+02 -0.73280975729E+01  0.67024410320E+01  0.14210363003E+02  0.00000000000E+00 0.  1.
</event>
<event>
 6    1  0.2619826E-009  0.2744078E+03  0.7561462E-02  0.1098783E+00
          2   -1    0    0  501    0  0.00000000000E+00  0.00000000000E+00  0.39899271067E+03  0.39899271067E+03  0.00000000000E+00 0. -1.
         -2   -1    0    0    0  501 -0.00000000000E+00 -0.00000000000E+00 -0.22842901209E+03  0.22842901209E+03  0.00000000000E+00 0.  1.
          5    1    1    2  502    0 -0.88752133183E+02 -0.30040560791E+02  0.11554786379E+03  0.14882257108E+03  0.41800000000E+01 0. -1.
         -5    1    1    2    0  502 -0.16809675031E+03  0.74282564757E+02  0.78540915499E+02  0.19990138743E+03  0.41800000000E+01 0. -1.
        -11    1    1    2    0    0  0.11396302945E+03 -0.57594650039E+02 -0.41043318931E+02  0.13412408368E+03  0.00000000000E+00 0.  1.
         11    1    1    2    0    0  0.14288585404E+03  0.13352646072E+02  0.17518238219E+02  0.14457368056E+03  0.00000000000E+00 0. -1.
</event>
<event>
 7    1  0.2619826E-009  0.1085777E+03  0.7561462E-02  0.1263227E+00
          2   -1    0    0  501    0  0.00000000000E+00  0.00000000000E+00  0.58811873929E+03  0.58811873929E+03  0.00000000000E+00 0. -1.
         -2   -1    0    0    0  501 -0.00000000000E+00 -0.00000000000E+00 -0.21597715277E+02  0.21597715277E+02  0.00000000000E+00 0.  1.
         25    2    1    2    0    0 -0.85246709265E+01  0.29189848441E+02  0.30900257890E+03  0.33474159339E+03  0.12507846862E+03 0.  0.
          5    1    3    3  502    0  0.25805414531E+02  0.68351063551E+02  0.21611826662E+03  0.22817178807E+03  0.41800000000E+01 0.  1.
         -5    1    3    3    0  502 -0.34330085458E+02 -0.39161215110E+02  0.92884312286E+02  0.10656980532E+03  0.41800000000E+01 0.  1.
        -11    1    1    2    0    0 -0.32770038325E+01  0.30605784009E+02  0.50223576049E+02  0.58905520625E+02  0.00000000000E+00 0.  1.
         11    1    1    2    0    0  0.11801674759E+02 -0.59795632450E+02  0.20729486907E+03  0.21606934056E+03  0.00000000000E+00 0. -1.
</event>
<event>
 7    1  0.2619826E-009  0.1224100E+03  0.7561462E-02  0.1239173E+00
          2   -1    0    0  501    0  0.00000000000E+00  0.00000000000E+00  0.12917148465E+03  0.12917148465E+03  0.00000000000E+00 0. -1.
         -2   -1    0    0    0  501 -0.00000000000E+00 -0.00000000000E+00 -0.12228861288E+03  0.12228861288E+03  0.00000000000E+00 0.  1.
         25    2    1    2    0    0 -0.72099460198E+02  0.76116102892E+01  0.10142237205E+02  0.14493676794E+03  0.12509009934E+03 0.  0.
          5    1    3    3  502    0 -0.68785899602E+02  0.58983501080E+02 -0.57735250438E+01  0.90892020415E+02  0.41800000000E+01 0. -1.
         -5    1    3    3    0  502 -0.33135605958E+01 -0.51371890791E+02  0.15915762249E+02  0.54044747527E+02  0.41800000000E+01 0. -1.
        -11    1    1    2    0    0 -0.48386816621E+01  0.20109672653E+02  0.11128659840E+02  0.23487418850E+02  0.00000000000E+00 0. -1.
         11    1    1    2    0    0  0.76938141860E+02 -0.27721282942E+02 -0.14388025269E+02  0.83035910737E+02  0.00000000000E+00 0.  1.
</event>
<event>
 7    1  0.2619826E-009  0.2336900E+03  0.7561462E-02  0.1124069E+00
          2   -1    0    0  501    0  0.00000000000E+00  0.00000000000E+00  0.47308121437E+02  0.47308121437E+02  0.00000000000E+00 0. -1.
         -2   -1    0    0    0  501 -0.00000000000E+00 -0.00000000000E+00 -0.11886223945E+04  0.11886223945E+04  0.00000000000E+00 0.  1.
         25    2    1    2    0    0  0.15000527564E+03 -0.14380643995E+03 -0.50265009532E+03  0.55810992881E+03  0.12509076472E+03 0.  0.
          5    1    3    3  502    0  0.15918182508E+03 -0.15782396439E+03 -0.45104881927E+03  0.50369610574E+03  0.41800000000E+01 0. -1.
         -5    1    3    3    0  502 -0.91765494425E+01  0.14017524438E+02 -0.51601276043E+02  0.54413823063E+02  0.41800000000E+01 0. -1.
        -11    1    1    2    0    0 -0.12013227488E+03  0.15312162618E+03 -0.52446090166E+03  0.55940793098E+03  0.00000000000E+00 0.  1.
         11    1    1    2    0    0 -0.29873000754E+02 -0.93151862234E+01 -0.11420327610E+03  0.11841265617E+03  0.00000000000E+00 0. -1.
</event>
<event>
 7    1  0.2619826E-009  0.3450510E+03  0.7561462E-02  0.1064665E+00
         -3   -1    0    0    0  501 -0.00000000000E+00  0.00000000000E+00  0.72376538654E+03  0.72376538654E+03  0.00000000000E+00 0.  1.
          3   -1    0    0  501    0  0.00000000000E+00 -0.00000000000E+00 -0.21964185145E+03  0.21964185145E+03  0.00000000000E+00 0. -1.
         25    2    1    2    0    0 -0.97060676393E+02  0.31209954328E+03  0.49035271091E+03  0.60242858132E+03  0.12509002631E+03 0.  0.
          5    1    3    3  502    0 -0.11997140043E+03  0.18464710882E+03  0.29982552006E+03  0.37202218563E+03  0.41800000000E+01 0. -1.
         -5    1    3    3    0  502  0.22910724040E+02  0.12745243446E+03  0.19052719085E+03  0.23040639570E+03  0.41800000000E+01 0. -1.
        -11    1    1    2    0    0  0.66133339093E+02 -0.70250567754E+02  0.11359193129E+02  0.97148299408E+02  0.00000000000E+00 0. -1.
         11    1    1    2    0    0  0.30927337300E+02 -0.24184897553E+03  0.24116310495E+01  0.24383035726E+03  0.00000000000E+00 0.  1.
</event>
<event>
 7    1  0.2619826E-009  0.2667854E+03  0.7561462E-02  0.1103134E+00
         -2   -1    0    0    0  501 -0.00000000000E+00  0.00000000000E+00  0.51290343100E+02  0.51290343100E+02  0.00000000000E+00 0.  1.
          2   -1    0    0  501    0  0.00000000000E+00 -0.00000000000E+00 -0.16225446805E+04  0.16225446805E+04  0.00000000000E+00 0. -1.
         25    2    1    2    0    0  0.21929572355E+03  0.14020433511E+03 -0.97508334633E+03  0.10169478776E+04  0.12509030108E+03 0.  0.
          5    1    3    3  502    0  0.14471284871E+03  0.86093090278E+02 -0.81471736604E+03  0.83194692602E+03  0.41800000000E+01 0.  1.
         -5    1    3    3    0  502  0.74582874845E+02  0.54111244831E+02 -0.16036598028E+03  0.18500095154E+03  0.41800000000E+01 0.  1.
        -11    1    1    2    0    0 -0.20065203124E+03 -0.15120600834E+03 -0.51709407479E+03  0.57490066688E+03  0.00000000000E+00 0.  1.
         11    1    1    2    0    0 -0.18643692311E+02  0.11001673227E+02 -0.79076916258E+02  0.81986479140E+02  0.00000000000E+00 0. -1.
</event>
<event>
 7    1  0.2619826E-009  0.1355744E+03  0.7561462E-02  0.1219411E+00
         -1   -1    0    0    0  501 -0.00000000000E+00  0.00000000000E+00  0.87715018141E+03  0.87715018141E+03  0.00000000000E+00 0.  1.
          1   -1    0    0  501    0  0.00000000000E+00 -0.00000000000E+00 -0.41852705498E+02  0.41852705498E+02  0.00000000000E+00 0. -1.
         25    2    1    2    0    0  0.71358417629E+02  0.86868013800E+02  0.68726320909E+03  0.70754220667E+03  0.12508868878E+03 0.  0.
          5    1    3    3  502    0 -0.52536286418E+01 -0.66044378089E+01 -0.30290280420E+00  0.94224923872E+01  0.41800000000E+01 0.  1.
         -5    1    3    3    0  502  0.76612046271E+02  0.93472451609E+02  0.68756611189E+03  0.69811971428E+03  0.41800000000E+01 0.  1.
        -11    1    1    2    0    0 -0.42498026106E+02 -0.10032719985E+03  0.14210594662E+03  0.17906906298E+03  0.00000000000E+00 0.  1.
         11    1    1    2    0    0 -0.28860391523E+02  0.13459186054E+02  0.59283202069E+01  0.32391617258E+02  0.00000000000E+00 0. -1.
</event>
<event>
 7    1  0.2619826E-009  0.1200455E+03  0.7561462E-02  0.1243022E+00
         -3   -1    0    0    0  501 -0.00000000000E+00  0.00000000000E+00  0.21017813042E+03  0.21017813042E+03  0.00000000000E+00 0.  1.
          3   -1    0    0  501    0  0.00000000000E+00 -0.00000000000E+00 -0.12375659215E+03  0.12375659215E+03  0.00000000000E+00 0. -1.
         25    2    1    2    0    0 -0.53025916259E+02 -0.99037824056E+02  0.44454976556E+01  0.16818821398E+03  0.12508906621E+03 0.  0.
          5    1    3    3  502    0 -0.80307067851E+01 -0.62140382520E+02 -0.56030623316E+02  0.84159506535E+02  0.41800000000E+01 0. -1.
         -5    1    3    3    0  502 -0.44995209474E+02 -0.36897441536E+02  0.60476120971E+02  0.84028707447E+02  0.41800000000E+01 0. -1.
        -11    1    1    2    0    0  0.49968141890E+02  0.53092530372E+02  0.13771358481E+01  0.72921385672E+02  0.00000000000E+00 0. -1.
         11    1    1    2    0    0  0.30577743690E+01  0.45945293684E+02  0.80598904758E+02  0.92825122914E+02  0.00000000000E+00 0.  1.
</event>
<event>
 7    1  0.2619826E-009  0.1571281E+03  0.7561462E-02  0.1191978E+00
         -2   -1    0    0    0  501 -0.00000000000E+00  0.00000000000E+00  0.49492698096E+02  0.49492698096E+02  0.00000000000E+00 0.  1.
          2   -1    0    0  501    0  0.00000000000E+00 -0.00000000000E+00 -0.66759827504E+03  0.66759827504E+03  0.00000000000E+00 0. -1.
         25    2    1    2    0    0  0.24722884833E+02 -0.13906387475E+03 -0.29212868430E+03  0.34775940143E+03  0.12508977096E+03 0.  0.
          5    1    3    3  502    0 -0.95312611678E+01 -0.44472018873E+02 -0.80675594605E+01  0.46380635158E+02  0.41800000000E+01 0.  1.
         -5    1    3    3    0  502  0.34254146001E+02 -0.94591855882E+02 -0.28406112484E+03  0.30137876628E+03  0.41800000000E+01 0.  1.
        -11    1    1    2    0    0  0.32910429100E+02  0.29973819269E+02 -0.49481537970E+02  0.66557860430E+02  0.00000000000E+00 0.  1.
         11    1    1    2    0    0 -0.57633313933E+02  0.10909005549E+03 -0.27649535467E+03  0.30277371127E+03  0.00000000000E+00 0. -1.
</event>
<event>
 7    1  0.2619826E-009  0.8432826E+02  0.7561462E-02  0.1317199E+00
         -1   -1    0    0    0  501 -0.00000000000E+00  0.00000000000E+00  0.32066717585E+03  0.32066717585E+03  0.00000000000E+00 0.  1.
          1   -1    0    0  501    0  0.00000000000E+00 -0.00000000000E+00 -0.38534967447E+02  0.38534967447E+02  0.00000000000E+00 0. -1.
         25    2    1    2    0    0 -0.15093003546E+02  0.15043109505E+02  0.13698568826E+03  0.18672700696E+03  0.12509117651E+03 0.  0.
          5    1    3    3  502    0 -0.47414958761E+02  0.22725230266E+02  0.14325869106E+03  0.15266020886E+03  0.41800000000E+01 0. -1.
         -5    1    3    3    0  502  0.32321955215E+02 -0.76821207614E+01 -0.62730028022E+01  0.34066798095E+02  0.41800000000E+01 0. -1.
        -11    1    1    2    0    0  0.44133446073E+02  0.86186294577E+01  0.11781414227E+03  0.12610398073E+03  0.00000000000E+00 0.  1.
         11    1    1    2    0    0 -0.29040442526E+02 -0.23661738962E+02  0.27332377873E+02  0.46371155615E+02  0.00000000000E+00 0. -1.
</event>
<event>
 7    1  0.2619826E-009  0.1144867E+03  0.7561462E-02  0.1252480E+00
          1   -1    0    0  501    0  0.00000000000E+00  0.00000000000E+00  0.17676290508E+03  0.17676290508E+03  0.00000000000E+00 0. -1.
         -1   -1    0    0    0  501 -0.00000000000E+00 -0.00000000000E+00 -0.12770606934E+03  0.12770606934E+03  0.00000000000E+00 0.  1.
         25    2    1    2    0    0  0.82050847350E+02  0.57327802644E+02  0.51272243856E+02  0.16820914773E+03  0.12508659354E+03 0.  0.
          5    1    3    3  502    0  0.37763157366E+02 -0.88933545520E+01  0.75371345925E+02  0.84873199515E+02  0.41800000000E+01 0.  1.
         -5    1    3    3    0  502  0.44287689984E+02  0.66221157196E+02 -0.24099102069E+02  0.83335948216E+02  0.41800000000E+01 0.  1.
        -11    1    1    2    0    0 -0.67639758824E+02 -0.20574598485E+02  0.37696938081E+02  0.80121846068E+02  0.00000000000E+00 0. -1.
         11    1    1    2    0    0 -0.14411088526E+02 -0.36753204159E+02 -0.39912346198E+02  0.56137980615E+02  0.00000000000E+00 0.  1.
</event>
<event>
 7    1  0.2619826E-009  0.9467323E+02  0.7561462E-02  0.1291914E+00
         -1   -1    0    0    0  501 -0.00000000000E+00  0.00000000000E+00  0.15694057436E+03  0.15694057436E+03  0.00000000000E+00 0.  1.
          1   -1    0    0  501    0  0.00000000000E+00 -0.00000000000E+00 -0.10671446140E+03  0.10671446140E+03  0.00000000000E+00 0. -1.
         25    2    1    2    0    0  0.64347816809E+02  0.17735507148E+02  0.53194461271E+02  0.15143207641E+03  0.12508730276E+03 0.  0.
          5    1    3    3  502    0  0.26620656329E+02  0.30586218143E+02  0.88873666969E+02  0.97776158465E+02  0.41800000000E+01 0.  1.
         -5    1    3    3    0  502  0.37727160480E+02 -0.12850710995E+02 -0.35679205698E+02  0.53655917942E+02  0.41800000000E+01 0.  1.
        -11    1    1    2    0    0  0.11456039956E+02 -0.29639084288E+02 -0.13959273671E+02  0.34707023646E+02  0.00000000000E+00 0. -1.
         11    1    1    2    0    0 -0.75803856765E+02  0.11903577141E+02  0.10990925361E+02  0.77515935713E+02  0.00000000000E+00 0.  1.
</event>
<event>
 7    1  0.2619826E-009  0.7374239E+02  0.7561462E-02  0.1347810E+00
         -1   -1    0    0    0  501 -0.00000000000E+00  0.00000000000E+00  0.51099682586E+02  0.51099682586E+02  0.00000000000E+00 0.  1.
          1   -1    0    0  501    0  0.00000000000E+00 -0.00000000000E+00 -0.38669971846E+03  0.38669971846E+03  0.00000000000E+00 0. -1.
         25    2    1    2    0    0 -0.27210306635E+02 -0.51574388367E+01 -0.31800555259E+03  0.34284368342E+03  0.12508900760E+03 0.  0.
          5    1    3    3  502    0 -0.10744730366E+02  0.32175693781E+02 -0.15429461258E+02  0.37500202342E+02  0.41800000000E+01 0.  1.
         -5    1    3    3    0  502 -0.16465576269E+02 -0.37333132618E+02 -0.30257609133E+03  0.30534348108E+03  0.41800000000E+01 0.  1.
        -11    1    1    2    0    0  0.19913506295E+01  0.33953231242E+02  0.21503930427E+02  0.40239363972E+02  0.00000000000E+00 0.  1.
         11    1    1    2    0    0  0.25218956005E+02 -0.28795792405E+02 -0.39098413717E+02  0.54716353656E+02  0.00000000000E+00 0. -1.
</event>
<event>
 7    1  0.2619826E-009  0.1005670E+03  0.7561462E-02  0.1279108E+00
          1   -1    0    0  501    0  0.00000000000E+00  0.00000000000E+00  0.50283080978E+03  0.50283080978E+03  0.00000000000E+00 0. -1.
         -1   -1    0    0    0  501 -0.00000000000E+00 -0.00000000000E+00 -0.26826124102E+02  0.26826124102E+02  0.00000000000E+00 0.  1.
         25    2    1    2    0    0 -0.35117257939E+02  0.31401669849E+01  0.21226017756E+03  0.24887350910E+03  0.12506221692E+03 0.  0.
          5    1    3    3  502    0 -0.58830165900E+02  0.38027076417E+02  0.65068957162E+02  0.95699992407E+02  0.41800000000E+01 0.  1.
         -5    1    3    3    0  502  0.23712907961E+02 -0.34886909432E+02  0.14719122040E+03  0.15317351669E+03  0.41800000000E+01 0.  1.
        -11    1    1    2    0    0 -0.23888139818E+02  0.13267739072E+02  0.14082385967E+03  0.14345046384E+03  0.00000000000E+00 0. -1.
         11    1    1    2    0    0  0.59005397757E+02 -0.16407906057E+02  0.12292064844E+03  0.13733296094E+03  0.00000000000E+00 0.  1.
</event>
<event>
 7    1  0.2619826E-009  0.1030208E+03  0.7561462E-02  0.1274069E+00
         -2   -1    0    0    0  501 -0.00000000000E+00  0.00000000000E+00  0.32216703792E+02  0.32216703792E+02  0.00000000000E+00 0.  1.
          2   -1    0    0  501    0  0.00000000000E+00 -0.00000000000E+00 -0.47817096171E+03  0.47817096171E+03  0.00000000000E+00 0. -1.
         25    2    1    2    0    0 -0.19377808426E+02  0.52062679567E+02 -0.20078431458E+03  0.24299138927E+03  0.12507778465E+03 0.  0.
          5    1    3    3  502    0  0.80112743849E+01  0.84974421208E+02 -0.16942006011E+03  0.18975105255E+03  0.41800000000E+01 0.  1.
         -5    1    3    3    0  502 -0.27389082811E+02 -0.32911741640E+02 -0.31364254471E+02  0.53240336715E+02  0.41800000000E+01 0.  1.
        -11    1    1    2    0    0 -0.18905532236E+02 -0.13519770145E+02 -0.87814157842E+01  0.24845856739E+02  0.00000000000E+00 0.  1.
         11    1    1    2    0    0  0.38283340662E+02 -0.38542909422E+02 -0.23638852755E+03  0.24255041950E+03  0.00000000000E+00 0. -1.
</event>
<event>
 7    1  0.2619826E-009  0.1020891E+03  0.7561462E-02  0.1275963E+00
         -2   -1    0    0    0  501 -0.00000000000E+00  0.00000000000E+00  0.36656758310E+03  0.36656758310E+03  0.00000000000E+00 0.  1.
          2   -1    0    0  501    0  0.00000000000E+00 -0.00000000000E+00 -0.54796482286E+02  0.54796482286E+02  0.00000000000E+00 0. -1.
         25    2    1    2    0    0 -0.70399154618E+02 -0.51727246581E+02  0.13887967084E+03  0.20631669029E+03  0.12508902713E+03 0.  0.
          5    1    3    3  502    0 -0.77766694269E+02 -0.15398157985E+02  0.14797074177E+03  0.16792133524E+03  0.41800000000E+01 0. -1.
         -5    1    3    3    0  502  0.73675396512E+01 -0.36329088597E+02 -0.90910709346E+01  0.38395355051E+02  0.41800000000E+01 0. -1.
        -11    1    1    2    0    0  0.58357219791E+02  0.40588140303E+02  0.18262602510E+03  0.19597251664E+03  0.00000000000E+00 0.  1.
         11    1    1    2    0    0  0.12041934827E+02  0.11139106279E+02 -0.97345951214E+01  0.19074858459E+02  0.00000000000E+00 0. -1.
</event>
<event>
 7    1  0.3490416E-009  0.8033627E+02  0.7561462E-02  0.1328100E+00
         -2   -1    0    0    0  501 -0.00000000000E+00  0.00000000000E+00  0.26290269530E+02  0.26290269530E+02  0.00000000000E+00 0.  1.
          2   -1    0    0  501    0  0.00000000000E+00 -0.00000000000E+00 -0.57003035937E+03  0.57003035937E+03  0.00000000000E+00 0. -1.
         25    2    1    2    0    0 -0.21315209949E+02  0.45255957952E+02 -0.36955092150E+03  0.39334197702E+03  0.12509031695E+03 0.  0.
          5    1    3    3  502    0 -0.16046365090E+02 -0.13608038334E+02 -0.25641632417E+01  0.21603515294E+02  0.41800000000E+01 0.  1.
         -5    1    3    3    0  502 -0.52688448584E+01  0.58863996286E+02 -0.36698675826E+03  0.37173846172E+03  0.41800000000E+01 0.  1.
        -11    1    1    2    0    0 -0.22152615779E+02 -0.19059657765E+02 -0.13694321122E+03  0.14002661190E+03  0.00000000000E+00 0. -1.
         11    1    1    2    0    0  0.43467825728E+02 -0.26196300186E+02 -0.37245957120E+02  0.62952039989E+02  0.00000000000E+00 0.  1.
</event>
<event>
 7    1  0.2619826E-009  0.1185840E+03  0.7561462E-02  0.1245451E+00
          2   -1    0    0  501    0  0.00000000000E+00  0.00000000000E+00  0.44854430157E+03  0.44854430157E+03  0.00000000000E+00 0. -1.
         -2   -1    0    0    0  501 -0.00000000000E+00 -0.00000000000E+00 -0.40985621654E+02  0.40985621654E+02  0.00000000000E+00 0.  1.
         25    2    1    2    0    0  0.31375274251E+02  0.50736919670E+02  0.12427379735E+03  0.18614546558E+03  0.12509002676E+03 0.  0.
          5    1    3    3  502    0  0.69752474373E+02  0.63596210114E+02  0.10457872820E+03  0.14093994612E+03  0.41800000000E+01 0. -1.
         -5    1    3    3    0  502 -0.38377200122E+02 -0.12859290443E+02  0.19695069158E+02  0.45205519453E+02  0.41800000000E+01 0. -1.
        -11    1    1    2    0    0  0.27694564539E+02 -0.72059853816E+01  0.39369368463E+02  0.48670959550E+02  0.00000000000E+00 0.  1.
         11    1    1    2    0    0 -0.59069838791E+02 -0.43530934289E+02  0.24391551410E+03  0.25471349810E+03  0.00000000000E+00 0. -1.
</event>
<event>
 7    1  0.2619826E-009  0.9512346E+02  0.7561462E-02  0.1290898E+00
         -2   -1    0    0    0  501 -0.00000000000E+00  0.00000000000E+00  0.22104854131E+03  0.22104854131E+03  0.00000000000E+00 0.  1.
          2   -1    0    0  501    0  0.00000000000E+00 -0.00000000000E+00 -0.63968351406E+02  0.63968351406E+02  0.00000000000E+00 0. -1.
         25    2    1    2    0    0  0.49671603757E+01  0.73783422736E+01  0.30264141972E+02  0.12900769108E+03  0.12509178011E+03 0.  0.
          5    1    3    3  502    0 -0.47646771582E+02  0.38254783798E+02  0.29199164876E+02  0.67850622364E+02  0.41800000000E+01 0.  1.
         -5    1    3    3    0  502  0.52613931958E+02 -0.30876441524E+02  0.10649770957E+01  0.61157068712E+02  0.41800000000E+01 0.  1.
        -11    1    1    2    0    0 -0.21641249223E+02 -0.31688856968E+02  0.11967591341E+03  0.12567756989E+03  0.00000000000E+00 0.  1.
         11    1    1    2    0    0  0.16674088847E+02  0.24310514695E+02  0.71401345251E+01  0.30331631750E+02  0.00000000000E+00 0. -1.
</event>
<event>
 7    1  0.2619826E-009  0.2748767E+03  0.7561462E-02  0.1098521E+00
          2   -1    0    0  501    0  0.00000000000E+00  0.00000000000E+00  0.95170489703E+03  0.95170489703E+03  0.00000000000E+00 0. -1.
         -2   -1    0    0    0  501 -0.00000000000E+00 -0.00000000000E+00 -0.82171203880E+02  0.82171203880E+02  0.00000000000E+00 0.  1.
         25    2    1    2    0    0 -0.18382904724E+03 -0.17880890973E+03  0.49137757934E+03  0.56821296075E+03  0.12509315921E+03 0.  0.
          5    1    3    3  502    0 -0.13232586084E+03 -0.18345043412E+03  0.34175835803E+03  0.40985417274E+03  0.41800000000E+01 0.  1.
         -5    1    3    3    0  502 -0.51503186400E+02  0.46415243812E+01  0.14961922131E+03  0.15835878802E+03  0.41800000000E+01 0.  1.
        -11    1    1    2    0    0  0.70421802749E+02  0.14349246415E+02  0.94647821209E+02  0.11884166456E+03  0.00000000000E+00 0. -1.
         11    1    1    2    0    0  0.11340724449E+03  0.16445966332E+03  0.28350829260E+03  0.34682147560E+03  0.00000000000E+00 0.  1.
</event>
<event>
 7    1  0.2619826E-009  0.1099023E+03  0.7561462E-02  0.1260751E+00
          1   -1    0    0  501    0  0.00000000000E+00  0.00000000000E+00  0.38652793433E+03  0.38652793433E+03  0.00000000000E+00 0. -1.
         -1   -1    0    0    0  501 -0.00000000000E+00 -0.00000000000E+00 -0.49866555946E+02  0.49866555946E+02  0.00000000000E+00 0.  1.
         25    2    1    2    0    0  0.54513976007E+00 -0.30739588444E+02  0.30796744259E+03  0.33382233470E+03  0.12509270952E+03 0.  0.
          5    1    3    3  502    0 -0.31509279734E+02  0.38164037422E+02  0.87846620972E+02  0.10091496261E+03  0.41800000000E+01 0.  1.
         -5    1    3    3    0  502  0.32054419494E+02 -0.68903625866E+02  0.22012082162E+03  0.23290737210E+03  0.41800000000E+01 0.  1.
        -11    1    1    2    0    0 -0.43814811446E+02  0.24816878282E+02  0.70615593190E-01  0.50354941528E+02  0.00000000000E+00 0.  1.
         11    1    1    2    0    0  0.43269671686E+02  0.59227101620E+01  0.28623320202E+02  0.52217214048E+02  0.00000000000E+00 0. -1.
</event>
<event>
 7    1  0.2619826E-009  0.9292565E+02  0.7561462E-02  0.1295918E+00
         -2   -1    0    0    0  501 -0.00000000000E+00  0.00000000000E+00  0.40012963145E+02  0.40012963145E+02  0.00000000000E+00 0.  1.
          2   -1    0    0  501    0  0.00000000000E+00 -0.00000000000E+00 -0.36765918073E+03  0.36765918073E+03  0.00000000000E+00 0. -1.
         25    2    1    2    0    0 -0.86387951190E+00 -0.51548614219E+02 -0.22164024850E+03  0.25967532960E+03  0.12509544808E+03 0.  0.
          5    1    3    3  502    0  0.15654463901E+02 -0.89154526067E+02 -0.17714808994E+03  0.19897866702E+03  0.41800000000E+01 0. -1.
         -5    1    3    3    0  502 -0.16518343413E+02  0.37605911848E+02 -0.44492158557E+02  0.60696662578E+02  0.41800000000E+01 0. -1.
        -11    1    1    2    0    0  0.83813547268E+01  0.25847153501E+02 -0.11620686256E+03  0.11934134806E+03  0.00000000000E+00 0. -1.
         11    1    1    2    0    0 -0.75174752149E+01  0.25701460718E+02  0.10200893471E+02  0.28655466219E+02  0.00000000000E+00 0.  1.
</event>
<event>
 7    1  0.2619826E-009  0.1271869E+03  0.7561462E-02  0.1231691E+00
         -1   -1    0    0    0  501 -0.00000000000E+00  0.00000000000E+00  0.23400186522E+03  0.23400186522E+03  0.00000000000E+00 0.  1.
          1   -1    0    0  501    0  0.00000000000E+00 -0.00000000000E+00 -0.93563257953E+02  0.93563257953E+02  0.00000000000E+00 0. -1.
         25    2    1    2    0    0  0.36328856264E+02  0.65947658578E+02  0.14997593703E+03  0.20930703397E+03  0.12509106009E+03 0.  0.
          5    1    3    3  502    0  0.64394852811E+02  0.82657473564E+02  0.79751147207E+02  0.13174472621E+03  0.41800000000E+01 0. -1.
         -5    1    3    3    0  502 -0.28065996547E+02 -0.16709814987E+02  0.70224789823E+02  0.77562307758E+02  0.41800000000E+01 0. -1.
        -11    1    1    2    0    0 -0.41253386511E+02  0.83744051918E+01  0.49252586347E+01  0.42381962361E+02  0.00000000000E+00 0.  1.
         11    1    1    2    0    0  0.49245302478E+01 -0.74322063770E+02 -0.14462588396E+02  0.75876126840E+02  0.00000000000E+00 0. -1.
</event>
<event>
 7    1  0.2619826E-009  0.1794341E+03  0.7561462E-02  0.1168352E+00
         -2   -1    0    0    0  501 -0.00000000000E+00  0.00000000000E+00  0.13445095572E+04  0.13445095572E+04  0.00000000000E+00 0.  1.
          2   -1    0    0  501    0  0.00000000000E+00 -0.00000000000E+00 -0.30308517272E+02  0.30308517272E+02  0.00000000000E+00 0. -1.
         25    2    1    2    0    0 -0.93506511508E+02 -0.12591559530E+03  0.46783607497E+03  0.50903621767E+03  0.12509625503E+03 0.  0.
          5    1    3    3  502    0 -0.12462526875E+03 -0.98897829545E+02  0.36695528870E+03  0.39998236787E+03  0.41800000000E+01 0.  1.
         -5    1    3    3    0  502  0.31118757240E+02 -0.27017765758E+02  0.10088078627E+03  0.10905384980E+03  0.41800000000E+01 0.  1.
        -11    1    1    2    0    0  0.15505580602E+02  0.95744137062E+01  0.17846220656E+02  0.25506470146E+02  0.00000000000E+00 0. -1.
         11    1    1    2    0    0  0.78000930906E+02  0.11634118160E+03  0.82851874426E+03  0.84027538661E+03  0.00000000000E+00 0.  1.
</event>
<event>
 7    1  0.2619826E-009  0.1056127E+03  0.7561462E-02  0.1268917E+00
         -2   -1    0    0    0  501 -0.00000000000E+00  0.00000000000E+00  0.33905008297E+02  0.33905008297E+02  0.00000000000E+00 0. -1.
          2   -1    0    0  501    0  0.00000000000E+00 -0.00000000000E+00 -0.44634229377E+03  0.44634229377E+03  0.00000000000E+00 0.  1.
         25    2    1    2    0    0  0.16751011075E+02  0.56438200126E+02 -0.23183543304E+03  0.26992887206E+03  0.12509221061E+03 0.  0.
          5    1    3    3  502    0  0.75891742015E+01  0.91773123453E+02 -0.20391320271E+03  0.22378107246E+03  0.41800000000E+01 0.  1.
         -5    1    3    3    0  502  0.91618368739E+01 -0.35334923327E+02 -0.27922230329E+02  0.46147799601E+02  0.41800000000E+01 0.  1.
        -11    1    1    2    0    0 -0.31465104323E+02 -0.91362600966E+01 -0.12497845011E+02  0.35067366148E+02  0.00000000000E+00 0. -1.
         11    1    1    2    0    0  0.14714093248E+02 -0.47301940029E+02 -0.16810400742E+03  0.17525106385E+03  0.00000000000E+00 0.  1.
</event>
<event>
 7    1  0.2619826E-009  0.1221517E+03  0.7561462E-02  0.1239589E+00
         -1   -1    0    0    0  501 -0.00000000000E+00  0.00000000000E+00  0.27788607081E+02  0.27788607081E+02  0.00000000000E+00 0.  1.
          1   -1    0    0  501    0  0.00000000000E+00 -0.00000000000E+00 -0.85655309468E+03  0.85655309468E+03  0.00000000000E+00 0. -1.
         25    2    1    2    0    0 -0.50443313451E+02 -0.61991922824E+02 -0.66221759253E+03  0.67865092065E+03  0.12508959141E+03 0.  0.
          5    1    3    3  502    0  0.12460854382E+02  0.22674996928E+02 -0.30603969338E+03  0.30715988459E+03  0.41800000000E+01 0. -1.
         -5    1    3    3    0  502 -0.62904167833E+02 -0.84666919752E+02 -0.35617789915E+03  0.37149103606E+03  0.41800000000E+01 0. -1.
        -11    1    1    2    0    0  0.66690635585E+02  0.23424571777E+02 -0.13794541759E+03  0.15500093442E+03  0.00000000000E+00 0. -1.
         11    1    1    2    0    0 -0.16247322134E+02  0.38567351046E+02 -0.28601477482E+02  0.50689846689E+02  0.00000000000E+00 0.  1.
</event>
<event>
 7    1  0.2697004E-009  0.1018101E+03  0.7561462E-02  0.1276535E+00
         -2   -1    0    0    0  501 -0.00000000000E+00  0.00000000000E+00  0.59616726038E+02  0.59616726038E+02  0.00000000000E+00 0.  1.
          2   -1    0    0  501    0  0.00000000000E+00 -0.00000000000E+00 -0.33431321336E+03  0.33431321336E+03  0.00000000000E+00 0. -1.
         25    2    1    2    0    0 -0.14747829278E+02  0.73151704329E+02 -0.80065291712E+02  0.16619721158E+03  0.12506954819E+03 0.  0.
          5    1    3    3  502    0 -0.15035086221E+02  0.25501150205E+01  0.30841317696E+02  0.34658565774E+02  0.41800000000E+01 0.  1.
         -5    1    3    3    0  502  0.28725694220E+00  0.70601589309E+02 -0.11090660941E+03  0.13153864580E+03  0.41800000000E+01 0.  1.
        -11    1    1    2    0    0  0.49153482213E+01  0.21432132034E+02 -0.25239339261E+02  0.33474186742E+02  0.00000000000E+00 0.  1.
         11    1    1    2    0    0  0.98324810572E+01 -0.94583836364E+02 -0.16939185635E+03  0.19425854108E+03  0.00000000000E+00 0. -1.
</event>
<event>
 7    1  0.2619826E-009  0.1490610E+03  0.7561462E-02  0.1201632E+00
          2   -1    0    0  501    0  0.00000000000E+00  0.00000000000E+00  0.12046053289E+04  0.12046053289E+04  0.00000000000E+00 0. -1.
         -2   -1    0    0    0  501 -0.00000000000E+00 -0.00000000000E+00 -0.24558728955E+02  0.24558728955E+02  0.00000000000E+00 0.  1.
         25    2    1    2    0    0 -0.13166821619E+03  0.55581762921E+01  0.53082725818E+03  0.56106386230E+03  0.12509063541E+03 0.  0.
          5    1    3    3  502    0 -0.65315644488E+01 -0.12828553337E+02  0.27732585653E+03  0.27773069008E+03  0.41800000000E+01 0. -1.
         -5    1    3    3    0  502 -0.12513665174E+03  0.18386729629E+02  0.25350140165E+03  0.28333317221E+03  0.41800000000E+01 0. -1.
        -11    1    1    2    0    0  0.10016680984E+03 -0.41822033264E+02  0.48507348100E+03  0.49707017033E+03  0.00000000000E+00 0. -1.
         11    1    1    2    0    0  0.31501406355E+02  0.36263856972E+02  0.16414586075E+03  0.17103002522E+03  0.00000000000E+00 0.  1.
</event>
<event>
 7    1  0.2619826E-009  0.9189889E+02  0.7561462E-02  0.1298317E+00
          4   -1    0    0  501    0  0.00000000000E+00  0.00000000000E+00  0.25293770151E+03  0.25293770151E+03  0.00000000000E+00 0. -1.
         -4   -1    0    0    0  501 -0.00000000000E+00 -0.00000000000E+00 -0.91975229021E+02  0.91975229021E+02  0.00000000000E+00 0.  1.
         25    2    1    2    0    0 -0.86010782814E+01 -0.71078878553E+02  0.17627737926E+03  0.22770446333E+03  0.12509765249E+03 0.  0.
          5    1    3    3  502    0  0.34736009190E+02 -0.35679227077E+02  0.83673769282E+01  0.50666389016E+02  0.41800000000E+01 0. -1.
         -5    1    3    3    0  502 -0.43337087472E+02 -0.35399651476E+02  0.16791000233E+03  0.17703807432E+03  0.41800000000E+01 0. -1.
        -11    1    1    2    0    0  0.17383384432E+02  0.64331341327E+02 -0.48372870505E+02  0.82344630257E+02  0.00000000000E+00 0.  1.
         11    1    1    2    0    0 -0.87823061503E+01  0.67475372257E+01  0.33057963739E+02  0.34863836945E+02  0.00000000000E+00 0. -1.
</event>
<event>
 7    1  0.2619826E-009  0.8368114E+02  0.7561462E-02  0.1318918E+00
          1   -1    0    0  501    0  0.00000000000E+00  0.00000000000E+00  0.44072604908E+03  0.44072604908E+03  0.00000000000E+00 0. -1.
         -1   -1    0    0    0  501 -0.00000000000E+00 -0.00000000000E+00 -0.26970652997E+02  0.26970652997E+02  0.00000000000E+00 0.  1.
         25    2    1    2    0    0  0.11138706821E+02 -0.34263671923E-01  0.25051195306E+03  0.28022915903E+03  0.12509224988E+03 0.  0.
          5    1    3    3  502    0  0.21888814021E+02  0.48873929352E+02  0.49544448085E+02  0.73074659669E+02  0.41800000000E+01 0. -1.
         -5    1    3    3    0  502 -0.10750107200E+02 -0.48908193024E+02  0.20096750497E+03  0.20715449936E+03  0.41800000000E+01 0. -1.
        -11    1    1    2    0    0  0.24939059481E+02  0.84861110952E+01  0.75191768511E+01  0.27395415489E+02  0.00000000000E+00 0.  1.
         11    1    1    2    0    0 -0.36077766302E+02 -0.84518474233E+01  0.15572426618E+03  0.16007212756E+03  0.00000000000E+00 0. -1.
</event>
<event>
 7    1  0.2619826E-009  0.1387438E+03  0.7561462E-02  0.1215029E+00
         -1   -1    0    0    0  501 -0.00000000000E+00  0.00000000000E+00  0.31187343745E+02  0.31187343745E+02  0.00000000000E+00 0.  1.
          1   -1    0    0  501    0  0.00000000000E+00 -0.00000000000E+00 -0.70507576739E+03  0.70507576739E+03  0.00000000000E+00 0. -1.
         25    2    1    2    0    0 -0.74759185961E+02 -0.46890929518E+02 -0.48309876969E+03  0.50677320132E+03  0.12508781372E+03 0.  0.
          5    1    3    3  502    0 -0.15571410002E+02  0.42196541613E+02 -0.16921228023E+03  0.17513790313E+03  0.41800000000E+01 0. -1.
         -5    1    3    3    0  502 -0.59187775959E+02 -0.89087471131E+02 -0.31388648947E+03  0.33163529819E+03  0.41800000000E+01 0. -1.
        -11    1    1    2    0    0  0.60281059986E+02  0.73455390250E+02 -0.12447293131E+03  0.15659824768E+03  0.00000000000E+00 0.  1.
         11    1    1    2    0    0  0.14478125975E+02 -0.26564460732E+02 -0.66316722641E+02  0.72891662127E+02  0.00000000000E+00 0. -1.
</event>
<event>
 7    1  0.2619826E-009  0.9767693E+02  0.7561462E-02  0.1285258E+00
         -3   -1    0    0    0  501 -0.00000000000E+00  0.00000000000E+00  0.79350116692E+02  0.79350116692E+02  0.00000000000E+00 0.  1.
          3   -1    0    0  501    0  0.00000000000E+00 -0.00000000000E+00 -0.27200009135E+03  0.27200009135E+03  0.00000000000E+00 0. -1.
         25    2    1    2    0    0 -0.44554254521E+02 -0.29866275413E+01 -0.21132668968E+03  0.24959988859E+03  0.12508850096E+03 0.  0.
          5    1    3    3  502    0  0.37533083362E+02  0.16648220552E+02 -0.35179806451E+02  0.54230865530E+02  0.41800000000E+01 0. -1.
         -5    1    3    3    0  502 -0.82087337883E+02 -0.19634848094E+02 -0.17614688322E+03  0.19536902306E+03  0.41800000000E+01 0. -1.
        -11    1    1    2    0    0  0.44933767142E+02  0.22366035571E+02 -0.23433519452E+02  0.55393256004E+02  0.00000000000E+00 0. -1.
         11    1    1    2    0    0 -0.37951262128E+00 -0.19379408030E+02  0.42110234465E+02  0.46357063455E+02  0.00000000000E+00 0.  1.
</event>
<event>
 7    1  0.2619826E-009  0.1811494E+03  0.7561462E-02  0.1166695E+00
          2   -1    0    0  501    0  0.00000000000E+00  0.00000000000E+00  0.19086847629E+04  0.19086847629E+04  0.00000000000E+00 0. -1.
         -2   -1    0    0    0  501 -0.00000000000E+00 -0.00000000000E+00 -0.21461887917E+02  0.21461887917E+02  0.00000000000E+00 0.  1.
         25    2    1    2    0    0  0.15246139268E+03 -0.37981281788E+02  0.14457431076E+04  0.14596258579E+04  0.12508979914E+03 0.  0.
          5    1    3    3  502    0  0.16831312338E+03 -0.10795023864E+02  0.12476276680E+04  0.12589829667E+04  0.41800000000E+01 0.  1.
         -5    1    3    3    0  502 -0.15851730708E+02 -0.27186257924E+02  0.19811543957E+03  0.20064289118E+03  0.41800000000E+01 0.  1.
        -11    1    1    2    0    0 -0.18026693899E+02  0.18798731864E+02  0.54439635473E+02  0.60349216424E+02  0.00000000000E+00 0.  1.
         11    1    1    2    0    0 -0.13443469878E+03  0.19182549924E+02  0.38704013196E+03  0.41017157654E+03  0.00000000000E+00 0. -1.
</event>
<event>
 7    1  0.2619826E-009  0.8388495E+02  0.7561462E-02  0.1318375E+00
          2   -1    0    0  501    0  0.00000000000E+00  0.00000000000E+00  0.13643353598E+04  0.13643353598E+04  0.00000000000E+00 0. -1.
         -2   -1    0    0    0  501 -0.00000000000E+00 -0.00000000000E+00 -0.10513869476E+02  0.10513869476E+02  0.00000000000E+00 0.  1.
         25    2    1    2    0    0  0.41486604294E+02 -0.24433766643E+02  0.96476212431E+03  0.97402862140E+03  0.12509057326E+03 0.  0.
          5    1    3    3  502    0 -0.13744282740E+02  0.17086186675E+01  0.10679075799E+02  0.17981650250E+02  0.41800000000E+01 0. -1.
         -5    1    3    3    0  502  0.55230887034E+02 -0.26142385310E+02  0.95408304851E+03  0.95604697115E+03  0.41800000000E+01 0. -1.
        -11    1    1    2    0    0 -0.62674729915E+02  0.42935774085E+01  0.31494562865E+03  0.32114997366E+03  0.00000000000E+00 0. -1.
         11    1    1    2    0    0  0.21188125621E+02  0.20140189235E+02  0.74113737342E+02  0.79670634192E+02  0.00000000000E+00 0.  1.
</event>
<event>
 6    1  0.2619826E-009  0.2860795E+03  0.7561462E-02  0.1092414E+00
         -1   -1    0    0    0  501 -0.00000000000E+00  0.00000000000E+00  0.32706242388E+03  0.32706242388E+03  0.00000000000E+00 0.  1.
          1   -1    0    0  501    0  0.00000000000E+00 -0.00000000000E+00 -0.32858564785E+03  0.32858564785E+03  0.00000000000E+00 0. -1.
          5    1    1    2  502    0 -0.19774367377E+03  0.14974913402E+03 -0.50909258654E+02  0.25325202600E+03  0.41800000000E+01 0. -1.
         -5    1    1    2    0  502 -0.29804060891E+02  0.20030241945E+02 -0.71951763698E+02  0.80523421047E+02  0.41800000000E+01 0. -1.
        -11    1    1    2    0    0  0.86490894017E+02 -0.94244590485E+02  0.12864683430E+02  0.12856211597E+03  0.00000000000E+00 0. -1.
         11    1    1    2    0    0  0.14105684065E+03 -0.75534785483E+02  0.10847311494E+03  0.19331050871E+03  0.00000000000E+00 0.  1.
</event>
<event>
 7    1  0.2619826E-009  0.1043028E+03  0.7561462E-02  0.1271499E+00
          3   -1    0    0  501    0  0.00000000000E+00  0.00000000000E+00  0.58145906618E+02  0.58145906618E+02  0.00000000000E+00 0. -1.
         -3   -1    0    0    0  501 -0.00000000000E+00 -0.00000000000E+00 -0.28304639902E+03  0.28304639902E+03  0.00000000000E+00 0.  1.
         25    2    1    2    0    0  0.64943169520E+02 -0.22305208535E+02 -0.14293057832E+03  0.20196818984E+03  0.12508741701E+03 0.  0.
          5    1    3    3  502    0  0.53873556522E+02 -0.69230937962E+02 -0.61403459923E+02  0.10715941468E+03  0.41800000000E+01 0.  1.
         -5    1    3    3    0  502  0.11069612997E+02  0.46925729427E+02 -0.81527118398E+02  0.94808775166E+02  0.41800000000E+01 0.  1.
        -11    1    1    2    0    0 -0.37781120429E+02  0.24672765420E+02 -0.97792080812E+02  0.10770074041E+03  0.00000000000E+00 0.  1.
         11    1    1    2    0    0 -0.27162049090E+02 -0.23675568847E+01  0.15822166725E+02  0.31523375395E+02  0.00000000000E+00 0. -1.
</event>
<event>
 7    1  0.2997135E-009  0.1160418E+03  0.7561462E-02  0.1249773E+00
         -1   -1    0    0    0  501 -0.00000000000E+00  0.00000000000E+00  0.55455995382E+02  0.55455995382E+02  0.00000000000E+00 0.  1.
          1   -1    0    0  501    0  0.00000000000E+00 -0.00000000000E+00 -0.35011759096E+03  0.35011759096E+03  0.00000000000E+00 0. -1.
         25    2    1    2    0    0 -0.25317105983E+02  0.82588659963E+02 -0.14431842303E+03  0.20963129469E+03  0.12512245953E+03 0.  0.
          5    1    3    3  502    0 -0.58283726263E+02  0.93837588644E+02 -0.13261862904E+03  0.17264894717E+03  0.41800000000E+01 0. -1.
         -5    1    3    3    0  502  0.32966620280E+02 -0.11248928680E+02 -0.11699793988E+02  0.36982347525E+02  0.41800000000E+01 0. -1.
        -11    1    1    2    0    0  0.81940010657E+01 -0.32719230900E+02 -0.13763160356E+03  0.14170443897E+03  0.00000000000E+00 0.  1.
         11    1    1    2    0    0  0.17123104917E+02 -0.49869429064E+02 -0.12711568986E+02  0.54237852679E+02  0.00000000000E+00 0. -1.
</event>
<event>
 6    1  0.2619826E-009  0.1054800E+03  0.7561462E-02  0.1269177E+00
         -1   -1    0    0    0  501 -0.00000000000E+00  0.00000000000E+00  0.13671949590E+03  0.13671949590E+03  0.00000000000E+00 0.  1.
          1   -1    0    0  501    0  0.00000000000E+00 -0.00000000000E+00 -0.89979886255E+02  0.89979886255E+02  0.00000000000E+00 0. -1.
          5    1    1    2  502    0  0.19638176989E+02 -0.61779505170E+02  0.62978185182E+01  0.65264846377E+02  0.41800000000E+01 0. -1.
         -5    1    1    2    0  502 -0.21525321632E+02  0.52797149998E+02  0.34396444770E+02  0.66719310040E+02  0.41800000000E+01 0. -1.
        -11    1    1    2    0    0 -0.39770614738E+02  0.21659699171E+02  0.19257732378E+02  0.49210818131E+02  0.00000000000E+00 0.  1.
         11    1    1    2    0    0  0.41657759381E+02 -0.12677344000E+02 -0.13212386020E+02  0.45504407609E+02  0.00000000000E+00 0. -1.
</event>
<event>
 7    1  0.2619826E-009  0.4573163E+03  0.7561462E-02  0.1025562E+00
          1   -1    0    0  501    0  0.00000000000E+00  0.00000000000E+00  0.37376004013E+03  0.37376004013E+03  0.00000000000E+00 0. -1.
         -1   -1    0    0    0  501 -0.00000000000E+00 -0.00000000000E+00 -0.67405702633E+03  0.67405702633E+03  0.00000000000E+00 0.  1.
         25    2    1    2    0    0  0.31341092432E+03 -0.32166598484E+03  0.53489130889E+02  0.46925870993E+03  0.12508891414E+03 0.  0.
          5    1    3    3  502    0  0.42945726534E+02  0.17338455421E+01  0.15731808716E+02  0.45959806933E+02  0.41800000000E+01 0. -1.
         -5    1    3    3    0  502  0.27046519779E+03 -0.32339983038E+03  0.37757322174E+02  0.42329890300E+03  0.41800000000E+01 0. -1.
        -11    1    1    2    0    0 -0.24224977997E+03  0.26344398566E+03 -0.23419792177E+03  0.42771059846E+03  0.00000000000E+00 0.  1.
         11    1    1    2    0    0 -0.71161144351E+02  0.58221999179E+02 -0.11958819531E+03  0.15084775806E+03  0.00000000000E+00 0. -1.
</event>
<event>
 7    1  0.2619826E-009  0.1342569E+03  0.7561462E-02  0.1221273E+00
          1   -1    0    0  501    0  0.00000000000E+00  0.00000000000E+00  0.58029840473E+02  0.58029840473E+02  0.00000000000E+00 0. -1.
         -1   -1    0    0    0  501 -0.00000000000E+00 -0.00000000000E+00 -0.42200177263E+03  0.42200177263E+03  0.00000000000E+00 0.  1.
         25    2    1    2    0    0 -0.10667833947E+03  0.12769231045E+02 -0.25147202202E+03  0.30071989250E+03  0.12510377497E+03 0.  0.
          5    1    3    3  502    0 -0.86063805663E+02  0.44326079608E+02 -0.24335451606E+03  0.26193639087E+03  0.41800000000E+01 0.  1.
         -5    1    3    3    0  502 -0.20614533809E+02 -0.31556848562E+02 -0.81175059659E+01  0.38783501627E+02  0.41800000000E+01 0.  1.
        -11    1    1    2    0    0  0.10830345154E+03  0.11911892472E+02 -0.68102584710E+02  0.12848927131E+03  0.00000000000E+00 0.  1.
         11    1    1    2    0    0 -0.16251120659E+01 -0.24681123518E+02 -0.44397325421E+02  0.50822449290E+02  0.00000000000E+00 0. -1.
</event>
<event>
 7    1  0.2619826E-009  0.1220272E+03  0.7561462E-02  0.1239790E+00
         -1   -1    0    0    0  501 -0.00000000000E+00  0.00000000000E+00  0.55290462467E+02  0.55290462467E+02  0.00000000000E+00 0.  1.
          1   -1    0    0  501    0  0.00000000000E+00 -0.00000000000E+00 -0.30457596307E+03  0.30457596307E+03  0.00000000000E+00 0. -1.
         25    2    1    2    0    0 -0.53358388259E+02 -0.44256750936E+02 -0.15439368778E+03  0.21045433816E+03  0.12509132673E+03 0.  0.
          5    1    3    3  502    0 -0.88254535773E+02 -0.23473756697E+02 -0.13991335691E+03  0.16713198431E+03  0.41800000000E+01 0.  1.
         -5    1    3    3    0  502  0.34896147514E+02 -0.20782994239E+02 -0.14480330872E+02  0.43322353849E+02  0.41800000000E+01 0.  1.
        -11    1    1    2    0    0  0.51013654992E+00  0.57355475871E+02 -0.30084571325E+02  0.64768760089E+02  0.00000000000E+00 0. -1.
         11    1    1    2    0    0  0.52848251709E+02 -0.13098724935E+02 -0.64807241492E+02  0.84643327282E+02  0.00000000000E+00 0.  1.
</event>
<event>
 7    1  0.2619826E-009  0.1238985E+03  0.7561462E-02  0.1236801E+00
         -2   -1    0    0    0  501 -0.00000000000E+00  0.00000000000E+00  0.29826799454E+03  0.29826799454E+03  0.00000000000E+00 0.  1.
          2   -1    0    0  501    0  0.00000000000E+00 -0.00000000000E+00 -0.93048902941E+02  0.93048902941E+02  0.00000000000E+00 0. -1.
         25    2    1    2    0    0  0.58516075507E+02  0.49986274931E+02  0.22786764483E+03  0.27110911826E+03  0.12511487390E+03 0.  0.
          5    1    3    3  502    0  0.16060926970E+02  0.78754727480E+02  0.19256706672E+03  0.20870986574E+03  0.41800000000E+01 0. -1.
         -5    1    3    3    0  502  0.42455148538E+02 -0.28768452550E+02  0.35300578111E+02  0.62399252515E+02  0.41800000000E+01 0. -1.
        -11    1    1    2    0    0  0.17503297504E+02 -0.33905414200E+02  0.32717952584E+01  0.38296829892E+02  0.00000000000E+00 0.  1.
         11    1    1    2    0    0 -0.76019373011E+02 -0.16080860731E+02 -0.25920348485E+02  0.81910949332E+02  0.00000000000E+00 0. -1.
</event>
<event>
 6    1  0.2619826E-009  0.2352188E+03  0.7561462E-02  0.1123020E+00
          2   -1    0    0  501    0  0.00000000000E+00  0.00000000000E+00  0.86488819609E+03  0.86488819609E+03  0.00000000000E+00 0. -1.
         -2   -1    0    0    0  501 -0.00000000000E+00 -0.00000000000E+00 -0.77508728599E+02  0.77508728599E+02  0.00000000000E+00 0.  1.
          5    1    1    2  502    0  0.13094650458E+03 -0.22915340683E+02  0.36023773670E+03  0.38400624896E+03  0.41800000000E+01 0. -1.
         -5    1    1    2    0  502  0.39311608416E+02 -0.10379530831E+03  0.22363836472E+03  0.24970073920E+03  0.41800000000E+01 0. -1.
        -11    1    1    2    0    0 -0.96034102561E+02  0.11722367543E+03  0.10233689174E+03  0.18285726222E+03  0.00000000000E+00 0.  1.
         11    1    1    2    0    0 -0.74224010439E+02  0.94869735666E+01  0.10116647433E+03  0.12583267430E+03  0.00000000000E+00 0. -1.
</event>
<event>
 7    1  0.2619826E-009  0.8344180E+02  0.7561462E-02  0.1319558E+00
          1   -1    0    0  501    0  0.00000000000E+00  0.00000000000E+00  0.53050317834E+03  0.53050317834E+03  0.00000000000E+00 0. -1.
         -1   -1    0    0    0  501 -0.00000000000E+00 -0.00000000000E+00 -0.28737437526E+02  0.28737437526E+02  0.00000000000E+00 0.  1.
         25    2    1    2    0    0 -0.19130987732E+02  0.31785716161E+02  0.38646616809E+03  0.40789511684E+03  0.12508397508E+03 0.  0.
          5    1    3    3  502    0  0.33053485261E+02  0.83481085709E+00  0.30188581130E+03  0.30371984667E+03  0.41800000000E+01 0. -1.
         -5    1    3    3    0  502 -0.52184472994E+02  0.30950905304E+02  0.84580356793E+02  0.10417527017E+03  0.41800000000E+01 0. -1.
        -11    1    1    2    0    0 -0.64142728997E+01  0.16725791881E+02 -0.54563053351E+01  0.18726085517E+02  0.00000000000E+00 0.  1.
         11    1    1    2    0    0  0.25545260632E+02 -0.48511508042E+02  0.12075587806E+03  0.13261941351E+03  0.00000000000E+00 0. -1.
</event>
<event>
 7    1  0.2619826E-009  0.1426401E+03  0.7561462E-02  0.1209820E+00
         -1   -1    0    0    0  501 -0.00000000000E+00  0.00000000000E+00  0.36444837890E+02  0.36444837890E+02  0.00000000000E+00 0.  1.
          1   -1    0    0  501    0  0.00000000000E+00 -0.00000000000E+00 -0.73801701106E+03  0.73801701106E+03  0.00000000000E+00 0. -1.
         25    2    1    2    0    0  0.93734918547E+02  0.64219135498E+02 -0.48840083461E+03  0.51681102930E+03  0.12509169614E+03 0.  0.
          5    1    3    3  502    0 -0.21604763983E+02  0.46251509787E+02 -0.17540537252E+03  0.18273063534E+03  0.41800000000E+01 0. -1.
         -5    1    3    3    0  502  0.11533968253E+03  0.17967625711E+02 -0.31299546209E+03  0.33408039396E+03  0.41800000000E+01 0. -1.
        -11    1    1    2    0    0 -0.73129476782E+02 -0.33920000560E+02 -0.60895393991E+02  0.10102839117E+03  0.00000000000E+00 0.  1.
         11    1    1    2    0    0 -0.20605441765E+02 -0.30299134938E+02 -0.15227594457E+03  0.15662242848E+03  0.00000000000E+00 0. -1.
</event>
<event>
 7    1  0.2619826E-009  0.1207660E+03  0.7561462E-02  0.1241839E+00
         -2   -1    0    0    0  501 -0.00000000000E+00  0.00000000000E+00  0.11057045532E+03  0.11057045532E+03  0.00000000000E+00 0.  1.
          2   -1    0    0  501    0  0.00000000000E+00 -0.00000000000E+00 -0.32015235386E+03  0.32015235386E+03  0.00000000000E+00 0. -1.
         25    2    1    2    0    0  0.67963906413E+02 -0.79326093849E+01  0.46809950036E+02  0.15006899238E+03  0.12509001633E+03 0.  0.
          5    1    3    3  502    0 -0.32177397294E+02 -0.13833117552E+02  0.33754132971E+02  0.48821654319E+02  0.41800000000E+01 0. -1.
         -5    1    3    3    0  502  0.10014130371E+03  0.59005081676E+01  0.13055817065E+02  0.10124733806E+03  0.41800000000E+01 0. -1.
        -11    1    1    2    0    0  0.18796738649E+02  0.16278834498E+01 -0.15116811687E+02  0.24176132526E+02  0.00000000000E+00 0.  1.
         11    1    1    2    0    0 -0.86760645062E+02  0.63047259350E+01 -0.24127503689E+03  0.25647768427E+03  0.00000000000E+00 0. -1.
</event>
<event>
 7    1  0.2619826E-009  0.1113045E+03  0.7561462E-02  0.1258173E+00
          2   -1    0    0  501    0  0.00000000000E+00  0.00000000000E+00  0.15041080210E+03  0.15041080210E+03  0.00000000000E+00 0. -1.
         -2   -1    0    0    0  501 -0.00000000000E+00 -0.00000000000E+00 -0.10184480663E+03  0.10184480663E+03  0.00000000000E+00 0.  1.
         25    2    1    2    0    0  0.26788941248E+02 -0.21950798404E+02 -0.19370564478E+02  0.13123417211E+03  0.12509078399E+03 0.  0.
          5    1    3    3  502    0  0.29267680608E+02 -0.69046229938E+02 -0.32891662363E+02  0.81995809953E+02  0.41800000000E+01 0. -1.
         -5    1    3    3    0  502 -0.24787393599E+01  0.47095431535E+02  0.13521097885E+02  0.49238362161E+02  0.41800000000E+01 0. -1.
        -11    1    1    2    0    0  0.33378371216E+02  0.22018353385E+02  0.27065294501E+02  0.48285129360E+02  0.00000000000E+00 0.  1.
         11    1    1    2    0    0 -0.60167312465E+02 -0.67554981280E-01  0.40871265449E+02  0.72736307249E+02  0.00000000000E+00 0. -1.
</event>
<event>
 7    1  0.3727831E-009  0.1202345E+03  0.7561462E-02  0.1242711E+00
         -1   -1    0    0    0  501 -0.00000000000E+00  0.00000000000E+00  0.33091126476E+02  0.33091126476E+02  0.00000000000E+00 0.  1.
          1   -1    0    0  501    0  0.00000000000E+00 -0.00000000000E+00 -0.61065055426E+03  0.61065055426E+03  0.00000000000E+00 0. -1.
         25    2    1    2    0    0 -0.53868900412E+02  0.26832477227E+02 -0.47160442736E+03  0.49160962940E+03  0.12508977395E+03 0.  0.
          5    1    3    3  502    0 -0.46257431426E+02 -0.43164513793E+02 -0.28859685968E+03  0.29548019398E+03  0.41800000000E+01 0.  1.
         -5    1    3    3    0  502 -0.76114689853E+01  0.69996991021E+02 -0.18300756768E+03  0.19612943542E+03  0.41800000000E+01 0.  1.
        -11    1    1    2    0    0  0.64222138260E+02  0.12869624964E+02 -0.80767306270E+02  0.10398782646E+03  0.00000000000E+00 0. -1.
         11    1    1    2    0    0 -0.10353237849E+02 -0.39702102191E+02 -0.25187694150E+02  0.48144224877E+02  0.00000000000E+00 0.  1.
</event>
<event>
 7    1  0.2619826E-009  0.9633083E+02  0.7561462E-02  0.1288207E+00
          1   -1    0    0  501    0  0.00000000000E+00  0.00000000000E+00  0.13462371390E+03  0.13462371390E+03  0.00000000000E+00 0. -1.
         -1   -1    0    0    0  501 -0.00000000000E+00 -0.00000000000E+00 -0.12704538642E+03  0.12704538642E+03  0.00000000000E+00 0.  1.
         25    2    1    2    0    0  0.15400072383E+02 -0.26680071688E+02  0.69476263404E+02  0.14633610483E+03  0.12505325243E+03 0.  0.
          5    1    3    3  502    0  0.13349100929E+02  0.33078339719E+02  0.77926026677E+02  0.85803922334E+02  0.41800000000E+01 0. -1.
         -5    1    3    3    0  502  0.20509714540E+01 -0.59758411407E+02 -0.84497632735E+01  0.60532182492E+02  0.41800000000E+01 0. -1.
        -11    1    1    2    0    0 -0.43779804932E+02  0.45194812229E+02 -0.45751961990E+02  0.77797714608E+02  0.00000000000E+00 0.  1.
         11    1    1    2    0    0  0.28379732549E+02 -0.18514740541E+02 -0.16145973939E+02  0.37535280887E+02  0.00000000000E+00 0. -1.
</event>
<event>
 7    1  0.2619826E-009  0.1719250E+03  0.7561462E-02  0.1175855E+00
         -4   -1    0    0    0  501 -0.00000000000E+00  0.00000000000E+00  0.65010632738E+02  0.65010632738E+02  0.00000000000E+00 0. -1.
          4   -1    0    0  501    0  0.00000000000E+00 -0.00000000000E+00 -0.54130512553E+03  0.54130512553E+03  0.00000000000E+00 0.  1.
         25    2    1    2    0    0  0.10632495643E+03  0.98193811386E+02 -0.32580041558E+03  0.37780780747E+03  0.12508320285E+03 0.  0.
          5    1    3    3  502    0  0.81840507865E+02  0.12743643918E+03 -0.27702534824E+03  0.31575058310E+03  0.41800000000E+01 0.  1.
         -5    1    3    3    0  502  0.24484448569E+02 -0.29242627798E+02 -0.48775067346E+02  0.62057224373E+02  0.41800000000E+01 0.  1.
        -11    1    1    2    0    0 -0.63171931063E+02 -0.22911505272E+02 -0.11811084322E+03  0.13588892977E+03  0.00000000000E+00 0.  1.
         11    1    1    2    0    0 -0.43153025372E+02 -0.75282306114E+02 -0.32383233987E+02  0.92619021027E+02  0.00000000000E+00 0. -1.
</event>
<event>
 7    1  0.2619826E-009  0.1127460E+03  0.7561462E-02  0.1255568E+00
         -3   -1    0    0    0  501 -0.00000000000E+00  0.00000000000E+00  0.37163016889E+02  0.37163016889E+02  0.00000000000E+00 0. -1.
          3   -1    0    0  501    0  0.00000000000E+00 -0.00000000000E+00 -0.43294014003E+03  0.43294014003E+03  0.00000000000E+00 0.  1.
         25    2    1    2    0    0 -0.47488787755E+02 -0.41310052798E+01 -0.31716271276E+03  0.34425508558E+03  0.12508847834E+03 0.  0.
          5    1    3    3  502    0 -0.87671422712E+02  0.11467907264E+02 -0.18314828103E+03  0.20341719815E+03  0.41800000000E+01 0.  1.
         -5    1    3    3    0  502  0.40182634956E+02 -0.15598912544E+02 -0.13401443173E+03  0.14083788743E+03  0.41800000000E+01 0.  1.
        -11    1    1    2    0    0  0.63419155524E+02  0.24345412478E+02 -0.72584006553E+02  0.99413914536E+02  0.00000000000E+00 0.  1.
         11    1    1    2    0    0 -0.15930367769E+02 -0.20214407199E+02 -0.60304038287E+01  0.26434156805E+02  0.00000000000E+00 0. -1.
</event>
<event>
 6    1  0.2619826E-009  0.1772940E+03  0.7561462E-02  0.1170448E+00
          1   -1    0    0  501    0  0.00000000000E+00  0.00000000000E+00  0.12037549287E+04  0.12037549287E+04  0.00000000000E+00 0. -1.
         -1   -1    0    0    0  501 -0.00000000000E+00 -0.00000000000E+00 -0.42416616941E+02  0.42416616941E+02  0.00000000000E+00 0.  1.
          5    1    1    2  502    0 -0.23513424879E+02 -0.12071831439E+02  0.37670110985E+02  0.46207357915E+02  0.41800000000E+01 0. -1.
         -5    1    1    2    0  502 -0.84678398941E+02  0.12262643161E+03  0.90628345057E+03  0.91846330257E+03  0.41800000000E+01 0. -1.
        -11    1    1    2    0    0  0.10466386206E+03 -0.46386806923E+02  0.14372815752E+03  0.18374994733E+03  0.00000000000E+00 0. -1.
         11    1    1    2    0    0  0.35279617591E+01 -0.64167793250E+02  0.73656592724E+02  0.97750937881E+02  0.00000000000E+00 0.  1.
</event>
<event>
 7    1  0.2619826E-009  0.2339999E+03  0.7561462E-02  0.1123856E+00
          2   -1    0    0  501    0  0.00000000000E+00  0.00000000000E+00  0.44014266639E+03  0.44014266639E+03  0.00000000000E+00 0.  1.
         -2   -1    0    0    0  501 -0.00000000000E+00 -0.00000000000E+00 -0.13226040690E+03  0.13226040690E+03  0.00000000000E+00 0. -1.
         25    2    1    2    0    0  0.39606911855E+02  0.20865008466E+03  0.12274242261E+03  0.27534698151E+03  0.12508674040E+03 0.  0.
          5    1    3    3  502    0  0.65674024496E+02  0.49103008106E+02  0.60822703651E+02  0.10218148843E+03  0.41800000000E+01 0. -1.
         -5    1    3    3    0  502 -0.26067112641E+02  0.15954707655E+03  0.61919718961E+02  0.17316549308E+03  0.41800000000E+01 0. -1.
        -11    1    1    2    0    0  0.20159649710E+02 -0.33377400672E+02  0.66623356962E+02  0.77195427617E+02  0.00000000000E+00 0.  1.
         11    1    1    2    0    0 -0.59766561565E+02 -0.17527268398E+03  0.11851647992E+03  0.21986066416E+03  0.00000000000E+00 0. -1.
</event>
<event>
 7    1  0.2619826E-009  0.9766793E+02  0.7561462E-02  0.1285278E+00
         -2   -1    0    0    0  501 -0.00000000000E+00  0.00000000000E+00  0.63228493316E+02  0.63228493316E+02  0.00000000000E+00 0.  1.
          2   -1    0    0  501    0  0.00000000000E+00 -0.00000000000E+00 -0.18211917427E+03  0.18211917427E+03  0.00000000000E+00 0. -1.
         25    2    1    2    0    0  0.63648596755E+01  0.18325706432E+01 -0.88643665415E+02  0.15345757659E+03  0.12509060173E+03 0.  0.
          5    1    3    3  502    0  0.44494481968E+02  0.47753228958E+02 -0.44644147929E+02  0.79187765127E+02  0.41800000000E+01 0.  1.
         -5    1    3    3    0  502 -0.38129622293E+02 -0.45920658315E+02 -0.43999517486E+02  0.74269811466E+02  0.41800000000E+01 0.  1.
        -11    1    1    2    0    0 -0.35029373689E+02  0.13560844441E+02  0.11200976219E+02  0.39197134988E+02  0.00000000000E+00 0.  1.
         11    1    1    2    0    0  0.28664514014E+02 -0.15393415084E+02 -0.41447991758E+02  0.52692956003E+02  0.00000000000E+00 0. -1.
</event>
<event>
 7    1  0.2619826E-009  0.1164144E+03  0.7561462E-02  0.1249132E+00
          1   -1    0    0  501    0  0.00000000000E+00  0.00000000000E+00  0.66792747617E+03  0.66792747617E+03  0.00000000000E+00 0. -1.
         -1   -1    0    0    0  501 -0.00000000000E+00 -0.00000000000E+00 -0.25083009651E+02  0.25083009651E+02  0.00000000000E+00 0.  1.
         25    2    1    2    0    0  0.63408409437E+02  0.11651221283E+02  0.44867152062E+03  0.47022366352E+03  0.12509109873E+03 0.  0.
          5    1    3    3  502    0  0.92589611986E+02  0.15152036777E+02  0.21424256216E+03  0.23392256904E+03  0.41800000000E+01 0. -1.
         -5    1    3    3    0  502 -0.29181202549E+02 -0.35008154939E+01  0.23442895845E+03  0.23630109448E+03  0.41800000000E+01 0. -1.
        -11    1    1    2    0    0 -0.32414408813E+01 -0.41803401341E+02  0.74482278926E+02  0.85473043567E+02  0.00000000000E+00 0.  1.
         11    1    1    2    0    0 -0.60166968555E+02  0.30152180058E+02  0.11969066698E+03  0.13731377873E+03  0.00000000000E+00 0. -1.
</event>
<event>
 7    1  0.2619826E-009  0.1597473E+03  0.7561462E-02  0.1188982E+00
          1   -1    0    0  501    0  0.00000000000E+00  0.00000000000E+00  0.38602422862E+03  0.38602422862E+03  0.00000000000E+00 0. -1.
         -1   -1    0    0    0  501 -0.00000000000E+00 -0.00000000000E+00 -0.98573593019E+02  0.98573593019E+02  0.00000000000E+00 0.  1.
         25    2    1    2    0    0  0.67089793689E+02  0.12333810542E+03  0.24987076817E+03  0.31272150610E+03  0.12508401546E+03 0.  0.
          5    1    3    3  502    0  0.45712142796E+02  0.12187633254E+03  0.10802332558E+03  0.16920387615E+03  0.41800000000E+01 0. -1.
         -5    1    3    3    0  502  0.21377650893E+02  0.14617728783E+01  0.14184744259E+03  0.14351762995E+03  0.41800000000E+01 0. -1.
        -11    1    1    2    0    0 -0.22201086447E+02  0.11721280748E+02  0.20754957828E+01  0.25190957594E+02  0.00000000000E+00 0.  1.
         11    1    1    2    0    0 -0.44888707243E+02 -0.13505938617E+03  0.35504371654E+02  0.14668535795E+03  0.00000000000E+00 0. -1.
</event>
<event>
 7    1  0.2619826E-009  0.6536667E+02  0.7561462E-02  0.1376598E+00
         -3   -1    0    0    0  501 -0.00000000000E+00  0.00000000000E+00  0.65721068246E+03  0.65721068246E+03  0.00000000000E+00 0.  1.
          3   -1    0    0  501    0  0.00000000000E+00 -0.00000000000E+00 -0.41640615306E+02  0.41640615306E+02  0.00000000000E+00 0. -1.
         25    2    1    2    0    0 -0.34801983794E+02  0.19625011171E+02  0.58214469784E+03  0.59677561307E+03  0.12510940807E+03 0.  0.
          5    1    3    3  502    0 -0.32635008488E+02  0.26649536102E+02  0.58596749546E+03  0.58749520822E+03  0.41800000000E+01 0. -1.
         -5    1    3    3    0  502 -0.21669753063E+01 -0.70245249307E+01 -0.38227976152E+01  0.92804048450E+01  0.41800000000E+01 0. -1.
        -11    1    1    2    0    0  0.41297230738E+02  0.15579131893E+02 -0.10540260090E+02  0.45379154905E+02  0.00000000000E+00 0. -1.
         11    1    1    2    0    0 -0.64952469435E+01 -0.35204143064E+02  0.43965629400E+02  0.56696529790E+02  0.00000000000E+00 0.  1.
</event>
<event>
 7    1  0.2619826E-009  0.9371151E+02  0.7561462E-02  0.1294105E+00
          1   -1    0    0  501    0  0.00000000000E+00  0.00000000000E+00  0.88984794092E+03  0.88984794092E+03  0.00000000000E+00 0. -1.
         -1   -1    0    0    0  501 -0.00000000000E+00 -0.00000000000E+00 -0.15571204306E+02  0.15571204306E+02  0.00000000000E+00 0.  1.
         25    2    1    2    0    0  0.30625786549E+02  0.18140434268E+01  0.63481405834E+03  0.64774910985E+03  0.12509512817E+03 0.  0.
          5    1    3    3  502    0  0.60124913175E+02 -0.85970687551E+01  0.58887411172E+03  0.59201275884E+03  0.41800000000E+01 0. -1.
         -5    1    3    3    0  502 -0.29499126626E+02  0.10411112182E+02  0.45939946616E+02  0.55736351007E+02  0.41800000000E+01 0. -1.
        -11    1    1    2    0    0 -0.58945790560E+02 -0.18907115954E+02  0.16299297345E+03  0.17435250113E+03  0.00000000000E+00 0. -1.
         11    1    1    2    0    0  0.28320004011E+02  0.17093072527E+02  0.76469704830E+02  0.83317534244E+02  0.00000000000E+00 0.  1.
</event>
<event>
 7    1  0.2619826E-009  0.1317090E+03  0.7561462E-02  0.1224942E+00
          2   -1    0    0  501    0  0.00000000000E+00  0.00000000000E+00  0.35659786100E+02  0.35659786100E+02  0.00000000000E+00 0. -1.
         -2   -1    0    0    0  501 -0.00000000000E+00 -0.00000000000E+00 -0.65787406007E+03  0.65787406007E+03  0.00000000000E+00 0.  1.
         25    2    1    2    0    0 -0.94472389863E+02  0.15754036925E+02 -0.21509528259E+03  0.26662283256E+03  0.12509409309E+03 0.  0.
          5    1    3    3  502    0 -0.10032789750E+03  0.56211192615E+02 -0.17315262518E+03  0.20790548141E+03  0.41800000000E+01 0. -1.
         -5    1    3    3    0  502  0.58555076384E+01 -0.40457155690E+02 -0.41942657411E+02  0.58717351158E+02  0.41800000000E+01 0. -1.
        -11    1    1    2    0    0  0.68755321868E+02 -0.33019692309E+02 -0.37345617017E+03  0.38116545673E+03  0.00000000000E+00 0.  1.
         11    1    1    2    0    0  0.25717067995E+02  0.17265655384E+02 -0.33662821209E+02  0.45745556876E+02  0.00000000000E+00 0. -1.
</event>
<event>
 7    1  0.2619826E-009  0.3169885E+03  0.7561462E-02  0.1077044E+00
         -1   -1    0    0    0  501 -0.00000000000E+00  0.00000000000E+00  0.46390102677E+03  0.46390102677E+03  0.00000000000E+00 0.  1.
          1   -1    0    0  501    0  0.00000000000E+00 -0.00000000000E+00 -0.38796045270E+03  0.38796045270E+03  0.00000000000E+00 0. -1.
         25    2    1    2    0    0 -0.27922541213E+03 -0.12537165393E+03  0.31041548423E+03  0.45353198353E+03  0.12509438375E+03 0.  0.
          5    1    3    3  502    0 -0.76366235311E+02 -0.31472625910E+01  0.20673273659E+02  0.79287854059E+02  0.41800000000E+01 0.  1.
         -5    1    3    3    0  502 -0.20285917682E+03 -0.12222439134E+03  0.28974221057E+03  0.37424412947E+03  0.41800000000E+01 0.  1.
        -11    1    1    2    0    0  0.23071407945E+03  0.14002827929E+03 -0.21049839812E+03  0.34226668121E+03  0.00000000000E+00 0.  1.
         11    1    1    2    0    0  0.48511332678E+02 -0.14656625356E+02 -0.23976512042E+02  0.56062814724E+02  0.00000000000E+00 0. -1.
</event>
<event>
 7    1  0.2619826E-009  0.1212635E+03  0.7561462E-02  0.1241027E+00
         -1   -1    0    0    0  501 -0.00000000000E+00  0.00000000000E+00  0.25867796985E+02  0.25867796985E+02  0.00000000000E+00 0.  1.
          1   -1    0    0  501    0  0.00000000000E+00 -0.00000000000E+00 -0.86365073633E+03  0.86365073633E+03  0.00000000000E+00 0. -1.
         25    2    1    2    0    0  0.88567132490E+02 -0.47032921540E+02 -0.51206166514E+03  0.53657833107E+03  0.12511164536E+03 0.  0.
          5    1    3    3  502    0  0.24096563839E+02  0.18316787737E+02 -0.21201250449E+02  0.37190247679E+02  0.41800000000E+01 0. -1.
         -5    1    3    3    0  502  0.64470568651E+02 -0.65349709276E+02 -0.49086041469E+03  0.49938808339E+03  0.41800000000E+01 0. -1.
        -11    1    1    2    0    0 -0.99219032101E+00  0.31038434220E+02 -0.26719591830E+02  0.40967126187E+02  0.00000000000E+00 0.  1.
         11    1    1    2    0    0 -0.87574942169E+02  0.15994487320E+02 -0.29900168237E+03  0.31197307606E+03  0.00000000000E+00 0. -1.
</event>
<event>
 7    1  0.2619826E-009  0.1291038E+03  0.7561462E-02  0.1228792E+00
         -1   -1    0    0    0  501 -0.00000000000E+00  0.00000000000E+00  0.25605546378E+02  0.25605546378E+02  0.00000000000E+00 0.  1.
          1   -1    0    0  501    0  0.00000000000E+00 -0.00000000000E+00 -0.10221583536E+04  0.10221583536E+04  0.00000000000E+00 0. -1.
         25    2    1    2    0    0  0.47815565852E+02 -0.60689737202E+02 -0.83309173378E+03  0.84596649151E+03  0.12509154775E+03 0.  0.
          5    1    3    3  502    0  0.75729790552E+02 -0.81718810350E+02 -0.60765761120E+03  0.61780110876E+03  0.41800000000E+01 0.  1.
         -5    1    3    3    0  502 -0.27914224700E+02  0.21029073148E+02 -0.22543412258E+03  0.22816538274E+03  0.41800000000E+01 0.  1.
        -11    1    1    2    0    0 -0.41189239589E+02 -0.84618108926E+01 -0.96712442947E+02  0.10545829660E+03  0.00000000000E+00 0. -1.
         11    1    1    2    0    0 -0.66263262635E+01  0.69151548094E+02 -0.66748630505E+02  0.96339111880E+02  0.00000000000E+00 0.  1.
</event>
<event>
 7    1  0.2619826E-009  0.1200599E+03  0.7561462E-02  0.1242998E+00
          1   -1    0    0  501    0  0.00000000000E+00  0.00000000000E+00  0.21535851945E+03  0.21535851945E+03  0.00000000000E+00 0. -1.
         -1   -1    0    0    0  501 -0.00000000000E+00 -0.00000000000E+00 -0.13291140155E+03  0.13291140155E+03  0.00000000000E+00 0.  1.
         25    2    1    2    0    0 -0.41861217596E+01 -0.90143246556E+02  0.13959147431E+03  0.20802847351E+03  0.12508692009E+03 0.  0.
          5    1    3    3  502    0 -0.22119106908E+02  0.22662582836E+02  0.65070750944E+01  0.32598496553E+02  0.41800000000E+01 0.  1.
         -5    1    3    3    0  502  0.17932985148E+02 -0.11280582939E+03  0.13308439922E+03  0.17542997696E+03  0.41800000000E+01 0.  1.
        -11    1    1    2    0    0  0.10721670392E+02  0.14924585906E+02 -0.61919179013E+02  0.64588560985E+02  0.00000000000E+00 0.  1.
         11    1    1    2    0    0 -0.65355486319E+01  0.75218660650E+02  0.47748225978E+01  0.75652886507E+02  0.00000000000E+00 0. -1.
</event>
<event>
 7    1  0.2619826E-009  0.7762302E+02  0.7561462E-02  0.1335936E+00
          2   -1    0    0  501    0  0.00000000000E+00  0.00000000000E+00  0.12405138175E+03  0.12405138175E+03  0.00000000000E+00 0. -1.
         -2   -1    0    0    0  501 -0.00000000000E+00 -0.00000000000E+00 -0.12534366656E+03  0.12534366656E+03  0.00000000000E+00 0.  1.
         25    2    1    2    0    0 -0.87662595472E+01 -0.10204223957E+01  0.61141073838E+02  0.13951892742E+03  0.12509760841E+03 0.  0.
          5    1    3    3  502    0  0.36493060686E+02 -0.17688548024E+02 -0.19708920747E+02  0.45282912521E+02  0.41800000000E+01 0.  1.
         -5    1    3    3    0  502 -0.45259320233E+02  0.16668125628E+02  0.80849994585E+02  0.94236014900E+02  0.41800000000E+01 0.  1.
        -11    1    1    2    0    0 -0.11348084219E+02 -0.28310404819E+02 -0.67386601154E+02  0.73967641922E+02  0.00000000000E+00 0.  1.
         11    1    1    2    0    0  0.20114343766E+02  0.29330827215E+02  0.49532424993E+01  0.35908478964E+02  0.00000000000E+00 0. -1.
</event>
<event>
 7    1  0.2619826E-009  0.1257352E+03  0.7561462E-02  0.1233925E+00
         -1   -1    0    0    0  501 -0.00000000000E+00  0.00000000000E+00  0.32778343806E+02  0.32778343806E+02  0.00000000000E+00 0.  1.
          1   -1    0    0  501    0  0.00000000000E+00 -0.00000000000E+00 -0.53624253348E+03  0.53624253348E+03  0.00000000000E+00 0. -1.
         25    2    1    2    0    0 -0.60969423829E+02  0.44137723648E+02 -0.26528835251E+03  0.30280341817E+03  0.12508633334E+03 0.  0.
          5    1    3    3  502    0 -0.48337420742E+02  0.80898896601E+02 -0.12164804024E+03  0.15393783099E+03  0.41800000000E+01 0. -1.
         -5    1    3    3    0  502 -0.12632003087E+02 -0.36761172953E+02 -0.14364031227E+03  0.14886558718E+03  0.41800000000E+01 0. -1.
        -11    1    1    2    0    0  0.54905889225E+02  0.16321442672E+02 -0.99419383217E+02  0.11473996654E+03  0.00000000000E+00 0.  1.
         11    1    1    2    0    0  0.60635346034E+01 -0.60459166320E+02 -0.13875645395E+03  0.15147749258E+03  0.00000000000E+00 0. -1.
</event>
<event>
 7    1  0.2881521E-009  0.1304774E+03  0.7561462E-02  0.1226749E+00
          1   -1    0    0  501    0  0.00000000000E+00  0.00000000000E+00  0.13201904921E+04  0.13201904921E+04  0.00000000000E+00 0. -1.
         -1   -1    0    0    0  501 -0.00000000000E+00 -0.00000000000E+00 -0.22174474401E+02  0.22174474401E+02  0.00000000000E+00 0.  1.
         25    2    1    2    0    0 -0.89523354134E+02  0.72755039650E+02  0.94025484063E+03  0.95552866889E+03  0.12509254580E+03 0.  0.
          5    1    3    3  502    0 -0.52303777893E+02  0.39094485296E+02  0.84719232791E+03  0.84971546816E+03  0.41800000000E+01 0.  1.
         -5    1    3    3    0  502 -0.37219576241E+02  0.33660554354E+02  0.93062512724E+02  0.10581320073E+03  0.41800000000E+01 0.  1.
        -11    1    1    2    0    0  0.88282266924E+02 -0.17629746473E+02  0.25138717795E+03  0.26702074798E+03  0.00000000000E+00 0. -1.
         11    1    1    2    0    0  0.12410872096E+01 -0.55125293177E+02  0.10637399913E+03  0.11981554964E+03  0.00000000000E+00 0.  1.
</event>
<event>
 7    1  0.2619826E-009  0.2155805E+03  0.7561462E-02  0.1137222E+00
          1   -1    0    0  501    0  0.00000000000E+00  0.00000000000E+00  0.13467706039E+03  0.13467706039E+03  0.00000000000E+00 0. -1.
         -1   -1    0    0    0  501 -0.00000000000E+00 -0.00000000000E+00 -0.44958502071E+03  0.44958502071E+03  0.00000000000E+00 0.  1.
         25    2    1    2    0    0  0.19079146835E+03  0.49047484372E+02 -0.27983112861E+03  0.36436249191E+03  0.12509006697E+03 0.  0.
          5    1    3    3  502    0  0.57961329985E+02  0.78069844890E+02 -0.11767848367E+03  0.15270924783E+03  0.41800000000E+01 0. -1.
         -5    1    3    3    0  502  0.13283013836E+03 -0.29022360518E+02 -0.16215264494E+03  0.21165324408E+03  0.41800000000E+01 0. -1.
        -11    1    1    2    0    0 -0.11957469810E+03 -0.21730388167E+02 -0.65167567395E+02  0.13790261069E+03  0.00000000000E+00 0.  1.
         11    1    1    2    0    0 -0.71216770250E+02 -0.27317096205E+02  0.30090735683E+02  0.81996978505E+02  0.00000000000E+00 0. -1.
</event>
<event>
 7    1  0.2619826E-009  0.1156830E+03  0.7561462E-02  0.1250394E+00
         -1   -1    0    0    0  501 -0.00000000000E+00  0.00000000000E+00  0.52809133159E+02  0.52809133159E+02  0.00000000000E+00 0. -1.
          1   -1    0    0  501    0  0.00000000000E+00 -0.00000000000E+00 -0.35165930341E+03  0.35165930341E+03  0.00000000000E+00 0.  1.
         25    2    1    2    0    0 -0.51351410986E+02 -0.65113934849E+02 -0.13869578411E+03  0.20435617791E+03  0.12509250577E+03 0.  0.
          5    1    3    3  502    0  0.12482275265E+02 -0.81212021643E+02 -0.92673304784E+02  0.12392341778E+03  0.41800000000E+01 0.  1.
         -5    1    3    3    0  502 -0.63833686251E+02  0.16098086794E+02 -0.46022479327E+02  0.80432760131E+02  0.41800000000E+01 0.  1.
        -11    1    1    2    0    0  0.24659992442E+02  0.35948723748E+02 -0.15406113249E+03  0.16011014493E+03  0.00000000000E+00 0.  1.
         11    1    1    2    0    0  0.26691418543E+02  0.29165211101E+02 -0.60932536511E+01  0.40002113725E+02  0.00000000000E+00 0. -1.
</event>
<event>
 7    1  0.2619826E-009  0.1171812E+03  0.7561462E-02  0.1247821E+00
         -3   -1    0    0    0  501 -0.00000000000E+00  0.00000000000E+00  0.73966290807E+02  0.73966290807E+02  0.00000000000E+00 0.  1.
          3   -1    0    0  501    0  0.00000000000E+00 -0.00000000000E+00 -0.28246698835E+03  0.28246698835E+03  0.00000000000E+00 0. -1.
         25    2    1    2    0    0 -0.67058930061E+02 -0.57536048979E+02 -0.62488606685E+02  0.16540791998E+03  0.12509059514E+03 0.  0.
          5    1    3    3  502    0 -0.11090455254E+02  0.25016134865E+02 -0.59403189225E+02  0.65536375330E+02  0.41800000000E+01 0.  1.
         -5    1    3    3    0  502 -0.55968474807E+02 -0.82552183845E+02 -0.30854174599E+01  0.99871544649E+02  0.41800000000E+01 0.  1.
        -11    1    1    2    0    0  0.36857256048E+02 -0.52070809092E+01 -0.10510591404E+02  0.38678722143E+02  0.00000000000E+00 0.  1.
         11    1    1    2    0    0  0.30201674013E+02  0.62743129888E+02 -0.13550149945E+03  0.15234663703E+03  0.00000000000E+00 0. -1.
</event>
<event>
 7    1  0.3080033E-009  0.6815473E+02  0.7561462E-02  0.1366483E+00
          2   -1    0    0  501    0  0.00000000000E+00  0.00000000000E+00  0.16335780945E+03  0.16335780945E+03  0.00000000000E+00 0. -1.
         -2   -1    0    0    0  501 -0.00000000000E+00 -0.00000000000E+00 -0.10776352218E+03  0.10776352218E+03  0.00000000000E+00 0.  1.
         25    2    1    2    0    0 -0.37557903614E+02 -0.61929237995E+01  0.98127860687E+02  0.16347922840E+03  0.12508969840E+03 0.  0.
          5    1    3    3  502    0  0.48623889080E+01  0.19320074767E+02 -0.24097065565E+02  0.31544398612E+02  0.41800000000E+01 0. -1.
         -5    1    3    3    0  502 -0.42420292522E+02 -0.25512998567E+02  0.12222492625E+03  0.13193482979E+03  0.41800000000E+01 0. -1.
        -11    1    1    2    0    0 -0.21687704042E+01 -0.19072389993E+02 -0.55568747703E+02  0.58790690984E+02  0.00000000000E+00 0.  1.
         11    1    1    2    0    0  0.39726674018E+02  0.25265313792E+02  0.13035174289E+02  0.48851412245E+02  0.00000000000E+00 0. -1.
</event>
<event>
 7    1  0.2619826E-009  0.1414759E+03  0.7561462E-02  0.1211357E+00
         -1   -1    0    0    0  501 -0.00000000000E+00  0.00000000000E+00  0.23105470579E+02  0.23105470579E+02  0.00000000000E+00 0.  1.
          1   -1    0    0  501    0  0.00000000000E+00 -0.00000000000E+00 -0.10519026988E+04  0.10519026988E+04  0.00000000000E+00 0. -1.
         25    2    1    2    0    0 -0.10806527550E+03  0.27723943602E+02 -0.58717832348E+03  0.61063300287E+03  0.12509020673E+03 0.  0.
          5    1    3    3  502    0  0.13114237215E+02  0.98132224893E+01 -0.27103601453E+03  0.27156265598E+03  0.41800000000E+01 0. -1.
         -5    1    3    3    0  502 -0.12117951271E+03  0.17910721112E+02 -0.31614230895E+03  0.33907034689E+03  0.41800000000E+01 0. -1.
        -11    1    1    2    0    0  0.31694255955E+02 -0.54085129455E+02 -0.18413028656E+03  0.19450884175E+03  0.00000000000E+00 0.  1.
         11    1    1    2    0    0  0.76371019544E+02  0.26361185854E+02 -0.25748861821E+03  0.26986632478E+03  0.00000000000E+00 0. -1.
</event>
<event>
 7    1  0.2619826E-009  0.7532579E+02  0.7561462E-02  0.1342865E+00
         -1   -1    0    0    0  501 -0.00000000000E+00  0.00000000000E+00  0.91791889966E+02  0.91791889966E+02  0.00000000000E+00 0.  1.
          1   -1    0    0  501    0  0.00000000000E+00 -0.00000000000E+00 -0.13589555719E+03  0.13589555719E+03  0.00000000000E+00 0. -1.
         25    2    1    2    0    0  0.20622186358E+02 -0.16001100679E+01 -0.44921687063E+02  0.13451144702E+03  0.12509011347E+03 0.  0.
          5    1    3    3  502    0 -0.26869670295E+02 -0.39906748650E+02 -0.54267953054E+02  0.72643037507E+02  0.41800000000E+01 0.  1.
         -5    1    3    3    0  502  0.47491856653E+02  0.38306638582E+02  0.93462659904E+01  0.61868409514E+02  0.41800000000E+01 0.  1.
        -11    1    1    2    0    0  0.28732264825E+01  0.14237131531E+02  0.41813530169E+02  0.44264236691E+02  0.00000000000E+00 0.  1.
         11    1    1    2    0    0 -0.23495412840E+02 -0.12637021463E+02 -0.40995510329E+02  0.48911763443E+02  0.00000000000E+00 0. -1.
</event>
<event>
 7    1  0.2673871E-009  0.1015690E+03  0.7561462E-02  0.1277031E+00
          4   -1    0    0  501    0  0.00000000000E+00  0.00000000000E+00  0.37816655538E+03  0.37816655538E+03  0.00000000000E+00 0.  1.
         -4   -1    0    0    0  501 -0.00000000000E+00 -0.00000000000E+00 -0.34930667553E+02  0.34930667553E+02  0.00000000000E+00 0. -1.
         25    2    1    2    0    0  0.28834349066E+02 -0.22969785850E+02  0.20072432951E+03  0.23936634674E+03  0.12508781214E+03 0.  0.
          5    1    3    3  502    0  0.37398630371E+02  0.41826485140E+02  0.13648584320E+03  0.14762780973E+03  0.41800000000E+01 0.  1.
         -5    1    3    3    0  502 -0.85642813048E+01 -0.64796270990E+02  0.64238486305E+02  0.91738537002E+02  0.41800000000E+01 0.  1.
        -11    1    1    2    0    0  0.22492419593E+02 -0.48360417336E+01  0.39076807237E+01  0.23335942394E+02  0.00000000000E+00 0. -1.
         11    1    1    2    0    0 -0.51326768659E+02  0.27805827584E+02  0.13860387759E+03  0.15039493380E+03  0.00000000000E+00 0.  1.
</event>
<event>
 7    1  0.2619826E-009  0.9029776E+02  0.7561462E-02  0.1302132E+00
          3   -1    0    0  501    0  0.00000000000E+00  0.00000000000E+00  0.96942921522E+02  0.96942921522E+02  0.00000000000E+00 0. -1.
         -3   -1    0    0    0  501 -0.00000000000E+00 -0.00000000000E+00 -0.14092565677E+03  0.14092565677E+03  0.00000000000E+00 0.  1.
         25    2    1    2    0    0 -0.57849933612E+01 -0.71873024554E+01 -0.72317627853E+02  0.14478557910E+03  0.12509157107E+03 0.  0.
          5    1    3    3  502    0  0.17831090608E+02  0.53563037497E+02 -0.16752847088E+02  0.59034541277E+02  0.41800000000E+01 0.  1.
         -5    1    3    3    0  502 -0.23616083969E+02 -0.60750339952E+02 -0.55564780765E+02  0.85751037824E+02  0.41800000000E+01 0.  1.
        -11    1    1    2    0    0 -0.14275202121E+02  0.26961203753E+02  0.49295773802E+02  0.57972072744E+02  0.00000000000E+00 0. -1.
         11    1    1    2    0    0  0.20060195483E+02 -0.19773901298E+02 -0.20960881193E+02  0.35110926443E+02  0.00000000000E+00 0.  1.
</event>
<event>
 7    1  0.2876966E-009  0.6467579E+02  0.7561462E-02  0.1379195E+00
         -1   -1    0    0    0  501 -0.00000000000E+00  0.00000000000E+00  0.18867456573E+03  0.18867456573E+03  0.00000000000E+00 0.  1.
          1   -1    0    0  501    0  0.00000000000E+00 -0.00000000000E+00 -0.84394782328E+02  0.84394782328E+02  0.00000000000E+00 0. -1.
         25    2    1    2    0    0  0.33056356298E+02 -0.18186009102E+02  0.11523750194E+03  0.17421110006E+03  0.12508545843E+03 0.  0.
          5    1    3    3  502    0 -0.23417673454E+01  0.14806053018E+02  0.12390161735E+03  0.12487508263E+03  0.41800000000E+01 0. -1.
         -5    1    3    3    0  502  0.35398123643E+02 -0.32992062120E+02 -0.86641154016E+01  0.49336017433E+02  0.41800000000E+01 0. -1.
        -11    1    1    2    0    0  0.36979790037E+01  0.27140190389E+02  0.31665718049E+02  0.41868636025E+02  0.00000000000E+00 0.  1.
         11    1    1    2    0    0 -0.36754335302E+02 -0.89541812866E+01 -0.42623436591E+02  0.56989611973E+02  0.00000000000E+00 0. -1.
</event>
<event>
 7    1  0.2619826E-009  0.9840669E+02  0.7561462E-02  0.1283683E+00
          2   -1    0    0  501    0  0.00000000000E+00  0.00000000000E+00  0.73172474556E+02  0.73172474556E+02  0.00000000000E+00 0. -1.
         -2   -1    0    0    0  501 -0.00000000000E+00 -0.00000000000E+00 -0.19843707286E+03  0.19843707286E+03  0.00000000000E+00 0.  1.
         25    2    1    2    0    0  0.95878829348E+01 -0.37665303083E+02 -0.10927224623E+03  0.17058885264E+03  0.12509808270E+03 0.  0.
          5    1    3    3  502    0 -0.24518377844E+02 -0.68567273192E+02 -0.30078279603E+02  0.78897383410E+02  0.41800000000E+01 0.  1.
         -5    1    3    3    0  502  0.34106260779E+02  0.30901970108E+02 -0.79193966622E+02  0.91691469234E+02  0.41800000000E+01 0.  1.
        -11    1    1    2    0    0 -0.28751200467E+02  0.47952635698E+02  0.19651930532E+02  0.59264535536E+02  0.00000000000E+00 0.  1.
         11    1    1    2    0    0  0.19163317533E+02 -0.10287332614E+02 -0.35644282607E+02  0.41756159231E+02  0.00000000000E+00 0. -1.
</event>
<event>
 7    1  0.2619826E-009  0.1162972E+03  0.7561462E-02  0.1249334E+00
          2   -1    0    0  501    0  0.00000000000E+00  0.00000000000E+00  0.19457323879E+03  0.19457323879E+03  0.00000000000E+00 0. -1.
         -2   -1    0    0    0  501 -0.00000000000E+00 -0.00000000000E+00 -0.81463260263E+02  0.81463260263E+02  0.00000000000E+00 0.  1.
         25    2    1    2    0    0 -0.40554459660E+02  0.37477936709E+02  0.96228264702E+02  0.16721278436E+03  0.12510386239E+03 0.  0.
          5    1    3    3  502    0 -0.37069832711E+02 -0.37130564553E+02  0.70761068416E+02  0.88189866337E+02  0.41800000000E+01 0. -1.
         -5    1    3    3    0  502 -0.34846269489E+01  0.74608501261E+02  0.25467196287E+02  0.79022918018E+02  0.41800000000E+01 0. -1.
        -11    1    1    2    0    0  0.46366498595E+02  0.17730046502E+02 -0.33136912698E+01  0.49751254163E+02  0.00000000000E+00 0.  1.
         11    1    1    2    0    0 -0.58120389357E+01 -0.55207983211E+02  0.20195405098E+02  0.59072460537E+02  0.00000000000E+00 0. -1.
</event>
<event>
 7    1  0.2619826E-009  0.1284595E+03  0.7561462E-02  0.1229760E+00
         -1   -1    0    0    0  501 -0.00000000000E+00  0.00000000000E+00  0.66268510890E+02  0.66268510890E+02  0.00000000000E+00 0.  1.
          1   -1    0    0  501    0  0.00000000000E+00 -0.00000000000E+00 -0.41809508155E+03  0.41809508155E+03  0.00000000000E+00 0. -1.
         25    2    1    2    0    0  0.66390818787E+02  0.75461515595E+02 -0.78105579886E+02  0.17846607843E+03  0.12508988123E+03 0.  0.
          5    1    3    3  502    0 -0.21024543426E+02  0.41448914282E+02  0.12159245845E+02  0.48222023817E+02  0.41800000000E+01 0.  1.
         -5    1    3    3    0  502  0.87415362213E+02  0.34012601313E+02 -0.90264825730E+02  0.13024405462E+03  0.41800000000E+01 0.  1.
        -11    1    1    2    0    0 -0.72851664047E+02 -0.45904805474E+02 -0.11149763497E+03  0.14087703405E+03  0.00000000000E+00 0. -1.
         11    1    1    2    0    0  0.64608452598E+01 -0.29556710121E+02 -0.16222335581E+03  0.16502047996E+03  0.00000000000E+00 0.  1.
</event>
<event>
 7    1  0.2619826E-009  0.1273033E+03  0.7561462E-02  0.1231513E+00
         -2   -1    0    0    0  501 -0.00000000000E+00  0.00000000000E+00  0.14161838391E+02  0.14161838391E+02  0.00000000000E+00 0. -1.
          2   -1    0    0  501    0  0.00000000000E+00 -0.00000000000E+00 -0.15081296810E+04  0.15081296810E+04  0.00000000000E+00 0.  1.
         25    2    1    2    0    0  0.20379064942E+02 -0.70550110680E+02 -0.11417743823E+04  0.11509513124E+04  0.12509020351E+03 0.  0.
          5    1    3    3  502    0  0.22752217972E+02 -0.10630877556E+03 -0.88122049823E+03  0.88791117691E+03  0.41800000000E+01 0.  1.
         -5    1    3    3    0  502 -0.23731530295E+01  0.35758664880E+02 -0.26055388403E+03  0.26304013544E+03  0.41800000000E+01 0.  1.
        -11    1    1    2    0    0  0.31732772962E+02  0.30401154446E+02 -0.79638750957E+02  0.90958945274E+02  0.00000000000E+00 0. -1.
         11    1    1    2    0    0 -0.52111837904E+02  0.40148956234E+02 -0.27255470936E+03  0.28038126173E+03  0.00000000000E+00 0.  1.
</event>
<event>
 7    1  0.2619826E-009  0.9441769E+02  0.7561462E-02  0.1292493E+00
          2   -1    0    0  501    0  0.00000000000E+00  0.00000000000E+00  0.28884758249E+03  0.28884758249E+03  0.00000000000E+00 0. -1.
         -2   -1    0    0    0  501 -0.00000000000E+00 -0.00000000000E+00 -0.46838714189E+02  0.46838714189E+02  0.00000000000E+00 0.  1.
         25    2    1    2    0    0 -0.97276242168E+01 -0.38572103543E+02  0.12589088060E+03  0.18187337090E+03  0.12508787063E+03 0.  0.
          5    1    3    3  502    0  0.30874552519E+02 -0.37788431647E+02  0.13181674492E+03  0.14062122956E+03  0.41800000000E+01 0.  1.
         -5    1    3    3    0  502 -0.40602176736E+02 -0.78367189652E+00 -0.59258643242E+01  0.41252141342E+02  0.41800000000E+01 0.  1.
        -11    1    1    2    0    0 -0.36538045923E+02 -0.32313433279E+01  0.29423509148E+02  0.47023539532E+02  0.00000000000E+00 0.  1.
         11    1    1    2    0    0  0.46265670140E+02  0.41803446871E+02  0.86694478557E+02  0.10678938625E+03  0.00000000000E+00 0. -1.
</event>
<event>
 7    1  0.2619826E-009  0.9129766E+02  0.7561462E-02  0.1299739E+00
         -1   -1    0    0    0  501 -0.00000000000E+00  0.00000000000E+00  0.93322022038E+02  0.93322022038E+02  0.00000000000E+00 0.  1.
          1   -1    0    0  501    0  0.00000000000E+00 -0.00000000000E+00 -0.14777331815E+03  0.14777331815E+03  0.00000000000E+00 0. -1.
         25    2    1    2    0    0 -0.47334791246E+00 -0.12210801422E+02 -0.74161100653E+02  0.14593479770E+03  0.12509104125E+03 0.  0.
          5    1    3    3  502    0  0.26421637759E+02  0.33130961567E+02  0.12529345678E+02  0.44387165480E+02  0.41800000000E+01 0. -1.
         -5    1    3    3    0  502 -0.26894985672E+02 -0.45341762989E+02 -0.86690446331E+02  0.10154763222E+03  0.41800000000E+01 0. -1.
        -11    1    1    2    0    0  0.33763366926E+01 -0.37340698474E+02 -0.79658523470E+01  0.38329912804E+02  0.00000000000E+00 0. -1.
         11    1    1    2    0    0 -0.29029887801E+01  0.49551499896E+02  0.27675656887E+02  0.56830629681E+02  0.00000000000E+00 0.  1.
</event>
<event>
 7    1  0.2619826E-009  0.2448496E+03  0.7561462E-02  0.1116604E+00
         -1   -1    0    0    0  501 -0.00000000000E+00  0.00000000000E+00  0.27042149220E+03  0.27042149220E+03  0.00000000000E+00 0.  1.
          1   -1    0    0  501    0  0.00000000000E+00 -0.00000000000E+00 -0.31533451180E+03  0.31533451180E+03  0.00000000000E+00 0. -1.
         25    2    1    2    0    0  0.19212336216E+03  0.12726900826E+03 -0.16433044116E+03  0.30944730699E+03  0.12507739667E+03 0.  0.
          5    1    3    3  502    0  0.11718999747E+02 -0.83061945465E+01  0.14989518648E+02  0.21177485502E+02  0.41800000000E+01 0.  1.
         -5    1    3    3    0  502  0.18040436241E+03  0.13557520281E+03 -0.17931995981E+03  0.28826982148E+03  0.41800000000E+01 0.  1.
        -11    1    1    2    0    0 -0.99341625371E+02 -0.10508277111E+02  0.43395986302E+02  0.10891461815E+03  0.00000000000E+00 0. -1.
         11    1    1    2    0    0 -0.92781736789E+02 -0.11676073115E+03  0.76021435262E+02  0.16739407887E+03  0.00000000000E+00 0.  1.
</event>
<event>
 7    1  0.2619826E-009  0.8529809E+02  0.7561462E-02  0.1314655E+00
          4   -1    0    0  501    0  0.00000000000E+00  0.00000000000E+00  0.11341474941E+03  0.11341474941E+03  0.00000000000E+00 0. -1.
         -4   -1    0    0    0  501 -0.00000000000E+00 -0.00000000000E+00 -0.13623814223E+03  0.13623814223E+03  0.00000000000E+00 0.  1.
         25    2    1    2    0    0  0.13344530927E+02  0.37950074463E+02 -0.58667451865E+02  0.14390185865E+03  0.12509032879E+03 0.  0.
          5    1    3    3  502    0 -0.15884382987E+02 -0.71682121474E+01 -0.82879156565E+02  0.84794598184E+02  0.41800000000E+01 0.  1.
         -5    1    3    3    0  502  0.29228913914E+02  0.45118286611E+02  0.24211704700E+02  0.59107260466E+02  0.41800000000E+01 0.  1.
        -11    1    1    2    0    0  0.20612986798E+02  0.21816549013E+02  0.50802941546E+01  0.30441196171E+02  0.00000000000E+00 0.  1.
         11    1    1    2    0    0 -0.33957517725E+02 -0.59766623477E+02  0.30763764887E+02  0.75309836820E+02  0.00000000000E+00 0. -1.
</event>
<event>
 7    1  0.2619826E-009  0.1043655E+03  0.7561462E-02  0.1271375E+00
          2   -1    0    0  501    0  0.00000000000E+00  0.00000000000E+00  0.69879539545E+02  0.69879539545E+02  0.00000000000E+00 0. -1.
         -2   -1    0    0    0  501 -0.00000000000E+00 -0.00000000000E+00 -0.22035931746E+03  0.22035931746E+03  0.00000000000E+00 0.  1.
         25    2    1    2    0    0  0.43019708904E+02 -0.33793232336E+02 -0.11403651985E+03  0.17788456362E+03  0.12508362087E+03 0.  0.
          5    1    3    3  502    0  0.58993204745E+02  0.84598402581E+01 -0.51962083604E+01  0.59968659186E+02  0.41800000000E+01 0. -1.
         -5    1    3    3    0  502 -0.15973495841E+02 -0.42253072594E+02 -0.10884031149E+03  0.11791590444E+03  0.41800000000E+01 0. -1.
        -11    1    1    2    0    0 -0.27342959009E+02 -0.28436330702E+02 -0.19495826471E+01  0.39497635165E+02  0.00000000000E+00 0.  1.
         11    1    1    2    0    0 -0.15676749896E+02  0.62229563038E+02 -0.34493675419E+02  0.72856658221E+02  0.00000000000E+00 0. -1.
</event>
<event>
 7    1  0.2619826E-009  0.1051757E+03  0.7561462E-02  0.1269774E+00
          1   -1    0    0  501    0  0.00000000000E+00  0.00000000000E+00  0.25302169562E+03  0.25302169562E+03  0.00000000000E+00 0. -1.
         -1   -1    0    0    0  501 -0.00000000000E+00 -0.00000000000E+00 -0.59209962575E+02  0.59209962575E+02  0.00000000000E+00 0.  1.
         25    2    1    2    0    0  0.12484273033E+02 -0.18718510886E+01  0.17041237863E+03  0.21176746599E+03  0.12508285240E+03 0.  0.
          5    1    3    3  502    0 -0.49680022816E+02 -0.64424969733E+01  0.12441872205E+03  0.13419054077E+03  0.41800000000E+01 0. -1.
         -5    1    3    3    0  502  0.62164295849E+02  0.45706458847E+01  0.45993656577E+02  0.77576925226E+02  0.41800000000E+01 0. -1.
        -11    1    1    2    0    0  0.24644098121E+02 -0.36612736667E+02  0.84127101474E+01  0.44928807579E+02  0.00000000000E+00 0.  1.
         11    1    1    2    0    0 -0.37128371154E+02  0.38484587755E+02  0.14986644274E+02  0.55535384629E+02  0.00000000000E+00 0. -1.
</event>
<event>
 7    1  0.2619826E-009  0.2195768E+03  0.7561462E-02  0.1134199E+00
          2   -1    0    0  501    0  0.00000000000E+00  0.00000000000E+00  0.12097444233E+04  0.12097444233E+04  0.00000000000E+00 0. -1.
         -2   -1    0    0    0  501 -0.00000000000E+00 -0.00000000000E+00 -0.43029791157E+02  0.43029791157E+02  0.00000000000E+00 0.  1.
         25    2    1    2    0    0 -0.13434850511E+03  0.14892509187E+03  0.59231721978E+03  0.63774273242E+03  0.12509156687E+03 0.  0.
          5    1    3    3  502    0 -0.85424798901E+02  0.14968041130E+03  0.53590391291E+03  0.56294946315E+03  0.41800000000E+01 0.  1.
         -5    1    3    3    0  502 -0.48923706209E+02 -0.75531942235E+00  0.56413306869E+02  0.74793269273E+02  0.41800000000E+01 0.  1.
        -11    1    1    2    0    0  0.36274059033E+02 -0.10330393280E+03  0.24560730369E+03  0.26890603846E+03  0.00000000000E+00 0.  1.
         11    1    1    2    0    0  0.98074446077E+02 -0.45621159073E+02  0.32879010866E+03  0.34612544356E+03  0.00000000000E+00 0. -1.
</event>
<event>
 7    1  0.2619826E-009  0.1501659E+03  0.7561462E-02  0.1200269E+00
         -2   -1    0    0    0  501 -0.00000000000E+00  0.00000000000E+00  0.18786046696E+03  0.18786046696E+03  0.00000000000E+00 0.  1.
          2   -1    0    0  501    0  0.00000000000E+00 -0.00000000000E+00 -0.14177445025E+03  0.14177445025E+03  0.00000000000E+00 0. -1.
         25    2    1    2    0    0  0.11545285711E+03  0.15647056561E+01  0.62056880504E+02  0.18119342933E+03  0.12509273319E+03 0.  0.
          5    1    3    3  502    0  0.59293809026E+02  0.52985546763E+02  0.67987466192E+02  0.10470430705E+03  0.41800000000E+01 0. -1.
         -5    1    3    3    0  502  0.56159048081E+02 -0.51420841107E+02 -0.59305856879E+01  0.76489122286E+02  0.41800000000E+01 0. -1.
        -11    1    1    2    0    0 -0.97538630541E+02  0.35080203388E+02 -0.25082667203E+02  0.10664682514E+03  0.00000000000E+00 0. -1.
         11    1    1    2    0    0 -0.17914226566E+02 -0.36644909044E+02  0.91118034010E+01  0.41794662740E+02  0.00000000000E+00 0.  1.
</event>
<event>
 7    1  0.2619826E-009  0.1060927E+03  0.7561462E-02  0.1267982E+00
          1   -1    0    0  501    0  0.00000000000E+00  0.00000000000E+00  0.98714277015E+02  0.98714277015E+02  0.00000000000E+00 0. -1.
         -1   -1    0    0    0  501 -0.00000000000E+00 -0.00000000000E+00 -0.16333209986E+03  0.16333209986E+03  0.00000000000E+00 0.  1.
         25    2    1    2    0    0  0.52112540321E+02 -0.45477226022E+02 -0.44636371107E+02  0.14974952728E+03  0.12509444571E+03 0.  0.
          5    1    3    3  502    0 -0.38263554880E+02  0.52540505707E+01 -0.17003982878E+02  0.42406514985E+02  0.41800000000E+01 0. -1.
         -5    1    3    3    0  502  0.90376095202E+02 -0.50731276592E+02 -0.27632388229E+02  0.10734301229E+03  0.41800000000E+01 0. -1.
        -11    1    1    2    0    0 -0.30236735572E+02  0.21174910166E+02 -0.53806255751E+02  0.65251437966E+02  0.00000000000E+00 0.  1.
         11    1    1    2    0    0 -0.21875804749E+02  0.24302315855E+02  0.33824804012E+02  0.47045411634E+02  0.00000000000E+00 0. -1.
</event>
<event>
 7    1  0.2619826E-009  0.1713515E+03  0.7561462E-02  0.1176446E+00
         -2   -1    0    0    0  501 -0.00000000000E+00  0.00000000000E+00  0.53431640999E+02  0.53431640999E+02  0.00000000000E+00 0.  1.
          2   -1    0    0  501    0  0.00000000000E+00 -0.00000000000E+00 -0.70621515274E+03  0.70621515274E+03  0.00000000000E+00 0. -1.
         25    2    1    2    0    0  0.65270981457E+02  0.11976292179E+03 -0.50819116829E+03  0.54084109371E+03  0.12508943464E+03 0.  0.
          5    1    3    3  502    0 -0.11483782547E+02  0.10404206575E+03 -0.32762213797E+03  0.34396273984E+03  0.41800000000E+01 0.  1.
         -5    1    3    3    0  502  0.76754764004E+02  0.15720856035E+02 -0.18056903032E+03  0.19687835387E+03  0.41800000000E+01 0.  1.
        -11    1    1    2    0    0 -0.33900918853E+02  0.17921460500E+01 -0.54790090315E+02  0.64454930636E+02  0.00000000000E+00 0. -1.
         11    1    1    2    0    0 -0.31370062605E+02 -0.12155506784E+03 -0.89802253136E+02  0.15435076940E+03  0.00000000000E+00 0.  1.
</event>
<event>
 7    1  0.2759068E-009  0.8232174E+02  0.7561462E-02  0.1322589E+00
          2   -1    0    0  501    0  0.00000000000E+00  0.00000000000E+00  0.29123581010E+03  0.29123581010E+03  0.00000000000E+00 0. -1.
         -2   -1    0    0    0  501 -0.00000000000E+00 -0.00000000000E+00 -0.43058849732E+02  0.43058849732E+02  0.00000000000E+00 0.  1.
         25    2    1    2    0    0 -0.27246049046E+02  0.41800815170E+01  0.13632211697E+03  0.18705930449E+03  0.12509054141E+03 0.  0.
          5    1    3    3  502    0 -0.38414225719E+02 -0.47666677331E+02  0.30292642097E+02  0.68431582114E+02  0.41800000000E+01 0.  1.
         -5    1    3    3    0  502  0.11168176673E+02  0.51846758848E+02  0.10602947487E+03  0.11862772237E+03  0.41800000000E+01 0.  1.
        -11    1    1    2    0    0  0.19936062369E+02 -0.22675963213E+02 -0.33022450993E+01  0.30373519933E+02  0.00000000000E+00 0.  1.
         11    1    1    2    0    0  0.73099866767E+01  0.18495881696E+02  0.11515708849E+03  0.11686183541E+03  0.00000000000E+00 0. -1.
</event>
<event>
 7    1  0.2619826E-009  0.1350736E+03  0.7561462E-02  0.1220116E+00
         -2   -1    0    0    0  501 -0.00000000000E+00  0.00000000000E+00  0.14429073473E+03  0.14429073473E+03  0.00000000000E+00 0.  1.
          2   -1    0    0  501    0  0.00000000000E+00 -0.00000000000E+00 -0.22032750724E+03  0.22032750724E+03  0.00000000000E+00 0. -1.
         25    2    1    2    0    0  0.18200877435E+02 -0.83619055189E+02 -0.15430374575E+03  0.21630243376E+03  0.12511466169E+03 0.  0.
          5    1    3    3  502    0  0.55456657325E+02 -0.92324670303E+02 -0.13643002223E+03  0.17386750402E+03  0.41800000000E+01 0.  1.
         -5    1    3    3    0  502 -0.37255779890E+02  0.87056151143E+01 -0.17873723519E+02  0.42434929741E+02  0.41800000000E+01 0.  1.
        -11    1    1    2    0    0  0.33892287601E+02  0.54557758941E+02  0.27042541921E+02  0.69688846260E+02  0.00000000000E+00 0.  1.
         11    1    1    2    0    0 -0.52093165036E+02  0.29061296248E+02  0.51224431305E+02  0.78626961951E+02  0.00000000000E+00 0. -1.
</event>
<event>
 7    1  0.2619826E-009  0.1079243E+03  0.7561462E-02  0.1264463E+00
         -1   -1    0    0    0  501 -0.00000000000E+00  0.00000000000E+00  0.31725786827E+02  0.31725786827E+02  0.00000000000E+00 0.  1.
          1   -1    0    0  501    0  0.00000000000E+00 -0.00000000000E+00 -0.48023526853E+03  0.48023526853E+03  0.00000000000E+00 0. -1.
         25    2    1    2    0    0  0.23565580217E+02 -0.31149038317E+02 -0.15632635624E+03  0.20398875793E+03  0.12509150470E+03 0.  0.
          5    1    3    3  502    0 -0.40133481884E+02  0.19874932202E+02 -0.31971382529E+02  0.55184698957E+02  0.41800000000E+01 0.  1.
         -5    1    3    3    0  502  0.63699062101E+02 -0.51023970519E+02 -0.12435497371E+03  0.14880405898E+03  0.41800000000E+01 0.  1.
        -11    1    1    2    0    0  0.21098562314E+02 -0.14250235058E+02 -0.36671110376E+02  0.44642903883E+02  0.00000000000E+00 0.  1.
         11    1    1    2    0    0 -0.44664142530E+02  0.45399273375E+02 -0.25551201508E+03  0.26332939354E+03  0.00000000000E+00 0. -1.
</event>
<event>
 7    1  0.2619826E-009  0.1240178E+03  0.7561462E-02  0.1236612E+00
         -2   -1    0    0    0  501 -0.00000000000E+00  0.00000000000E+00  0.52193753756E+03  0.52193753756E+03  0.00000000000E+00 0.  1.
          2   -1    0    0  501    0  0.00000000000E+00 -0.00000000000E+00 -0.65826345951E+02  0.65826345951E+02  0.00000000000E+00 0. -1.
         25    2    1    2    0    0 -0.10085197479E+03  0.12013310601E+02  0.41592066049E+03  0.44604160661E+03  0.12509068132E+03 0.  0.
          5    1    3    3  502    0 -0.37399796972E+02  0.49411014711E+02  0.31481465699E+03  0.32088305322E+03  0.41800000000E+01 0.  1.
         -5    1    3    3    0  502 -0.63452177816E+02 -0.37397704109E+02  0.10110600350E+03  0.12515855339E+03  0.41800000000E+01 0.  1.
        -11    1    1    2    0    0  0.90799691729E+02 -0.26439541130E+02 -0.34904765216E+01  0.94635177284E+02  0.00000000000E+00 0. -1.
         11    1    1    2    0    0  0.10052283059E+02  0.14426230529E+02  0.43681007641E+02  0.47087099619E+02  0.00000000000E+00 0.  1.
</event>
<event>
 7    1  0.2619826E-009  0.1712806E+03  0.7561462E-02  0.1176519E+00
          1   -1    0    0  501    0  0.00000000000E+00  0.00000000000E+00  0.11925617031E+03  0.11925617031E+03  0.00000000000E+00 0. -1.
         -1   -1    0    0    0  501 -0.00000000000E+00 -0.00000000000E+00 -0.30391671867E+03  0.30391671867E+03  0.00000000000E+00 0.  1.
         25    2    1    2    0    0  0.50335363995E+02 -0.13478797691E+03 -0.30286840451E+02  0.19304363830E+03  0.12508839273E+03 0.  0.
          5    1    3    3  502    0  0.11099352105E+02  0.13815353771E+02  0.23878888354E+02  0.30028874871E+02  0.41800000000E+01 0.  1.
         -5    1    3    3    0  502  0.39236011890E+02 -0.14860333068E+03 -0.54165728805E+02  0.16301476343E+03  0.41800000000E+01 0.  1.
        -11    1    1    2    0    0 -0.68085200226E+02  0.51304905078E+02 -0.80425080426E+02  0.11720060297E+03  0.00000000000E+00 0. -1.
         11    1    1    2    0    0  0.17749836231E+02  0.83483071832E+02 -0.73948627475E+02  0.11292864771E+03  0.00000000000E+00 0.  1.
</event>
<event>
 7    1  0.2619826E-009  0.1054361E+03  0.7561462E-02  0.1269263E+00
         -2   -1    0    0    0  501 -0.00000000000E+00  0.00000000000E+00  0.10722348381E+02  0.10722348381E+02  0.00000000000E+00 0.  1.
          2   -1    0    0  501    0  0.00000000000E+00 -0.00000000000E+00 -0.11004023370E+04  0.11004023370E+04  0.00000000000E+00 0. -1.
         25    2    1    2    0    0 -0.60795890769E+01 -0.65264928802E+01 -0.67595089871E+03  0.68749033434E+03  0.12511509037E+03 0.  0.
          5    1    3    3  502    0  0.48937027499E+02  0.28055910429E+02 -0.39886795454E+03  0.40285864063E+03  0.41800000000E+01 0. -1.
         -5    1    3    3    0  502 -0.55016616576E+02 -0.34582403309E+02 -0.27708294417E+03  0.28463169371E+03  0.41800000000E+01 0. -1.
        -11    1    1    2    0    0 -0.15474422531E+02 -0.37283027728E+02 -0.14540180378E+03  0.15090118108E+03  0.00000000000E+00 0. -1.
         11    1    1    2    0    0  0.21554011608E+02  0.43809520608E+02 -0.26832728616E+03  0.27273316998E+03  0.00000000000E+00 0.  1.
</event>
<event>
 7    1  0.2619826E-009  0.8930555E+02  0.7561462E-02  0.1304542E+00
          2   -1    0    0  501    0  0.00000000000E+00  0.00000000000E+00  0.59491815630E+03  0.59491815630E+03  0.00000000000E+00 0. -1.
         -2   -1    0    0    0  501 -0.00000000000E+00 -0.00000000000E+00 -0.25493957958E+02  0.25493957958E+02  0.00000000000E+00 0.  1.
         25    2    1    2    0    0 -0.76271042811E+01 -0.13840041319E+02  0.46201732386E+03  0.47891253932E+03  0.12508994088E+03 0.  0.
          5    1    3    3  502    0 -0.38630820169E+02 -0.40498741197E+02  0.10086097747E+03  0.11542485643E+03  0.41800000000E+01 0. -1.
         -5    1    3    3    0  502  0.31003715888E+02  0.26658699878E+02  0.36115634638E+03  0.36348768289E+03  0.41800000000E+01 0. -1.
        -11    1    1    2    0    0 -0.10544065316E+02  0.44506582315E+02  0.91847331351E+02  0.10260577693E+03  0.00000000000E+00 0. -1.
         11    1    1    2    0    0  0.18171169597E+02 -0.30666540997E+02  0.15559543136E+02  0.38893798012E+02  0.00000000000E+00 0.  1.
</event>
<event>
 7    1  0.2619826E-009  0.1532441E+03  0.7561462E-02  0.1196542E+00
          2   -1    0    0  501    0  0.00000000000E+00  0.00000000000E+00  0.11615669594E+04  0.11615669594E+04  0.00000000000E+00 0. -1.
         -2   -1    0    0    0  501 -0.00000000000E+00 -0.00000000000E+00 -0.22107552862E+02  0.22107552862E+02  0.00000000000E+00 0.  1.
         25    2    1    2    0    0 -0.58250976292E+02  0.10111905647E+03  0.67396043201E+03  0.69533305602E+03  0.12508858887E+03 0.  0.
          5    1    3    3  502    0 -0.91876491530E+02  0.58266436649E+02  0.53608001384E+03  0.54702424167E+03  0.41800000000E+01 0.  1.
         -5    1    3    3    0  502  0.33625515239E+02  0.42852619821E+02  0.13788041817E+03  0.14830881435E+03  0.41800000000E+01 0.  1.
        -11    1    1    2    0    0  0.50926661607E+02 -0.10411460527E+02  0.11466038492E+03  0.12589252259E+03  0.00000000000E+00 0.  1.
         11    1    1    2    0    0  0.73243146844E+01 -0.90707595943E+02  0.35083858959E+03  0.36244893363E+03  0.00000000000E+00 0. -1.
</event>
<event>
 7    1  0.2619826E-009  0.1883879E+03  0.7561462E-02  0.1159923E+00
         -2   -1    0    0    0  501 -0.00000000000E+00  0.00000000000E+00  0.35494913954E+02  0.35494913954E+02  0.00000000000E+00 0.  1.
          2   -1    0    0  501    0  0.00000000000E+00 -0.00000000000E+00 -0.12846609633E+04  0.12846609633E+04  0.00000000000E+00 0. -1.
         25    2    1    2    0    0 -0.90478790253E+02 -0.12894185741E+03 -0.94101708296E+03  0.96227519957E+03  0.12509194697E+03 0.  0.
          5    1    3    3  502    0 -0.49079580976E+02  0.14664164074E+02 -0.22070612841E+03  0.22661092315E+03  0.41800000000E+01 0.  1.
         -5    1    3    3    0  502 -0.41399209276E+02 -0.14360602148E+03 -0.72031095456E+03  0.73566427641E+03  0.41800000000E+01 0.  1.
        -11    1    1    2    0    0  0.71382219772E+02  0.34072453983E+02 -0.18543742865E+03  0.20160206686E+03  0.00000000000E+00 0. -1.
         11    1    1    2    0    0  0.19096570481E+02  0.94869403427E+02 -0.12271153778E+03  0.15627861087E+03  0.00000000000E+00 0.  1.
</event>
<event>
 7    1  0.2619826E-009  0.1486184E+03  0.7561462E-02  0.1202181E+00
         -3   -1    0    0    0  501 -0.00000000000E+00  0.00000000000E+00  0.22419470898E+03  0.22419470898E+03  0.00000000000E+00 0.  1.
          3   -1    0    0  501    0  0.00000000000E+00 -0.00000000000E+00 -0.13601944254E+03  0.13601944254E+03  0.00000000000E+00 0. -1.
         25    2    1    2    0    0  0.10649285521E+03  0.51762928434E+02  0.11615760280E+03  0.20774232561E+03  0.12507660130E+03 0.  0.
          5    1    3    3  502    0  0.42151321719E+02 -0.24696239441E+02  0.92918114002E+02  0.10506134625E+03  0.41800000000E+01 0.  1.
         -5    1    3    3    0  502  0.64341533489E+02  0.76459167875E+02  0.23239488795E+02  0.10268097937E+03  0.41800000000E+01 0.  1.
        -11    1    1    2    0    0  0.95614374777E+00 -0.40096667871E+02 -0.17903041273E+02  0.43922384635E+02  0.00000000000E+00 0. -1.
         11    1    1    2    0    0 -0.10744899896E+03 -0.11666260563E+02 -0.10079295086E+02  0.10854944128E+03  0.00000000000E+00 0.  1.
</event>
<event>
 7    1  0.2619826E-009  0.2436764E+03  0.7561462E-02  0.1117368E+00
          1   -1    0    0  501    0  0.00000000000E+00  0.00000000000E+00  0.28748380201E+03  0.28748380201E+03  0.00000000000E+00 0. -1.
         -1   -1    0    0    0  501 -0.00000000000E+00 -0.00000000000E+00 -0.27605748947E+03  0.27605748947E+03  0.00000000000E+00 0.  1.
         25    2    1    2    0    0 -0.16404725631E+03 -0.15071882753E+03 -0.12747302348E+03  0.28552499821E+03  0.12508991011E+03 0.  0.
          5    1    3    3  502    0 -0.13179920434E+02 -0.78046291972E+02 -0.77727592121E+01  0.79641836864E+02  0.41800000000E+01 0.  1.
         -5    1    3    3    0  502 -0.15086733588E+03 -0.72672535555E+02 -0.11970026427E+03  0.20588316134E+03  0.41800000000E+01 0.  1.
        -11    1    1    2    0    0  0.12831970269E+03  0.57240901712E+02  0.74840686875E+02  0.15919671899E+03  0.00000000000E+00 0. -1.
         11    1    1    2    0    0  0.35727553626E+02  0.93477925815E+02  0.64058649142E+02  0.11881957428E+03  0.00000000000E+00 0.  1.
</event>
<event>
 7    1  0.2619826E-009  0.1060801E+03  0.7561462E-02  0.1268006E+00
          1   -1    0    0  501    0  0.00000000000E+00  0.00000000000E+00  0.14295464851E+03  0.14295464851E+03  0.00000000000E+00 0. -1.
         -1   -1    0    0    0  501 -0.00000000000E+00 -0.00000000000E+00 -0.18554345302E+03  0.18554345302E+03  0.00000000000E+00 0.  1.
         25    2    1    2    0    0 -0.11773338118E+02 -0.85733631930E+02  0.62572923787E+02  0.16447627039E+03  0.12509278794E+03 0.  0.
          5    1    3    3  502    0  0.21505002665E+02 -0.71560688674E+02 -0.17196798929E+02  0.76789319547E+02  0.41800000000E+01 0. -1.
         -5    1    3    3    0  502 -0.33278340783E+02 -0.14172943256E+02  0.79769722716E+02  0.87686950842E+02  0.41800000000E+01 0. -1.
        -11    1    1    2    0    0  0.26693390668E+02  0.19605988225E+02  0.61560119319E+01  0.33687213636E+02  0.00000000000E+00 0. -1.
         11    1    1    2    0    0 -0.14920052550E+02  0.66127643705E+02 -0.11131774023E+03  0.13033461750E+03  0.00000000000E+00 0.  1.
</event>
<event>
 7    1  0.2619826E-009  0.1324381E+03  0.7561462E-02  0.1223882E+00
         -2   -1    0    0    0  501 -0.00000000000E+00  0.00000000000E+00  0.47777080890E+02  0.47777080890E+02  0.00000000000E+00 0.  1.
          2   -1    0    0  501    0  0.00000000000E+00 -0.00000000000E+00 -0.46148935692E+03  0.46148935692E+03  0.00000000000E+00 0. -1.
         25    2    1    2    0    0  0.76296820391E+01 -0.10136156504E+03 -0.25280558766E+03  0.29981892475E+03  0.12509333944E+03 0.  0.
          5    1    3    3  502    0 -0.57113754663E+02 -0.63451288439E+02 -0.12189734905E+03  0.14887740957E+03  0.41800000000E+01 0.  1.
         -5    1    3    3    0  502  0.64743436702E+02 -0.37910276605E+02 -0.13090823861E+03  0.15094151518E+03  0.41800000000E+01 0.  1.
        -11    1    1    2    0    0  0.37643067838E+01  0.79675390535E+02 -0.46250023177E+02  0.92203050418E+02  0.00000000000E+00 0.  1.
         11    1    1    2    0    0 -0.11393988823E+02  0.21686174509E+02 -0.11465666519E+03  0.11724446264E+03  0.00000000000E+00 0. -1.
</event>
<event>
 7    1  0.2619826E-009  0.1086404E+03  0.7561462E-02  0.1263108E+00
          2   -1    0    0  501    0  0.00000000000E+00  0.00000000000E+00  0.45763346789E+02  0.45763346789E+02  0.00000000000E+00 0. -1.
         -2   -1    0    0    0  501 -0.00000000000E+00 -0.00000000000E+00 -0.49190649595E+03  0.49190649595E+03  0.00000000000E+00 0.  1.
         25    2    1    2    0    0  0.96705116514E+02  0.24696742677E+02 -0.28794451933E+03  0.32942799204E+03  0.12509575159E+03 0.  0.
          5    1    3    3  502    0  0.51723047090E+02  0.84213668062E+01 -0.27460439618E+03  0.27959120126E+03  0.41800000000E+01 0.  1.
         -5    1    3    3    0  502  0.44982069424E+02  0.16275375870E+02 -0.13340123152E+02  0.49836790779E+02  0.41800000000E+01 0.  1.
        -11    1    1    2    0    0 -0.52843476305E+02  0.17660881749E+02 -0.12924139491E+03  0.14073975234E+03  0.00000000000E+00 0.  1.
         11    1    1    2    0    0 -0.43861640208E+02 -0.42357624426E+02 -0.28957234925E+02  0.67502098362E+02  0.00000000000E+00 0. -1.
</event>
<event>
 7    1  0.2619826E-009  0.1189878E+03  0.7561462E-02  0.1244776E+00
          1   -1    0    0  501    0  0.00000000000E+00  0.00000000000E+00  0.66344130495E+02  0.66344130495E+02  0.00000000000E+00 0. -1.
         -1   -1    0    0    0  501 -0.00000000000E+00 -0.00000000000E+00 -0.27105433505E+03  0.27105433505E+03  0.00000000000E+00 0.  1.
         25    2    1    2    0    0 -0.60443714647E+02 -0.42727298363E+02 -0.14172836023E+03  0.20301549765E+03  0.12509716034E+03 0.  0.
          5    1    3    3  502    0 -0.77334208248E+02  0.13669647269E+02 -0.11220930174E+03  0.13702495692E+03  0.41800000000E+01 0.  1.
         -5    1    3    3    0  502  0.16890493601E+02 -0.56396945633E+02 -0.29519058488E+02  0.65990540722E+02  0.41800000000E+01 0.  1.
        -11    1    1    2    0    0 -0.95489367943E+01  0.26909408117E+02 -0.55272682565E+02  0.62212280758E+02  0.00000000000E+00 0.  1.
         11    1    1    2    0    0  0.69992651441E+02  0.15817890247E+02 -0.77091617574E+01  0.72170687143E+02  0.00000000000E+00 0. -1.
</event>
<event>
 7    1  0.2619826E-009  0.1061873E+03  0.7561462E-02  0.1267798E+00
         -3   -1    0    0    0  501 -0.00000000000E+00  0.00000000000E+00  0.97300166901E+02  0.97300166901E+02  0.00000000000E+00 0.  1.
          3   -1    0    0  501    0  0.00000000000E+00 -0.00000000000E+00 -0.25365051541E+03  0.25365051541E+03  0.00000000000E+00 0. -1.
         25    2    1    2    0    0  0.78264807837E+02  0.29741712327E+02  0.24800481780E+01  0.15054087191E+03  0.12508578608E+03 0.  0.
          5    1    3    3  502    0  0.74533471464E+02 -0.18420540900E+02 -0.39467017824E+02  0.86427267638E+02  0.41800000000E+01 0.  1.
         -5    1    3    3    0  502  0.37313363739E+01  0.48162253227E+02  0.41947066002E+02  0.64113604275E+02  0.41800000000E+01 0.  1.
        -11    1    1    2    0    0 -0.66623361369E+02 -0.33751898311E+02 -0.16878883315E+03  0.18457392317E+03  0.00000000000E+00 0. -1.
         11    1    1    2    0    0 -0.11641446468E+02  0.40101859849E+01  0.99584364604E+01  0.15835887226E+02  0.00000000000E+00 0.  1.
</event>
<event>
 7    1  0.2619826E-009  0.1147912E+03  0.7561462E-02  0.1251946E+00
         -1   -1    0    0    0  501 -0.00000000000E+00  0.00000000000E+00  0.63227374902E+02  0.63227374902E+02  0.00000000000E+00 0.  1.
          1   -1    0    0  501    0  0.00000000000E+00 -0.00000000000E+00 -0.21425795798E+03  0.21425795798E+03  0.00000000000E+00 0. -1.
         25    2    1    2    0    0  0.21493266083E+02 -0.35079599119E+02 -0.99104549884E+02  0.16480870172E+03  0.12509059755E+03 0.  0.
          5    1    3    3  502    0 -0.60361666364E+01 -0.78218874654E+02 -0.46466066916E+02  0.91275382412E+02  0.41800000000E+01 0. -1.
         -5    1    3    3    0  502  0.27529432719E+02  0.43139275535E+02 -0.52638482968E+02  0.73533319310E+02  0.41800000000E+01 0. -1.
        -11    1    1    2    0    0 -0.69096925291E+01 -0.31124962890E+02 -0.12440321381E+02  0.34223804023E+02  0.00000000000E+00 0.  1.
         11    1    1    2    0    0 -0.14583573554E+02  0.66204562008E+02 -0.39485711809E+02  0.78452827135E+02  0.00000000000E+00 0. -1.
</event>
<event>
 7    1  0.2619826E-009  0.7977923E+02  0.7561462E-02  0.1329679E+00
          2   -1    0    0  501    0  0.00000000000E+00  0.00000000000E+00  0.56594215388E+03  0.56594215388E+03  0.00000000000E+00 0. -1.
         -2   -1    0    0    0  501 -0.00000000000E+00 -0.00000000000E+00 -0.26238591137E+02  0.26238591137E+02  0.00000000000E+00 0.  1.
         25    2    1    2    0    0 -0.36230698980E+02 -0.40910523640E+02  0.32205833539E+03  0.34979409313E+03  0.12509197298E+03 0.  0.
          5    1    3    3  502    0  0.20790006196E+01 -0.38127496058E+02  0.30525263573E+03  0.30765999450E+03  0.41800000000E+01 0.  1.
         -5    1    3    3    0  502 -0.38309699600E+02 -0.27830275821E+01  0.16805699659E+02  0.42134098626E+02  0.41800000000E+01 0.  1.
        -11    1    1    2    0    0  0.15676078923E+02 -0.15758201262E+02  0.70272593252E+01  0.23311858164E+02  0.00000000000E+00 0.  1.
         11    1    1    2    0    0  0.20554620057E+02  0.56668724902E+02  0.21061796804E+03  0.21907479373E+03  0.00000000000E+00 0. -1.
</event>
<event>
 7    1  0.3178014E-009  0.1226306E+03  0.7561462E-02  0.1238819E+00
         -1   -1    0    0    0  501 -0.00000000000E+00  0.00000000000E+00  0.50806492463E+02  0.50806492463E+02  0.00000000000E+00 0.  1.
          1   -1    0    0  501    0  0.00000000000E+00 -0.00000000000E+00 -0.40982755701E+03  0.40982755701E+03  0.00000000000E+00 0. -1.
         25    2    1    2    0    0 -0.63827051779E+02 -0.54514359225E+02 -0.12433348994E+03  0.19532477544E+03  0.12508894147E+03 0.  0.
          5    1    3    3  502    0 -0.56619974066E+02  0.27337045055E+02 -0.28904941869E+02  0.69326066959E+02  0.41800000000E+01 0. -1.
         -5    1    3    3    0  502 -0.72070777133E+01 -0.81851404280E+02 -0.95428548073E+02  0.12599870848E+03  0.41800000000E+01 0. -1.
        -11    1    1    2    0    0  0.48619249123E+02  0.58274346046E+01 -0.37626293133E+02  0.61753771660E+02  0.00000000000E+00 0.  1.
         11    1    1    2    0    0  0.15207802656E+02  0.48686924620E+02 -0.19706128148E+03  0.20355550238E+03  0.00000000000E+00 0. -1.
</event>
<event>
 7    1  0.2619826E-009  0.1089313E+03  0.7561462E-02  0.1262562E+00
         -2   -1    0    0    0  501 -0.00000000000E+00  0.00000000000E+00  0.99364248169E+01  0.99364248169E+01  0.00000000000E+00 0.  1.
          2   -1    0    0  501    0  0.00000000000E+00 -0.00000000000E+00 -0.22088811151E+04  0.22088811151E+04  0.00000000000E+00 0. -1.
         25    2    1    2    0    0 -0.55233464568E+02  0.20658225407E+02 -0.18641053372E+04  0.18692280803E+04  0.12508960897E+03 0.  0.
          5    1    3    3  502    0 -0.63553181244E+02 -0.32680920985E+02 -0.65282396919E+03  0.65673712899E+03  0.41800000000E+01 0.  1.
         -5    1    3    3    0  502  0.83197166766E+01  0.53339146392E+02 -0.12112813680E+04  0.12124909513E+04  0.41800000000E+01 0.  1.
        -11    1    1    2    0    0  0.52674783901E+02  0.16257756415E+02 -0.12650787030E+03  0.13799706066E+03  0.00000000000E+00 0.  1.
         11    1    1    2    0    0  0.25586806665E+01 -0.36915981823E+02 -0.20833148276E+03  0.21159239889E+03  0.00000000000E+00 0. -1.
</event>
<event>
 7    1  0.2619826E-009  0.1153063E+03  0.7561462E-02  0.1251047E+00
         -1   -1    0    0    0  501 -0.00000000000E+00  0.00000000000E+00  0.39841232093E+02  0.39841232093E+02  0.00000000000E+00 0.  1.
          1   -1    0    0  501    0  0.00000000000E+00 -0.00000000000E+00 -0.58016830242E+03  0.58016830242E+03  0.00000000000E+00 0. -1.
         25    2    1    2    0    0  0.12692675794E+01  0.70493525657E+02 -0.45032513610E+03  0.47266385137E+03  0.12508972776E+03 0.  0.
          5    1    3    3  502    0 -0.13130905372E+02  0.10144298582E+03 -0.39011804169E+03  0.40332698756E+03  0.41800000000E+01 0.  1.
         -5    1    3    3    0  502  0.14400172952E+02 -0.30949460161E+02 -0.60207094414E+02  0.69336863811E+02  0.41800000000E+01 0.  1.
        -11    1    1    2    0    0 -0.27269897673E+02 -0.59817787660E+02 -0.98104140947E+02  0.11809418915E+03  0.00000000000E+00 0. -1.
         11    1    1    2    0    0  0.26000630094E+02 -0.10675737997E+02  0.81022067189E+01  0.29251493992E+02  0.00000000000E+00 0.  1.
</event>
<event>
 7    1  0.2619826E-009  0.1051761E+03  0.7561462E-02  0.1269773E+00
          2   -1    0    0  501    0  0.00000000000E+00  0.00000000000E+00  0.48141928494E+03  0.48141928494E+03  0.00000000000E+00 0. -1.
         -2   -1    0    0    0  501 -0.00000000000E+00 -0.00000000000E+00 -0.24714929268E+02  0.24714929268E+02  0.00000000000E+00 0.  1.
         25    2    1    2    0    0  0.42485151198E+01  0.82139110191E+01  0.29651339342E+03  0.32195772078E+03  0.12510420967E+03 0.  0.
          5    1    3    3  502    0  0.26731616132E+02  0.61450027292E+02  0.17130094515E+03  0.18398959581E+03  0.41800000000E+01 0. -1.
         -5    1    3    3    0  502 -0.22483101013E+02 -0.53236116273E+02  0.12521244827E+03  0.13796812497E+03  0.41800000000E+01 0. -1.
        -11    1    1    2    0    0 -0.44525862513E+02 -0.25890107089E+01  0.11518247356E+03  0.12351622413E+03  0.00000000000E+00 0.  1.
         11    1    1    2    0    0  0.40277347394E+02 -0.56249003102E+01  0.45008488689E+02  0.60660269292E+02  0.00000000000E+00 0. -1.
</event>
<event>
 7    1  0.2619826E-009  0.6708535E+02  0.7561462E-02  0.1370295E+00
         -3   -1    0    0    0  501 -0.00000000000E+00  0.00000000000E+00  0.23439014204E+03  0.23439014204E+03  0.00000000000E+00 0.  1.
          3   -1    0    0  501    0  0.00000000000E+00 -0.00000000000E+00 -0.74093716248E+02  0.74093716248E+02  0.00000000000E+00 0. -1.
         25    2    1    2    0    0 -0.11931402281E+02 -0.71464103902E+01  0.17337552794E+03  0.21424292675E+03  0.12509008127E+03 0.  0.
          5    1    3    3  502    0 -0.28528039666E+02 -0.22503761529E+02  0.18492722801E+03  0.18850947030E+03  0.41800000000E+01 0.  1.
         -5    1    3    3    0  502  0.16596637385E+02  0.15357351139E+02 -0.11551700074E+02  0.25733456455E+02  0.41800000000E+01 0.  1.
        -11    1    1    2    0    0  0.28319405864E+02 -0.25476648977E+02  0.21681959906E+02  0.43830991056E+02  0.00000000000E+00 0.  1.
         11    1    1    2    0    0 -0.16388003583E+02  0.32623059367E+02 -0.34761062057E+02  0.50409940480E+02  0.00000000000E+00 0. -1.
</event>
<event>
 7    1  0.2619826E-009  0.1580099E+03  0.7561462E-02  0.1190962E+00
         -2   -1    0    0    0  501 -0.00000000000E+00  0.00000000000E+00  0.22993142559E+02  0.22993142559E+02  0.00000000000E+00 0.  1.
          2   -1    0    0  501    0  0.00000000000E+00 -0.00000000000E+00 -0.12751201852E+04  0.12751201852E+04  0.00000000000E+00 0. -1.
         25    2    1    2    0    0 -0.12486106958E+03  0.39077576124E+02 -0.66574435826E+03  0.68991242429E+03  0.12508500699E+03 0.  0.
          5    1    3    3  502    0 -0.31398046912E+02  0.53262211318E+02 -0.45108937037E+03  0.45532602931E+03  0.41800000000E+01 0.  1.
         -5    1    3    3    0  502 -0.93463022667E+02 -0.14184635193E+02 -0.21465498790E+03  0.23458639498E+03  0.41800000000E+01 0.  1.
        -11    1    1    2    0    0  0.49394952587E+02 -0.63185764049E+02 -0.24702054625E+03  0.25971417441E+03  0.00000000000E+00 0. -1.
         11    1    1    2    0    0  0.75466116993E+02  0.24108187924E+02 -0.33936213817E+03  0.34848672910E+03  0.00000000000E+00 0.  1.
</event>
<event>
 7    1  0.2619826E-009  0.1248913E+03  0.7561462E-02  0.1235239E+00
          4   -1    0    0  501    0  0.00000000000E+00  0.00000000000E+00  0.63779148427E+03  0.63779148427E+03  0.00000000000E+00 0. -1.
         -4   -1    0    0    0  501 -0.00000000000E+00 -0.00000000000E+00 -0.26797511234E+02  0.26797511234E+02  0.00000000000E+00 0.  1.
         25    2    1    2    0    0 -0.69302216138E+02  0.14390424105E+02  0.36453445538E+03  0.39184642039E+03  0.12509343127E+03 0.  0.
          5    1    3    3  502    0  0.36284991350E+02  0.42100913366E+01  0.76640951436E+02  0.85003725232E+02  0.41800000000E+01 0. -1.
         -5    1    3    3    0  502 -0.10558720749E+03  0.10180332768E+02  0.28789350395E+03  0.30684269516E+03  0.41800000000E+01 0. -1.
        -11    1    1    2    0    0  0.49661045270E+02  0.30206445239E+02  0.18721911316E+03  0.19603480579E+03  0.00000000000E+00 0. -1.
         11    1    1    2    0    0  0.19641170868E+02 -0.44596869344E+02  0.59240404493E+02  0.76707769312E+02  0.00000000000E+00 0.  1.
</event>
<event>
 7    1  0.2619826E-009  0.8904459E+02  0.7561462E-02  0.1305182E+00
          2   -1    0    0  501    0  0.00000000000E+00  0.00000000000E+00  0.33846301268E+03  0.33846301268E+03  0.00000000000E+00 0. -1.
         -2   -1    0    0    0  501 -0.00000000000E+00 -0.00000000000E+00 -0.39578161752E+02  0.39578161752E+02  0.00000000000E+00 0.  1.
         25    2    1    2    0    0  0.30477058347E+02 -0.70051852480E+01  0.23250170493E+03  0.26586263595E+03  0.12509186501E+03 0.  0.
          5    1    3    3  502    0  0.30709465975E+02 -0.43152047059E+02  0.22159475091E+03  0.22787469473E+03  0.41800000000E+01 0.  1.
         -5    1    3    3    0  502 -0.23240762809E+00  0.36146861811E+02  0.10906954015E+02  0.37987941218E+02  0.41800000000E+01 0.  1.
        -11    1    1    2    0    0 -0.12295534276E+02  0.44893730618E+02  0.46109529889E+02  0.65518821406E+02  0.00000000000E+00 0. -1.
         11    1    1    2    0    0 -0.18181524071E+02 -0.37888545370E+02  0.20273616115E+02  0.46659717082E+02  0.00000000000E+00 0.  1.
</event>
<event>
 7    1  0.2897896E-009  0.7322598E+02  0.7561462E-02  0.1349454E+00
         -2   -1    0    0    0  501 -0.00000000000E+00  0.00000000000E+00  0.11945736520E+03  0.11945736520E+03  0.00000000000E+00 0.  1.
          2   -1    0    0  501    0  0.00000000000E+00 -0.00000000000E+00 -0.14635938391E+03  0.14635938391E+03  0.00000000000E+00 0. -1.
         25    2    1    2    0    0 -0.25129721714E+02  0.64602426460E+02  0.14240414950E+02  0.14371889553E+03  0.12508938842E+03 0.  0.
          5    1    3    3  502    0  0.32698734755E+01  0.10089563676E+02 -0.52012558167E+02  0.53247253214E+02  0.41800000000E+01 0.  1.
         -5    1    3    3    0  502 -0.28399595189E+02  0.54512862784E+02  0.66252973117E+02  0.90471642312E+02  0.41800000000E+01 0.  1.
        -11    1    1    2    0    0  0.16988333717E+01 -0.37818163804E+02  0.26125946216E+02  0.45996354355E+02  0.00000000000E+00 0.  1.
         11    1    1    2    0    0  0.23430888342E+02 -0.26784262656E+02 -0.67268379873E+02  0.76101499231E+02  0.00000000000E+00 0. -1.
</event>
<event>
 7    1  0.2619826E-009  0.2517518E+03  0.7561462E-02  0.1112203E+00
         -1   -1    0    0    0  501 -0.00000000000E+00  0.00000000000E+00  0.12820626627E+03  0.12820626627E+03  0.00000000000E+00 0.  1.
          1   -1    0    0  501    0  0.00000000000E+00 -0.00000000000E+00 -0.57830517227E+03  0.57830517227E+03  0.00000000000E+00 0. -1.
         25    2    1    2    0    0 -0.81102499685E+02 -0.21926420917E+03 -0.11706434864E+03  0.28983772549E+03  0.12508971388E+03 0.  0.
          5    1    3    3  502    0 -0.99408772343E+02 -0.96897178117E+02 -0.42159939922E+02  0.14514165522E+03  0.41800000000E+01 0. -1.
         -5    1    3    3    0  502  0.18306272658E+02 -0.12236703105E+03 -0.74904408719E+02  0.14469607027E+03  0.41800000000E+01 0. -1.
        -11    1    1    2    0    0  0.80521446095E+02  0.13962559525E+03 -0.16467445826E+03  0.23042718445E+03  0.00000000000E+00 0.  1.
         11    1    1    2    0    0  0.58105359056E+00  0.79638613911E+02 -0.16836009910E+03  0.18624652860E+03  0.00000000000E+00 0. -1.
</event>
<event>
 7    1  0.2619826E-009  0.1636876E+03  0.7561462E-02  0.1184595E+00
          2   -1    0    0  501    0  0.00000000000E+00  0.00000000000E+00  0.91827479247E+03  0.91827479247E+03  0.00000000000E+00 0. -1.
         -2   -1    0    0    0  501 -0.00000000000E+00 -0.00000000000E+00 -0.31747323447E+02  0.31747323447E+02  0.00000000000E+00 0.  1.
         25    2    1    2    0    0 -0.10349456590E+03 -0.66584220999E+02  0.34055569027E+03  0.38309024707E+03  0.12504149539E+03 0.  0.
          5    1    3    3  502    0 -0.17941363703E+02  0.36720227867E+02  0.72975047916E+02  0.83744239709E+02  0.41800000000E+01 0. -1.
         -5    1    3    3    0  502 -0.85553202195E+02 -0.10330444887E+03  0.26758064235E+03  0.29934600736E+03  0.41800000000E+01 0. -1.
        -11    1    1    2    0    0  0.11330423538E+03  0.77612179068E+02  0.50655567089E+03  0.52484297443E+03  0.00000000000E+00 0.  1.
         11    1    1    2    0    0 -0.98096694776E+01 -0.11027958069E+02  0.39416107865E+02  0.42088894422E+02  0.00000000000E+00 0. -1.
</event>
<event>
 7    1  0.2619826E-009  0.9263697E+02  0.7561462E-02  0.1296589E+00
         -1   -1    0    0    0  501 -0.00000000000E+00  0.00000000000E+00  0.68869964797E+02  0.68869964797E+02  0.00000000000E+00 0.  1.
          1   -1    0    0  501    0  0.00000000000E+00 -0.00000000000E+00 -0.25113821990E+03  0.25113821990E+03  0.00000000000E+00 0. -1.
         25    2    1    2    0    0  0.42195337642E+02  0.69948969619E+01 -0.17708347724E+03  0.22098597696E+03  0.12508744540E+03 0.  0.
          5    1    3    3  502    0  0.54959415769E+02  0.47525956934E+02 -0.15851644205E+03  0.17442530998E+03  0.41800000000E+01 0. -1.
         -5    1    3    3    0  502 -0.12764078127E+02 -0.40531059972E+02 -0.18567035197E+02  0.46560666973E+02  0.41800000000E+01 0. -1.
        -11    1    1    2    0    0 -0.42557226868E+02  0.16979699649E+02 -0.37203081557E+02  0.59021157530E+02  0.00000000000E+00 0. -1.
         11    1    1    2    0    0  0.36188922632E+00 -0.23974596611E+02  0.32018303696E+02  0.40001050212E+02  0.00000000000E+00 0.  1.
</event>
<event>
 7    1  0.2619826E-009  0.7688955E+02  0.7561462E-02  0.1338118E+00
          2   -1    0    0  501    0  0.00000000000E+00  0.00000000000E+00  0.23284020494E+03  0.23284020494E+03  0.00000000000E+00 0. -1.
         -2   -1    0    0    0  501 -0.00000000000E+00 -0.00000000000E+00 -0.64881659122E+02  0.64881659122E+02  0.00000000000E+00 0.  1.
         25    2    1    2    0    0 -0.42244958543E+02  0.25471313352E+02  0.61240841477E+02  0.14775340641E+03  0.12508878493E+03 0.  0.
          5    1    3    3  502    0 -0.50789700498E+02  0.29765267299E+02 -0.22651086589E+02  0.63214784171E+02  0.41800000000E+01 0. -1.
         -5    1    3    3    0  502  0.85447419551E+01 -0.42939539470E+01  0.83891928066E+02  0.84538622240E+02  0.41800000000E+01 0. -1.
        -11    1    1    2    0    0  0.60764667433E+02 -0.13417847419E+02  0.11119437492E+03  0.12742280978E+03  0.00000000000E+00 0. -1.
         11    1    1    2    0    0 -0.18519708890E+02 -0.12053465934E+02 -0.44766705834E+01  0.22545647870E+02  0.00000000000E+00 0.  1.
</event>
<event>
 7    1  0.2619826E-009  0.1041387E+03  0.7561462E-02  0.1271826E+00
          2   -1    0    0  501    0  0.00000000000E+00  0.00000000000E+00  0.68057379532E+03  0.68057379532E+03  0.00000000000E+00 0.  1.
         -2   -1    0    0    0  501 -0.00000000000E+00 -0.00000000000E+00 -0.20669446602E+02  0.20669446602E+02  0.00000000000E+00 0. -1.
         25    2    1    2    0    0 -0.30294493888E+01  0.38754571255E+02  0.42013371452E+03  0.44008041844E+03  0.12508933713E+03 0.  0.
          5    1    3    3  502    0 -0.46552373477E+02 -0.12391156099E+01  0.32250230915E+03  0.32587401046E+03  0.41800000000E+01 0.  1.
         -5    1    3    3    0  502  0.43522924089E+02  0.39993686865E+02  0.97631405368E+02  0.11420640798E+03  0.41800000000E+01 0.  1.
        -11    1    1    2    0    0 -0.14678039398E+02  0.28856179156E+02  0.58087824426E+02  0.66500520770E+02  0.00000000000E+00 0. -1.
         11    1    1    2    0    0  0.17707488786E+02 -0.67610750411E+02  0.18168280978E+03  0.19466230272E+03  0.00000000000E+00 0.  1.
</event>
<event>
 7    1  0.2619826E-009  0.1192679E+03  0.7561462E-02  0.1244310E+00
          2   -1    0    0  501    0  0.00000000000E+00  0.00000000000E+00  0.10088576239E+04  0.10088576239E+04  0.00000000000E+00 0. -1.
         -2   -1    0    0    0  501 -0.00000000000E+00 -0.00000000000E+00 -0.22515701913E+02  0.22515701913E+02  0.00000000000E+00 0.  1.
         25    2    1    2    0    0 -0.97568713177E+02  0.26597384006E+02  0.44150810898E+03  0.46989696153E+03  0.12508664810E+03 0.  0.
          5    1    3    3  502    0 -0.46657884521E+02  0.13247048739E+01  0.32721544751E+02  0.57156669968E+02  0.41800000000E+01 0. -1.
         -5    1    3    3    0  502 -0.50910828656E+02  0.25272679132E+02  0.40878656423E+03  0.41274029156E+03  0.41800000000E+01 0. -1.
        -11    1    1    2    0    0  0.85231632670E+02  0.19101038110E+02  0.38481631397E+03  0.39460470900E+03  0.00000000000E+00 0. -1.
         11    1    1    2    0    0  0.12337080506E+02 -0.45698422116E+02  0.16001749899E+03  0.16687165524E+03  0.00000000000E+00 0.  1.
</event>
<event>
 7    1  0.2619826E-009  0.1398161E+03  0.7561462E-02  0.1213577E+00
         -2   -1    0    0    0  501 -0.00000000000E+00  0.00000000000E+00  0.97573257612E+02  0.97573257612E+02  0.00000000000E+00 0.  1.
          2   -1    0    0  501    0  0.00000000000E+00 -0.00000000000E+00 -0.32211431779E+03  0.32211431779E+03  0.00000000000E+00 0. -1.
         25    2    1    2    0    0  0.68919154962E+02  0.73474720612E+02 -0.38838905229E+01  0.16065719230E+03  0.12508902567E+03 0.  0.
          5    1    3    3  502    0  0.27530698070E+02  0.93758501475E+02 -0.36112822995E+02  0.10426027201E+03  0.41800000000E+01 0.  1.
         -5    1    3    3    0  502  0.41388456892E+02 -0.20283780863E+02  0.32228932472E+02  0.56396920291E+02  0.41800000000E+01 0.  1.
        -11    1    1    2    0    0 -0.13726276111E+02 -0.78901188695E+02 -0.13586139430E+03  0.15770899370E+03  0.00000000000E+00 0.  1.
         11    1    1    2    0    0 -0.55192878851E+02  0.54264680828E+01 -0.84795775355E+02  0.10132138940E+03  0.00000000000E+00 0. -1.
</event>
<event>
 7    1  0.2619826E-009  0.7980066E+02  0.7561462E-02  0.1329618E+00
          1   -1    0    0  501    0  0.00000000000E+00  0.00000000000E+00  0.84217902346E+03  0.84217902346E+03  0.00000000000E+00 0. -1.
         -1   -1    0    0    0  501 -0.00000000000E+00 -0.00000000000E+00 -0.35610357154E+02  0.35610357154E+02  0.00000000000E+00 0.  1.
         25    2    1    2    0    0  0.30891105818E+02  0.17143964424E+02  0.75211058625E+03  0.76326347791E+03  0.12511045853E+03 0.  0.
          5    1    3    3  502    0  0.61939104677E+02  0.14625795091E+02  0.19290217145E+03  0.20317255406E+03  0.41800000000E+01 0. -1.
         -5    1    3    3    0  502 -0.31047998859E+02  0.25181693325E+01  0.55920841480E+03  0.56009092386E+03  0.41800000000E+01 0. -1.
        -11    1    1    2    0    0 -0.41126405974E+02  0.35768446292E+01  0.73686241165E+02  0.84462046050E+02  0.00000000000E+00 0. -1.
         11    1    1    2    0    0  0.10235300157E+02 -0.20720809053E+02 -0.19228161108E+02  0.30063856651E+02  0.00000000000E+00 0.  1.
</event>
<event>
 7    1  0.2619826E-009  0.1034310E+03  0.7561462E-02  0.1273242E+00
         -2   -1    0    0    0  501 -0.00000000000E+00  0.00000000000E+00  0.79337251582E+03  0.79337251582E+03  0.00000000000E+00 0.  1.
          2   -1    0    0  501    0  0.00000000000E+00 -0.00000000000E+00 -0.33305896344E+02  0.33305896344E+02  0.00000000000E+00 0. -1.
         25    2    1    2    0    0  0.77481353568E+01  0.40133466763E+02  0.69382588440E+03  0.70619629854E+03  0.12509246762E+03 0.  0.
          5    1    3    3  502    0  0.45221119907E+02 -0.26917003539E+02  0.22567376366E+03  0.23176625028E+03  0.41800000000E+01 0.  1.
         -5    1    3    3    0  502 -0.37472984550E+02  0.67050470302E+02  0.46815212074E+03  0.47443004826E+03  0.41800000000E+01 0.  1.
        -11    1    1    2    0    0  0.10753743408E+02  0.15302658016E+02  0.58636709861E+02  0.61547364549E+02  0.00000000000E+00 0.  1.
         11    1    1    2    0    0 -0.18501878765E+02 -0.55436124778E+02  0.76040252094E+01  0.58934749067E+02  0.00000000000E+00 0. -1.
</event>
<event>
 7    1  0.3689304E-009  0.5096982E+02  0.7561462E-02  0.1440180E+00
         -2   -1    0    0    0  501 -0.00000000000E+00  0.00000000000E+00  0.16819833054E+03  0.16819833054E+03  0.00000000000E+00 0.  1.
          2   -1    0    0  501    0  0.00000000000E+00 -0.00000000000E+00 -0.10293227901E+03  0.10293227901E+03  0.00000000000E+00 0. -1.
         25    2    1    2    0    0 -0.32542924956E+02 -0.45919774519E+01 -0.32616465821E+02  0.13339354999E+03  0.12509946888E+03 0.  0.
          5    1    3    3  502    0 -0.26167374232E+02 -0.53285402268E+00 -0.80492905195E+02  0.84744295350E+02  0.41800000000E+01 0. -1.
         -5    1    3    3    0  502 -0.63755507238E+01 -0.40591234292E+01  0.47876439375E+02  0.48649254642E+02  0.41800000000E+01 0. -1.
        -11    1    1    2    0    0 -0.17031137192E+02  0.21200387174E+01  0.84643793873E+02  0.86366232055E+02  0.00000000000E+00 0.  1.
         11    1    1    2    0    0  0.49574062147E+02  0.24719387345E+01  0.13238723471E+02  0.51370827500E+02  0.00000000000E+00 0. -1.
</event>
<event>
 7    1  0.2619826E-009  0.2833247E+03  0.7561462E-02  0.1093887E+00
          1   -1    0    0  501    0  0.00000000000E+00  0.00000000000E+00  0.29888654528E+03  0.29888654528E+03  0.00000000000E+00 0. -1.
         -1   -1    0    0    0  501 -0.00000000000E+00 -0.00000000000E+00 -0.38485773728E+03  0.38485773728E+03  0.00000000000E+00 0.  1.
         25    2    1    2    0    0 -0.12278351949E+03 -0.24651297223E+03  0.12244713927E+03  0.32631806083E+03  0.12508291959E+03 0.  0.
          5    1    3    3  502    0 -0.10811893939E+03 -0.23266286356E+03  0.64150763350E+02  0.26448914150E+03  0.41800000000E+01 0.  1.
         -5    1    3    3    0  502 -0.14664580104E+02 -0.13850108673E+02  0.58296375924E+02  0.61828919332E+02  0.41800000000E+01 0.  1.
        -11    1    1    2    0    0  0.78547622679E+02  0.22862592199E+03 -0.16308892173E+03  0.29161196414E+03  0.00000000000E+00 0. -1.
         11    1    1    2    0    0  0.44235896812E+02  0.17887050238E+02 -0.45329409539E+02  0.65814257589E+02  0.00000000000E+00 0.  1.
</event>
<event>
 7    1  0.2619826E-009  0.1132166E+03  0.7561462E-02  0.1254727E+00
         -2   -1    0    0    0  501 -0.00000000000E+00  0.00000000000E+00  0.82325292288E+02  0.82325292288E+02  0.00000000000E+00 0. -1.
          2   -1    0    0  501    0  0.00000000000E+00 -0.00000000000E+00 -0.23405090053E+03  0.23405090053E+03  0.00000000000E+00 0.  1.
         25    2    1    2    0    0  0.76941802323E+02 -0.34581797283E+02 -0.67795697060E+02  0.16540743119E+03  0.12508964827E+03 0.  0.
          5    1    3    3  502    0 -0.61391669365E+01 -0.42782377412E+02  0.16726848696E+02  0.46532580575E+02  0.41800000000E+01 0. -1.
         -5    1    3    3    0  502  0.83080969259E+02  0.82005801292E+01 -0.84522545756E+02  0.11887485061E+03  0.41800000000E+01 0. -1.
        -11    1    1    2    0    0 -0.62431363675E+02  0.55922930254E+00 -0.93807702541E+02  0.11268483910E+03  0.00000000000E+00 0.  1.
         11    1    1    2    0    0 -0.14510438648E+02  0.34022567980E+02  0.98777913600E+01  0.38283922525E+02  0.00000000000E+00 0. -1.
</event>
<event>
 7    1  0.2619826E-009  0.1086017E+03  0.7561462E-02  0.1263181E+00
         -2   -1    0    0    0  501 -0.00000000000E+00  0.00000000000E+00  0.81228500505E+02  0.81228500505E+02  0.00000000000E+00 0.  1.
          2   -1    0    0  501    0  0.00000000000E+00 -0.00000000000E+00 -0.16095647958E+03  0.16095647958E+03  0.00000000000E+00 0. -1.
         25    2    1    2    0    0  0.12105338334E+02  0.28586808701E+02 -0.64001918651E+02  0.14390211258E+03  0.12509127694E+03 0.  0.
          5    1    3    3  502    0 -0.44586311355E+02  0.42418966815E+02 -0.58714091937E+02  0.85159408746E+02  0.41800000000E+01 0. -1.
         -5    1    3    3    0  502  0.56691649689E+02 -0.13832158114E+02 -0.52878267136E+01  0.58742703835E+02  0.41800000000E+01 0. -1.
        -11    1    1    2    0    0 -0.28769011988E+01 -0.62145375982E+02 -0.99673981395E+01  0.63005343759E+02  0.00000000000E+00 0. -1.
         11    1    1    2    0    0 -0.92284371350E+01  0.33558567282E+02 -0.57586622804E+01  0.35277523740E+02  0.00000000000E+00 0.  1.
</event>
<event>
 7    1  0.2619826E-009  0.1415576E+03  0.7561462E-02  0.1211248E+00
         -3   -1    0    0    0  501 -0.00000000000E+00  0.00000000000E+00  0.83890244225E+03  0.83890244225E+03  0.00000000000E+00 0.  1.
          3   -1    0    0  501    0  0.00000000000E+00 -0.00000000000E+00 -0.39550847555E+02  0.39550847555E+02  0.00000000000E+00 0. -1.
         25    2    1    2    0    0 -0.74989366097E+02  0.88374386713E+02  0.63454836114E+03  0.65706551456E+03  0.12510008212E+03 0.  0.
          5    1    3    3  502    0 -0.45281806948E+00 -0.22631994659E+02  0.22608929585E+03  0.22725812268E+03  0.41800000000E+01 0. -1.
         -5    1    3    3    0  502 -0.74536548027E+02  0.11100638137E+03  0.40845906529E+03  0.42980739188E+03  0.41800000000E+01 0.  1.
        -11    1    1    2    0    0  0.69734509879E+02 -0.45812729268E+02  0.46429222103E+02  0.95484976285E+02  0.00000000000E+00 0. -1.
         11    1    1    2    0    0  0.52548562179E+01 -0.42561657445E+02  0.11837401145E+03  0.12590279896E+03  0.00000000000E+00 0.  1.
</event>
<event>
 7    1  0.2619826E-009  0.1717822E+03  0.7561462E-02  0.1176002E+00
         -1   -1    0    0    0  501 -0.00000000000E+00  0.00000000000E+00  0.13150795986E+03  0.13150795986E+03  0.00000000000E+00 0.  1.
          1   -1    0    0  501    0  0.00000000000E+00 -0.00000000000E+00 -0.24877423735E+03  0.24877423735E+03  0.00000000000E+00 0. -1.
         25    2    1    2    0    0 -0.68803506968E+02 -0.12155196973E+03 -0.25276333125E+02  0.18919533340E+03  0.12508867754E+03 0.  0.
          5    1    3    3  502    0  0.24015581089E+02  0.11953584256E+01  0.16766679545E+02  0.29610318467E+02  0.41800000000E+01 0.  1.
         -5    1    3    3    0  502 -0.92819088057E+02 -0.12274732816E+03 -0.42043012669E+02  0.15958501493E+03  0.41800000000E+01 0.  1.
        -11    1    1    2    0    0 -0.18752419475E+02  0.49475441254E+01 -0.14519020026E+01  0.19448379071E+02  0.00000000000E+00 0. -1.
         11    1    1    2    0    0  0.87555926443E+02  0.11660442561E+03 -0.90538042364E+02  0.17163848473E+03  0.00000000000E+00 0.  1.
</event>
<event>
 7    1  0.2619826E-009  0.1217401E+03  0.7561462E-02  0.1240254E+00
         -2   -1    0    0    0  501 -0.00000000000E+00  0.00000000000E+00  0.49385184557E+03  0.49385184557E+03  0.00000000000E+00 0.  1.
          2   -1    0    0  501    0  0.00000000000E+00 -0.00000000000E+00 -0.34534504869E+02  0.34534504869E+02  0.00000000000E+00 0. -1.
         25    2    1    2    0    0 -0.68322240246E+02  0.15686790084E+02  0.30086323277E+03  0.33329024662E+03  0.12509876004E+03 0.  0.
          5    1    3    3  502    0  0.26543581478E+02  0.29623363496E+02  0.46003032542E+02  0.60957827927E+02  0.41800000000E+01 0.  1.
         -5    1    3    3    0  502 -0.94865821724E+02 -0.13936573412E+02  0.25486020023E+03  0.27233241870E+03  0.41800000000E+01 0.  1.
        -11    1    1    2    0    0  0.73403270054E+02  0.16242888901E+02  0.77729695763E+02  0.10813776906E+03  0.00000000000E+00 0. -1.
         11    1    1    2    0    0 -0.50810298080E+01 -0.31929678985E+02  0.80724412163E+02  0.86958334753E+02  0.00000000000E+00 0.  1.
</event>
<event>
 7    1  0.2619826E-009  0.1140464E+03  0.7561462E-02  0.1253255E+00
          1   -1    0    0  501    0  0.00000000000E+00  0.00000000000E+00  0.48728617481E+03  0.48728617481E+03  0.00000000000E+00 0. -1.
         -1   -1    0    0    0  501 -0.00000000000E+00 -0.00000000000E+00 -0.36410246554E+02  0.36410246554E+02  0.00000000000E+00 0.  1.
         25    2    1    2    0    0  0.27465406793E+02 -0.33258660847E+02  0.37447740673E+03  0.39716763223E+03  0.12509321663E+03 0.  0.
          5    1    3    3  502    0  0.67219613160E+02  0.10964406246E+02  0.25011831262E+03  0.25925920872E+03  0.41800000000E+01 0. -1.
         -5    1    3    3    0  502 -0.39754206367E+02 -0.44223067094E+02  0.12435909412E+03  0.13790842351E+03  0.41800000000E+01 0. -1.
        -11    1    1    2    0    0 -0.55749308350E+02  0.42919419962E+02  0.47041157045E+02  0.84634109244E+02  0.00000000000E+00 0.  1.
         11    1    1    2    0    0  0.28283901557E+02 -0.96607591146E+01  0.29357364478E+02  0.41894679889E+02  0.00000000000E+00 0. -1.
</event>
<event>
 7    1  0.2619826E-009  0.7414490E+02  0.7561462E-02  0.1346540E+00
          1   -1    0    0  501    0  0.00000000000E+00  0.00000000000E+00  0.18473194711E+03  0.18473194711E+03  0.00000000000E+00 0. -1.
         -1   -1    0    0    0  501 -0.00000000000E+00 -0.00000000000E+00 -0.88591202197E+02  0.88591202197E+02  0.00000000000E+00 0.  1.
         25    2    1    2    0    0  0.34203376685E+02  0.51246003668E+02  0.21175570848E+02  0.14104017909E+03  0.12509158025E+03 0.  0.
          5    1    3    3  502    0  0.38253442350E+02  0.79691003416E+01 -0.46261880407E+02  0.60699805525E+02  0.41800000000E+01 0.  1.
         -5    1    3    3    0  502 -0.40500656653E+01  0.43276903327E+02  0.67437451255E+02  0.80340373569E+02  0.41800000000E+01 0.  1.
        -11    1    1    2    0    0 -0.18555284547E+02 -0.44635233999E+02  0.94651741085E+02  0.10628054756E+03  0.00000000000E+00 0. -1.
         11    1    1    2    0    0 -0.15648092138E+02 -0.66107696690E+01 -0.19686567018E+02  0.26002422658E+02  0.00000000000E+00 0.  1.
</event>
<event>
 7    1  0.2619826E-009  0.1342616E+03  0.7561462E-02  0.1221266E+00
         -1   -1    0    0    0  501 -0.00000000000E+00  0.00000000000E+00  0.69485367666E+03  0.69485367666E+03  0.00000000000E+00 0.  1.
          1   -1    0    0  501    0  0.00000000000E+00 -0.00000000000E+00 -0.27518826812E+02  0.27518826812E+02  0.00000000000E+00 0. -1.
         25    2    1    2    0    0 -0.72264197685E+02  0.45653362424E+02  0.33868382015E+03  0.37102575109E+03  0.12508810563E+03 0.  0.
          5    1    3    3  502    0 -0.62273861971E+02 -0.33986981263E+02  0.16427256717E+03  0.17898630536E+03  0.41800000000E+01 0. -1.
         -5    1    3    3    0  502 -0.99903357138E+01  0.79640343687E+02  0.17441125298E+03  0.19203944573E+03  0.41800000000E+01 0. -1.
        -11    1    1    2    0    0  0.31625037960E+02 -0.64840091556E+02  0.14093142954E+03  0.15832260840E+03  0.00000000000E+00 0. -1.
         11    1    1    2    0    0  0.40639159725E+02  0.19186729132E+02  0.18771960016E+03  0.19302414399E+03  0.00000000000E+00 0.  1.
</event>
<event>
 7    1  0.2619826E-009  0.9359200E+02  0.7561462E-02  0.1294379E+00
         -2   -1    0    0    0  501 -0.00000000000E+00  0.00000000000E+00  0.18349875667E+02  0.18349875667E+02  0.00000000000E+00 0.  1.
          2   -1    0    0  501    0  0.00000000000E+00 -0.00000000000E+00 -0.88374991579E+03  0.88374991579E+03  0.00000000000E+00 0. -1.
         25    2    1    2    0    0 -0.31702759346E+02 -0.24732015840E+02 -0.66655042618E+03  0.67937640848E+03  0.12508435632E+03 0.  0.
          5    1    3    3  502    0 -0.79504406167E+01  0.37559281763E+02 -0.77888286775E+02  0.86936567504E+02  0.41800000000E+01 0.  1.
         -5    1    3    3    0  502 -0.23752318729E+02 -0.62291297603E+02 -0.58866213941E+03  0.59243984098E+03  0.41800000000E+01 0.  1.
        -11    1    1    2    0    0  0.54588655670E+02  0.13296825013E+02 -0.62697680913E+02  0.84188633883E+02  0.00000000000E+00 0.  1.
         11    1    1    2    0    0 -0.22885896324E+02  0.11435190827E+02 -0.13615193303E+03  0.13853474910E+03  0.00000000000E+00 0. -1.
</event>
<event>
 7    1  0.4601815E-009  0.1046023E+03  0.7561462E-02  0.1270905E+00
          1   -1    0    0  501    0  0.00000000000E+00  0.00000000000E+00  0.17767659899E+03  0.17767659899E+03  0.00000000000E+00 0. -1.
         -1   -1    0    0    0  501 -0.00000000000E+00 -0.00000000000E+00 -0.91640018117E+02  0.91640018117E+02  0.00000000000E+00 0.  1.
         25    2    1    2    0    0  0.47042673481E+02  0.34108131760E+02  0.83373469825E+02  0.16116799072E+03  0.12509039923E+03 0.  0.
          5    1    3    3  502    0  0.61111213288E+02  0.70431250764E+02  0.77967867978E+02  0.12162073142E+03  0.41800000000E+01 0. -1.
         -5    1    3    3    0  502 -0.14068539808E+02 -0.36323119004E+02  0.54056018465E+01  0.39547259296E+02  0.41800000000E+01 0. -1.
        -11    1    1    2    0    0 -0.44802409792E+02 -0.46219725422E+02 -0.31622129897E+02  0.71718045431E+02  0.00000000000E+00 0.  1.
         11    1    1    2    0    0 -0.22402636887E+01  0.12111593662E+02  0.34285240943E+02  0.36430580958E+02  0.00000000000E+00 0. -1.
</event>
<event>
 7    1  0.2619826E-009  0.1123885E+03  0.7561462E-02  0.1256210E+00
         -1   -1    0    0    0  501 -0.00000000000E+00  0.00000000000E+00  0.57712205973E+02  0.57712205973E+02  0.00000000000E+00 0.  1.
          1   -1    0    0  501    0  0.00000000000E+00 -0.00000000000E+00 -0.42070441535E+03  0.42070441535E+03  0.00000000000E+00 0. -1.
         25    2    1    2    0    0  0.51079026648E+02  0.79704671557E+02 -0.28451962680E+03  0.32490126753E+03  0.12509002348E+03 0.  0.
          5    1    3    3  502    0  0.36710953754E+02  0.51849624499E+02 -0.33585672700E+02  0.71982966714E+02  0.41800000000E+01 0.  1.
         -5    1    3    3    0  502  0.14368072894E+02  0.27855047058E+02 -0.25093395410E+03  0.25291830082E+03  0.41800000000E+01 0.  1.
        -11    1    1    2    0    0  0.21673734825E+02 -0.13577990654E+00 -0.25257143600E+02  0.33282014967E+02  0.00000000000E+00 0. -1.
         11    1    1    2    0    0 -0.72752761473E+02 -0.79568891650E+02 -0.53215438976E+02  0.12023333883E+03  0.00000000000E+00 0.  1.
</event>
<event>
 7    1  0.2619826E-009  0.7383561E+02  0.7561462E-02  0.1347515E+00
          1   -1    0    0  501    0  0.00000000000E+00  0.00000000000E+00  0.29475885965E+03  0.29475885965E+03  0.00000000000E+00 0. -1.
         -1   -1    0    0    0  501 -0.00000000000E+00 -0.00000000000E+00 -0.40499111663E+02  0.40499111663E+02  0.00000000000E+00 0.  1.
         25    2    1    2    0    0  0.83126999050E+01  0.12650400868E+02  0.16163369331E+03  0.20495745398E+03  0.12511184399E+03 0.  0.
          5    1    3    3  502    0 -0.19195333643E+02  0.32040903687E+02 -0.22020902737E+01  0.37648398961E+02  0.41800000000E+01 0.  1.
         -5    1    3    3    0  502  0.27508033548E+02 -0.19390502819E+02  0.16383578358E+03  0.16730905502E+03  0.41800000000E+01 0.  1.
        -11    1    1    2    0    0  0.33325092744E+02 -0.80386387709E+01  0.70178701647E+01  0.34991885079E+02  0.00000000000E+00 0.  1.
         11    1    1    2    0    0 -0.41637792649E+02 -0.46117620974E+01  0.85608184510E+02  0.95308632250E+02  0.00000000000E+00 0. -1.
</event>
<event>
 7    1  0.2619826E-009  0.1196936E+03  0.7561462E-02  0.1243603E+00
         -1   -1    0    0    0  501 -0.00000000000E+00  0.00000000000E+00  0.64043965471E+02  0.64043965471E+02  0.00000000000E+00 0.  1.
          1   -1    0    0  501    0  0.00000000000E+00 -0.00000000000E+00 -0.25773703532E+03  0.25773703532E+03  0.00000000000E+00 0. -1.
         25    2    1    2    0    0 -0.34723991177E+02  0.53461456752E+02 -0.11680975461E+03  0.18262865691E+03  0.12507927339E+03 0.  0.
          5    1    3    3  502    0  0.19346952733E+02 -0.23069192212E+02 -0.73056402824E+02  0.79127761266E+02  0.41800000000E+01 0.  1.
         -5    1    3    3    0  502 -0.54070943909E+02  0.76530648965E+02 -0.43753351786E+02  0.10350089564E+03  0.41800000000E+01 0.  1.
        -11    1    1    2    0    0 -0.29142281313E+02 -0.40709615649E+02 -0.25436042865E+02  0.56156367788E+02  0.00000000000E+00 0. -1.
         11    1    1    2    0    0  0.63866272490E+02 -0.12751841103E+02 -0.51447272371E+02  0.82995976093E+02  0.00000000000E+00 0.  1.
</event>
<event>
 7    1  0.2619826E-009  0.8122206E+02  0.7561462E-02  0.1325619E+00
          2   -1    0    0  501    0  0.00000000000E+00  0.00000000000E+00  0.65139256707E+03  0.65139256707E+03  0.00000000000E+00 0. -1.
         -2   -1    0    0    0  501 -0.00000000000E+00 -0.00000000000E+00 -0.19896600082E+02  0.19896600082E+02  0.00000000000E+00 0.  1.
         25    2    1    2    0    0 -0.28349810563E+02  0.19570800471E+02  0.31229580720E+03  0.33817374896E+03  0.12508431276E+03 0.  0.
          5    1    3    3  502    0 -0.56609726093E+01  0.40752637786E+02  0.30256346518E+03  0.30537672957E+03  0.41800000000E+01 0.  1.
         -5    1    3    3    0  502 -0.22688837953E+02 -0.21181837315E+02  0.97323420160E+01  0.32797019389E+02  0.41800000000E+01 0.  1.
        -11    1    1    2    0    0  0.30911352739E+02  0.28252144420E+02  0.20579407727E+03  0.21001166071E+03  0.00000000000E+00 0. -1.
         11    1    1    2    0    0 -0.25615421764E+01 -0.47822944891E+02  0.11340608251E+03  0.12310375749E+03  0.00000000000E+00 0.  1.
</event>
<event>
 7    1  0.2619826E-009  0.1486263E+03  0.7561462E-02  0.1202171E+00
          2   -1    0    0  501    0  0.00000000000E+00  0.00000000000E+00  0.24120406759E+03  0.24120406759E+03  0.00000000000E+00 0.  1.
         -2   -1    0    0    0  501 -0.00000000000E+00 -0.00000000000E+00 -0.10986240834E+03  0.10986240834E+03  0.00000000000E+00 0. -1.
         25    2    1    2    0    0  0.41918807406E+02  0.11542386244E+03  0.85252719763E+02  0.19492364804E+03  0.12508935967E+03 0.  0.
          5    1    3    3  502    0  0.79881162302E+02  0.67785688414E+02  0.83170254808E+02  0.13383072640E+03  0.41800000000E+01 0.  1.
         -5    1    3    3    0  502 -0.37962354896E+02  0.47638174030E+02  0.20824649546E+01  0.61092921639E+02  0.41800000000E+01 0.  1.
        -11    1    1    2    0    0 -0.42590174071E+02 -0.49015291743E+02  0.59862884711E+02  0.88317533469E+02  0.00000000000E+00 0.  1.
         11    1    1    2    0    0  0.67136666476E+00 -0.66408570701E+02 -0.13773945219E+02  0.67825294416E+02  0.00000000000E+00 0. -1.
</event>
<event>
 7    1  0.2619826E-009  0.1344282E+03  0.7561462E-02  0.1221029E+00
          3   -1    0    0  501    0  0.00000000000E+00  0.00000000000E+00  0.90043387611E+02  0.90043387611E+02  0.00000000000E+00 0. -1.
         -3   -1    0    0    0  501 -0.00000000000E+00 -0.00000000000E+00 -0.24513752321E+03  0.24513752321E+03  0.00000000000E+00 0.  1.
         25    2    1    2    0    0  0.75986078534E+02  0.27691777060E+02 -0.15434541749E+03  0.21449544853E+03  0.12508025780E+03 0.  0.
          5    1    3    3  502    0 -0.26438996038E+02 -0.22354540941E+02 -0.36044078097E+02  0.50153703533E+02  0.41800000000E+01 0.  1.
         -5    1    3    3    0  502  0.10242507457E+03  0.50046318001E+02 -0.11830133939E+03  0.16434174500E+03  0.41800000000E+01 0.  1.
        -11    1    1    2    0    0  0.12442692146E+02  0.16808603010E+02 -0.53418167586E+01  0.21584363073E+02  0.00000000000E+00 0.  1.
         11    1    1    2    0    0 -0.88428770680E+02 -0.44500380070E+02  0.45930986522E+01  0.99101099215E+02  0.00000000000E+00 0. -1.
</event>
<event>
 7    1  0.2619826E-009  0.1184763E+03  0.7561462E-02  0.1245632E+00
          1   -1    0    0  501    0  0.00000000000E+00  0.00000000000E+00  0.27535536285E+02  0.27535536285E+02  0.00000000000E+00 0. -1.
         -1   -1    0    0    0  501 -0.00000000000E+00 -0.00000000000E+00 -0.54255490635E+03  0.54255490635E+03  0.00000000000E+00 0.  1.
         25    2    1    2    0    0  0.14935116834E+02 -0.50514064498E+02 -0.27459276299E+03  0.30630632968E+03  0.12509058193E+03 0.  0.
          5    1    3    3  502    0 -0.47801045780E+02  0.56201779686E+01 -0.13327699838E+03  0.14176303141E+03  0.41800000000E+01 0. -1.
         -5    1    3    3    0  502  0.62736162613E+02 -0.56134242466E+02 -0.14131576462E+03  0.16454329827E+03  0.41800000000E+01 0. -1.
        -11    1    1    2    0    0  0.38186174762E+02  0.20570007272E+02 -0.13718498041E+03  0.14387851817E+03  0.00000000000E+00 0.  1.
         11    1    1    2    0    0 -0.53121291596E+02  0.29944057226E+02 -0.10324162666E+03  0.11990559478E+03  0.00000000000E+00 0. -1.
</event>
<event>
 7    1  0.2619826E-009  0.6874087E+02  0.7561462E-02  0.1364428E+00
         -2   -1    0    0    0  501 -0.00000000000E+00  0.00000000000E+00  0.21659396344E+02  0.21659396344E+02  0.00000000000E+00 0.  1.
          2   -1    0    0  501    0  0.00000000000E+00 -0.00000000000E+00 -0.65840255069E+03  0.65840255069E+03  0.00000000000E+00 0. -1.
         25    2    1    2    0    0  0.43202986593E+02 -0.62095766711E+01 -0.45082254481E+03  0.46988674916E+03  0.12509010048E+03 0.  0.
          5    1    3    3  502    0  0.58957231841E+02 -0.12273426016E+02 -0.88387097293E+02  0.10703431011E+03  0.41800000000E+01 0.  1.
         -5    1    3    3    0  502 -0.15754245248E+02  0.60638493446E+01 -0.36243544752E+03  0.36285243906E+03  0.41800000000E+01 0.  1.
        -11    1    1    2    0    0 -0.71631434370E+01  0.19917273637E+02 -0.90629767636E+00  0.21185603331E+02  0.00000000000E+00 0.  1.
         11    1    1    2    0    0 -0.36039843156E+02 -0.13707696966E+02 -0.18501431186E+03  0.18898959454E+03  0.00000000000E+00 0. -1.
</event>
<event>
 7    1  0.2619826E-009  0.9794669E+02  0.7561462E-02  0.1284674E+00
         -1   -1    0    0    0  501 -0.00000000000E+00  0.00000000000E+00  0.29791598471E+03  0.29791598471E+03  0.00000000000E+00 0.  1.
          1   -1    0    0  501    0  0.00000000000E+00 -0.00000000000E+00 -0.56153241692E+02  0.56153241692E+02  0.00000000000E+00 0. -1.
         25    2    1    2    0    0  0.19136477260E+02  0.66290458528E+02  0.13147108461E+03  0.19415058953E+03  0.12509666532E+03 0.  0.
          5    1    3    3  502    0  0.22965269364E+02 -0.21600847202E+02 -0.45271499192E+01  0.32124253815E+02  0.41800000000E+01 0.  1.
         -5    1    3    3    0  502 -0.38287921039E+01  0.87891305730E+02  0.13599823453E+03  0.16202633572E+03  0.41800000000E+01 0.  1.
        -11    1    1    2    0    0 -0.78887647208E+00 -0.53832915032E+02  0.12306467067E+03  0.13432616362E+03  0.00000000000E+00 0.  1.
         11    1    1    2    0    0 -0.18347600788E+02 -0.12457543496E+02 -0.12773012258E+02  0.25592473244E+02  0.00000000000E+00 0. -1.
</event>
<event>
 7    1  0.2619826E-009  0.8337910E+02  0.7561462E-02  0.1319727E+00
          1   -1    0    0  501    0  0.00000000000E+00  0.00000000000E+00  0.82175184186E+03  0.82175184186E+03  0.00000000000E+00 0. -1.
         -1   -1    0    0    0  501 -0.00000000000E+00 -0.00000000000E+00 -0.26025470862E+02  0.26025470862E+02  0.00000000000E+00 0.  1.
         25    2    1    2    0    0 -0.49696977824E+02  0.57293701519E+02  0.60981910553E+03  0.62711964196E+03  0.12508935215E+03 0.  0.
          5    1    3    3  502    0 -0.55605260835E+02  0.58871680715E+02  0.18212041358E+03  0.19935680892E+03  0.41800000000E+01 0.  1.
         -5    1    3    3    0  502  0.59082830107E+01 -0.15779791962E+01  0.42769869195E+03  0.42776283303E+03  0.41800000000E+01 0.  1.
        -11    1    1    2    0    0  0.31096215634E+02 -0.48679679124E+02  0.19099356458E+03  0.19953753406E+03  0.00000000000E+00 0. -1.
         11    1    1    2    0    0  0.18600762190E+02 -0.86140223953E+01 -0.50862991130E+01  0.21120136707E+02  0.00000000000E+00 0.  1.
</event>
<event>
 7    1  0.2619826E-009  0.1157922E+03  0.7561462E-02  0.1250205E+00
         -1   -1    0    0    0  501 -0.00000000000E+00  0.00000000000E+00  0.69938459176E+02  0.69938459176E+02  0.00000000000E+00 0.  1.
          1   -1    0    0  501    0  0.00000000000E+00 -0.00000000000E+00 -0.31561889065E+03  0.31561889065E+03  0.00000000000E+00 0. -1.
         25    2    1    2    0    0  0.90286466325E+02  0.34546078795E+02 -0.17936314541E+03  0.23908597548E+03  0.12508352480E+03 0.  0.
          5    1    3    3  502    0  0.43973428252E+02 -0.51879188792E+00  0.61911007288E+01  0.44606430764E+02  0.41800000000E+01 0.  1.
         -5    1    3    3    0  502  0.46313038072E+02  0.35064870682E+02 -0.18555424614E+03  0.19447954472E+03  0.41800000000E+01 0.  1.
        -11    1    1    2    0    0 -0.13727364596E+02  0.27427375252E+02 -0.25356998051E+02  0.39795462080E+02  0.00000000000E+00 0. -1.
         11    1    1    2    0    0 -0.76559101729E+02 -0.61973454046E+02 -0.40960288008E+02  0.10667591227E+03  0.00000000000E+00 0.  1.
</event>
<event>
 7    1  0.2619826E-009  0.9094349E+02  0.7561462E-02  0.1300583E+00
          1   -1    0    0  501    0  0.00000000000E+00  0.00000000000E+00  0.10059255821E+04  0.10059255821E+04  0.00000000000E+00 0. -1.
         -1   -1    0    0    0  501 -0.00000000000E+00 -0.00000000000E+00 -0.19346170752E+02  0.19346170752E+02  0.00000000000E+00 0.  1.
         25    2    1    2    0    0 -0.39608559412E+01  0.55054848900E+02  0.80425341186E+03  0.81579225965E+03  0.12508691239E+03 0.  0.
          5    1    3    3  502    0  0.36436478486E+02  0.72208801630E+02  0.66004638209E+03  0.66499656157E+03  0.41800000000E+01 0. -1.
         -5    1    3    3    0  502 -0.40397334427E+02 -0.17153952730E+02  0.14420702978E+03  0.15079569808E+03  0.41800000000E+01 0. -1.
        -11    1    1    2    0    0  0.58836091978E+01 -0.92298984653E+01 -0.80942996249E+01  0.13613433413E+02  0.00000000000E+00 0.  1.
         11    1    1    2    0    0 -0.19227532566E+01 -0.45824950435E+02  0.19042029910E+03  0.19586605977E+03  0.00000000000E+00 0. -1.
</event>
<event>
 7    1  0.2619826E-009  0.1118004E+03  0.7561462E-02  0.1257272E+00
          3   -1    0    0  501    0  0.00000000000E+00  0.00000000000E+00  0.11540110038E+03  0.11540110038E+03  0.00000000000E+00 0. -1.
         -3   -1    0    0    0  501 -0.00000000000E+00 -0.00000000000E+00 -0.13172520193E+03  0.13172520193E+03  0.00000000000E+00 0.  1.
         25    2    1    2    0    0 -0.44364473065E+02 -0.34103145466E+02 -0.71624678691E+01  0.13722055841E+03  0.12508776801E+03 0.  0.
          5    1    3    3  502    0 -0.70009212683E+02  0.83830446020E+01 -0.36410504520E+02  0.79465480158E+02  0.41800000000E+01 0.  1.
         -5    1    3    3    0  502  0.25644739618E+02 -0.42486190068E+02  0.29248036651E+02  0.57755078257E+02  0.41800000000E+01 0.  1.
        -11    1    1    2    0    0  0.38948809348E+02  0.62835504610E+02 -0.23185421061E+02  0.77478217191E+02  0.00000000000E+00 0.  1.
         11    1    1    2    0    0  0.54156637171E+01 -0.28732359144E+02  0.14023787382E+02  0.32427526702E+02  0.00000000000E+00 0. -1.
</event>
<event>
 7    1  0.2619826E-009  0.2234827E+03  0.7561462E-02  0.1131313E+00
         -2   -1    0    0    0  501 -0.00000000000E+00  0.00000000000E+00  0.16178848817E+03  0.16178848817E+03  0.00000000000E+00 0.  1.
          2   -1    0    0  501    0  0.00000000000E+00 -0.00000000000E+00 -0.73133478694E+03  0.73133478694E+03  0.00000000000E+00 0. -1.
         25    2    1    2    0    0  0.70700219677E+02  0.20391058269E+03 -0.60765625127E+03  0.65686291310E+03  0.12507885557E+03 0.  0.
          5    1    3    3  502    0  0.74436740003E+02  0.10635120667E+03 -0.47285360272E+03  0.49036660717E+03  0.41800000000E+01 0.  1.
         -5    1    3    3    0  502 -0.37365203259E+01  0.97559376019E+02 -0.13480264854E+03  0.16649630593E+03  0.41800000000E+01 0.  1.
        -11    1    1    2    0    0 -0.14668200166E+02 -0.10214878848E+03  0.58034811817E+02  0.11839582115E+03  0.00000000000E+00 0.  1.
         11    1    1    2    0    0 -0.56032019511E+02 -0.10176179421E+03 -0.19924859313E+02  0.11786454085E+03  0.00000000000E+00 0. -1.
</event>
<event>
 7    1  0.2619826E-009  0.1068830E+03  0.7561462E-02  0.1266453E+00
          2   -1    0    0  501    0  0.00000000000E+00  0.00000000000E+00  0.47220919839E+03  0.47220919839E+03  0.00000000000E+00 0. -1.
         -2   -1    0    0    0  501 -0.00000000000E+00 -0.00000000000E+00 -0.38527296471E+02  0.38527296471E+02  0.00000000000E+00 0.  1.
         25    2    1    2    0    0 -0.53082855896E+02  0.55746478810E+02  0.21243620394E+03  0.25826447000E+03  0.12508371688E+03 0.  0.
          5    1    3    3  502    0  0.13863291304E+02 -0.12442346922E+02 -0.58285461284E+01  0.19961142069E+02  0.41800000000E+01 0.  1.
         -5    1    3    3    0  502 -0.66946147200E+02  0.68188825732E+02  0.21826475007E+03  0.23830332793E+03  0.41800000000E+01 0.  1.
        -11    1    1    2    0    0 -0.95876137168E+01 -0.29607870839E+02  0.15324641728E+03  0.15637459116E+03  0.00000000000E+00 0. -1.
         11    1    1    2    0    0  0.62670469613E+02 -0.26138607971E+02  0.67999280699E+02  0.96097433700E+02  0.00000000000E+00 0.  1.
</event>
<event>
 7    1  0.2619826E-009  0.9460215E+02  0.7561462E-02  0.1292075E+00
         -2   -1    0    0    0  501 -0.00000000000E+00  0.00000000000E+00  0.34477987313E+02  0.34477987313E+02  0.00000000000E+00 0.  1.
          2   -1    0    0  501    0  0.00000000000E+00 -0.00000000000E+00 -0.34368453282E+03  0.34368453282E+03  0.00000000000E+00 0. -1.
         25    2    1    2    0    0 -0.80227820983E+01 -0.85609065440E+01 -0.19866144546E+03  0.23504895976E+03  0.12507593461E+03 0.  0.
          5    1    3    3  502    0 -0.45568593025E+02  0.37445365454E+02 -0.13762684901E+03  0.14979076752E+03  0.41800000000E+01 0. -1.
         -5    1    3    3    0  502  0.37545810926E+02 -0.46006271998E+02 -0.61034596448E+02  0.85258192245E+02  0.41800000000E+01 0. -1.
        -11    1    1    2    0    0 -0.32195769112E+01  0.38464959621E+02 -0.13414709782E+02  0.40864082428E+02  0.00000000000E+00 0.  1.
         11    1    1    2    0    0  0.11242359010E+02 -0.29904053077E+02 -0.97130390262E+02  0.10224947794E+03  0.00000000000E+00 0. -1.
</event>
<event>
 7    1  0.2619826E-009  0.1362456E+03  0.7561462E-02  0.1218472E+00
          4   -1    0    0  501    0  0.00000000000E+00  0.00000000000E+00  0.20214757492E+03  0.20214757492E+03  0.00000000000E+00 0.  1.
         -4   -1    0    0    0  501 -0.00000000000E+00 -0.00000000000E+00 -0.12534727724E+03  0.12534727724E+03  0.00000000000E+00 0. -1.
         25    2    1    2    0    0  0.11222887926E+03  0.21778266695E+02  0.36525687628E+02  0.17334674866E+03  0.12508139420E+03 0.  0.
          5    1    3    3  502    0 -0.27087161930E+01 -0.29944825817E+02 -0.18723826446E+02  0.35666283986E+02  0.41800000000E+01 0.  1.
         -5    1    3    3    0  502  0.11493759545E+03  0.51723092511E+02  0.55249514074E+02  0.13768046467E+03  0.41800000000E+01 0.  1.
        -11    1    1    2    0    0 -0.37053399831E+02  0.22016326037E+01 -0.30583318687E+02  0.48095124566E+02  0.00000000000E+00 0. -1.
         11    1    1    2    0    0 -0.75175479428E+02 -0.23979899298E+02  0.70857928737E+02  0.10605297894E+03  0.00000000000E+00 0.  1.
</event>
<event>
 7    1  0.2619826E-009  0.1449420E+03  0.7561462E-02  0.1206830E+00
          1   -1    0    0  501    0  0.00000000000E+00  0.00000000000E+00  0.69825046675E+03  0.69825046675E+03  0.00000000000E+00 0. -1.
         -1   -1    0    0    0  501 -0.00000000000E+00 -0.00000000000E+00 -0.37204642193E+02  0.37204642193E+02  0.00000000000E+00 0.  1.
         25    2    1    2    0    0  0.11413685842E+03 -0.35409127669E+02  0.35358555290E+03  0.39363880083E+03  0.12509090104E+03 0.  0.
          5    1    3    3  502    0  0.11338599536E+03 -0.55071843170E+02  0.18526369700E+03  0.22411916848E+03  0.41800000000E+01 0.  1.
         -5    1    3    3    0  502  0.75086305629E+00  0.19662715501E+02  0.16832185591E+03  0.16951963235E+03  0.41800000000E+01 0.  1.
        -11    1    1    2    0    0 -0.93921176303E+02  0.60275419429E+02  0.19287706417E+03  0.22283598325E+03  0.00000000000E+00 0.  1.
         11    1    1    2    0    0 -0.20215682116E+02 -0.24866291760E+02  0.11458320748E+03  0.11898032487E+03  0.00000000000E+00 0. -1.
</event>
<event>
 7    1  0.2619826E-009  0.1410980E+03  0.7561462E-02  0.1211859E+00
          1   -1    0    0  501    0  0.00000000000E+00  0.00000000000E+00  0.10382053699E+03  0.10382053699E+03  0.00000000000E+00 0.  1.
         -1   -1    0    0    0  501 -0.00000000000E+00 -0.00000000000E+00 -0.21285327971E+03  0.21285327971E+03  0.00000000000E+00 0. -1.
         25    2    1    2    0    0 -0.92848944378E+02 -0.43064810423E+02 -0.55476812665E+02  0.17089733475E+03  0.12511082252E+03 0.  0.
          5    1    3    3  502    0  0.28789437883E+02 -0.25148460474E+02 -0.99422581519E+01  0.39718984063E+02  0.41800000000E+01 0.  1.
         -5    1    3    3    0  502 -0.12163838226E+03 -0.17916349949E+02 -0.45534554513E+02  0.13117835069E+03  0.41800000000E+01 0.  1.
        -11    1    1    2    0    0  0.97658272418E+02  0.23328693556E+02 -0.67634494019E+02  0.12106110398E+03  0.00000000000E+00 0.  1.
         11    1    1    2    0    0 -0.48093280403E+01  0.19736116866E+02  0.14078563957E+02  0.24715377971E+02  0.00000000000E+00 0. -1.
</event>
<event>
 7    1  0.2619826E-009  0.1109683E+03  0.7561462E-02  0.1258787E+00
         -2   -1    0    0    0  501 -0.00000000000E+00  0.00000000000E+00  0.27046819372E+03  0.27046819372E+03  0.00000000000E+00 0. -1.
          2   -1    0    0  501    0  0.00000000000E+00 -0.00000000000E+00 -0.78027983351E+02  0.78027983351E+02  0.00000000000E+00 0.  1.
         25    2    1    2    0    0 -0.71271746404E+02 -0.20155078007E+02  0.17993226044E+03  0.23132005986E+03  0.12508981869E+03 0.  0.
          5    1    3    3  502    0 -0.10198268888E+03 -0.21198922285E+01  0.96380555249E+02  0.14039817165E+03  0.41800000000E+01 0.  1.
         -5    1    3    3    0  502  0.30710942472E+02 -0.18035185779E+02  0.83551705194E+02  0.90921888203E+02  0.41800000000E+01 0.  1.
        -11    1    1    2    0    0  0.45724674617E+02  0.32017531818E+02  0.46768981323E+02  0.72823113272E+02  0.00000000000E+00 0.  1.
         11    1    1    2    0    0  0.25547071787E+02 -0.11862453810E+02 -0.34261031391E+02  0.44353003948E+02  0.00000000000E+00 0. -1.
</event>
<event>
 7    1  0.2619826E-009  0.2062882E+03  0.7561462E-02  0.1144540E+00
          3   -1    0    0  501    0  0.00000000000E+00  0.00000000000E+00  0.15479101371E+03  0.15479101371E+03  0.00000000000E+00 0. -1.
         -3   -1    0    0    0  501 -0.00000000000E+00 -0.00000000000E+00 -0.32660980111E+03  0.32660980111E+03  0.00000000000E+00 0.  1.
         25    2    1    2    0    0 -0.19021344115E+03  0.47853451368E+02 -0.10392497839E+03  0.25479089222E+03  0.12508753585E+03 0.  0.
          5    1    3    3  502    0 -0.60962353985E+02  0.13552137211E+02 -0.10355399873E+03  0.12099988463E+03  0.41800000000E+01 0. -1.
         -5    1    3    3    0  502 -0.12925108717E+03  0.34301314157E+02 -0.37097965124E+00  0.13379100759E+03  0.41800000000E+01 0. -1.
        -11    1    1    2    0    0  0.17690834565E+03 -0.70086288143E+02 -0.59282723619E+02  0.19930652740E+03  0.00000000000E+00 0. -1.
         11    1    1    2    0    0  0.13305095509E+02  0.22232836775E+02 -0.86110853944E+01  0.27303395196E+02  0.00000000000E+00 0.  1.
</event>
<event>
 7    1  0.2619826E-009  0.1124822E+03  0.7561462E-02  0.1256041E+00
          4   -1    0    0  501    0  0.00000000000E+00  0.00000000000E+00  0.12360005980E+03  0.12360005980E+03  0.00000000000E+00 0. -1.
         -4   -1    0    0    0  501 -0.00000000000E+00 -0.00000000000E+00 -0.19927868093E+03  0.19927868093E+03  0.00000000000E+00 0.  1.
         25    2    1    2    0    0  0.24753931734E+02  0.81329769198E+02  0.35403300261E+02  0.15533362507E+03  0.12509137825E+03 0.  0.
          5    1    3    3  502    0  0.92846266408E+01 -0.25798041433E+02 -0.19490770750E+02  0.33898462769E+02  0.41800000000E+01 0. -1.
         -5    1    3    3    0  502  0.15469305093E+02  0.10712781063E+03  0.54894071012E+02  0.12143516230E+03  0.41800000000E+01 0. -1.
        -11    1    1    2    0    0 -0.83050406503E+00 -0.47328995427E+02 -0.11637675144E+03  0.12563547198E+03  0.00000000000E+00 0.  1.
         11    1    1    2    0    0 -0.23923427669E+02 -0.34000773771E+02  0.52948300495E+01  0.41909643684E+02  0.00000000000E+00 0. -1.
</event>
<event>
 7    1  0.2619826E-009  0.1135959E+03  0.7561462E-02  0.1254052E+00
          2   -1    0    0  501    0  0.00000000000E+00  0.00000000000E+00  0.48423150898E+03  0.48423150898E+03  0.00000000000E+00 0. -1.
         -2   -1    0    0    0  501 -0.00000000000E+00 -0.00000000000E+00 -0.35169472320E+02  0.35169472320E+02  0.00000000000E+00 0.  1.
         25    2    1    2    0    0 -0.30840977354E+02 -0.41297131613E+02  0.35133666058E+03  0.37648514440E+03  0.12508795276E+03 0.  0.
          5    1    3    3  502    0  0.18541300750E+01  0.43518316669E+02  0.98863376728E+02  0.10811439008E+03  0.41800000000E+01 0. -1.
         -5    1    3    3    0  502 -0.32695107429E+02 -0.84815448283E+02  0.25247328385E+03  0.26837075432E+03  0.41800000000E+01 0. -1.
        -11    1    1    2    0    0 -0.25926548908E+02  0.12387667190E+02  0.31779673876E+01  0.28909163139E+02  0.00000000000E+00 0.  1.
         11    1    1    2    0    0  0.56767526262E+02  0.28909464423E+02  0.94547408695E+02  0.11400667376E+03  0.00000000000E+00 0. -1.
</event>
<event>
 7    1  0.2619826E-009  0.8974171E+02  0.7561462E-02  0.1303478E+00
         -2   -1    0    0    0  501 -0.00000000000E+00  0.00000000000E+00  0.11878653920E+02  0.11878653920E+02  0.00000000000E+00 0.  1.
          2   -1    0    0  501    0  0.00000000000E+00 -0.00000000000E+00 -0.12884303072E+04  0.12884303072E+04  0.00000000000E+00 0. -1.
         25    2    1    2    0    0 -0.29871803647E+02 -0.24364567684E+02 -0.94284076304E+03  0.95188343490E+03  0.12508961731E+03 0.  0.
          5    1    3    3  502    0  0.28995035632E+02  0.95768566121E+01 -0.71154078331E+02  0.77542269356E+02  0.41800000000E+01 0.  1.
         -5    1    3    3    0  502 -0.58866839279E+02 -0.33941424296E+02 -0.87168668471E+03  0.87434116554E+03  0.41800000000E+01 0.  1.
        -11    1    1    2    0    0 -0.23460716781E+02  0.66247817140E+01 -0.26069262453E+02  0.35691727466E+02  0.00000000000E+00 0.  1.
         11    1    1    2    0    0  0.53332520428E+02  0.17739785970E+02 -0.30764162778E+03  0.31273379875E+03  0.00000000000E+00 0. -1.
</event>
<event>
 7    1  0.2619826E-009  0.1537598E+03  0.7561462E-02  0.1195928E+00
         -2   -1    0    0    0  501 -0.00000000000E+00  0.00000000000E+00  0.15041561584E+03  0.15041561584E+03  0.00000000000E+00 0.  1.
          2   -1    0    0  501    0  0.00000000000E+00 -0.00000000000E+00 -0.22831540886E+03  0.22831540886E+03  0.00000000000E+00 0. -1.
         25    2    1    2    0    0 -0.11997417361E+03 -0.77397366417E+02 -0.47708524619E+02  0.19572352728E+03  0.12508973239E+03 0.  0.
          5    1    3    3  502    0 -0.11697154543E+03 -0.39650646451E+02  0.12779115266E+02  0.12423886023E+03  0.41800000000E+01 0.  1.
         -5    1    3    3    0  502 -0.30026281745E+01 -0.37746719966E+02 -0.60487639885E+02  0.71484667048E+02  0.41800000000E+01 0.  1.
        -11    1    1    2    0    0  0.52105703186E+02  0.16490555251E+02  0.40169825481E+02  0.67827410360E+02  0.00000000000E+00 0.  1.
         11    1    1    2    0    0  0.67868470423E+02  0.60906811166E+02 -0.70361093884E+02  0.11518008707E+03  0.00000000000E+00 0. -1.
</event>
<event>
 7    1  0.2619826E-009  0.1409296E+03  0.7561462E-02  0.1212084E+00
         -1   -1    0    0    0  501 -0.00000000000E+00  0.00000000000E+00  0.65150177941E+03  0.65150177941E+03  0.00000000000E+00 0.  1.
          1   -1    0    0  501    0  0.00000000000E+00 -0.00000000000E+00 -0.40520065752E+02  0.40520065752E+02  0.00000000000E+00 0. -1.
         25    2    1    2    0    0 -0.74973722461E+02 -0.90260490110E+02  0.38808103596E+03  0.42429034414E+03  0.12508953005E+03 0.  0.
          5    1    3    3  502    0  0.19007194117E+02 -0.63383496163E+02  0.99435141579E+02  0.11951385189E+03  0.41800000000E+01 0.  1.
         -5    1    3    3    0  502 -0.93980916577E+02 -0.26876993947E+02  0.28864589438E+03  0.30477649225E+03  0.41800000000E+01 0.  1.
        -11    1    1    2    0    0  0.33112587477E+02  0.47259686993E+02  0.19149094980E+03  0.19999676327E+03  0.00000000000E+00 0.  1.
         11    1    1    2    0    0  0.41861134984E+02  0.43000803117E+02  0.31409727896E+02  0.67734737745E+02  0.00000000000E+00 0. -1.
</event>
<event>
 7    1  0.2619826E-009  0.9076051E+02  0.7561462E-02  0.1301020E+00
         -1   -1    0    0    0  501 -0.00000000000E+00  0.00000000000E+00  0.11854806423E+03  0.11854806423E+03  0.00000000000E+00 0.  1.
          1   -1    0    0  501    0  0.00000000000E+00 -0.00000000000E+00 -0.11601392008E+03  0.11601392008E+03  0.00000000000E+00 0. -1.
         25    2    1    2    0    0  0.47574374837E+02 -0.74221674040E+01 -0.56445364418E+01  0.13415561696E+03  0.12508980398E+03 0.  0.
          5    1    3    3  502    0 -0.18503586725E+02  0.17693597341E+02 -0.45882799058E+02  0.52708156465E+02  0.41800000000E+01 0.  1.
         -5    1    3    3    0  502  0.66077961562E+02 -0.25115764745E+02  0.40238262616E+02  0.81447460496E+02  0.41800000000E+01 0.  1.
        -11    1    1    2    0    0 -0.43884869140E+02 -0.26088320018E+02  0.30969474118E+02  0.59712565746E+02  0.00000000000E+00 0.  1.
         11    1    1    2    0    0 -0.36895056972E+01  0.33510487422E+02 -0.22790793524E+02  0.40693801604E+02  0.00000000000E+00 0. -1.
</event>
<event>
 7    1  0.2619826E-009  0.1378207E+03  0.7561462E-02  0.1216292E+00
         -3   -1    0    0    0  501 -0.00000000000E+00  0.00000000000E+00  0.28295886517E+03  0.28295886517E+03  0.00000000000E+00 0.  1.
          3   -1    0    0  501    0  0.00000000000E+00 -0.00000000000E+00 -0.89661693425E+02  0.89661693425E+02  0.00000000000E+00 0. -1.
         25    2    1    2    0    0  0.17424172796E+02  0.10744139150E+03  0.70648733200E+02  0.18024385219E+03  0.12509735547E+03 0.  0.
          5    1    3    3  502    0  0.17361275212E+02  0.12898231453E+03  0.29352542367E+02  0.13347994412E+03  0.41800000000E+01 0. -1.
         -5    1    3    3    0  502  0.62897584673E-01 -0.21540923028E+02  0.41296190832E+02  0.46763908073E+02  0.41800000000E+01 0. -1.
        -11    1    1    2    0    0 -0.38169774602E+02 -0.53734405654E+02  0.11730601839E+03  0.13455489584E+03  0.00000000000E+00 0.  1.
         11    1    1    2    0    0  0.20745601806E+02 -0.53706985847E+02  0.53424201501E+01  0.57821810557E+02  0.00000000000E+00 0. -1.
</event>
<event>
 7    1  0.2619826E-009  0.1235837E+03  0.7561462E-02  0.1237299E+00
         -2   -1    0    0    0  501 -0.00000000000E+00  0.00000000000E+00  0.26200303804E+02  0.26200303804E+02  0.00000000000E+00 0.  1.
          2   -1    0    0  501    0  0.00000000000E+00 -0.00000000000E+00 -0.12192042696E+04  0.12192042696E+04  0.00000000000E+00 0. -1.
         25    2    1    2    0    0  0.91460642428E+02  0.60910595035E+02 -0.93524601525E+03  0.94995198059E+03  0.12509399144E+03 0.  0.
          5    1    3    3  502    0  0.36993568410E+02  0.49517656577E+02 -0.81541451977E+03  0.81776453449E+03  0.41800000000E+01 0.  1.
         -5    1    3    3    0  502  0.54467074018E+02  0.11392938458E+02 -0.11983149547E+03  0.13218744610E+03  0.41800000000E+01 0.  1.
        -11    1    1    2    0    0 -0.25917338288E+02  0.14340428679E+02 -0.15467082287E+02  0.33415370013E+02  0.00000000000E+00 0.  1.
         11    1    1    2    0    0 -0.65543304139E+02 -0.75251023715E+02 -0.24229086822E+03  0.26203722276E+03  0.00000000000E+00 0. -1.
</event>
<event>
 7    1  0.2619826E-009  0.1256376E+03  0.7561462E-02  0.1234076E+00
         -1   -1    0    0    0  501 -0.00000000000E+00  0.00000000000E+00  0.52022248330E+02  0.52022248330E+02  0.00000000000E+00 0.  1.
          1   -1    0    0  501    0  0.00000000000E+00 -0.00000000000E+00 -0.35399348529E+03  0.35399348529E+03  0.00000000000E+00 0. -1.
         25    2    1    2    0    0  0.22887393022E+02 -0.79164578399E+02 -0.16986237921E+03  0.22647607191E+03  0.12508924831E+03 0.  0.
          5    1    3    3  502    0  0.41710293374E+02  0.10242047445E+02 -0.10733204661E+03  0.11568184274E+03  0.41800000000E+01 0. -1.
         -5    1    3    3    0  502 -0.18822900352E+02 -0.89406625844E+02 -0.62530332601E+02  0.11079422917E+03  0.41800000000E+01 0. -1.
        -11    1    1    2    0    0  0.31197335228E+02  0.34536059694E+02 -0.28964457356E+02  0.54817451003E+02  0.00000000000E+00 0. -1.
         11    1    1    2    0    0 -0.54084728251E+02  0.44628518705E+02 -0.10314440039E+03  0.12472221070E+03  0.00000000000E+00 0.  1.
</event>
<event>
 7    1  0.2619826E-009  0.1114955E+03  0.7561462E-02  0.1257825E+00
         -2   -1    0    0    0  501 -0.00000000000E+00  0.00000000000E+00  0.49264671072E+02  0.49264671072E+02  0.00000000000E+00 0.  1.
          2   -1    0    0  501    0  0.00000000000E+00 -0.00000000000E+00 -0.47643354090E+03  0.47643354090E+03  0.00000000000E+00 0. -1.
         25    2    1    2    0    0 -0.45806215313E+02  0.71932232527E+02 -0.34945754671E+03  0.38084225038E+03  0.12509111591E+03 0.  0.
          5    1    3    3  502    0 -0.60340729172E+02  0.68621712911E+02 -0.12012724129E+03  0.15098996516E+03  0.41800000000E+01 0.  1.
         -5    1    3    3    0  502  0.14534513859E+02  0.33105196163E+01 -0.22933030542E+03  0.22985228521E+03  0.41800000000E+01 0.  1.
        -11    1    1    2    0    0  0.48789689953E+02 -0.50091954199E+01 -0.10896660064E+02  0.50242044992E+02  0.00000000000E+00 0.  1.
         11    1    1    2    0    0 -0.29834746403E+01 -0.66923037107E+02 -0.66814663056E+02  0.94613916608E+02  0.00000000000E+00 0. -1.
</event>
<event>
 7    1  0.2619826E-009  0.2447889E+03  0.7561462E-02  0.1116643E+00
          4   -1    0    0  501    0  0.00000000000E+00  0.00000000000E+00  0.21280119621E+03  0.21280119621E+03  0.00000000000E+00 0. -1.
         -4   -1    0    0    0  501 -0.00000000000E+00 -0.00000000000E+00 -0.31923759842E+03  0.31923759842E+03  0.00000000000E+00 0.  1.
         25    2    1    2    0    0 -0.10150027649E+03  0.21203755216E+03 -0.83431490266E+02  0.27905451245E+03  0.12509347584E+03 0.  0.
          5    1    3    3  502    0 -0.55536761973E+02  0.25217979029E+02 -0.59193901224E+02  0.85097994917E+02  0.41800000000E+01 0.  1.
         -5    1    3    3    0  502 -0.45963514520E+02  0.18681957313E+03 -0.24237589042E+02  0.19395651753E+03  0.41800000000E+01 0.  1.
        -11    1    1    2    0    0  0.55559522832E+01 -0.27065377271E+02 -0.34610715197E+02  0.44286621671E+02  0.00000000000E+00 0.  1.
         11    1    1    2    0    0  0.95944324210E+02 -0.18497217489E+03  0.11605803249E+02  0.20869766050E+03  0.00000000000E+00 0. -1.
</event>
<event>
 7    1  0.2619826E-009  0.1953117E+03  0.7561462E-02  0.1153756E+00
          1   -1    0    0  501    0  0.00000000000E+00  0.00000000000E+00  0.19281007362E+03  0.19281007362E+03  0.00000000000E+00 0. -1.
         -1   -1    0    0    0  501 -0.00000000000E+00 -0.00000000000E+00 -0.22494827117E+03  0.22494827117E+03  0.00000000000E+00 0.  1.
         25    2    1    2    0    0  0.12985522359E+03  0.12628151166E+03 -0.74704555936E+01  0.22023906118E+03  0.12506013386E+03 0.  0.
          5    1    3    3  502    0  0.16676843418E+02  0.69098954028E+02  0.43577181504E+02  0.83481888467E+02  0.41800000000E+01 0. -1.
         -5    1    3    3    0  502  0.11317838017E+03  0.57182557636E+02 -0.51047637098E+02  0.13675717271E+03  0.41800000000E+01 0. -1.
        -11    1    1    2    0    0 -0.60237840014E+02 -0.16338833253E+02 -0.25404700611E+02  0.67386598480E+02  0.00000000000E+00 0.  1.
         11    1    1    2    0    0 -0.69617383573E+02 -0.10994267841E+03  0.73695864833E+00  0.13013268513E+03  0.00000000000E+00 0. -1.
</event>
<event>
 7    1  0.2619826E-009  0.1293323E+03  0.7561462E-02  0.1228450E+00
         -1   -1    0    0    0  501 -0.00000000000E+00  0.00000000000E+00  0.47831125129E+03  0.47831125129E+03  0.00000000000E+00 0.  1.
          1   -1    0    0  501    0  0.00000000000E+00 -0.00000000000E+00 -0.62110653067E+02  0.62110653067E+02  0.00000000000E+00 0. -1.
         25    2    1    2    0    0 -0.25306050841E+02  0.57662585363E+02  0.39861638050E+02  0.14560929308E+03  0.12509095125E+03 0.  0.
          5    1    3    3  502    0 -0.70529727965E+02  0.61608182641E+02  0.19836109216E+02  0.95817296580E+02  0.41800000000E+01 0. -1.
         -5    1    3    3    0  502  0.45223677124E+02 -0.39455972782E+01  0.20025528834E+02  0.49791996501E+02  0.41800000000E+01 0. -1.
        -11    1    1    2    0    0 -0.38964089843E+02 -0.30842693791E+02  0.15306480461E+03  0.16092950776E+03  0.00000000000E+00 0.  1.
         11    1    1    2    0    0  0.64270140683E+02 -0.26819891572E+02  0.22327415556E+03  0.23388310351E+03  0.00000000000E+00 0. -1.
</event>
<event>
 7    1  0.2619826E-009  0.1603545E+03  0.7561462E-02  0.1188297E+00
          1   -1    0    0  501    0  0.00000000000E+00  0.00000000000E+00  0.59298870239E+03  0.59298870239E+03  0.00000000000E+00 0. -1.
         -1   -1    0    0    0  501 -0.00000000000E+00 -0.00000000000E+00 -0.59692308201E+02  0.59692308201E+02  0.00000000000E+00 0.  1.
         25    2    1    2    0    0  0.14856753251E+03 -0.22854892947E+02  0.23409297205E+03  0.30502758858E+03  0.12509057673E+03 0.  0.
          5    1    3    3  502    0  0.89014442986E+02 -0.91302901449E+01  0.22616580776E+03  0.24325989859E+03  0.41800000000E+01 0. -1.
         -5    1    3    3    0  502  0.59553089523E+02 -0.13724602802E+02  0.79271642838E+01  0.61767689996E+02  0.41800000000E+01 0. -1.
        -11    1    1    2    0    0 -0.37235965642E+02 -0.28865647892E+02  0.13250208012E+03  0.14062910084E+03  0.00000000000E+00 0. -1.
         11    1    1    2    0    0 -0.11133156687E+03  0.51720540839E+02  0.16670134202E+03  0.20702432117E+03  0.00000000000E+00 0.  1.
</event>
<event>
 7    1  0.2619826E-009  0.3737768E+03  0.7561462E-02  0.1053258E+00
          3   -1    0    0  501    0  0.00000000000E+00  0.00000000000E+00  0.16573248295E+04  0.16573248295E+04  0.00000000000E+00 0. -1.
         -3   -1    0    0    0  501 -0.00000000000E+00 -0.00000000000E+00 -0.96277701600E+02  0.96277701600E+02  0.00000000000E+00 0.  1.
         25    2    1    2    0    0 -0.33791800710E+03 -0.11785080162E+03  0.10979794260E+04  0.11615851959E+04  0.12507580256E+03 0.  0.
          5    1    3    3  502    0 -0.31020365801E+03 -0.61645840608E+02  0.91778327683E+03  0.97075750563E+03  0.41800000000E+01 0. -1.
         -5    1    3    3    0  502 -0.27714349087E+02 -0.56204961010E+02  0.18019614919E+03  0.19082769026E+03  0.41800000000E+01 0. -1.
        -11    1    1    2    0    0  0.13729038730E+02 -0.12946243993E+02  0.30294211387E+02  0.35690768856E+02  0.00000000000E+00 0.  1.
         11    1    1    2    0    0  0.32418896837E+03  0.13079704561E+03  0.43277349048E+03  0.55632656634E+03  0.00000000000E+00 0. -1.
</event>
<event>
 7    1  0.2619826E-009  0.1299076E+03  0.7561462E-02  0.1227593E+00
         -1   -1    0    0    0  501 -0.00000000000E+00  0.00000000000E+00  0.13616575113E+03  0.13616575113E+03  0.00000000000E+00 0.  1.
          1   -1    0    0  501    0  0.00000000000E+00 -0.00000000000E+00 -0.22779277059E+03  0.22779277059E+03  0.00000000000E+00 0. -1.
         25    2    1    2    0    0  0.76119122867E+02  0.11859791659E+02  0.69755296947E+02  0.16262841296E+03  0.12508966274E+03 0.  0.
          5    1    3    3  502    0 -0.17650150246E+02  0.42823891123E+02  0.33643744681E+02  0.57400238770E+02  0.41800000000E+01 0.  1.
         -5    1    3    3    0  502  0.93769273114E+02 -0.30964099464E+02  0.36111552266E+02  0.10522817419E+03  0.41800000000E+01 0.  1.
        -11    1    1    2    0    0 -0.14828940380E+02 -0.43170132631E+02 -0.35363658334E+02  0.57742065731E+02  0.00000000000E+00 0. -1.
         11    1    1    2    0    0 -0.61290182487E+02  0.31310340972E+02 -0.12601865807E+03  0.14358804304E+03  0.00000000000E+00 0.  1.
</event>
<event>
 7    1  0.2619826E-009  0.1058898E+03  0.7561462E-02  0.1268376E+00
         -2   -1    0    0    0  501 -0.00000000000E+00  0.00000000000E+00  0.10336620727E+02  0.10336620727E+02  0.00000000000E+00 0.  1.
          2   -1    0    0  501    0  0.00000000000E+00 -0.00000000000E+00 -0.15959294439E+04  0.15959294439E+04  0.00000000000E+00 0. -1.
         25    2    1    2    0    0  0.27086952144E+02  0.29917640616E+02 -0.12666139762E+04  0.12734154677E+04  0.12508885028E+03 0.  0.
          5    1    3    3  502    0  0.31418308862E+02  0.69961971083E+02 -0.51337285280E+03  0.51908664587E+03  0.41800000000E+01 0. -1.
         -5    1    3    3    0  502 -0.43313567170E+01 -0.40044330467E+02 -0.75324112342E+03  0.75432882184E+03  0.41800000000E+01 0. -1.
        -11    1    1    2    0    0 -0.48160142417E+02  0.10140201523E+02 -0.14726181915E+03  0.15526836891E+03  0.00000000000E+00 0.  1.
         11    1    1    2    0    0  0.21073190272E+02 -0.40057842139E+02 -0.17171702781E+03  0.17758222801E+03  0.00000000000E+00 0. -1.
</event>
<event>
 7    1  0.2619826E-009  0.1120802E+03  0.7561462E-02  0.1256766E+00
         -1   -1    0    0    0  501 -0.00000000000E+00  0.00000000000E+00  0.48047312454E+02  0.48047312454E+02  0.00000000000E+00 0.  1.
          1   -1    0    0  501    0  0.00000000000E+00 -0.00000000000E+00 -0.30974605147E+03  0.30974605147E+03  0.00000000000E+00 0. -1.
         25    2    1    2    0    0  0.25866034911E+02  0.49820645246E+02 -0.92449779792E+02  0.16536450926E+03  0.12508921090E+03 0.  0.
          5    1    3    3  502    0 -0.48767903634E+02  0.12194686294E+02 -0.18632453545E+02  0.53774152934E+02  0.41800000000E+01 0.  1.
         -5    1    3    3    0  502  0.74633938545E+02  0.37625958952E+02 -0.73817326248E+02  0.11159035632E+03  0.41800000000E+01 0.  1.
        -11    1    1    2    0    0  0.22131055969E+02 -0.31841262640E+02 -0.55926201175E+02  0.68054313770E+02  0.00000000000E+00 0. -1.
         11    1    1    2    0    0 -0.47997090880E+02 -0.17979382605E+02 -0.11332275805E+03  0.12437454090E+03  0.00000000000E+00 0.  1.
</event>
<event>
 7    1  0.2619826E-009  0.1120271E+03  0.7561462E-02  0.1256861E+00
         -2   -1    0    0    0  501 -0.00000000000E+00  0.00000000000E+00  0.27995368727E+03  0.27995368727E+03  0.00000000000E+00 0.  1.
          2   -1    0    0  501    0  0.00000000000E+00 -0.00000000000E+00 -0.51831835860E+02  0.51831835860E+02  0.00000000000E+00 0. -1.
         25    2    1    2    0    0 -0.63874599212E+01  0.49495235924E+02  0.15775677192E+03  0.20742532052E+03  0.12508991359E+03 0.  0.
          5    1    3    3  502    0 -0.45959149583E+02 -0.23105030659E+02  0.67132793667E+02  0.84678038816E+02  0.41800000000E+01 0.  1.
         -5    1    3    3    0  502  0.39571689662E+02  0.72600266584E+02  0.90623978251E+02  0.12274728170E+03  0.41800000000E+01 0.  1.
        -11    1    1    2    0    0  0.32846043258E+02 -0.53615863840E+02  0.74256552227E+02  0.97301382116E+02  0.00000000000E+00 0.  1.
         11    1    1    2    0    0 -0.26458583337E+02  0.41206279156E+01 -0.38914727357E+01  0.27058820497E+02  0.00000000000E+00 0. -1.
</event>
<event>
 7    1  0.2619826E-009  0.9332324E+02  0.7561462E-02  0.1294998E+00
         -1   -1    0    0    0  501 -0.00000000000E+00  0.00000000000E+00  0.10663625322E+03  0.10663625322E+03  0.00000000000E+00 0.  1.
          1   -1    0    0  501    0  0.00000000000E+00 -0.00000000000E+00 -0.19590758294E+03  0.19590758294E+03  0.00000000000E+00 0. -1.
         25    2    1    2    0    0 -0.38560642136E+02 -0.67552382865E+02  0.11127875120E+02  0.14774497142E+03  0.12511794205E+03 0.  0.
          5    1    3    3  502    0 -0.52334162872E+02 -0.19296906006E+02 -0.45399795352E+02  0.72040606626E+02  0.41800000000E+01 0. -1.
         -5    1    3    3    0  502  0.13773520736E+02 -0.48255476859E+02  0.56527670472E+02  0.75704364798E+02  0.41800000000E+01 0. -1.
        -11    1    1    2    0    0  0.33030968436E+02  0.38261435368E+02 -0.11194877918E+03  0.12283123166E+03  0.00000000000E+00 0. -1.
         11    1    1    2    0    0  0.55296736998E+01  0.29290947497E+02  0.11549574337E+02  0.31967633066E+02  0.00000000000E+00 0.  1.
</event>
<event>
 7    1  0.2619826E-009  0.1038098E+03  0.7561462E-02  0.1272483E+00
         -2   -1    0    0    0  501 -0.00000000000E+00  0.00000000000E+00  0.13247441879E+02  0.13247441879E+02  0.00000000000E+00 0.  1.
          2   -1    0    0  501    0  0.00000000000E+00 -0.00000000000E+00 -0.13615645280E+04  0.13615645280E+04  0.00000000000E+00 0. -1.
         25    2    1    2    0    0  0.33254159224E+01  0.17484894746E+01 -0.11503085791E+04  0.11570960481E+04  0.12508925489E+03 0.  0.
          5    1    3    3  502    0  0.55164680303E+02  0.31284090501E+02 -0.49491326704E+03  0.49897740486E+03  0.41800000000E+01 0.  1.
         -5    1    3    3    0  502 -0.51839264381E+02 -0.29535601026E+02 -0.65539531211E+03  0.65811864325E+03  0.41800000000E+01 0.  1.
        -11    1    1    2    0    0  0.12377832948E+02 -0.40549507587E+02 -0.13933002315E+03  0.14563766224E+03  0.00000000000E+00 0. -1.
         11    1    1    2    0    0 -0.15703248870E+02  0.38801018112E+02 -0.58678483831E+02  0.72078259526E+02  0.00000000000E+00 0.  1.
</event>
<event>
 7    1  0.2619826E-009  0.2733538E+03  0.7561462E-02  0.1099375E+00
          2   -1    0    0  501    0  0.00000000000E+00  0.00000000000E+00  0.13104655199E+03  0.13104655199E+03  0.00000000000E+00 0. -1.
         -2   -1    0    0    0  501 -0.00000000000E+00 -0.00000000000E+00 -0.63828605950E+03  0.63828605950E+03  0.00000000000E+00 0.  1.
         25    2    1    2    0    0 -0.19928266406E+03  0.16518526443E+03 -0.16819799985E+03  0.33307383235E+03  0.12509140204E+03 0.  0.
          5    1    3    3  502    0 -0.92166419818E+02  0.23714267940E+02 -0.11169453134E+03  0.14679971450E+03  0.41800000000E+01 0.  1.
         -5    1    3    3    0  502 -0.10711624424E+03  0.14147099649E+03 -0.56503468512E+02  0.18627411785E+03  0.41800000000E+01 0.  1.
        -11    1    1    2    0    0 -0.66040372839E+01 -0.22511336524E+02 -0.37679825172E+02  0.44386290738E+02  0.00000000000E+00 0. -1.
         11    1    1    2    0    0  0.20588670134E+03 -0.14267392790E+03 -0.30136168249E+03  0.39187248840E+03  0.00000000000E+00 0.  1.
</event>
<event>
 7    1  0.2619826E-009  0.1190390E+03  0.7561462E-02  0.1244691E+00
          2   -1    0    0  501    0  0.00000000000E+00  0.00000000000E+00  0.10316369043E+04  0.10316369043E+04  0.00000000000E+00 0.  1.
         -2   -1    0    0    0  501 -0.00000000000E+00 -0.00000000000E+00 -0.30647614178E+02  0.30647614178E+02  0.00000000000E+00 0. -1.
         25    2    1    2    0    0  0.54107396860E+02 -0.58093244053E+02  0.87916753401E+03  0.89156362394E+03  0.12509079611E+03 0.  0.
          5    1    3    3  502    0 -0.35867447963E+02 -0.76315770147E+01  0.12415396824E+03  0.12952372377E+03  0.41800000000E+01 0. -1.
         -5    1    3    3    0  502  0.89974844822E+02 -0.50461667038E+02  0.75501356577E+03  0.76203990017E+03  0.41800000000E+01 0. -1.
        -11    1    1    2    0    0 -0.75426707947E+01  0.50119337949E+02  0.11133456898E+03  0.12232835390E+03  0.00000000000E+00 0.  1.
         11    1    1    2    0    0 -0.46564726065E+02  0.79739061043E+01  0.10487187091E+02  0.48392540594E+02  0.00000000000E+00 0. -1.
</event>
<event>
 7    1  0.2619826E-009  0.8808208E+02  0.7561462E-02  0.1307564E+00
         -1   -1    0    0    0  501 -0.00000000000E+00  0.00000000000E+00  0.21405199057E+03  0.21405199057E+03  0.00000000000E+00 0.  1.
          1   -1    0    0  501    0  0.00000000000E+00 -0.00000000000E+00 -0.92542285437E+02  0.92542285437E+02  0.00000000000E+00 0. -1.
         25    2    1    2    0    0  0.46435263599E+02  0.67959209346E+02  0.27471747984E+02  0.15224030919E+03  0.12509087483E+03 0.  0.
          5    1    3    3  502    0  0.25006900672E+02  0.41424484578E+02  0.77552189678E+02  0.91504904391E+02  0.41800000000E+01 0. -1.
         -5    1    3    3    0  502  0.21428362927E+02  0.26534724768E+02 -0.50080441694E+02  0.60735404803E+02  0.41800000000E+01 0. -1.
        -11    1    1    2    0    0 -0.49578189299E+02 -0.36366094250E+02  0.72142801871E+01  0.61907475347E+02  0.00000000000E+00 0. -1.
         11    1    1    2    0    0  0.31429257001E+01 -0.31593115096E+02  0.86823676967E+02  0.92446491472E+02  0.00000000000E+00 0.  1.
</event>
<event>
 7    1  0.2619826E-009  0.1240513E+03  0.7561462E-02  0.1236559E+00
          1   -1    0    0  501    0  0.00000000000E+00  0.00000000000E+00  0.22794542884E+03  0.22794542884E+03  0.00000000000E+00 0. -1.
         -1   -1    0    0    0  501 -0.00000000000E+00 -0.00000000000E+00 -0.72505004822E+02  0.72505004822E+02  0.00000000000E+00 0.  1.
         25    2    1    2    0    0 -0.65639963773E+02  0.97745577132E+01  0.64800200698E+02  0.15572582310E+03  0.12508924473E+03 0.  0.
          5    1    3    3  502    0 -0.10059647144E+03  0.83477378617E+01  0.28130917979E+02  0.10487209228E+03  0.41800000000E+01 0.  1.
         -5    1    3    3    0  502  0.34956507665E+02  0.14268198515E+01  0.36669282719E+02  0.50853730818E+02  0.41800000000E+01 0.  1.
        -11    1    1    2    0    0  0.88196511450E+02 -0.28450868889E+01  0.78883856280E+02  0.11836123493E+03  0.00000000000E+00 0.  1.
         11    1    1    2    0    0 -0.22556547677E+02 -0.69294708243E+01  0.11756367041E+02  0.26363375638E+02  0.00000000000E+00 0. -1.
</event>
<event>
 7    1  0.2619826E-009  0.1809566E+03  0.7561462E-02  0.1166880E+00
          1   -1    0    0  501    0  0.00000000000E+00  0.00000000000E+00  0.42452923982E+03  0.42452923982E+03  0.00000000000E+00 0. -1.
         -1   -1    0    0    0  501 -0.00000000000E+00 -0.00000000000E+00 -0.10006393910E+03  0.10006393910E+03  0.00000000000E+00 0.  1.
         25    2    1    2    0    0  0.17131789914E+03 -0.22654525324E+02  0.20396970810E+03  0.29515140800E+03  0.12509061413E+03 0.  0.
          5    1    3    3  502    0  0.16764021650E+03 -0.36762090066E+02  0.11911281766E+03  0.20894982456E+03  0.41800000000E+01 0.  1.
         -5    1    3    3    0  502  0.36776826379E+01  0.14107564742E+02  0.84856890444E+02  0.86201583444E+02  0.41800000000E+01 0.  1.
        -11    1    1    2    0    0 -0.51477687282E+02 -0.60792436483E+01 -0.67833172224E+01  0.52277364928E+02  0.00000000000E+00 0.  1.
         11    1    1    2    0    0 -0.11984021185E+03  0.28733768972E+02  0.12727890985E+03  0.17716440598E+03  0.00000000000E+00 0. -1.
</event>
<event>
 7    1  0.2619826E-009  0.8698029E+02  0.7561462E-02  0.1310334E+00
          2   -1    0    0  501    0  0.00000000000E+00  0.00000000000E+00  0.10746645862E+04  0.10746645862E+04  0.00000000000E+00 0. -1.
         -2   -1    0    0    0  501 -0.00000000000E+00 -0.00000000000E+00 -0.13594521698E+02  0.13594521698E+02  0.00000000000E+00 0.  1.
         25    2    1    2    0    0 -0.14800893663E+02 -0.24858833105E+02  0.78881218484E+03  0.79919337073E+03  0.12509337649E+03 0.  0.
          5    1    3    3  502    0 -0.23588184047E+02 -0.54886171111E+02  0.72994601131E+03  0.73239848855E+03  0.41800000000E+01 0. -1.
         -5    1    3    3    0  502  0.87872903839E+01  0.30027338005E+02  0.58866173528E+02  0.66794882183E+02  0.41800000000E+01 0. -1.
        -11    1    1    2    0    0  0.33149507963E+02 -0.16672139463E+02  0.50265486830E+02  0.62477750269E+02  0.00000000000E+00 0.  1.
         11    1    1    2    0    0 -0.18348614299E+02  0.41530972569E+02  0.22199239286E+03  0.22658798692E+03  0.00000000000E+00 0. -1.
</event>
<event>
 7    1  0.2619826E-009  0.9999273E+02  0.7561462E-02  0.1280311E+00
          1   -1    0    0  501    0  0.00000000000E+00  0.00000000000E+00  0.84990160117E+02  0.84990160117E+02  0.00000000000E+00 0. -1.
         -1   -1    0    0    0  501 -0.00000000000E+00 -0.00000000000E+00 -0.19955010696E+03  0.19955010696E+03  0.00000000000E+00 0.  1.
         25    2    1    2    0    0  0.58502262859E+02  0.10401736149E+02 -0.20492029477E+02  0.13999412152E+03  0.12509084664E+03 0.  0.
          5    1    3    3  502    0  0.14915196764E+02  0.37636074869E+02  0.42328288887E+02  0.58720470588E+02  0.41800000000E+01 0.  1.
         -5    1    3    3    0  502  0.43587066095E+02 -0.27234338719E+02 -0.62820318364E+02  0.81273650931E+02  0.41800000000E+01 0.  1.
        -11    1    1    2    0    0 -0.45484642056E+02 -0.49077074649E+02 -0.71448066140E+02  0.97888906799E+02  0.00000000000E+00 0. -1.
         11    1    1    2    0    0 -0.13017620803E+02  0.38675338500E+02 -0.22619851230E+02  0.46657238764E+02  0.00000000000E+00 0.  1.
</event>
<event>
 7    1  0.2619826E-009  0.1738935E+03  0.7561462E-02  0.1173847E+00
          2   -1    0    0  501    0  0.00000000000E+00  0.00000000000E+00  0.90186408406E+03  0.90186408406E+03  0.00000000000E+00 0.  1.
         -2   -1    0    0    0  501 -0.00000000000E+00 -0.00000000000E+00 -0.44939797647E+02  0.44939797647E+02  0.00000000000E+00 0. -1.
         25    2    1    2    0    0  0.12978589090E+03  0.88894255647E+02  0.59711706968E+03  0.63003408355E+03  0.12509030881E+03 0.  0.
          5    1    3    3  502    0  0.88229985893E+02 -0.26106652569E+01  0.17434447059E+03  0.19546051470E+03  0.41800000000E+01 0.  1.
         -5    1    3    3    0  502  0.41555905009E+02  0.91504920904E+02  0.42277259910E+03  0.43457356884E+03  0.41800000000E+01 0.  1.
        -11    1    1    2    0    0 -0.98520773359E+02 -0.78220500624E+02  0.25369642399E+03  0.28317250051E+03  0.00000000000E+00 0.  1.
         11    1    1    2    0    0 -0.31265117544E+02 -0.10673755023E+02  0.61107927387E+01  0.33597297647E+02  0.00000000000E+00 0. -1.
</event>
<event>
 7    1  0.2619826E-009  0.1370312E+03  0.7561462E-02  0.1217380E+00
         -1   -1    0    0    0  501 -0.00000000000E+00  0.00000000000E+00  0.59683631832E+03  0.59683631832E+03  0.00000000000E+00 0.  1.
          1   -1    0    0  501    0  0.00000000000E+00 -0.00000000000E+00 -0.35009378145E+02  0.35009378145E+02  0.00000000000E+00 0. -1.
         25    2    1    2    0    0  0.39448042607E+02 -0.82194828939E+02  0.25211046385E+03  0.29583702607E+03  0.12509085514E+03 0.  0.
          5    1    3    3  502    0 -0.41386535516E+02 -0.31533088101E+02  0.49894892142E+02  0.72209096581E+02  0.41800000000E+01 0.  1.
         -5    1    3    3    0  502  0.80834578123E+02 -0.50661740838E+02  0.20221557171E+03  0.22362792949E+03  0.41800000000E+01 0.  1.
        -11    1    1    2    0    0 -0.66216675894E+02  0.71762414192E+02  0.26902279428E+03  0.28619531111E+03  0.00000000000E+00 0.  1.
         11    1    1    2    0    0  0.26768633287E+02  0.10432414746E+02  0.40693682041E+02  0.49813359288E+02  0.00000000000E+00 0. -1.
</event>
<event>
 7    1  0.2619826E-009  0.1748642E+03  0.7561462E-02  0.1172868E+00
         -2   -1    0    0    0  501 -0.00000000000E+00  0.00000000000E+00  0.13671992554E+03  0.13671992554E+03  0.00000000000E+00 0.  1.
          2   -1    0    0  501    0  0.00000000000E+00 -0.00000000000E+00 -0.30129945446E+03  0.30129945446E+03  0.00000000000E+00 0. -1.
         25    2    1    2    0    0 -0.16063489766E+03  0.30436846098E+02 -0.30260933569E+02  0.20807195125E+03  0.12509292885E+03 0.  0.
          5    1    3    3  502    0 -0.14587275917E+02 -0.19165617846E+02  0.33203867482E+02  0.41232011130E+02  0.41800000000E+01 0.  1.
         -5    1    3    3    0  502 -0.14604762174E+03  0.49602463944E+02 -0.63464801051E+02  0.16683994011E+03  0.41800000000E+01 0.  1.
        -11    1    1    2    0    0  0.62242315953E+02  0.12745151663E+02 -0.78837546166E+01  0.64021077568E+02  0.00000000000E+00 0.  1.
         11    1    1    2    0    0  0.98392581704E+02 -0.43181997761E+02 -0.12643484074E+03  0.16592635119E+03  0.00000000000E+00 0. -1.
</event>
<event>
 7    1  0.2619826E-009  0.1047116E+03  0.7561462E-02  0.1270689E+00
          2   -1    0    0  501    0  0.00000000000E+00  0.00000000000E+00  0.11713838252E+04  0.11713838252E+04  0.00000000000E+00 0. -1.
         -2   -1    0    0    0  501 -0.00000000000E+00 -0.00000000000E+00 -0.11857358176E+02  0.11857358176E+02  0.00000000000E+00 0.  1.
         25    2    1    2    0    0  0.43192845649E+02  0.20873583046E+02  0.76153819634E+03  0.77323068289E+03  0.12507572147E+03 0.  0.
          5    1    3    3  502    0  0.59654126790E+02  0.52177058516E+02  0.67501657423E+03  0.67966602693E+03  0.41800000000E+01 0. -1.
         -5    1    3    3    0  502 -0.16461281140E+02 -0.31303475471E+02  0.86521622111E+02  0.93564655966E+02  0.41800000000E+01 0. -1.
        -11    1    1    2    0    0 -0.63401455995E+02  0.26214495644E+01  0.31714287940E+03  0.32342885241E+03  0.00000000000E+00 0. -1.
         11    1    1    2    0    0  0.20208610345E+02 -0.23495032610E+02  0.80845391253E+02  0.86581648034E+02  0.00000000000E+00 0.  1.
</event>
<event>
 7    1  0.2619826E-009  0.1340691E+03  0.7561462E-02  0.1221540E+00
          2   -1    0    0  501    0  0.00000000000E+00  0.00000000000E+00  0.26953925892E+03  0.26953925892E+03  0.00000000000E+00 0. -1.
         -2   -1    0    0    0  501 -0.00000000000E+00 -0.00000000000E+00 -0.68451398117E+02  0.68451398117E+02  0.00000000000E+00 0.  1.
         25    2    1    2    0    0 -0.75004200253E+02  0.38227329579E+02  0.11798438262E+03  0.19145451221E+03  0.12509019514E+03 0.  0.
          5    1    3    3  502    0 -0.16825639285E+02  0.77266147062E+02  0.49465453538E+02  0.93367355713E+02  0.41800000000E+01 0.  1.
         -5    1    3    3    0  502 -0.58178560967E+02 -0.39038817483E+02  0.68518929081E+02  0.98087156494E+02  0.41800000000E+01 0.  1.
        -11    1    1    2    0    0  0.21696709079E+02 -0.57985902564E+02  0.56301078655E+02  0.83683472315E+02  0.00000000000E+00 0. -1.
         11    1    1    2    0    0  0.53307491174E+02  0.19758572985E+02  0.26802399532E+02  0.62852672516E+02  0.00000000000E+00 0.  1.
</event>
<event>
 7    1  0.2619826E-009  0.1599756E+03  0.7561462E-02  0.1188724E+00
          2   -1    0    0  501    0  0.00000000000E+00  0.00000000000E+00  0.11116029069E+04  0.11116029069E+04  0.00000000000E+00 0.  1.
         -2   -1    0    0    0  501 -0.00000000000E+00 -0.00000000000E+00 -0.23903566247E+02  0.23903566247E+02  0.00000000000E+00 0. -1.
         25    2    1    2    0    0 -0.32678308426E+01 -0.11763724691E+03  0.48731316670E+03  0.51669217459E+03  0.12508988876E+03 0.  0.
          5    1    3    3  502    0 -0.36348967753E+02  0.11427096153E+02  0.11679922690E+03  0.12292826277E+03  0.41800000000E+01 0.  1.
         -5    1    3    3    0  502  0.33081136911E+02 -0.12906434307E+03  0.37051393980E+03  0.39376391183E+03  0.41800000000E+01 0.  1.
        -11    1    1    2    0    0 -0.35599251687E+02  0.99014185789E+02  0.46400017600E+03  0.47578070478E+03  0.00000000000E+00 0.  1.
         11    1    1    2    0    0  0.38867082529E+02  0.18623061124E+02  0.13638599790E+03  0.14303359373E+03  0.00000000000E+00 0. -1.
</event>
<event>
 7    1  0.2619826E-009  0.1206954E+03  0.7561462E-02  0.1241954E+00
          2   -1    0    0  501    0  0.00000000000E+00  0.00000000000E+00  0.19483678502E+03  0.19483678502E+03  0.00000000000E+00 0. -1.
         -2   -1    0    0    0  501 -0.00000000000E+00 -0.00000000000E+00 -0.10902859230E+03  0.10902859230E+03  0.00000000000E+00 0.  1.
         25    2    1    2    0    0  0.51600881091E+02 -0.78701654027E+02  0.68246892111E+02  0.17076875941E+03  0.12509088548E+03 0.  0.
          5    1    3    3  502    0  0.54070119330E+02 -0.27885773017E+02 -0.23843442674E+02  0.65476532435E+02  0.41800000000E+01 0. -1.
         -5    1    3    3    0  502 -0.24692382385E+01 -0.50815881010E+02  0.92090334785E+02  0.10529222697E+03  0.41800000000E+01 0. -1.
        -11    1    1    2    0    0 -0.40282048868E+02  0.98577303210E+02  0.41260015564E+01  0.10656993975E+03  0.00000000000E+00 0.  1.
         11    1    1    2    0    0 -0.11318832223E+02 -0.19875649183E+02  0.13435299056E+02  0.26526678157E+02  0.00000000000E+00 0. -1.
</event>
<event>
 7    1  0.2619826E-009  0.1222360E+03  0.7561462E-02  0.1239453E+00
         -1   -1    0    0    0  501 -0.00000000000E+00  0.00000000000E+00  0.76181131712E+02  0.76181131712E+02  0.00000000000E+00 0.  1.
          1   -1    0    0  501    0  0.00000000000E+00 -0.00000000000E+00 -0.23175714990E+03  0.23175714990E+03  0.00000000000E+00 0. -1.
         25    2    1    2    0    0  0.41274586636E+02  0.59293365172E+02 -0.54371884078E+02  0.15434884903E+03  0.12509184931E+03 0.  0.
          5    1    3    3  502    0  0.43466886990E+01 -0.32554703391E+02 -0.43508514321E+02  0.54673262514E+02  0.41800000000E+01 0.  1.
         -5    1    3    3    0  502  0.36927897937E+02  0.91848068564E+02 -0.10863369757E+02  0.99675586516E+02  0.41800000000E+01 0.  1.
        -11    1    1    2    0    0  0.23332363181E+02  0.17497497993E+01 -0.78268448570E+01  0.24672257627E+02  0.00000000000E+00 0.  1.
         11    1    1    2    0    0 -0.64606949818E+02 -0.61043114972E+02 -0.93377289258E+02  0.12891717496E+03  0.00000000000E+00 0. -1.
</event>
<event>
 7    1  0.2619826E-009  0.1091162E+03  0.7561462E-02  0.1262215E+00
         -1   -1    0    0    0  501 -0.00000000000E+00  0.00000000000E+00  0.12954064362E+03  0.12954064362E+03  0.00000000000E+00 0.  1.
          1   -1    0    0  501    0  0.00000000000E+00 -0.00000000000E+00 -0.11848761639E+03  0.11848761639E+03  0.00000000000E+00 0. -1.
         25    2    1    2    0    0 -0.46780847203E+02 -0.35913465286E+02  0.14032623860E+02  0.13900685201E+03  0.12509102973E+03 0.  0.
          5    1    3    3  502    0 -0.21898827521E+02  0.44189074464E+02  0.22942619873E+02  0.54553360625E+02  0.41800000000E+01 0.  1.
         -5    1    3    3    0  502 -0.24882019681E+02 -0.80102539750E+02 -0.89099960135E+01  0.84453491383E+02  0.41800000000E+01 0.  1.
        -11    1    1    2    0    0 -0.67496800877E+01 -0.11442367627E+02  0.28102484711E+02  0.31084330540E+02  0.00000000000E+00 0.  1.
         11    1    1    2    0    0  0.53530527290E+02  0.47355832913E+02 -0.31082081337E+02  0.77937077460E+02  0.00000000000E+00 0. -1.
</event>
<event>
 7    1  0.2619826E-009  0.1563660E+03  0.7561462E-02  0.1192862E+00
          2   -1    0    0  501    0  0.00000000000E+00  0.00000000000E+00  0.27228131575E+03  0.27228131575E+03  0.00000000000E+00 0. -1.
         -2   -1    0    0    0  501 -0.00000000000E+00 -0.00000000000E+00 -0.20827689570E+03  0.20827689570E+03  0.00000000000E+00 0.  1.
         25    2    1    2    0    0 -0.88380470728E+02  0.11711007937E+03 -0.12123438532E+03  0.22775360497E+03  0.12509216640E+03 0.  0.
          5    1    3    3  502    0 -0.58150095020E+02  0.58686090119E+02 -0.13694724876E+03  0.15999222502E+03  0.41800000000E+01 0. -1.
         -5    1    3    3    0  502 -0.30230375708E+02  0.58423989249E+02  0.15712863436E+02  0.67761379949E+02  0.41800000000E+01 0. -1.
        -11    1    1    2    0    0  0.87866797783E+02 -0.58671682346E+02  0.15336848254E+03  0.18623864233E+03  0.00000000000E+00 0. -1.
         11    1    1    2    0    0  0.51367294457E+00 -0.58438397022E+02  0.31870322827E+02  0.66565964151E+02  0.00000000000E+00 0.  1.
</event>
<event>
 7    1  0.2619826E-009  0.1384921E+03  0.7561462E-02  0.1215372E+00
         -1   -1    0    0    0  501 -0.00000000000E+00  0.00000000000E+00  0.85290045066E+02  0.85290045066E+02  0.00000000000E+00 0.  1.
          1   -1    0    0  501    0  0.00000000000E+00 -0.00000000000E+00 -0.34144036049E+03  0.34144036049E+03  0.00000000000E+00 0. -1.
         25    2    1    2    0    0  0.28525073816E+02 -0.10814551618E+03 -0.49300904598E+02  0.17489006699E+03  0.12508726486E+03 0.  0.
          5    1    3    3  502    0  0.57056275632E+02 -0.66607449784E+02  0.19071379268E+02  0.89850769963E+02  0.41800000000E+01 0.  1.
         -5    1    3    3    0  502 -0.28531201815E+02 -0.41538066400E+02 -0.68372283866E+02  0.85039297024E+02  0.41800000000E+01 0.  1.
        -11    1    1    2    0    0  0.26650323692E+02  0.15630155434E+02 -0.77994656235E+02  0.83891047872E+02  0.00000000000E+00 0.  1.
         11    1    1    2    0    0 -0.55175397508E+02  0.92515360751E+02 -0.12885475459E+03  0.16794929070E+03  0.00000000000E+00 0. -1.
</event>
<event>
 7    1  0.2619826E-009  0.7654685E+02  0.7561462E-02  0.1339147E+00
         -1   -1    0    0    0  501 -0.00000000000E+00  0.00000000000E+00  0.34894986318E+02  0.34894986318E+02  0.00000000000E+00 0.  1.
          1   -1    0    0  501    0  0.00000000000E+00 -0.00000000000E+00 -0.40836488310E+03  0.40836488310E+03  0.00000000000E+00 0. -1.
         25    2    1    2    0    0  0.15084267073E+02 -0.42167461318E+02 -0.16521490799E+03  0.21201246140E+03  0.12509071932E+03 0.  0.
          5    1    3    3  502    0 -0.21109832084E+02 -0.23192368221E+02 -0.16789068659E+03  0.17084573743E+03  0.41800000000E+01 0. -1.
         -5    1    3    3    0  502  0.36194099157E+02 -0.18975093096E+02  0.26757785939E+01  0.41166723976E+02  0.41800000000E+01 0. -1.
        -11    1    1    2    0    0  0.52716166380E+01 -0.17003128093E+02 -0.48722662753E+01  0.18456307474E+02  0.00000000000E+00 0.  1.
         11    1    1    2    0    0 -0.20355883711E+02  0.59170589411E+02 -0.20338272252E+03  0.21279110054E+03  0.00000000000E+00 0. -1.
</event>
<event>
 7    1  0.2619826E-009  0.1470782E+03  0.7561462E-02  0.1204110E+00
          1   -1    0    0  501    0  0.00000000000E+00  0.00000000000E+00  0.57965048052E+03  0.57965048052E+03  0.00000000000E+00 0. -1.
         -1   -1    0    0    0  501 -0.00000000000E+00 -0.00000000000E+00 -0.44119662017E+02  0.44119662017E+02  0.00000000000E+00 0.  1.
         25    2    1    2    0    0  0.21366525844E+01 -0.96948643017E+02  0.22530866648E+03  0.27534589832E+03  0.12509102232E+03 0.  0.
          5    1    3    3  502    0  0.35529857862E+02 -0.30278912615E+01  0.13856566536E+03  0.14314138095E+03  0.41800000000E+01 0. -1.
         -5    1    3    3    0  502 -0.33393205277E+02 -0.93920751756E+02  0.86743001126E+02  0.13220451737E+03  0.41800000000E+01 0. -1.
        -11    1    1    2    0    0  0.15262997085E+02  0.12475425658E+03  0.25176718632E+03  0.28139527309E+03  0.00000000000E+00 0. -1.
         11    1    1    2    0    0 -0.17399649669E+02 -0.27805613559E+02  0.58454965707E+02  0.67028971123E+02  0.00000000000E+00 0.  1.
</event>
<event>
 7    1  0.2619826E-009  0.1019936E+03  0.7561462E-02  0.1276159E+00
          4   -1    0    0  501    0  0.00000000000E+00  0.00000000000E+00  0.13448864982E+03  0.13448864982E+03  0.00000000000E+00 0. -1.
         -4   -1    0    0    0  501 -0.00000000000E+00 -0.00000000000E+00 -0.10446188446E+03  0.10446188446E+03  0.00000000000E+00 0.  1.
         25    2    1    2    0    0  0.19742538477E+02 -0.37936616266E+02  0.61060975711E+00  0.13220157061E+03  0.12509167738E+03 0.  0.
          5    1    3    3  502    0 -0.31848748934E+02  0.28141784132E+02 -0.17803388075E+02  0.46268086731E+02  0.41800000000E+01 0.  1.
         -5    1    3    3    0  502  0.51591287411E+02 -0.66078400398E+02  0.18413997832E+02  0.85933483882E+02  0.41800000000E+01 0.  1.
        -11    1    1    2    0    0 -0.27468250519E+02 -0.96654904473E+01 -0.21819820825E+02  0.36387237777E+02  0.00000000000E+00 0.  1.
         11    1    1    2    0    0  0.77257120427E+01  0.47602106713E+02  0.51235976429E+02  0.70361725893E+02  0.00000000000E+00 0. -1.
</event>
<event>
 6    1  0.2619826E-009  0.1739541E+03  0.7561462E-02  0.1173786E+00
         -1   -1    0    0    0  501 -0.00000000000E+00  0.00000000000E+00  0.45771343355E+02  0.45771343355E+02  0.00000000000E+00 0.  1.
          1   -1    0    0  501    0  0.00000000000E+00 -0.00000000000E+00 -0.88582558759E+03  0.88582558759E+03  0.00000000000E+00 0. -1.
          5    1    1    2  502    0 -0.64544121275E+02  0.21168639392E+02 -0.40671722318E+03  0.41237170965E+03  0.41800000000E+01 0. -1.
         -5    1    1    2    0  502 -0.19873554043E+02  0.10257399543E+03 -0.21308977728E+03  0.23736281990E+03  0.41800000000E+01 0. -1.
        -11    1    1    2    0    0 -0.15246610222E+02 -0.47261943921E+02 -0.52208760282E+02  0.72054875731E+02  0.00000000000E+00 0.  1.
         11    1    1    2    0    0  0.99664285540E+02 -0.76480690902E+02 -0.16803848349E+03  0.20980752567E+03  0.00000000000E+00 0. -1.
</event>
<event>
 7    1  0.2619826E-009  0.2672126E+03  0.7561462E-02  0.1102886E+00
         -1   -1    0    0    0  501 -0.00000000000E+00  0.00000000000E+00  0.33464754813E+03  0.33464754813E+03  0.00000000000E+00 0.  1.
          1   -1    0    0  501    0  0.00000000000E+00 -0.00000000000E+00 -0.23197409018E+03  0.23197409018E+03  0.00000000000E+00 0. -1.
         25    2    1    2    0    0 -0.24922335256E+03  0.38264903041E+02  0.10140527910E+03  0.29917773027E+03  0.12509117232E+03 0.  0.
          5    1    3    3  502    0 -0.98925236931E+00  0.25327730359E+02  0.32057212135E+02  0.41080528176E+02  0.41800000000E+01 0.  1.
         -5    1    3    3    0  502 -0.24823410019E+03  0.12937172682E+02  0.69348066965E+02  0.25809720209E+03  0.41800000000E+01 0.  1.
        -11    1    1    2    0    0  0.44510030716E+02 -0.32894038885E+02 -0.25464034507E+02  0.60922718930E+02  0.00000000000E+00 0.  1.
         11    1    1    2    0    0  0.20471332185E+03 -0.53708641560E+01  0.26732213354E+02  0.20652118911E+03  0.00000000000E+00 0. -1.
</event>
<event>
 7    1  0.2619826E-009  0.1576903E+03  0.7561462E-02  0.1191329E+00
          1   -1    0    0  501    0  0.00000000000E+00  0.00000000000E+00  0.22340378075E+02  0.22340378075E+02  0.00000000000E+00 0. -1.
         -1   -1    0    0    0  501 -0.00000000000E+00 -0.00000000000E+00 -0.13893918046E+04  0.13893918046E+04  0.00000000000E+00 0.  1.
         25    2    1    2    0    0  0.10574018916E+03 -0.89272778260E+02 -0.71599025058E+03  0.73989195994E+03  0.12508979544E+03 0.  0.
          5    1    3    3  502    0  0.23580812132E+02 -0.81235673496E+02 -0.52493191985E+03  0.53172011644E+03  0.41800000000E+01 0.  1.
         -5    1    3    3    0  502  0.82159377031E+02 -0.80371047646E+01 -0.19105833073E+03  0.20817184351E+03  0.41800000000E+01 0.  1.
        -11    1    1    2    0    0 -0.35015541966E+02  0.11460286031E+01 -0.55342831317E+02  0.65499851442E+02  0.00000000000E+00 0.  1.
         11    1    1    2    0    0 -0.70724647197E+02  0.88126749657E+02 -0.59571834462E+03  0.60634037128E+03  0.00000000000E+00 0. -1.
</event>
<event>
 7    1  0.2619826E-009  0.1880282E+03  0.7561462E-02  0.1160252E+00
          2   -1    0    0  501    0  0.00000000000E+00  0.00000000000E+00  0.35589032471E+03  0.35589032471E+03  0.00000000000E+00 0. -1.
         -2   -1    0    0    0  501 -0.00000000000E+00 -0.00000000000E+00 -0.10257262304E+03  0.10257262304E+03  0.00000000000E+00 0.  1.
         25    2    1    2    0    0 -0.14310025921E+02  0.15512316952E+03  0.15229178776E+03  0.25121574260E+03  0.12509430900E+03 0.  0.
          5    1    3    3  502    0  0.42561971763E+02  0.10088153018E+02  0.34417177259E+02  0.55814933146E+02  0.41800000000E+01 0. -1.
         -5    1    3    3    0  502 -0.56871997685E+02  0.14503501651E+03  0.11787461051E+03  0.19540080946E+03  0.41800000000E+01 0. -1.
        -11    1    1    2    0    0  0.47546227802E+02 -0.11315365162E+03  0.47687880264E+02  0.13167583900E+03  0.00000000000E+00 0.  1.
         11    1    1    2    0    0 -0.33236201880E+02 -0.41969517907E+02  0.53338033634E+02  0.75571366143E+02  0.00000000000E+00 0. -1.
</event>
<event>
 7    1  0.2619826E-009  0.1112002E+03  0.7561462E-02  0.1258363E+00
         -2   -1    0    0    0  501 -0.00000000000E+00  0.00000000000E+00  0.11598841579E+03  0.11598841579E+03  0.00000000000E+00 0.  1.
          2   -1    0    0  501    0  0.00000000000E+00 -0.00000000000E+00 -0.17543941465E+03  0.17543941465E+03  0.00000000000E+00 0. -1.
         25    2    1    2    0    0  0.28970363704E+02  0.82818381867E+02 -0.61747778321E+02  0.16480216076E+03  0.12509515464E+03 0.  0.
          5    1    3    3  502    0  0.61573471980E+02  0.48176744640E+02  0.96719148765E+01  0.78887955438E+02  0.41800000000E+01 0. -1.
         -5    1    3    3    0  502 -0.32603108276E+02  0.34641637227E+02 -0.71419693197E+02  0.85914205318E+02  0.41800000000E+01 0. -1.
        -11    1    1    2    0    0 -0.22912586053E+02 -0.13141833845E+02 -0.37718914578E+02  0.46047919750E+02  0.00000000000E+00 0. -1.
         11    1    1    2    0    0 -0.60577776517E+01 -0.69676548023E+02  0.40015694046E+02  0.80577749934E+02  0.00000000000E+00 0.  1.
</event>
<event>
 7    1  0.2619826E-009  0.1653589E+03  0.7561462E-02  0.1182776E+00
         -2   -1    0    0    0  501 -0.00000000000E+00  0.00000000000E+00  0.32090169042E+03  0.32090169042E+03  0.00000000000E+00 0.  1.
          2   -1    0    0  501    0  0.00000000000E+00 -0.00000000000E+00 -0.10667984948E+03  0.10667984948E+03  0.00000000000E+00 0. -1.
         25    2    1    2    0    0 -0.44453697460E+02  0.13831859934E+03  0.55207113028E+02  0.19950964596E+03  0.12509239529E+03 0.  0.
          5    1    3    3  502    0  0.80134170364E+01  0.12241692942E+03  0.71636433731E+02  0.14212448944E+03  0.41800000000E+01 0. -1.
         -5    1    3    3    0  502 -0.52467114496E+02  0.15901669924E+02 -0.16429320703E+02  0.57385156519E+02  0.41800000000E+01 0. -1.
        -11    1    1    2    0    0  0.53167759728E+02 -0.95634853931E+02  0.72652010274E+02  0.13134363539E+03  0.00000000000E+00 0. -1.
         11    1    1    2    0    0 -0.87140622684E+01 -0.42683745412E+02  0.86362717636E+02  0.96728258544E+02  0.00000000000E+00 0.  1.
</event>
<event>
 7    1  0.2619826E-009  0.2146630E+03  0.7561462E-02  0.1137926E+00
          1   -1    0    0  501    0  0.00000000000E+00  0.00000000000E+00  0.10147854654E+04  0.10147854654E+04  0.00000000000E+00 0. -1.
         -1   -1    0    0    0  501 -0.00000000000E+00 -0.00000000000E+00 -0.51297391640E+02  0.51297391640E+02  0.00000000000E+00 0.  1.
         25    2    1    2    0    0 -0.18917451711E+03 -0.12128446630E+02  0.64569569039E+03  0.68447398685E+03  0.12509043503E+03 0.  0.
          5    1    3    3  502    0 -0.15212759408E+03 -0.56124293273E+02  0.54283127720E+03  0.56654744645E+03  0.41800000000E+01 0. -1.
         -5    1    3    3    0  502 -0.37046923031E+02  0.43995846643E+02  0.10286441319E+03  0.11792654040E+03  0.41800000000E+01 0. -1.
        -11    1    1    2    0    0  0.10756127866E+03  0.51019553033E+02  0.20496014486E+03  0.23702549323E+03  0.00000000000E+00 0.  1.
         11    1    1    2    0    0  0.81613238449E+02 -0.38891106403E+02  0.11283223849E+03  0.14458337695E+03  0.00000000000E+00 0. -1.
</event>
<event>
 7    1  0.2619826E-009  0.1432357E+03  0.7561462E-02  0.1209040E+00
          1   -1    0    0  501    0  0.00000000000E+00  0.00000000000E+00  0.92602236392E+02  0.92602236392E+02  0.00000000000E+00 0. -1.
         -1   -1    0    0    0  501 -0.00000000000E+00 -0.00000000000E+00 -0.30517222705E+03  0.30517222705E+03  0.00000000000E+00 0.  1.
         25    2    1    2    0    0 -0.62840716112E+02  0.69967183548E+02 -0.10136837883E+02  0.15682562716E+03  0.12508860650E+03 0.  0.
          5    1    3    3  502    0 -0.27013808519E+02 -0.35235813019E+02  0.37217717561E+01  0.44750780494E+02  0.41800000000E+01 0. -1.
         -5    1    3    3    0  502 -0.35826907593E+02  0.10520299657E+03 -0.13858609639E+02  0.11207484667E+03  0.41800000000E+01 0. -1.
        -11    1    1    2    0    0  0.82977081279E+02 -0.34473966445E+02 -0.14109052296E+03  0.16727278932E+03  0.00000000000E+00 0. -1.
         11    1    1    2    0    0 -0.20136365166E+02 -0.35493217103E+02 -0.61342629823E+02  0.73676046963E+02  0.00000000000E+00 0.  1.
</event>
<event>
 7    1  0.2619826E-009  0.1125278E+03  0.7561462E-02  0.1255959E+00
         -2   -1    0    0    0  501 -0.00000000000E+00  0.00000000000E+00  0.15746763790E+02  0.15746763790E+02  0.00000000000E+00 0.  1.
          2   -1    0    0  501    0  0.00000000000E+00 -0.00000000000E+00 -0.10884817389E+04  0.10884817389E+04  0.00000000000E+00 0. -1.
         25    2    1    2    0    0  0.20939367848E+02 -0.14205196716E+02 -0.64087940786E+03  0.65346351285E+03  0.12509157634E+03 0.  0.
          5    1    3    3  502    0 -0.34284174485E+02  0.32430353756E+02 -0.15086654364E+03  0.15813070181E+03  0.41800000000E+01 0. -1.
         -5    1    3    3    0  502  0.55223542334E+02 -0.46635550472E+02 -0.49001286422E+03  0.49533281104E+03  0.41800000000E+01 0. -1.
        -11    1    1    2    0    0  0.10000302381E+02 -0.40886453137E+02 -0.58319894627E+02  0.71923001934E+02  0.00000000000E+00 0.  1.
         11    1    1    2    0    0 -0.30939670229E+02  0.55091649852E+02 -0.37353567263E+03  0.37884198791E+03  0.00000000000E+00 0. -1.
</event>
<event>
 7    1  0.2619826E-009  0.1857535E+03  0.7561462E-02  0.1162348E+00
          2   -1    0    0  501    0  0.00000000000E+00  0.00000000000E+00  0.66621166153E+03  0.66621166153E+03  0.00000000000E+00 0. -1.
         -2   -1    0    0    0  501 -0.00000000000E+00 -0.00000000000E+00 -0.57731071785E+02  0.57731071785E+02  0.00000000000E+00 0.  1.
         25    2    1    2    0    0  0.37504991114E+02 -0.15262440981E+03  0.39499136289E+03  0.44313247678E+03  0.12508948953E+03 0.  0.
          5    1    3    3  502    0  0.34251843160E+02  0.18187604006E+01  0.14640985825E+03  0.15043209645E+03  0.41800000000E+01 0. -1.
         -5    1    3    3    0  502  0.32531479540E+01 -0.15444317022E+03  0.24858150463E+03  0.29270038033E+03  0.41800000000E+01 0. -1.
        -11    1    1    2    0    0 -0.31612217202E+02  0.16537679898E+03  0.19708404101E+03  0.25921214697E+03  0.00000000000E+00 0.  1.
         11    1    1    2    0    0 -0.58927739128E+01 -0.12752389168E+02  0.16405185851E+02  0.21598109563E+02  0.00000000000E+00 0. -1.
</event>
<event>
 7    1  0.2619826E-009  0.1248282E+03  0.7561462E-02  0.1235338E+00
         -1   -1    0    0    0  501 -0.00000000000E+00  0.00000000000E+00  0.54606821008E+02  0.54606821008E+02  0.00000000000E+00 0.  1.
          1   -1    0    0  501    0  0.00000000000E+00 -0.00000000000E+00 -0.43087928324E+03  0.43087928324E+03  0.00000000000E+00 0. -1.
         25    2    1    2    0    0  0.42208026984E+02 -0.94428201006E+02 -0.15589851325E+03  0.22505581742E+03  0.12509025476E+03 0.  0.
          5    1    3    3  502    0 -0.15698692342E+02 -0.15178982198E+02  0.15774673406E+02  0.27261019109E+02  0.41800000000E+01 0. -1.
         -5    1    3    3    0  502  0.57906719325E+02 -0.79249218808E+02 -0.17167318665E+03  0.19779479831E+03  0.41800000000E+01 0. -1.
        -11    1    1    2    0    0  0.22973871893E+02  0.24841357752E+02 -0.10737324934E+03  0.11257844607E+03  0.00000000000E+00 0.  1.
         11    1    1    2    0    0 -0.65181898876E+02  0.69586843254E+02 -0.11300069964E+03  0.14785184075E+03  0.00000000000E+00 0. -1.
</event>
<event>
 7    1  0.2619826E-009  0.1338099E+03  0.7561462E-02  0.1221910E+00
         -2   -1    0    0    0  501 -0.00000000000E+00  0.00000000000E+00  0.10719058043E+03  0.10719058043E+03  0.00000000000E+00 0.  1.
          2   -1    0    0  501    0  0.00000000000E+00 -0.00000000000E+00 -0.23984134177E+03  0.23984134177E+03  0.00000000000E+00 0. -1.
         25    2    1    2    0    0 -0.11211999024E+03 -0.32244607340E+02 -0.60852558723E+02  0.18154243254E+03  0.12507603287E+03 0.  0.
          5    1    3    3  502    0 -0.63544371900E+02 -0.31149265210E+02  0.31134761735E+02  0.77427448050E+02  0.41800000000E+01 0.  1.
         -5    1    3    3    0  502 -0.48575618336E+02 -0.10953421300E+01 -0.91987320458E+02  0.10411498449E+03  0.41800000000E+01 0.  1.
        -11    1    1    2    0    0  0.80036720666E+02 -0.23697670332E+02 -0.50575464975E+02  0.97597817043E+02  0.00000000000E+00 0. -1.
         11    1    1    2    0    0  0.32083269570E+02  0.55942277671E+02 -0.21222737633E+02  0.67891672612E+02  0.00000000000E+00 0.  1.
</event>
<event>
 7    1  0.2897781E-009  0.1552948E+03  0.7561462E-02  0.1194114E+00
          2   -1    0    0  501    0  0.00000000000E+00  0.00000000000E+00  0.13594383723E+04  0.13594383723E+04  0.00000000000E+00 0.  1.
         -2   -1    0    0    0  501 -0.00000000000E+00 -0.00000000000E+00 -0.22154154582E+02  0.22154154582E+02  0.00000000000E+00 0. -1.
         25    2    1    2    0    0 -0.12289844992E+03 -0.52206252674E+02  0.63899601664E+03  0.66467398214E+03  0.12508425735E+03 0.  0.
          5    1    3    3  502    0 -0.11739906684E+03 -0.65191226063E+02  0.63551348944E+03  0.64955931562E+03  0.41800000000E+01 0.  1.
         -5    1    3    3    0  502 -0.54993830831E+01  0.12984973390E+02  0.34825272010E+01  0.15114666517E+02  0.41800000000E+01 0.  1.
        -11    1    1    2    0    0  0.31310236496E+02  0.61963846927E+02  0.26448891725E+03  0.27344878237E+03  0.00000000000E+00 0.  1.
         11    1    1    2    0    0  0.91588213423E+02 -0.97575942540E+01  0.43379928380E+03  0.44346976234E+03  0.00000000000E+00 0. -1.
</event>
<event>
 7    1  0.2619826E-009  0.1534123E+03  0.7561462E-02  0.1196342E+00
         -2   -1    0    0    0  501 -0.00000000000E+00  0.00000000000E+00  0.12114310246E+03  0.12114310246E+03  0.00000000000E+00 0.  1.
          2   -1    0    0  501    0  0.00000000000E+00 -0.00000000000E+00 -0.26704946854E+03  0.26704946854E+03  0.00000000000E+00 0. -1.
         25    2    1    2    0    0 -0.99735660169E+02 -0.10208142918E+03 -0.11876146796E+03  0.22387866576E+03  0.12509816393E+03 0.  0.
          5    1    3    3  502    0 -0.37689523960E+02 -0.21753114543E+02 -0.11409649875E+03  0.12218503033E+03  0.41800000000E+01 0. -1.
         -5    1    3    3    0  502 -0.62046136210E+02 -0.80328314635E+02 -0.46649692093E+01  0.10169363544E+03  0.41800000000E+01 0. -1.
        -11    1    1    2    0    0  0.43923592065E+02 -0.14024092525E+01 -0.13369362801E+02  0.45934611714E+02  0.00000000000E+00 0. -1.
         11    1    1    2    0    0  0.55812068104E+02  0.10348383843E+03 -0.13775535317E+02  0.11837929353E+03  0.00000000000E+00 0.  1.
</event>
<event>
 7    1  0.2967992E-009  0.9489043E+02  0.7561462E-02  0.1291423E+00
         -2   -1    0    0    0  501 -0.00000000000E+00  0.00000000000E+00  0.36379036474E+02  0.36379036474E+02  0.00000000000E+00 0.  1.
          2   -1    0    0  501    0  0.00000000000E+00 -0.00000000000E+00 -0.42440541966E+03  0.42440541966E+03  0.00000000000E+00 0. -1.
         25    2    1    2    0    0 -0.27044301264E+02  0.12368312536E+02 -0.31590853433E+03  0.34107393700E+03  0.12509539981E+03 0.  0.
          5    1    3    3  502    0 -0.20317039423E+02  0.53349501788E+02 -0.64550531600E+02  0.86273952975E+02  0.41800000000E+01 0.  1.
         -5    1    3    3    0  502 -0.67272618408E+01 -0.40981189252E+02 -0.25135800273E+03  0.25479998403E+03  0.41800000000E+01 0.  1.
        -11    1    1    2    0    0 -0.97535928318E+00  0.35404375761E+02 -0.10676749080E+02  0.36992081851E+02  0.00000000000E+00 0. -1.
         11    1    1    2    0    0  0.28019660547E+02 -0.47772688297E+02 -0.61441099769E+02  0.82718437274E+02  0.00000000000E+00 0.  1.
</event>
<event>
 7    1  0.2619826E-009  0.6440733E+02  0.7561462E-02  0.1380215E+00
         -2   -1    0    0    0  501 -0.00000000000E+00  0.00000000000E+00  0.12700545438E+03  0.12700545438E+03  0.00000000000E+00 0. -1.
          2   -1    0    0  501    0  0.00000000000E+00 -0.00000000000E+00 -0.10688141368E+03  0.10688141368E+03  0.00000000000E+00 0.  1.
         25    2    1    2    0    0 -0.20719464083E+02 -0.55221135544E+01  0.48518892357E+02  0.13587076809E+03  0.12508794017E+03 0.  0.
          5    1    3    3  502    0 -0.97039547014E+01 -0.19840528957E+02 -0.39755221368E+02  0.45670158223E+02  0.41800000000E+01 0. -1.
         -5    1    3    3    0  502 -0.11015509382E+02  0.14318415403E+02  0.88274113726E+02  0.90200609868E+02  0.41800000000E+01 0. -1.
        -11    1    1    2    0    0 -0.29627121619E+02 -0.15260067590E+02 -0.28031475617E+02  0.43547670701E+02  0.00000000000E+00 0.  1.
         11    1    1    2    0    0  0.50346585702E+02  0.20782181144E+02 -0.36337604431E+00  0.54468429270E+02  0.00000000000E+00 0. -1.
</event>
<event>
 7    1  0.2619826E-009  0.1647900E+03  0.7561462E-02  0.1183393E+00
          2   -1    0    0  501    0  0.00000000000E+00  0.00000000000E+00  0.11402785017E+03  0.11402785017E+03  0.00000000000E+00 0. -1.
         -2   -1    0    0    0  501 -0.00000000000E+00 -0.00000000000E+00 -0.30325617221E+03  0.30325617221E+03  0.00000000000E+00 0.  1.
         25    2    1    2    0    0 -0.11519115909E+03 -0.79933433780E+02 -0.16440538170E+03  0.24967005571E+03  0.12509056807E+03 0.  0.
          5    1    3    3  502    0 -0.49919869048E+02  0.29315146186E+02 -0.33332336037E+02  0.66931966558E+02  0.41800000000E+01 0.  1.
         -5    1    3    3    0  502 -0.65271290044E+02 -0.10924857997E+03 -0.13107304566E+03  0.18273808916E+03  0.41800000000E+01 0.  1.
        -11    1    1    2    0    0  0.32217932047E+02  0.53869681784E+01  0.29076302495E+02  0.43731521107E+02  0.00000000000E+00 0. -1.
         11    1    1    2    0    0  0.82973227046E+02  0.74546465602E+02 -0.53899242835E+02  0.12388244556E+03  0.00000000000E+00 0.  1.
</event>
<event>
 7    1  0.2619826E-009  0.1390171E+03  0.7561462E-02  0.1214658E+00
         -1   -1    0    0    0  501 -0.00000000000E+00  0.00000000000E+00  0.23731744593E+03  0.23731744593E+03  0.00000000000E+00 0.  1.
          1   -1    0    0  501    0  0.00000000000E+00 -0.00000000000E+00 -0.91606828445E+02  0.91606828445E+02  0.00000000000E+00 0. -1.
         25    2    1    2    0    0 -0.85875836656E+02  0.46224671584E+02  0.10207647958E+03  0.18862427863E+03  0.12509249068E+03 0.  0.
          5    1    3    3  502    0  0.24614792547E+02 -0.39824133671E+01 -0.60843197014E+01  0.26004595259E+02  0.41800000000E+01 0.  1.
         -5    1    3    3    0  502 -0.11049062920E+03  0.50207084951E+02  0.10816079928E+03  0.16261968338E+03  0.41800000000E+01 0.  1.
        -11    1    1    2    0    0  0.62937415366E+02 -0.72784692032E+02  0.42492532439E+02  0.10518719010E+03  0.00000000000E+00 0.  1.
         11    1    1    2    0    0  0.22938421291E+02  0.26560020448E+02  0.11416054760E+01  0.35112805650E+02  0.00000000000E+00 0. -1.
</event>
<event>
 7    1  0.2619826E-009  0.8708514E+02  0.7561462E-02  0.1310068E+00
          4   -1    0    0  501    0  0.00000000000E+00  0.00000000000E+00  0.14933731733E+03  0.14933731733E+03  0.00000000000E+00 0. -1.
         -4   -1    0    0    0  501 -0.00000000000E+00 -0.00000000000E+00 -0.11740844160E+03  0.11740844160E+03  0.00000000000E+00 0.  1.
         25    2    1    2    0    0  0.52391100774E+02 -0.52991545458E+02  0.14630639494E+01  0.14561126144E+03  0.12509023771E+03 0.  0.
          5    1    3    3  502    0  0.29244025269E+02 -0.64899871474E+02 -0.50475911354E+02  0.87364159461E+02  0.41800000000E+01 0.  1.
         -5    1    3    3    0  502  0.23147075505E+02  0.11908326015E+02  0.51938975304E+02  0.58247101975E+02  0.41800000000E+01 0.  1.
        -11    1    1    2    0    0 -0.14718294887E+02  0.51234337556E+01  0.53717846576E+02  0.55932859918E+02  0.00000000000E+00 0. -1.
         11    1    1    2    0    0 -0.37672805887E+02  0.47868111702E+02 -0.23252034793E+02  0.65201637582E+02  0.00000000000E+00 0.  1.
</event>
<event>
 7    1  0.2619826E-009  0.7657108E+02  0.7561462E-02  0.1339074E+00
          2   -1    0    0  501    0  0.00000000000E+00  0.00000000000E+00  0.14502160429E+03  0.14502160429E+03  0.00000000000E+00 0. -1.
         -2   -1    0    0    0  501 -0.00000000000E+00 -0.00000000000E+00 -0.16741353162E+03  0.16741353162E+03  0.00000000000E+00 0.  1.
         25    2    1    2    0    0 -0.33455182042E+02 -0.22722715485E+01 -0.12089175317E+03  0.17716318774E+03  0.12509023416E+03 0.  0.
          5    1    3    3  502    0 -0.38847974115E+02  0.18827833886E+02  0.99143280187E+01  0.44490658815E+02  0.41800000000E+01 0. -1.
         -5    1    3    3    0  502  0.53927920728E+01 -0.21100105434E+02 -0.13080608119E+03  0.13267252893E+03  0.41800000000E+01 0. -1.
        -11    1    1    2    0    0  0.45504484423E+02 -0.29082441587E+02  0.37869715197E+02  0.65958788955E+02  0.00000000000E+00 0. -1.
         11    1    1    2    0    0 -0.12049302381E+02  0.31354713136E+02  0.60630110642E+02  0.69313159214E+02  0.00000000000E+00 0.  1.
</event>
<event>
 7    1  0.2619826E-009  0.1648242E+03  0.7561462E-02  0.1183355E+00
          2   -1    0    0  501    0  0.00000000000E+00  0.00000000000E+00  0.24486908992E+03  0.24486908992E+03  0.00000000000E+00 0. -1.
         -2   -1    0    0    0  501 -0.00000000000E+00 -0.00000000000E+00 -0.11701472374E+03  0.11701472374E+03  0.00000000000E+00 0.  1.
         25    2    1    2    0    0 -0.12270921246E+03 -0.28436465008E+02  0.10150416749E+03  0.20449879442E+03  0.12510186864E+03 0.  0.
          5    1    3    3  502    0 -0.56900278893E+02 -0.75599574175E+02  0.40353597852E+02  0.10295058335E+03  0.41800000000E+01 0.  1.
         -5    1    3    3    0  502 -0.65808933564E+02  0.47163109166E+02  0.61150569642E+02  0.10154821107E+03  0.41800000000E+01 0.  1.
        -11    1    1    2    0    0  0.26765184764E+02  0.48915286139E+02  0.19385552510E+02  0.59032872026E+02  0.00000000000E+00 0.  1.
         11    1    1    2    0    0  0.95944027693E+02 -0.20478821131E+02  0.69646461834E+01  0.98352147212E+02  0.00000000000E+00 0. -1.
</event>
<event>
 7    1  0.2619826E-009  0.1522721E+03  0.7561462E-02  0.1197709E+00
          2   -1    0    0  501    0  0.00000000000E+00  0.00000000000E+00  0.16407421256E+03  0.16407421256E+03  0.00000000000E+00 0.  1.
         -2   -1    0    0    0  501 -0.00000000000E+00 -0.00000000000E+00 -0.19164235893E+03  0.19164235893E+03  0.00000000000E+00 0. -1.
         25    2    1    2    0    0  0.71791491858E+02 -0.11807383819E+03 -0.36790388176E+02  0.19002993962E+03  0.12514949348E+03 0.  0.
          5    1    3    3  502    0 -0.13112166241E+02 -0.47965116324E+02 -0.59366924417E+02  0.77553113427E+02  0.41800000000E+01 0. -1.
         -5    1    3    3    0  502  0.84903658099E+02 -0.70108721870E+02  0.22576536241E+02  0.11247682619E+03  0.41800000000E+01 0. -1.
        -11    1    1    2    0    0 -0.12643662952E+02  0.60877469688E+02 -0.35951286826E+02  0.71822166167E+02  0.00000000000E+00 0. -1.
         11    1    1    2    0    0 -0.59147828905E+02  0.57196368506E+02  0.45173528633E+02  0.93864465713E+02  0.00000000000E+00 0.  1.
</event>
<event>
 7    1  0.2619826E-009  0.8146321E+02  0.7561462E-02  0.1324950E+00
          2   -1    0    0  501    0  0.00000000000E+00  0.00000000000E+00  0.32668969697E+03  0.32668969697E+03  0.00000000000E+00 0. -1.
         -2   -1    0    0    0  501 -0.00000000000E+00 -0.00000000000E+00 -0.51796613699E+02  0.51796613699E+02  0.00000000000E+00 0.  1.
         25    2    1    2    0    0 -0.19069950751E+02  0.10581258707E+02  0.52676601410E+02  0.13747004140E+03  0.12509021500E+03 0.  0.
          5    1    3    3  502    0  0.10068877717E+02  0.54314276394E+02 -0.92271334441E+01  0.56160798697E+02  0.41800000000E+01 0. -1.
         -5    1    3    3    0  502 -0.29138828468E+02 -0.43733017688E+02  0.61903734854E+02  0.81309242706E+02  0.41800000000E+01 0. -1.
        -11    1    1    2    0    0 -0.13598099256E+02  0.93874541707E+01  0.10466457903E+01  0.16556813298E+02  0.00000000000E+00 0.  1.
         11    1    1    2    0    0  0.32668050007E+02 -0.19968712877E+02  0.22116983607E+03  0.22445945596E+03  0.00000000000E+00 0. -1.
</event>
<event>
 7    1  0.2619826E-009  0.1049041E+03  0.7561462E-02  0.1270309E+00
         -1   -1    0    0    0  501 -0.00000000000E+00  0.00000000000E+00  0.36886022379E+03  0.36886022379E+03  0.00000000000E+00 0.  1.
          1   -1    0    0  501    0  0.00000000000E+00 -0.00000000000E+00 -0.45509323282E+02  0.45509323282E+02  0.00000000000E+00 0. -1.
         25    2    1    2    0    0  0.26914520620E+02 -0.44274828093E+02  0.25568307387E+03  0.28931890992E+03  0.12508775139E+03 0.  0.
          5    1    3    3  502    0  0.58144718276E+02 -0.66420553576E+02  0.12504057965E+03  0.15311798444E+03  0.41800000000E+01 0.  1.
         -5    1    3    3    0  502 -0.31230197656E+02  0.22145725482E+02  0.13064249422E+03  0.13620092547E+03  0.41800000000E+01 0.  1.
        -11    1    1    2    0    0  0.14612451904E+02  0.38267165456E+02  0.72032623477E+02  0.82864941607E+02  0.00000000000E+00 0.  1.
         11    1    1    2    0    0 -0.41526972524E+02  0.60076626378E+01 -0.43647968439E+01  0.42185695548E+02  0.00000000000E+00 0. -1.
</event>
<event>
 7    1  0.2619826E-009  0.1324616E+03  0.7561462E-02  0.1223848E+00
          1   -1    0    0  501    0  0.00000000000E+00  0.00000000000E+00  0.24627597659E+03  0.24627597659E+03  0.00000000000E+00 0. -1.
         -1   -1    0    0    0  501 -0.00000000000E+00 -0.00000000000E+00 -0.89780896056E+02  0.89780896056E+02  0.00000000000E+00 0.  1.
         25    2    1    2    0    0 -0.59440468452E+02  0.55176492738E+02  0.12031309864E+03  0.19157311427E+03  0.12508957496E+03 0.  0.
          5    1    3    3  502    0  0.39860390859E+01  0.64364404143E+02  0.10847656859E+03  0.12626679437E+03  0.41800000000E+01 0.  1.
         -5    1    3    3    0  502 -0.63426507538E+02 -0.91879114052E+01  0.11836530053E+02  0.65306319894E+02  0.41800000000E+01 0.  1.
        -11    1    1    2    0    0  0.74891626526E+02 -0.78245340767E+02  0.14543065363E+02  0.10928215694E+03  0.00000000000E+00 0. -1.
         11    1    1    2    0    0 -0.15451158074E+02  0.23068848029E+02  0.21638916522E+02  0.35201601433E+02  0.00000000000E+00 0.  1.
</event>
<event>
 7    1  0.2619826E-009  0.1376306E+03  0.7561462E-02  0.1216553E+00
         -2   -1    0    0    0  501 -0.00000000000E+00  0.00000000000E+00  0.10462293774E+03  0.10462293774E+03  0.00000000000E+00 0.  1.
          2   -1    0    0  501    0  0.00000000000E+00 -0.00000000000E+00 -0.19666612576E+03  0.19666612576E+03  0.00000000000E+00 0. -1.
         25    2    1    2    0    0 -0.19818581784E+02 -0.93306033887E+02 -0.60446540442E+02  0.16852318780E+03  0.12508992139E+03 0.  0.
          5    1    3    3  502    0 -0.66343135049E+02 -0.67842580535E+02 -0.10517316311E+02  0.95562093134E+02  0.41800000000E+01 0.  1.
         -5    1    3    3    0  502  0.46524553265E+02 -0.25463453352E+02 -0.49929224131E+02  0.72961094670E+02  0.41800000000E+01 0.  1.
        -11    1    1    2    0    0  0.48777953764E+02  0.29492353743E+02 -0.30039847136E+01  0.57079870593E+02  0.00000000000E+00 0.  1.
         11    1    1    2    0    0 -0.28959371980E+02  0.63813680143E+02 -0.28592662867E+02  0.75686005105E+02  0.00000000000E+00 0. -1.
</event>
<event>
 7    1  0.2619826E-009  0.1201765E+03  0.7561462E-02  0.1242806E+00
         -2   -1    0    0    0  501 -0.00000000000E+00  0.00000000000E+00  0.12816456322E+03  0.12816456322E+03  0.00000000000E+00 0.  1.
          2   -1    0    0  501    0  0.00000000000E+00 -0.00000000000E+00 -0.32208294114E+03  0.32208294114E+03  0.00000000000E+00 0. -1.
         25    2    1    2    0    0  0.66883468461E+02 -0.89181793485E+02 -0.23814551699E+03  0.29117522241E+03  0.12507170839E+03 0.  0.
          5    1    3    3  502    0  0.63587582404E+02 -0.74591473253E+02 -0.25196210347E+03  0.27038794815E+03  0.41800000000E+01 0. -1.
         -5    1    3    3    0  502  0.32958860575E+01 -0.14590320231E+02  0.13816586479E+02  0.20787274263E+02  0.41800000000E+01 0. -1.
        -11    1    1    2    0    0 -0.43307660574E+01  0.55505898179E+02 -0.23951375997E+02  0.60607991878E+02  0.00000000000E+00 0. -1.
         11    1    1    2    0    0 -0.62552702404E+02  0.33675895305E+02  0.68178515067E+02  0.98464290072E+02  0.00000000000E+00 0.  1.
</event>
<event>
 7    1  0.2619826E-009  0.1459009E+03  0.7561462E-02  0.1205602E+00
          1   -1    0    0  501    0  0.00000000000E+00  0.00000000000E+00  0.13272237076E+04  0.13272237076E+04  0.00000000000E+00 0. -1.
         -1   -1    0    0    0  501 -0.00000000000E+00 -0.00000000000E+00 -0.23607876396E+02  0.23607876396E+02  0.00000000000E+00 0.  1.
         25    2    1    2    0    0 -0.10396453127E+03 -0.63273388020E+02  0.95389513803E+03  0.96972984639E+03  0.12509154735E+03 0.  0.
          5    1    3    3  502    0 -0.12491110476E+03 -0.69358576205E+02  0.90238976418E+03  0.91364005772E+03  0.41800000000E+01 0. -1.
         -5    1    3    3    0  502  0.20946573491E+02  0.60851881859E+01  0.51505373858E+02  0.56089788665E+02  0.41800000000E+01 0. -1.
        -11    1    1    2    0    0  0.38241131234E+02  0.43721651460E+02  0.60525948656E+02  0.83888958661E+02  0.00000000000E+00 0.  1.
         11    1    1    2    0    0  0.65723400037E+02  0.19551736559E+02  0.28919474449E+03  0.29721277892E+03  0.00000000000E+00 0. -1.
</event>
<event>
 7    1  0.2619826E-009  0.1211392E+03  0.7561462E-02  0.1241229E+00
         -1   -1    0    0    0  501 -0.00000000000E+00  0.00000000000E+00  0.46297829700E+02  0.46297829700E+02  0.00000000000E+00 0.  1.
          1   -1    0    0  501    0  0.00000000000E+00 -0.00000000000E+00 -0.48268576014E+03  0.48268576014E+03  0.00000000000E+00 0. -1.
         25    2    1    2    0    0 -0.68074286442E+01 -0.91025425686E+02 -0.31599668263E+03  0.35189818802E+03  0.12508581893E+03 0.  0.
          5    1    3    3  502    0  0.29337348137E+02 -0.47483777291E+02 -0.36781780351E+02  0.66975823006E+02  0.41800000000E+01 0.  1.
         -5    1    3    3    0  502 -0.36144776782E+02 -0.43541648394E+02 -0.27921490227E+03  0.28492236501E+03  0.41800000000E+01 0.  1.
        -11    1    1    2    0    0 -0.14498681430E+02 -0.15326748180E+02 -0.24264192054E+02  0.32153879844E+02  0.00000000000E+00 0.  1.
         11    1    1    2    0    0  0.21306110074E+02  0.10635217387E+03 -0.96127055756E+02  0.14493152197E+03  0.00000000000E+00 0. -1.
</event>
<event>
 7    1  0.2619826E-009  0.7085412E+02  0.7561462E-02  0.1357212E+00
          1   -1    0    0  501    0  0.00000000000E+00  0.00000000000E+00  0.22945793069E+03  0.22945793069E+03  0.00000000000E+00 0. -1.
         -1   -1    0    0    0  501 -0.00000000000E+00 -0.00000000000E+00 -0.79311526499E+02  0.79311526499E+02  0.00000000000E+00 0.  1.
         25    2    1    2    0    0 -0.13104062688E+02 -0.61191917379E+02  0.14072975886E+03  0.19841383286E+03  0.12508803632E+03 0.  0.
          5    1    3    3  502    0  0.53021920826E+01 -0.23194065753E+02 -0.20507617544E+02  0.31687737444E+02  0.41800000000E+01 0. -1.
         -5    1    3    3    0  502 -0.18406254771E+02 -0.37997851626E+02  0.16123737640E+03  0.16672609541E+03  0.41800000000E+01 0. -1.
        -11    1    1    2    0    0 -0.12012075333E+02  0.41514621428E+02  0.45116223248E+02  0.62475814091E+02  0.00000000000E+00 0. -1.
         11    1    1    2    0    0  0.25116138022E+02  0.19677295951E+02 -0.35699577917E+02  0.47879810239E+02  0.00000000000E+00 0.  1.
</event>
<event>
 7    1  0.2619826E-009  0.9853573E+02  0.7561462E-02  0.1283406E+00
         -2   -1    0    0    0  501 -0.00000000000E+00  0.00000000000E+00  0.14299496012E+03  0.14299496012E+03  0.00000000000E+00 0.  1.
          2   -1    0    0  501    0  0.00000000000E+00 -0.00000000000E+00 -0.15712265781E+03  0.15712265781E+03  0.00000000000E+00 0. -1.
         25    2    1    2    0    0 -0.62728664487E+01 -0.22032583745E+02 -0.10807654217E+03  0.16688936298E+03  0.12508691742E+03 0.  0.
          5    1    3    3  502    0 -0.64598398717E+02 -0.14442076955E+02 -0.42860706126E+02  0.78968596500E+02  0.41800000000E+01 0. -1.
         -5    1    3    3    0  502  0.58325532268E+02 -0.75905067897E+01 -0.65215836047E+02  0.87920766483E+02  0.41800000000E+01 0. -1.
        -11    1    1    2    0    0 -0.20622453223E+02 -0.15364441652E+02  0.81572947447E+02  0.85530681042E+02  0.00000000000E+00 0.  1.
         11    1    1    2    0    0  0.26895319672E+02  0.37397025397E+02  0.12375897044E+02  0.47697573905E+02  0.00000000000E+00 0. -1.
</event>
<event>
 7    1  0.2619826E-009  0.1201769E+03  0.7561462E-02  0.1242805E+00
         -3   -1    0    0    0  501 -0.00000000000E+00  0.00000000000E+00  0.33380799099E+03  0.33380799099E+03  0.00000000000E+00 0.  1.
          3   -1    0    0  501    0  0.00000000000E+00 -0.00000000000E+00 -0.45551526132E+02  0.45551526132E+02  0.00000000000E+00 0. -1.
         25    2    1    2    0    0  0.57429083944E+02  0.21518493995E+00  0.14373927141E+03  0.19901308678E+03  0.12508830711E+03 0.  0.
          5    1    3    3  502    0  0.37385507651E+02 -0.61195295862E+02  0.63154077772E+02  0.95647531893E+02  0.41800000000E+01 0. -1.
         -5    1    3    3    0  502  0.20043576293E+02  0.61410480802E+02  0.80585193639E+02  0.10336555489E+03  0.41800000000E+01 0. -1.
        -11    1    1    2    0    0 -0.16328206237E+02 -0.42068997200E+02  0.87967475663E+02  0.98867019874E+02  0.00000000000E+00 0.  1.
         11    1    1    2    0    0 -0.41100877707E+02  0.41853812260E+02  0.56549717784E+02  0.81479410469E+02  0.00000000000E+00 0. -1.
</event>
<event>
 7    1  0.2619826E-009  0.1620864E+03  0.7561462E-02  0.1186361E+00
          1   -1    0    0  501    0  0.00000000000E+00  0.00000000000E+00  0.12457369959E+04  0.12457369959E+04  0.00000000000E+00 0. -1.
         -1   -1    0    0    0  501 -0.00000000000E+00 -0.00000000000E+00 -0.27388885939E+02  0.27388885939E+02  0.00000000000E+00 0.  1.
         25    2    1    2    0    0  0.13445118304E+03 -0.64028055796E+02  0.62624817878E+03  0.65575240720E+03  0.12509086929E+03 0.  0.
          5    1    3    3  502    0  0.52393779269E+02 -0.58857478104E+02  0.49187958746E+03  0.49816895909E+03  0.41800000000E+01 0. -1.
         -5    1    3    3    0  502  0.82057403776E+02 -0.51705776920E+01  0.13436859131E+03  0.15758344811E+03  0.41800000000E+01 0. -1.
        -11    1    1    2    0    0 -0.11934184874E+03  0.26173985793E+02  0.52359177520E+03  0.53765779214E+03  0.00000000000E+00 0. -1.
         11    1    1    2    0    0 -0.15109334309E+02  0.37854070004E+02  0.68508155962E+02  0.79715682475E+02  0.00000000000E+00 0.  1.
</event>
<event>
 7    1  0.2831210E-009  0.1355877E+03  0.7561462E-02  0.1219392E+00
         -1   -1    0    0    0  501 -0.00000000000E+00  0.00000000000E+00  0.74065038859E+02  0.74065038859E+02  0.00000000000E+00 0.  1.
          1   -1    0    0  501    0  0.00000000000E+00 -0.00000000000E+00 -0.38779798915E+03  0.38779798915E+03  0.00000000000E+00 0. -1.
         25    2    1    2    0    0  0.95113023101E+02  0.47874712985E+02 -0.26814888330E+03  0.31446607691E+03  0.12508642853E+03 0.  0.
          5    1    3    3  502    0  0.88391816240E+02  0.74281578924E+02 -0.26182436920E+03  0.28618235245E+03  0.41800000000E+01 0.  1.
         -5    1    3    3    0  502  0.67212068611E+01 -0.26406865940E+02 -0.63245140988E+01  0.28283724454E+02  0.41800000000E+01 0.  1.
        -11    1    1    2    0    0 -0.15176845101E+02 -0.45648946451E+02  0.11109529636E+02  0.49371900794E+02  0.00000000000E+00 0.  1.
         11    1    1    2    0    0 -0.79936178000E+02 -0.22257665339E+01 -0.56693596626E+02  0.98025050310E+02  0.00000000000E+00 0. -1.
</event>
<event>
 7    1  0.2619826E-009  0.6399705E+02  0.7561462E-02  0.1381784E+00
         -1   -1    0    0    0  501 -0.00000000000E+00  0.00000000000E+00  0.99710082766E+02  0.99710082766E+02  0.00000000000E+00 0.  1.
          1   -1    0    0  501    0  0.00000000000E+00 -0.00000000000E+00 -0.14756060354E+03  0.14756060354E+03  0.00000000000E+00 0. -1.
         25    2    1    2    0    0  0.20647784690E+02  0.55503200348E+02 -0.28840427679E+02  0.14137127159E+03  0.12508848828E+03 0.  0.
          5    1    3    3  502    0  0.47154322440E+01  0.55812437226E+01 -0.72530159599E+02  0.73016998255E+02  0.41800000000E+01 0. -1.
         -5    1    3    3    0  502  0.15932352446E+02  0.49921956625E+02  0.43689731920E+02  0.68354273334E+02  0.41800000000E+01 0. -1.
        -11    1    1    2    0    0 -0.26212860224E+02 -0.25773659178E+02  0.30577078109E+02  0.47815826399E+02  0.00000000000E+00 0.  1.
         11    1    1    2    0    0  0.55650755340E+01 -0.29729541170E+02 -0.49587171201E+02  0.58083588315E+02  0.00000000000E+00 0. -1.
</event>
<event>
 7    1  0.2619826E-009  0.9841150E+02  0.7561462E-02  0.1283672E+00
          2   -1    0    0  501    0  0.00000000000E+00  0.00000000000E+00  0.96789162793E+02  0.96789162793E+02  0.00000000000E+00 0.  1.
         -2   -1    0    0    0  501 -0.00000000000E+00 -0.00000000000E+00 -0.14939399234E+03  0.14939399234E+03  0.00000000000E+00 0. -1.
         25    2    1    2    0    0  0.46171170828E+02  0.70728848700E+01 -0.20534498269E+01  0.13354473312E+03  0.12509267113E+03 0.  0.
          5    1    3    3  502    0  0.80763115204E+02  0.10348404357E+02  0.29221773459E+02  0.86609206752E+02  0.41800000000E+01 0.  1.
         -5    1    3    3    0  502 -0.34591944376E+02 -0.32755194867E+01 -0.31275223286E+02  0.46935526366E+02  0.41800000000E+01 0.  1.
        -11    1    1    2    0    0  0.86427411389E+00 -0.28567838679E+02  0.12412161834E+02  0.31159751891E+02  0.00000000000E+00 0.  1.
         11    1    1    2    0    0 -0.47035444942E+02  0.21494953809E+02 -0.62963541558E+02  0.81478670127E+02  0.00000000000E+00 0. -1.
</event>
<event>
 7    1  0.2619826E-009  0.9371923E+02  0.7561462E-02  0.1294087E+00
          4   -1    0    0  501    0  0.00000000000E+00  0.00000000000E+00  0.28214152305E+03  0.28214152305E+03  0.00000000000E+00 0.  1.
         -4   -1    0    0    0  501 -0.00000000000E+00 -0.00000000000E+00 -0.56818621984E+02  0.56818621984E+02  0.00000000000E+00 0. -1.
         25    2    1    2    0    0  0.32822564333E+02 -0.42546479905E+02  0.17530141696E+03  0.22195829809E+03  0.12508947047E+03 0.  0.
          5    1    3    3  502    0 -0.19176311001E+00 -0.81857633826E+02  0.12820543458E+03  0.15216706228E+03  0.41800000000E+01 0.  1.
         -5    1    3    3    0  502  0.33014327443E+02  0.39311153920E+02  0.47095982381E+02  0.69791235807E+02  0.41800000000E+01 0.  1.
        -11    1    1    2    0    0 -0.16534435457E+02  0.25501120341E+02  0.76040982183E+02  0.81889716485E+02  0.00000000000E+00 0.  1.
         11    1    1    2    0    0 -0.16288128875E+02  0.17045359564E+02 -0.26019498079E+02  0.35112130457E+02  0.00000000000E+00 0. -1.
</event>
<event>
 7    1  0.2619826E-009  0.1299831E+03  0.7561462E-02  0.1227481E+00
         -2   -1    0    0    0  501 -0.00000000000E+00  0.00000000000E+00  0.24407176677E+03  0.24407176677E+03  0.00000000000E+00 0.  1.
          2   -1    0    0  501    0  0.00000000000E+00 -0.00000000000E+00 -0.87438420840E+02  0.87438420840E+02  0.00000000000E+00 0. -1.
         25    2    1    2    0    0  0.63883843925E+02 -0.33586726828E+02  0.10951771052E+02  0.14483527523E+03  0.12509237358E+03 0.  0.
          5    1    3    3  502    0  0.42306805479E+01 -0.72016640756E+02 -0.33011468128E+01  0.72337163160E+02  0.41800000000E+01 0.  1.
         -5    1    3    3    0  502  0.59653163377E+02  0.38429913928E+02  0.14252917864E+02  0.72498112066E+02  0.41800000000E+01 0.  1.
        -11    1    1    2    0    0 -0.79582184233E+02  0.39089667685E-01  0.10300802190E+03  0.13016903683E+03  0.00000000000E+00 0.  1.
         11    1    1    2    0    0  0.15698340308E+02  0.33547637161E+02  0.42673552984E+02  0.56505875551E+02  0.00000000000E+00 0. -1.
</event>
<event>
 7    1  0.2619826E-009  0.1391950E+03  0.7561462E-02  0.1214416E+00
          2   -1    0    0  501    0  0.00000000000E+00  0.00000000000E+00  0.11886767056E+04  0.11886767056E+04  0.00000000000E+00 0. -1.
         -2   -1    0    0    0  501 -0.00000000000E+00 -0.00000000000E+00 -0.17728834287E+02  0.17728834287E+02  0.00000000000E+00 0.  1.
         25    2    1    2    0    0 -0.85896479524E+02 -0.44055066228E+02  0.65572575633E+03  0.67449538853E+03  0.12509479439E+03 0.  0.
          5    1    3    3  502    0  0.17996075263E+02  0.17941607648E+02  0.44655096210E+02  0.51549103070E+02  0.41800000000E+01 0.  1.
         -5    1    3    3    0  502 -0.10389255479E+03 -0.61996673876E+02  0.61107066012E+03  0.62294628546E+03  0.41800000000E+01 0.  1.
        -11    1    1    2    0    0  0.93861822382E+01 -0.26123628492E+02  0.13096429936E+03  0.13387379164E+03  0.00000000000E+00 0.  1.
         11    1    1    2    0    0  0.76510297286E+02  0.70178694720E+02  0.38425781563E+03  0.39803635972E+03  0.00000000000E+00 0. -1.
</event>
<event>
 7    1  0.2619826E-009  0.1120572E+03  0.7561462E-02  0.1256807E+00
          2   -1    0    0  501    0  0.00000000000E+00  0.00000000000E+00  0.32593347065E+03  0.32593347065E+03  0.00000000000E+00 0. -1.
         -2   -1    0    0    0  501 -0.00000000000E+00 -0.00000000000E+00 -0.42491088932E+02  0.42491088932E+02  0.00000000000E+00 0.  1.
         25    2    1    2    0    0  0.28929284348E+02  0.36621464993E+02  0.17889282497E+03  0.22322262648E+03  0.12509061898E+03 0.  0.
          5    1    3    3  502    0  0.37170373169E+02 -0.37177968386E+02  0.41957291074E+02  0.67392318917E+02  0.41800000000E+01 0.  1.
         -5    1    3    3    0  502 -0.82410888201E+01  0.73799433378E+02  0.13693553389E+03  0.15583030756E+03  0.41800000000E+01 0.  1.
        -11    1    1    2    0    0 -0.50453843124E+02  0.44304000447E+01  0.34786332572E+02  0.61443532323E+02  0.00000000000E+00 0.  1.
         11    1    1    2    0    0  0.21524558776E+02 -0.41051865037E+02  0.69763224175E+02  0.83758400778E+02  0.00000000000E+00 0. -1.
</event>
<event>
 7    1  0.2619826E-009  0.2012678E+03  0.7561462E-02  0.1148674E+00
          2   -1    0    0  501    0  0.00000000000E+00  0.00000000000E+00  0.12408932319E+04  0.12408932319E+04  0.00000000000E+00 0. -1.
         -2   -1    0    0    0  501 -0.00000000000E+00 -0.00000000000E+00 -0.42477026665E+02  0.42477026665E+02  0.00000000000E+00 0.  1.
         25    2    1    2    0    0  0.80676401053E+02 -0.17520857145E+03  0.80607858083E+03  0.83822110102E+03  0.12508081602E+03 0.  0.
          5    1    3    3  502    0  0.17511268288E+02 -0.45017571855E+02  0.46729900198E+03  0.46980746689E+03  0.41800000000E+01 0.  1.
         -5    1    3    3    0  502  0.63165132765E+02 -0.13019099959E+03  0.33877957884E+03  0.36841363413E+03  0.41800000000E+01 0.  1.
        -11    1    1    2    0    0  0.16866511107E+02  0.23539378637E+02  0.40455877298E+02  0.49751980377E+02  0.00000000000E+00 0. -1.
         11    1    1    2    0    0 -0.97542912160E+02  0.15166919281E+03  0.35188174711E+03  0.39539717717E+03  0.00000000000E+00 0.  1.
</event>
<event>
 7    1  0.2619826E-009  0.1038880E+03  0.7561462E-02  0.1272326E+00
          1   -1    0    0  501    0  0.00000000000E+00  0.00000000000E+00  0.79631912553E+03  0.79631912553E+03  0.00000000000E+00 0. -1.
         -1   -1    0    0    0  501 -0.00000000000E+00 -0.00000000000E+00 -0.19201619369E+02  0.19201619369E+02  0.00000000000E+00 0.  1.
         25    2    1    2    0    0 -0.55354433890E+01 -0.49832292733E+02  0.42436589821E+03  0.44525027188E+03  0.12508992969E+03 0.  0.
          5    1    3    3  502    0 -0.49404775858E+02 -0.20665698361E+02  0.34954764817E+03  0.35365086414E+03  0.41800000000E+01 0.  1.
         -5    1    3    3    0  502  0.43869332469E+02 -0.29166594372E+02  0.74818250047E+02  0.91599407742E+02  0.41800000000E+01 0.  1.
        -11    1    1    2    0    0  0.42093328474E+02  0.35605249429E+01  0.23286034538E+03  0.23666107853E+03  0.00000000000E+00 0. -1.
         11    1    1    2    0    0 -0.36557885085E+02  0.46271767790E+02  0.11989126257E+03  0.13360939449E+03  0.00000000000E+00 0.  1.
</event>
<event>
 7    1  0.2619826E-009  0.1331867E+03  0.7561462E-02  0.1222802E+00
          2   -1    0    0  501    0  0.00000000000E+00  0.00000000000E+00  0.29523106084E+03  0.29523106084E+03  0.00000000000E+00 0. -1.
         -2   -1    0    0    0  501 -0.00000000000E+00 -0.00000000000E+00 -0.64036410946E+02  0.64036410946E+02  0.00000000000E+00 0.  1.
         25    2    1    2    0    0 -0.75847938060E+02  0.28280855782E+02  0.98717168568E+02  0.17873389097E+03  0.12509199775E+03 0.  0.
          5    1    3    3  502    0 -0.69026481772E+02  0.74754833709E+02  0.66706690869E+02  0.12173822471E+03  0.41800000000E+01 0.  1.
         -5    1    3    3    0  502 -0.68214562878E+01 -0.46473977927E+02  0.32010477699E+02  0.56995666263E+02  0.41800000000E+01 0.  1.
        -11    1    1    2    0    0  0.60597128044E+02  0.22284944495E+02  0.46266633216E+02  0.79430674348E+02  0.00000000000E+00 0.  1.
         11    1    1    2    0    0  0.15250810016E+02 -0.50565800277E+02  0.86210848106E+02  0.10110290646E+03  0.00000000000E+00 0. -1.
</event>
<event>
 7    1  0.2619826E-009  0.1476243E+03  0.7561462E-02  0.1203423E+00
         -1   -1    0    0    0  501 -0.00000000000E+00  0.00000000000E+00  0.94709497925E+02  0.94709497925E+02  0.00000000000E+00 0.  1.
          1   -1    0    0  501    0  0.00000000000E+00 -0.00000000000E+00 -0.23739122202E+03  0.23739122202E+03  0.00000000000E+00 0. -1.
         25    2    1    2    0    0  0.10235744788E+03 -0.10303196783E+02 -0.89842733494E+02  0.18520917798E+03  0.12509004694E+03 0.  0.
          5    1    3    3  502    0 -0.57113642953E+01  0.38820879755E+02 -0.40617706045E+02  0.56629946419E+02  0.41800000000E+01 0. -1.
         -5    1    3    3    0  502  0.10806881217E+03 -0.49124076537E+02 -0.49225027449E+02  0.12857923156E+03  0.41800000000E+01 0. -1.
        -11    1    1    2    0    0  0.17112148532E+02  0.27053277869E+00 -0.79876033349E+01  0.18886519594E+02  0.00000000000E+00 0. -1.
         11    1    1    2    0    0 -0.11946959641E+03  0.10032664004E+02 -0.44851387269E+02  0.12800502238E+03  0.00000000000E+00 0.  1.
</event>
<event>
 7    1  0.3034487E-009  0.1962977E+03  0.7561462E-02  0.1152901E+00
          2   -1    0    0  501    0  0.00000000000E+00  0.00000000000E+00  0.54464475210E+03  0.54464475210E+03  0.00000000000E+00 0. -1.
         -2   -1    0    0    0  501 -0.00000000000E+00 -0.00000000000E+00 -0.79589289743E+02  0.79589289743E+02  0.00000000000E+00 0.  1.
         25    2    1    2    0    0  0.85401711363E+02 -0.15436068793E+03  0.27111019851E+03  0.34679731012E+03  0.12508781033E+03 0.  0.
          5    1    3    3  502    0 -0.31675781977E+02 -0.48158226824E+02  0.64153972633E+02  0.86346827268E+02  0.41800000000E+01 0. -1.
         -5    1    3    3    0  502  0.11707749334E+03 -0.10620246110E+03  0.20695622587E+03  0.26045048285E+03  0.41800000000E+01 0. -1.
        -11    1    1    2    0    0 -0.50888266096E+02  0.10158065210E+03  0.57969053142E+02  0.12754864025E+03  0.00000000000E+00 0.  1.
         11    1    1    2    0    0 -0.34513445266E+02  0.52780035822E+02  0.13597621071E+03  0.14988809147E+03  0.00000000000E+00 0. -1.
</event>
<event>
 7    1  0.2619826E-009  0.1003789E+03  0.7561462E-02  0.1279501E+00
         -2   -1    0    0    0  501 -0.00000000000E+00  0.00000000000E+00  0.28896710983E+02  0.28896710983E+02  0.00000000000E+00 0.  1.
          2   -1    0    0  501    0  0.00000000000E+00 -0.00000000000E+00 -0.57486325014E+03  0.57486325014E+03  0.00000000000E+00 0. -1.
         25    2    1    2    0    0 -0.24704296371E+02  0.65562344603E+02 -0.31034347334E+03  0.34186383097E+03  0.12509629967E+03 0.  0.
          5    1    3    3  502    0 -0.50724619160E+02 -0.53685781325E+01 -0.21023672783E+03  0.21637643760E+03  0.41800000000E+01 0.  1.
         -5    1    3    3    0  502  0.26020322790E+02  0.70930922735E+02 -0.10010674551E+03  0.12548739337E+03  0.41800000000E+01 0.  1.
        -11    1    1    2    0    0  0.20587391196E+02 -0.21911475266E+02 -0.94550345103E+01  0.31517472967E+02  0.00000000000E+00 0.  1.
         11    1    1    2    0    0  0.41169051744E+01 -0.43650869336E+02 -0.22616803131E+03  0.23037865719E+03  0.00000000000E+00 0. -1.
</event>
<event>
 7    1  0.2619826E-009  0.7708690E+02  0.7561462E-02  0.1337528E+00
          2   -1    0    0  501    0  0.00000000000E+00  0.00000000000E+00  0.23484405692E+03  0.23484405692E+03  0.00000000000E+00 0. -1.
         -2   -1    0    0    0  501 -0.00000000000E+00 -0.00000000000E+00 -0.51983341862E+02  0.51983341862E+02  0.00000000000E+00 0.  1.
         25    2    1    2    0    0  0.42022394713E+01 -0.20335838427E+02  0.92615505844E+02  0.15702808837E+03  0.12509589711E+03 0.  0.
          5    1    3    3  502    0 -0.37514626720E+02  0.21601566921E+02  0.87246424358E+02  0.97485311072E+02  0.41800000000E+01 0.  1.
         -5    1    3    3    0  502  0.41716866192E+02 -0.41937405349E+02  0.53690814858E+01  0.59542777297E+02  0.41800000000E+01 0.  1.
        -11    1    1    2    0    0  0.53302962936E+01 -0.14404119053E+02 -0.13205825450E+02  0.20255481483E+02  0.00000000000E+00 0.  1.
         11    1    1    2    0    0 -0.95325357649E+01  0.34739957480E+02  0.10345103466E+03  0.10954382893E+03  0.00000000000E+00 0. -1.
</event>
<event>
 7    1  0.2619826E-009  0.1221230E+03  0.7561462E-02  0.1239635E+00
         -1   -1    0    0    0  501 -0.00000000000E+00  0.00000000000E+00  0.38804783479E+02  0.38804783479E+02  0.00000000000E+00 0.  1.
          1   -1    0    0  501    0  0.00000000000E+00 -0.00000000000E+00 -0.57110491153E+03  0.57110491153E+03  0.00000000000E+00 0. -1.
         25    2    1    2    0    0  0.82460571220E+01  0.96152579461E+02 -0.23011831158E+03  0.27913265648E+03  0.12508911462E+03 0.  0.
          5    1    3    3  502    0 -0.26547960098E+02  0.15230023330E+01 -0.14392895868E+03  0.14642448999E+03  0.41800000000E+01 0. -1.
         -5    1    3    3    0  502  0.34794017220E+02  0.94629577128E+02 -0.86189352899E+02  0.13270816650E+03  0.41800000000E+01 0. -1.
        -11    1    1    2    0    0  0.28313642959E+02 -0.50869584251E+02 -0.23400101162E+03  0.24113450691E+03  0.00000000000E+00 0. -1.
         11    1    1    2    0    0 -0.36559700081E+02 -0.45282995210E+02 -0.68180804843E+02  0.89642531615E+02  0.00000000000E+00 0.  1.
</event>
<event>
 7    1  0.2619826E-009  0.1417517E+03  0.7561462E-02  0.1210991E+00
         -2   -1    0    0    0  501 -0.00000000000E+00  0.00000000000E+00  0.28365955760E+02  0.28365955760E+02  0.00000000000E+00 0.  1.
          2   -1    0    0  501    0  0.00000000000E+00 -0.00000000000E+00 -0.93644607653E+03  0.93644607653E+03  0.00000000000E+00 0. -1.
         25    2    1    2    0    0  0.70288258127E+02 -0.92460949289E+02 -0.59668183807E+03  0.62061712918E+03  0.12508772432E+03 0.  0.
          5    1    3    3  502    0  0.10725691106E+02 -0.78167155248E+02 -0.14814177225E+03  0.16789461485E+03  0.41800000000E+01 0. -1.
         -5    1    3    3    0  502  0.59562567020E+02 -0.14293794042E+02 -0.44854006581E+03  0.45272251433E+03  0.41800000000E+01 0. -1.
        -11    1    1    2    0    0  0.19458287772E+02  0.15762724464E+02 -0.30275537988E+02  0.39289905141E+02  0.00000000000E+00 0.  1.
         11    1    1    2    0    0 -0.89746545899E+02  0.76698224825E+02 -0.28112274471E+03  0.30490499797E+03  0.00000000000E+00 0. -1.
</event>
<event>
 7    1  0.2619826E-009  0.9844933E+02  0.7561462E-02  0.1283591E+00
          1   -1    0    0  501    0  0.00000000000E+00  0.00000000000E+00  0.48507588574E+03  0.48507588574E+03  0.00000000000E+00 0. -1.
         -1   -1    0    0    0  501 -0.00000000000E+00 -0.00000000000E+00 -0.14997944128E+03  0.14997944128E+03  0.00000000000E+00 0.  1.
         25    2    1    2    0    0 -0.59204342999E+02 -0.50745321926E+02 -0.10373938621E+03  0.18024673636E+03  0.12508710482E+03 0.  0.
          5    1    3    3  502    0 -0.56189466028E+02 -0.22572347742E+02 -0.12867475733E+03  0.14227238857E+03  0.41800000000E+01 0. -1.
         -5    1    3    3    0  502 -0.30148769708E+01 -0.28172974184E+02  0.24935371120E+02  0.37974347795E+02  0.41800000000E+01 0. -1.
        -11    1    1    2    0    0  0.54439127759E+02 -0.21201633864E+01  0.32071684704E+03  0.32531125050E+03  0.00000000000E+00 0.  1.
         11    1    1    2    0    0  0.47652152400E+01  0.52865485312E+02  0.11811898363E+03  0.12949734016E+03  0.00000000000E+00 0. -1.
</event>
<event>
 7    1  0.2619826E-009  0.1313005E+03  0.7561462E-02  0.1225539E+00
         -1   -1    0    0    0  501 -0.00000000000E+00  0.00000000000E+00  0.31951495508E+03  0.31951495508E+03  0.00000000000E+00 0.  1.
          1   -1    0    0  501    0  0.00000000000E+00 -0.00000000000E+00 -0.81169519673E+02  0.81169519673E+02  0.00000000000E+00 0. -1.
         25    2    1    2    0    0  0.53249777659E+01  0.10200521019E+03  0.48073463780E+02  0.16849803456E+03  0.12508841447E+03 0.  0.
          5    1    3    3  502    0 -0.39658394796E+02  0.83756690992E+01 -0.18812166970E+02  0.44881066574E+02  0.41800000000E+01 0.  1.
         -5    1    3    3    0  502  0.44983372562E+02  0.93629541092E+02  0.66885630750E+02  0.12361696798E+03  0.41800000000E+01 0.  1.
        -11    1    1    2    0    0  0.26889841660E+02 -0.47124506976E+02  0.14289860763E+03  0.15285219921E+03  0.00000000000E+00 0.  1.
         11    1    1    2    0    0 -0.32214819426E+02 -0.54880703215E+02  0.47373363997E+02  0.79334240983E+02  0.00000000000E+00 0. -1.
</event>
<event>
 7    1  0.2619826E-009  0.7948147E+02  0.7561462E-02  0.1330529E+00
         -1   -1    0    0    0  501 -0.00000000000E+00  0.00000000000E+00  0.10629495752E+03  0.10629495752E+03  0.00000000000E+00 0.  1.
          1   -1    0    0  501    0  0.00000000000E+00 -0.00000000000E+00 -0.15131183762E+03  0.15131183762E+03  0.00000000000E+00 0. -1.
         25    2    1    2    0    0  0.13030512174E+02  0.11735492984E+02 -0.89168956073E+02  0.15461628712E+03  0.12509027729E+03 0.  0.
          5    1    3    3  502    0 -0.41692498275E+02 -0.14787570953E+01 -0.88759455945E+02  0.98163967700E+02  0.41800000000E+01 0.  1.
         -5    1    3    3    0  502  0.54723010449E+02  0.13214250079E+02 -0.40950012731E+00  0.56452319421E+02  0.41800000000E+01 0.  1.
        -11    1    1    2    0    0 -0.35224523970E+02  0.52646167967E+00  0.62464091037E+02  0.71713366396E+02  0.00000000000E+00 0.  1.
         11    1    1    2    0    0  0.22194011796E+02 -0.12261954663E+02 -0.18312015066E+02  0.31277141614E+02  0.00000000000E+00 0. -1.
</event>
<event>
 7    1  0.2619826E-009  0.1472589E+03  0.7561462E-02  0.1203882E+00
         -1   -1    0    0    0  501 -0.00000000000E+00  0.00000000000E+00  0.99105234798E+02  0.99105234798E+02  0.00000000000E+00 0.  1.
          1   -1    0    0  501    0  0.00000000000E+00 -0.00000000000E+00 -0.35161692429E+03  0.35161692429E+03  0.00000000000E+00 0. -1.
         25    2    1    2    0    0  0.79497605626E+02 -0.10685271442E+03 -0.43392599559E+02  0.18780038779E+03  0.12509474840E+03 0.  0.
          5    1    3    3  502    0  0.93833760099E+02 -0.82062916165E+02  0.12001527965E+02  0.12530205831E+03  0.41800000000E+01 0.  1.
         -5    1    3    3    0  502 -0.14336154473E+02 -0.24789798258E+02 -0.55394127524E+02  0.62498329473E+02  0.41800000000E+01 0.  1.
        -11    1    1    2    0    0 -0.49508807386E+02  0.97648375898E+02 -0.20345967533E+03  0.23104581106E+03  0.00000000000E+00 0. -1.
         11    1    1    2    0    0 -0.29988798240E+02  0.92043385250E+01 -0.56594146028E+01  0.31875960239E+02  0.00000000000E+00 0.  1.
</event>
<event>
 7    1  0.4615100E-009  0.9444017E+02  0.7561462E-02  0.1292442E+00
         -1   -1    0    0    0  501 -0.00000000000E+00  0.00000000000E+00  0.75095959233E+02  0.75095959233E+02  0.00000000000E+00 0.  1.
          1   -1    0    0  501    0  0.00000000000E+00 -0.00000000000E+00 -0.24594878469E+03  0.24594878469E+03  0.00000000000E+00 0. -1.
         25    2    1    2    0    0 -0.79260275260E+02 -0.18312333793E+02 -0.98635442468E+02  0.17886867160E+03  0.12509004104E+03 0.  0.
          5    1    3    3  502    0 -0.54962043650E+01  0.15667693954E+02  0.25351555573E+02  0.30591807175E+02  0.41800000000E+01 0.  1.
         -5    1    3    3    0  502 -0.73764070895E+02 -0.33980027747E+02 -0.12398699804E+03  0.14827686443E+03  0.41800000000E+01 0.  1.
        -11    1    1    2    0    0  0.22063526368E+02  0.24424304418E+02  0.16207103695E+02  0.36688091423E+02  0.00000000000E+00 0.  1.
         11    1    1    2    0    0  0.57196748892E+02 -0.61119706254E+01 -0.88424486680E+02  0.10548798090E+03  0.00000000000E+00 0. -1.
</event>
<event>
 6    1  0.2619826E-009  0.2247815E+03  0.7561462E-02  0.1130368E+00
          4   -1    0    0  501    0  0.00000000000E+00  0.00000000000E+00  0.94255031076E+03  0.94255031076E+03  0.00000000000E+00 0. -1.
         -4   -1    0    0    0  501 -0.00000000000E+00 -0.00000000000E+00 -0.58611170525E+02  0.58611170525E+02  0.00000000000E+00 0.  1.
          5    1    1    2  502    0 -0.59031402405E+02  0.38477510726E+02  0.70238065076E+02  0.99579533476E+02  0.41800000000E+01 0. -1.
         -5    1    1    2    0  502 -0.13380885279E+03 -0.89859791492E+02  0.25901465751E+03  0.30509942055E+03  0.41800000000E+01 0. -1.
        -11    1    1    2    0    0  0.39566060940E+01  0.26999455053E+02  0.96672206797E+02  0.10044969324E+03  0.00000000000E+00 0. -1.
         11    1    1    2    0    0  0.18888364910E+03  0.24382825712E+02  0.45801421085E+03  0.49603283402E+03  0.00000000000E+00 0.  1.
</event>
<event>
 7    1  0.2619826E-009  0.1290067E+03  0.7561462E-02  0.1228937E+00
         -2   -1    0    0    0  501 -0.00000000000E+00  0.00000000000E+00  0.15771280753E+03  0.15771280753E+03  0.00000000000E+00 0.  1.
          2   -1    0    0  501    0  0.00000000000E+00 -0.00000000000E+00 -0.13879373153E+03  0.13879373153E+03  0.00000000000E+00 0. -1.
         25    2    1    2    0    0 -0.99116606773E+02 -0.30429638520E+00 -0.21097679008E+01  0.15961280487E+03  0.12509037543E+03 0.  0.
          5    1    3    3  502    0 -0.30242040256E+02 -0.43454533642E+02 -0.43187562860E+02  0.68450825260E+02  0.41800000000E+01 0. -1.
         -5    1    3    3    0  502 -0.68874566517E+02  0.43150237257E+02  0.41077794959E+02  0.91161979613E+02  0.41800000000E+01 0. -1.
        -11    1    1    2    0    0  0.93045906360E+02  0.26410119560E+02  0.39358764442E+02  0.10442292585E+03  0.00000000000E+00 0.  1.
         11    1    1    2    0    0  0.60707004132E+01 -0.26105823174E+02 -0.18329920540E+02  0.32470808338E+02  0.00000000000E+00 0. -1.
</event>
<event>
 7    1  0.2619826E-009  0.1526271E+03  0.7561462E-02  0.1197282E+00
         -2   -1    0    0    0  501 -0.00000000000E+00  0.00000000000E+00  0.81800288941E+02  0.81800288941E+02  0.00000000000E+00 0.  1.
          2   -1    0    0  501    0  0.00000000000E+00 -0.00000000000E+00 -0.32656640886E+03  0.32656640886E+03  0.00000000000E+00 0. -1.
         25    2    1    2    0    0 -0.11256024754E+03  0.23909900967E+02 -0.18678356619E+03  0.25254089877E+03  0.12508921722E+03 0.  0.
          5    1    3    3  502    0  0.22929399769E+02  0.60843179403E+01 -0.42166512504E+01  0.24454628322E+02  0.41800000000E+01 0. -1.
         -5    1    3    3    0  502 -0.13548964731E+03  0.17825583027E+02 -0.18256691494E+03  0.22808627045E+03  0.41800000000E+01 0. -1.
        -11    1    1    2    0    0  0.65705643782E+02 -0.57080582522E+02 -0.30996267920E+02  0.92391520990E+02  0.00000000000E+00 0.  1.
         11    1    1    2    0    0  0.46854603758E+02  0.33170681555E+02 -0.26986285805E+02  0.63434278034E+02  0.00000000000E+00 0. -1.
</event>
<event>
 7    1  0.2619826E-009  0.1463665E+03  0.7561462E-02  0.1205010E+00
         -1   -1    0    0    0  501 -0.00000000000E+00  0.00000000000E+00  0.46050672485E+03  0.46050672485E+03  0.00000000000E+00 0.  1.
          1   -1    0    0  501    0  0.00000000000E+00 -0.00000000000E+00 -0.95693960907E+02  0.95693960907E+02  0.00000000000E+00 0. -1.
         25    2    1    2    0    0 -0.96082359934E+02 -0.10542937305E+03  0.46028884136E+02  0.19522243613E+03  0.12508384708E+03 0.  0.
          5    1    3    3  502    0 -0.23201617564E+02 -0.58948726494E+02 -0.38499290223E+02  0.74249142491E+02  0.41800000000E+01 0. -1.
         -5    1    3    3    0  502 -0.72880742370E+02 -0.46480646554E+02  0.84528174359E+02  0.12097329364E+03  0.41800000000E+01 0. -1.
        -11    1    1    2    0    0  0.55734853134E+02  0.58127985251E+02  0.77326353911E+02  0.11164497988E+03  0.00000000000E+00 0. -1.
         11    1    1    2    0    0  0.40347506800E+02  0.47301387797E+02  0.24145752590E+03  0.24933326975E+03  0.00000000000E+00 0.  1.
</event>
<event>
 7    1  0.2619826E-009  0.8530947E+02  0.7561462E-02  0.1314625E+00
         -1   -1    0    0    0  501 -0.00000000000E+00  0.00000000000E+00  0.49219281554E+02  0.49219281554E+02  0.00000000000E+00 0.  1.
          1   -1    0    0  501    0  0.00000000000E+00 -0.00000000000E+00 -0.24450929553E+03  0.24450929553E+03  0.00000000000E+00 0. -1.
         25    2    1    2    0    0  0.16901548181E+02  0.14779593563E+01 -0.12052613223E+03  0.17453301147E+03  0.12508947537E+03 0.  0.
          5    1    3    3  502    0  0.81989899565E+01  0.62392309343E+02 -0.74299879413E+02  0.97457519886E+02  0.41800000000E+01 0. -1.
         -5    1    3    3    0  502  0.87025582243E+01 -0.60914349987E+02 -0.46226252818E+02  0.77075491588E+02  0.41800000000E+01 0. -1.
        -11    1    1    2    0    0 -0.16900726104E+02 -0.20661525397E+02 -0.90518209931E+02  0.94372027125E+02  0.00000000000E+00 0. -1.
         11    1    1    2    0    0 -0.82207716568E-03  0.19183566041E+02  0.15754328181E+02  0.24823538490E+02  0.00000000000E+00 0.  1.
</event>
<event>
 7    1  0.2619826E-009  0.1051122E+03  0.7561462E-02  0.1269899E+00
          1   -1    0    0  501    0  0.00000000000E+00  0.00000000000E+00  0.52720175292E+02  0.52720175292E+02  0.00000000000E+00 0. -1.
         -1   -1    0    0    0  501 -0.00000000000E+00 -0.00000000000E+00 -0.56011066845E+03  0.56011066845E+03  0.00000000000E+00 0.  1.
         25    2    1    2    0    0  0.66853154570E+02  0.44991912280E+02 -0.46572592426E+03  0.48891717690E+03  0.12508298400E+03 0.  0.
          5    1    3    3  502    0  0.80087654030E+02  0.41001393328E+02 -0.16614874501E+03  0.18899212802E+03  0.41800000000E+01 0.  1.
         -5    1    3    3    0  502 -0.13234499461E+02  0.39905189521E+01 -0.29957717925E+03  0.29992504888E+03  0.41800000000E+01 0.  1.
        -11    1    1    2    0    0 -0.80376953670E+02 -0.45147146863E+02 -0.14167921641E+02  0.93270839788E+02  0.00000000000E+00 0. -1.
         11    1    1    2    0    0  0.13523799100E+02  0.15523458291E+00 -0.27496647250E+02  0.30642827054E+02  0.00000000000E+00 0.  1.
</event>
<event>
 7    1  0.2619826E-009  0.1179895E+03  0.7561462E-02  0.1246451E+00
          1   -1    0    0  501    0  0.00000000000E+00  0.00000000000E+00  0.68071395100E+03  0.68071395100E+03  0.00000000000E+00 0. -1.
         -1   -1    0    0    0  501 -0.00000000000E+00 -0.00000000000E+00 -0.33529202295E+02  0.33529202295E+02  0.00000000000E+00 0.  1.
         25    2    1    2    0    0 -0.69355174041E+02 -0.10543611502E+02  0.52949709346E+03  0.54857390805E+03  0.12507938560E+03 0.  0.
          5    1    3    3  502    0  0.36596894416E+02 -0.40042975454E+01  0.14701394309E+03  0.15161114386E+03  0.41800000000E+01 0.  1.
         -5    1    3    3    0  502 -0.10595206846E+03 -0.65393139564E+01  0.38248315037E+03  0.39696276419E+03  0.41800000000E+01 0.  1.
        -11    1    1    2    0    0  0.64391298635E+02 -0.15457427722E+02  0.27546065027E+02  0.71721385306E+02  0.00000000000E+00 0.  1.
         11    1    1    2    0    0  0.49638754063E+01  0.26001039224E+02  0.90141590221E+02  0.93947859940E+02  0.00000000000E+00 0. -1.
</event>
<event>
 7    1  0.2619826E-009  0.1351844E+03  0.7561462E-02  0.1219960E+00
         -1   -1    0    0    0  501 -0.00000000000E+00  0.00000000000E+00  0.35825815030E+02  0.35825815030E+02  0.00000000000E+00 0.  1.
          1   -1    0    0  501    0  0.00000000000E+00 -0.00000000000E+00 -0.82165479711E+03  0.82165479711E+03  0.00000000000E+00 0. -1.
         25    2    1    2    0    0 -0.43207303881E+01 -0.10107843208E+03 -0.20422198735E+03  0.25997513728E+03  0.12507970957E+03 0.  0.
          5    1    3    3  502    0 -0.44516409097E+02 -0.27804024012E+02 -0.17708821346E+02  0.55550420193E+02  0.41800000000E+01 0.  1.
         -5    1    3    3    0  502  0.40195678709E+02 -0.73274408064E+02 -0.18651316600E+03  0.20442471709E+03  0.41800000000E+01 0.  1.
        -11    1    1    2    0    0 -0.41818763988E+02  0.50735895285E+02 -0.22458672180E+03  0.23401311011E+03  0.00000000000E+00 0.  1.
         11    1    1    2    0    0  0.46139494376E+02  0.50342536792E+02 -0.35702027293E+03  0.36349236476E+03  0.00000000000E+00 0. -1.
</event>
<event>
 7    1  0.3089243E-009  0.1133708E+03  0.7561462E-02  0.1254452E+00
          2   -1    0    0  501    0  0.00000000000E+00  0.00000000000E+00  0.62623133212E+03  0.62623133212E+03  0.00000000000E+00 0. -1.
         -2   -1    0    0    0  501 -0.00000000000E+00 -0.00000000000E+00 -0.33664072319E+02  0.33664072319E+02  0.00000000000E+00 0.  1.
         25    2    1    2    0    0 -0.21288218941E+02  0.76637084767E+02  0.44710569370E+03  0.47103827524E+03  0.12508846619E+03 0.  0.
          5    1    3    3  502    0 -0.35845157966E+02  0.76519127028E+01  0.28770674387E+02  0.46783022800E+02  0.41800000000E+01 0.  1.
         -5    1    3    3    0  502  0.14556939025E+02  0.68985172064E+02  0.41833501932E+03  0.42425525244E+03  0.41800000000E+01 0.  1.
        -11    1    1    2    0    0  0.46611104155E+02 -0.81070664994E+02  0.12436440865E+03  0.15560062304E+03  0.00000000000E+00 0. -1.
         11    1    1    2    0    0 -0.25322885213E+02  0.44335802272E+01  0.21097157457E+02  0.33256506159E+02  0.00000000000E+00 0.  1.
</event>
<event>
 7    1  0.2720216E-009  0.1129510E+03  0.7561462E-02  0.1255201E+00
         -4   -1    0    0    0  501 -0.00000000000E+00  0.00000000000E+00  0.66799744863E+02  0.66799744863E+02  0.00000000000E+00 0. -1.
          4   -1    0    0  501    0  0.00000000000E+00 -0.00000000000E+00 -0.28893153945E+03  0.28893153945E+03  0.00000000000E+00 0.  1.
         25    2    1    2    0    0 -0.44238131634E+01 -0.84687612625E+02 -0.14545374733E+03  0.20974735623E+03  0.12508236877E+03 0.  0.
          5    1    3    3  502    0 -0.52696561884E+02 -0.31382907208E+02 -0.19227486883E+02  0.64412600872E+02  0.41800000000E+01 0. -1.
         -5    1    3    3    0  502  0.48272748720E+02 -0.53304705417E+02 -0.12622626044E+03  0.14533475536E+03  0.41800000000E+01 0. -1.
        -11    1    1    2    0    0  0.18682697223E+02  0.26129863783E+02  0.15645797495E+02  0.35729594682E+02  0.00000000000E+00 0. -1.
         11    1    1    2    0    0 -0.14258884060E+02  0.58557748842E+02 -0.92323844756E+02  0.11025433341E+03  0.00000000000E+00 0.  1.
</event>
<event>
 7    1  0.2619826E-009  0.3208481E+03  0.7561462E-02  0.1075260E+00
         -1   -1    0    0    0  501 -0.00000000000E+00  0.00000000000E+00  0.10030316224E+03  0.10030316224E+03  0.00000000000E+00 0.  1.
          1   -1    0    0  501    0  0.00000000000E+00 -0.00000000000E+00 -0.12184066021E+04  0.12184066021E+04  0.00000000000E+00 0. -1.
         25    2    1    2    0    0 -0.19526963722E+02  0.31398044821E+03 -0.36631567477E+03  0.49879605511E+03  0.12508120098E+03 0.  0.
          5    1    3    3  502    0 -0.11082241785E+02  0.10471187850E+03 -0.43579167732E+02  0.11403512547E+03  0.41800000000E+01 0. -1.
         -5    1    3    3    0  502 -0.84447219370E+01  0.20926856971E+03 -0.32273650703E+03  0.38476092963E+03  0.41800000000E+01 0. -1.
        -11    1    1    2    0    0  0.52460007427E+02 -0.13468247719E+03 -0.35231851000E+03  0.38081459338E+03  0.00000000000E+00 0. -1.
         11    1    1    2    0    0 -0.32933043705E+02 -0.17929797102E+03 -0.39946925514E+03  0.43909911590E+03  0.00000000000E+00 0.  1.
</event>
<event>
 7    1  0.2619826E-009  0.9535813E+02  0.7561462E-02  0.1290372E+00
         -1   -1    0    0    0  501 -0.00000000000E+00  0.00000000000E+00  0.44219232207E+02  0.44219232207E+02  0.00000000000E+00 0.  1.
          1   -1    0    0  501    0  0.00000000000E+00 -0.00000000000E+00 -0.33694531696E+03  0.33694531696E+03  0.00000000000E+00 0. -1.
         25    2    1    2    0    0 -0.31459694398E+02 -0.16600291455E+02 -0.92647465425E+02  0.15967005337E+03  0.12508273680E+03 0.  0.
          5    1    3    3  502    0  0.45319513340E+02 -0.48480782192E+01 -0.11353917099E+02  0.47156611258E+02  0.41800000000E+01 0. -1.
         -5    1    3    3    0  502 -0.76779207738E+02 -0.11752213236E+02 -0.81293548326E+02  0.11251344211E+03  0.41800000000E+01 0. -1.
        -11    1    1    2    0    0  0.73579061172E+01  0.35674099053E+02 -0.18247345045E+03  0.18607348077E+03  0.00000000000E+00 0. -1.
         11    1    1    2    0    0  0.24101788281E+02 -0.19073807597E+02 -0.17605168882E+02  0.35421015033E+02  0.00000000000E+00 0.  1.
</event>
<event>
 7    1  0.2619826E-009  0.9494322E+02  0.7561462E-02  0.1291304E+00
         -2   -1    0    0    0  501 -0.00000000000E+00  0.00000000000E+00  0.11041577123E+02  0.11041577123E+02  0.00000000000E+00 0.  1.
          2   -1    0    0  501    0  0.00000000000E+00 -0.00000000000E+00 -0.12285856738E+04  0.12285856738E+04  0.00000000000E+00 0. -1.
         25    2    1    2    0    0 -0.20702032247E+02  0.34260543414E+02 -0.80276328568E+03  0.81343710290E+03  0.12509463843E+03 0.  0.
          5    1    3    3  502    0  0.76943908822E+01  0.60962027729E+02 -0.19690725128E+03  0.20631410636E+03  0.41800000000E+01 0. -1.
         -5    1    3    3    0  502 -0.28396423130E+02 -0.26701484315E+02 -0.60585603439E+03  0.60712299653E+03  0.41800000000E+01 0. -1.
        -11    1    1    2    0    0  0.50139568201E+01  0.26178735707E+02 -0.56045290467E+02  0.62060781092E+02  0.00000000000E+00 0.  1.
         11    1    1    2    0    0  0.15688075427E+02 -0.60439279121E+02 -0.35873552053E+03  0.36412936693E+03  0.00000000000E+00 0. -1.
</event>
<event>
 7    1  0.2619826E-009  0.1022977E+03  0.7561462E-02  0.1275537E+00
         -1   -1    0    0    0  501 -0.00000000000E+00  0.00000000000E+00  0.10195025437E+03  0.10195025437E+03  0.00000000000E+00 0.  1.
          1   -1    0    0  501    0  0.00000000000E+00 -0.00000000000E+00 -0.14369177772E+03  0.14369177772E+03  0.00000000000E+00 0. -1.
         25    2    1    2    0    0 -0.66388702259E+01  0.87235001321E+01  0.30157320402E+02  0.12913143688E+03  0.12508113353E+03 0.  0.
          5    1    3    3  502    0  0.40934287075E+02 -0.31515838533E+02 -0.12734470662E+02  0.53371369477E+02  0.41800000000E+01 0. -1.
         -5    1    3    3    0  502 -0.47573157301E+02  0.40239338666E+02  0.42891791064E+02  0.75760067401E+02  0.41800000000E+01 0. -1.
        -11    1    1    2    0    0 -0.29856413814E+02 -0.34508214097E+02 -0.26304652697E+02  0.52670267130E+02  0.00000000000E+00 0.  1.
         11    1    1    2    0    0  0.36495284040E+02  0.25784713965E+02 -0.45594191052E+02  0.63840328077E+02  0.00000000000E+00 0. -1.
</event>
<event>
 7    1  0.2619826E-009  0.1444918E+03  0.7561462E-02  0.1207410E+00
         -1   -1    0    0    0  501 -0.00000000000E+00  0.00000000000E+00  0.59912858598E+03  0.59912858598E+03  0.00000000000E+00 0.  1.
          1   -1    0    0  501    0  0.00000000000E+00 -0.00000000000E+00 -0.47071961125E+02  0.47071961125E+02  0.00000000000E+00 0. -1.
         25    2    1    2    0    0 -0.10769881416E+03  0.17846906136E+02  0.41891846135E+03  0.45063155701E+03  0.12513423303E+03 0.  0.
          5    1    3    3  502    0 -0.68198685061E+02  0.70983537100E+02  0.22330547278E+03  0.24407484458E+03  0.41800000000E+01 0.  1.
         -5    1    3    3    0  502 -0.39500129098E+02 -0.53136630965E+02  0.19561298858E+03  0.20655671243E+03  0.41800000000E+01 0.  1.
        -11    1    1    2    0    0  0.81564962046E+02 -0.39080590660E+02  0.13425459943E+03  0.16187783378E+03  0.00000000000E+00 0.  1.
         11    1    1    2    0    0  0.26133852114E+02  0.21233684524E+02 -0.11164359351E+01  0.33691156317E+02  0.00000000000E+00 0. -1.
</event>
<event>
 7    1  0.2619826E-009  0.1776436E+03  0.7561462E-02  0.1170103E+00
         -2   -1    0    0    0  501 -0.00000000000E+00  0.00000000000E+00  0.35034457842E+03  0.35034457842E+03  0.00000000000E+00 0.  1.
          2   -1    0    0  501    0  0.00000000000E+00 -0.00000000000E+00 -0.99138313125E+02  0.99138313125E+02  0.00000000000E+00 0. -1.
         25    2    1    2    0    0 -0.44966434270E+02 -0.14421937671E+03  0.12840300488E+03  0.23442683626E+03  0.12508957218E+03 0.  0.
          5    1    3    3  502    0 -0.49074545005E+02 -0.70486466792E+01  0.53210748325E+01  0.50037791966E+02  0.41800000000E+01 0.  1.
         -5    1    3    3    0  502  0.41081107355E+01 -0.13717073003E+03  0.12308193005E+03  0.18438904430E+03  0.41800000000E+01 0.  1.
        -11    1    1    2    0    0 -0.15684371110E+02  0.73119980213E+02  0.87629864014E+02  0.11520210098E+03  0.00000000000E+00 0.  1.
         11    1    1    2    0    0  0.60650805379E+02  0.71099396500E+02  0.35173396402E+02  0.99853954305E+02  0.00000000000E+00 0. -1.
</event>
<event>
 7    1  0.2619826E-009  0.1376849E+03  0.7561462E-02  0.1216478E+00
          3   -1    0    0  501    0  0.00000000000E+00  0.00000000000E+00  0.17320483924E+03  0.17320483924E+03  0.00000000000E+00 0. -1.
         -3   -1    0    0    0  501 -0.00000000000E+00 -0.00000000000E+00 -0.13216278872E+03  0.13216278872E+03  0.00000000000E+00 0.  1.
         25    2    1    2    0    0 -0.32531811583E+02  0.91418659038E+02 -0.20182619919E+02  0.15961778415E+03  0.12511917872E+03 0.  0.
          5    1    3    3  502    0  0.41529452442E+02  0.10194801320E+02 -0.24636372486E+02  0.49528301438E+02  0.41800000000E+01 0.  1.
         -5    1    3    3    0  502 -0.74061264025E+02  0.81223857717E+02  0.44537525664E+01  0.11008948271E+03  0.41800000000E+01 0.  1.
        -11    1    1    2    0    0 -0.15411146489E+02 -0.66713093986E+02  0.62796985286E+01  0.68757362943E+02  0.00000000000E+00 0.  1.
         11    1    1    2    0    0  0.47942958072E+02 -0.24705565052E+02  0.54944971910E+02  0.76992480876E+02  0.00000000000E+00 0. -1.
</event>
<event>
 7    1  0.2619826E-009  0.1073007E+03  0.7561462E-02  0.1265652E+00
         -1   -1    0    0    0  501 -0.00000000000E+00  0.00000000000E+00  0.16292351382E+02  0.16292351382E+02  0.00000000000E+00 0.  1.
          1   -1    0    0  501    0  0.00000000000E+00 -0.00000000000E+00 -0.94125894633E+03  0.94125894633E+03  0.00000000000E+00 0. -1.
         25    2    1    2    0    0 -0.23603271411E+02 -0.35220453338E+02 -0.68082764370E+03  0.69352065119E+03  0.12508804281E+03 0.  0.
          5    1    3    3  502    0  0.26070262658E+02 -0.67640137591E+02 -0.37185377294E+03  0.37887669190E+03  0.41800000000E+01 0.  1.
         -5    1    3    3    0  502 -0.49673534070E+02  0.32419684254E+02 -0.30897387075E+03  0.31464395930E+03  0.41800000000E+01 0.  1.
        -11    1    1    2    0    0  0.43910418699E+02  0.42348946288E+02 -0.23076367311E+03  0.23869107848E+03  0.00000000000E+00 0. -1.
         11    1    1    2    0    0 -0.20307147288E+02 -0.71284929502E+01 -0.13375278139E+02  0.25339568031E+02  0.00000000000E+00 0.  1.
</event>
<event>
 7    1  0.2619826E-009  0.2202284E+03  0.7561462E-02  0.1133713E+00
          2   -1    0    0  501    0  0.00000000000E+00  0.00000000000E+00  0.18122328524E+03  0.18122328524E+03  0.00000000000E+00 0. -1.
         -2   -1    0    0    0  501 -0.00000000000E+00 -0.00000000000E+00 -0.29341666299E+03  0.29341666299E+03  0.00000000000E+00 0.  1.
         25    2    1    2    0    0 -0.30239286049E+02 -0.19138715301E+03  0.10960309354E+02  0.23089250787E+03  0.12509102708E+03 0.  0.
          5    1    3    3  502    0 -0.15356771197E+02 -0.20735375732E+03  0.56366331190E+01  0.20804003251E+03  0.41800000000E+01 0.  1.
         -5    1    3    3    0  502 -0.14882514853E+02  0.15966604310E+02  0.53236762354E+01  0.22852475362E+02  0.41800000000E+01 0.  1.
        -11    1    1    2    0    0  0.44102714348E+02  0.44229868165E+02 -0.39630538452E+02  0.73972361249E+02  0.00000000000E+00 0. -1.
         11    1    1    2    0    0 -0.13863428299E+02  0.14715728484E+03 -0.83523148656E+02  0.16977507911E+03  0.00000000000E+00 0.  1.
</event>
<event>
 7    1  0.2702195E-009  0.1204547E+03  0.7561462E-02  0.1242349E+00
          3   -1    0    0  501    0  0.00000000000E+00  0.00000000000E+00  0.48334353836E+03  0.48334353836E+03  0.00000000000E+00 0. -1.
         -3   -1    0    0    0  501 -0.00000000000E+00 -0.00000000000E+00 -0.67191391314E+02  0.67191391314E+02  0.00000000000E+00 0.  1.
         25    2    1    2    0    0 -0.10671505494E+03  0.64374175941E+01  0.36566682195E+03  0.40098508903E+03  0.12508906288E+03 0.  0.
          5    1    3    3  502    0 -0.10263757776E+03 -0.21643948622E+02  0.35530465384E+03  0.37048859945E+03  0.41800000000E+01 0.  1.
         -5    1    3    3    0  502 -0.40774771757E+01  0.28081366216E+02  0.10362168110E+02  0.30496489579E+02  0.41800000000E+01 0.  1.
        -11    1    1    2    0    0  0.40490748112E+02 -0.65973951794E+01 -0.25851498891E+02  0.48490476392E+02  0.00000000000E+00 0.  1.
         11    1    1    2    0    0  0.66224306825E+02  0.15997758534E+00  0.76336823989E+02  0.10105936426E+03  0.00000000000E+00 0. -1.
</event>
<event>
 7    1  0.2619826E-009  0.1034252E+03  0.7561462E-02  0.1273254E+00
          2   -1    0    0  501    0  0.00000000000E+00  0.00000000000E+00  0.82267130157E+03  0.82267130157E+03  0.00000000000E+00 0. -1.
         -2   -1    0    0    0  501 -0.00000000000E+00 -0.00000000000E+00 -0.31474107046E+02  0.31474107046E+02  0.00000000000E+00 0.  1.
         25    2    1    2    0    0 -0.62533813870E+02 -0.46297667943E+02  0.66105836126E+03  0.67727365305E+03  0.12508993639E+03 0.  0.
          5    1    3    3  502    0 -0.16453483188E+02 -0.40493966767E+02  0.59691312731E+02  0.74101306798E+02  0.41800000000E+01 0. -1.
         -5    1    3    3    0  502 -0.46080330682E+02 -0.58037011763E+01  0.60136704853E+03  0.60317234625E+03  0.41800000000E+01 0. -1.
        -11    1    1    2    0    0  0.78688705237E+02  0.56794795315E+02  0.90023267844E+02  0.13236974677E+03  0.00000000000E+00 0.  1.
         11    1    1    2    0    0 -0.16154891367E+02 -0.10497127372E+02  0.40115565420E+02  0.44502008798E+02  0.00000000000E+00 0. -1.
</event>
<event>
 7    1  0.2619826E-009  0.2043277E+03  0.7561462E-02  0.1146138E+00
          1   -1    0    0  501    0  0.00000000000E+00  0.00000000000E+00  0.22319934775E+03  0.22319934775E+03  0.00000000000E+00 0. -1.
         -1   -1    0    0    0  501 -0.00000000000E+00 -0.00000000000E+00 -0.22021601526E+03  0.22021601526E+03  0.00000000000E+00 0.  1.
         25    2    1    2    0    0  0.11021859976E+03 -0.13587180206E+03  0.82511422014E+02  0.23035498322E+03  0.12508396061E+03 0.  0.
          5    1    3    3  502    0  0.98484912055E+02 -0.15799824798E+03  0.85258867869E+02  0.20481521237E+03  0.41800000000E+01 0.  1.
         -5    1    3    3    0  502  0.11733687709E+02  0.22126445920E+02 -0.27474458550E+01  0.25539770849E+02  0.41800000000E+01 0.  1.
        -11    1    1    2    0    0 -0.12308183928E+03  0.98904400436E+02 -0.70338625665E+02  0.17285468419E+03  0.00000000000E+00 0.  1.
         11    1    1    2    0    0  0.12863239514E+02  0.36967401621E+02 -0.91894638600E+01  0.40205695610E+02  0.00000000000E+00 0. -1.
</event>
<event>
 7    1  0.2619826E-009  0.1141912E+03  0.7561462E-02  0.1252999E+00
          2   -1    0    0  501    0  0.00000000000E+00  0.00000000000E+00  0.36908118735E+02  0.36908118735E+02  0.00000000000E+00 0. -1.
         -2   -1    0    0    0  501 -0.00000000000E+00 -0.00000000000E+00 -0.58219154988E+03  0.58219154988E+03  0.00000000000E+00 0.  1.
         25    2    1    2    0    0  0.19803848712E+02 -0.92950793527E+02 -0.22716888615E+03  0.27619651427E+03  0.12508704655E+03 0.  0.
          5    1    3    3  502    0  0.20619610583E+02 -0.23748596354E+01 -0.16477036281E+03  0.16612511297E+03  0.41800000000E+01 0. -1.
         -5    1    3    3    0  502 -0.81576187101E+00 -0.90575933892E+02 -0.62398523343E+02  0.11007140130E+03  0.41800000000E+01 0. -1.
        -11    1    1    2    0    0 -0.43372440395E+02  0.75990927324E+02 -0.16207458173E+03  0.18418458042E+03  0.00000000000E+00 0. -1.
         11    1    1    2    0    0  0.23568591683E+02  0.16959866203E+02 -0.15603996326E+03  0.15871857393E+03  0.00000000000E+00 0.  1.
</event>
<event>
 7    1  0.2619826E-009  0.7205221E+02  0.7561462E-02  0.1353250E+00
         -2   -1    0    0    0  501 -0.00000000000E+00  0.00000000000E+00  0.49714000381E+02  0.49714000381E+02  0.00000000000E+00 0.  1.
          2   -1    0    0  501    0  0.00000000000E+00 -0.00000000000E+00 -0.24213508189E+03  0.24213508189E+03  0.00000000000E+00 0. -1.
         25    2    1    2    0    0  0.14571817602E+02  0.55781189082E+01 -0.90204968208E+02  0.15501165777E+03  0.12509286341E+03 0.  0.
          5    1    3    3  502    0 -0.24453674433E+02  0.74203209542E+01 -0.10858749799E+03  0.11163225553E+03  0.41800000000E+01 0.  1.
         -5    1    3    3    0  502  0.39025492036E+02 -0.18422020460E+01  0.18382529779E+02  0.43379402233E+02  0.41800000000E+01 0.  1.
        -11    1    1    2    0    0 -0.37295960546E+02 -0.28273670250E+02 -0.91855042662E+02  0.10309092087E+03  0.00000000000E+00 0. -1.
         11    1    1    2    0    0  0.22724142944E+02  0.22695551342E+02 -0.10361070643E+02  0.33746503643E+02  0.00000000000E+00 0.  1.
</event>
<event>
 7    1  0.2619826E-009  0.1310838E+03  0.7561462E-02  0.1225856E+00
         -2   -1    0    0    0  501 -0.00000000000E+00  0.00000000000E+00  0.26658610752E+03  0.26658610752E+03  0.00000000000E+00 0.  1.
          2   -1    0    0  501    0  0.00000000000E+00 -0.00000000000E+00 -0.90937841709E+02  0.90937841709E+02  0.00000000000E+00 0. -1.
         25    2    1    2    0    0 -0.12692166455E+02  0.79881928770E+02  0.19784101163E+01  0.14897324912E+03  0.12508757417E+03 0.  0.
          5    1    3    3  502    0 -0.65187149072E+02  0.67025080168E+02 -0.77051910020E+01  0.93907231586E+02  0.41800000000E+01 0. -1.
         -5    1    3    3    0  502  0.52494982617E+02  0.12856848602E+02  0.96836011183E+01  0.55066017530E+02  0.41800000000E+01 0. -1.
        -11    1    1    2    0    0  0.42901452779E+02 -0.20075710759E+02  0.86330939270E+02  0.98471315053E+02  0.00000000000E+00 0.  1.
         11    1    1    2    0    0 -0.30209286324E+02 -0.59806218011E+02  0.87338916427E+02  0.11007938506E+03  0.00000000000E+00 0. -1.
</event>
<event>
 7    1  0.3196933E-009  0.8590340E+02  0.7561462E-02  0.1313087E+00
         -1   -1    0    0    0  501 -0.00000000000E+00  0.00000000000E+00  0.30090912894E+03  0.30090912894E+03  0.00000000000E+00 0.  1.
          1   -1    0    0  501    0  0.00000000000E+00 -0.00000000000E+00 -0.51772467901E+02  0.51772467901E+02  0.00000000000E+00 0. -1.
         25    2    1    2    0    0 -0.36237175004E+02  0.20593238826E+02  0.20300372206E+03  0.24206455841E+03  0.12509006726E+03 0.  0.
          5    1    3    3  502    0  0.21852865607E+01 -0.45791044457E+02  0.12216334158E+03  0.13054864862E+03  0.41800000000E+01 0. -1.
         -5    1    3    3    0  502 -0.38422461565E+02  0.66384283283E+02  0.80840380486E+02  0.11151590979E+03  0.41800000000E+01 0. -1.
        -11    1    1    2    0    0  0.13070381888E+02  0.53974789719E+01  0.68031726333E+02  0.69485850716E+02  0.00000000000E+00 0.  1.
         11    1    1    2    0    0  0.23166793116E+02 -0.25990717798E+02 -0.21898787360E+02  0.41131187714E+02  0.00000000000E+00 0. -1.
</event>
<event>
 7    1  0.2619826E-009  0.5387895E+02  0.7561462E-02  0.1425476E+00
         -2   -1    0    0    0  501 -0.00000000000E+00  0.00000000000E+00  0.12781066779E+03  0.12781066779E+03  0.00000000000E+00 0.  1.
          2   -1    0    0  501    0  0.00000000000E+00 -0.00000000000E+00 -0.10788032383E+03  0.10788032383E+03  0.00000000000E+00 0. -1.
         25    2    1    2    0    0 -0.26666780339E+02 -0.36239973495E+02  0.26345435544E+02  0.13551795957E+03  0.12508630037E+03 0.  0.
          5    1    3    3  502    0  0.20984938315E+01 -0.15274346286E+02  0.74104655876E+02  0.75806871412E+02  0.41800000000E+01 0.  1.
         -5    1    3    3    0  502 -0.28765274170E+02 -0.20965627210E+02 -0.47759220331E+02  0.59711088158E+02  0.41800000000E+01 0.  1.
        -11    1    1    2    0    0  0.18692564001E+02 -0.14734001263E+00  0.37913270898E+02  0.42271145811E+02  0.00000000000E+00 0.  1.
         11    1    1    2    0    0  0.79742163375E+01  0.36387313508E+02 -0.44328362480E+02  0.57901886244E+02  0.00000000000E+00 0. -1.
</event>
<event>
 7    1  0.2619826E-009  0.1330337E+03  0.7561462E-02  0.1223022E+00
          2   -1    0    0  501    0  0.00000000000E+00  0.00000000000E+00  0.82813486598E+03  0.82813486598E+03  0.00000000000E+00 0. -1.
         -2   -1    0    0    0  501 -0.00000000000E+00 -0.00000000000E+00 -0.27594549872E+02  0.27594549872E+02  0.00000000000E+00 0.  1.
         25    2    1    2    0    0 -0.54204757036E+02 -0.88250286327E+02  0.46479013451E+03  0.49234514448E+03  0.12509038107E+03 0.  0.
          5    1    3    3  502    0  0.12992127410E+02 -0.92072366127E+02  0.23171769212E+03  0.24971318992E+03  0.41800000000E+01 0.  1.
         -5    1    3    3    0  502 -0.67196884446E+02  0.38220798007E+01  0.23307244239E+03  0.24263195457E+03  0.41800000000E+01 0.  1.
        -11    1    1    2    0    0  0.42745999414E+02  0.50810369702E+02  0.30878390777E+03  0.31584239081E+03  0.00000000000E+00 0. -1.
         11    1    1    2    0    0  0.11458757622E+02  0.37439916625E+02  0.26966273836E+02  0.47541880565E+02  0.00000000000E+00 0.  1.
</event>
<event>
 7    1  0.2619826E-009  0.1104246E+03  0.7561462E-02  0.1259786E+00
         -2   -1    0    0    0  501 -0.00000000000E+00  0.00000000000E+00  0.33285846691E+02  0.33285846691E+02  0.00000000000E+00 0. -1.
          2   -1    0    0  501    0  0.00000000000E+00 -0.00000000000E+00 -0.56087302576E+03  0.56087302576E+03  0.00000000000E+00 0.  1.
         25    2    1    2    0    0  0.80575970629E+02 -0.21995428560E+02 -0.28747470646E+03  0.32444705375E+03  0.12509155812E+03 0.  0.
          5    1    3    3  502    0  0.16787318749E+02 -0.29831418937E+02 -0.51471257013E+01  0.34866788346E+02  0.41800000000E+01 0. -1.
         -5    1    3    3    0  502  0.63788651880E+02  0.78359903776E+01 -0.28232758076E+03  0.28958026540E+03  0.41800000000E+01 0. -1.
        -11    1    1    2    0    0 -0.10685095795E+02 -0.31938850334E+02 -0.52618832655E+02  0.62474018462E+02  0.00000000000E+00 0. -1.
         11    1    1    2    0    0 -0.69890874834E+02  0.53934278894E+02 -0.18749363995E+03  0.20723780024E+03  0.00000000000E+00 0.  1.
</event>
<event>
 7    1  0.2619826E-009  0.1839014E+03  0.7561462E-02  0.1164080E+00
          2   -1    0    0  501    0  0.00000000000E+00  0.00000000000E+00  0.11539479451E+04  0.11539479451E+04  0.00000000000E+00 0. -1.
         -2   -1    0    0    0  501 -0.00000000000E+00 -0.00000000000E+00 -0.38991263407E+02  0.38991263407E+02  0.00000000000E+00 0.  1.
         25    2    1    2    0    0 -0.14741714046E+03  0.44185582463E+02  0.30132596815E+03  0.36073375968E+03  0.12508927728E+03 0.  0.
          5    1    3    3  502    0  0.13430343089E+02 -0.17493163519E+02  0.61119207667E+02  0.65110788900E+02  0.41800000000E+01 0.  1.
         -5    1    3    3    0  502 -0.16084748355E+03  0.61678745982E+02  0.24020676048E+03  0.29562297078E+03  0.41800000000E+01 0.  1.
        -11    1    1    2    0    0  0.15555033603E+03 -0.32677584039E+02  0.77378838574E+03  0.78994442681E+03  0.00000000000E+00 0. -1.
         11    1    1    2    0    0 -0.81331955690E+01 -0.11507998424E+02  0.39842327835E+02  0.42261022055E+02  0.00000000000E+00 0.  1.
</event>
<event>
 7    1  0.2619826E-009  0.1383652E+03  0.7561462E-02  0.1215546E+00
         -1   -1    0    0    0  501 -0.00000000000E+00  0.00000000000E+00  0.83508320078E+02  0.83508320078E+02  0.00000000000E+00 0.  1.
          1   -1    0    0  501    0  0.00000000000E+00 -0.00000000000E+00 -0.34528860917E+03  0.34528860917E+03  0.00000000000E+00 0. -1.
         25    2    1    2    0    0  0.85595219162E+02 -0.88574812994E+02 -0.20140106161E+03  0.26717355856E+03  0.12508910318E+03 0.  0.
          5    1    3    3  502    0  0.41435141303E+02 -0.69668093227E+02 -0.20331406037E+03  0.21891686480E+03  0.41800000000E+01 0. -1.
         -5    1    3    3    0  502  0.44160077858E+02 -0.18906719767E+02  0.19129987549E+01  0.48256693764E+02  0.41800000000E+01 0. -1.
        -11    1    1    2    0    0 -0.58652050024E+02  0.10168035783E+03 -0.35373061173E+02  0.12259776343E+03  0.00000000000E+00 0.  1.
         11    1    1    2    0    0 -0.26943169137E+02 -0.13105544838E+02 -0.25006166305E+02  0.39025607259E+02  0.00000000000E+00 0. -1.
</event>
<event>
 7    1  0.2619826E-009  0.1083346E+03  0.7561462E-02  0.1263685E+00
          1   -1    0    0  501    0  0.00000000000E+00  0.00000000000E+00  0.25721087318E+03  0.25721087318E+03  0.00000000000E+00 0. -1.
         -1   -1    0    0    0  501 -0.00000000000E+00 -0.00000000000E+00 -0.65364430835E+02  0.65364430835E+02  0.00000000000E+00 0.  1.
         25    2    1    2    0    0  0.62178431492E+01 -0.68426370036E+02  0.12915293953E+03  0.19248161346E+03  0.12509140674E+03 0.  0.
          5    1    3    3  502    0 -0.39230833826E+02 -0.31031170539E+02  0.12337587524E+03  0.13319561126E+03  0.41800000000E+01 0.  1.
         -5    1    3    3    0  502  0.45448676976E+02 -0.37395199497E+02  0.57770642887E+01  0.59286002193E+02  0.41800000000E+01 0.  1.
        -11    1    1    2    0    0 -0.43409302771E+02  0.49170073446E+02  0.58702622795E+02  0.88023074320E+02  0.00000000000E+00 0.  1.
         11    1    1    2    0    0  0.37191459622E+02  0.19256296590E+02  0.39908800150E+01  0.42070616236E+02  0.00000000000E+00 0. -1.
</event>
<event>
 7    1  0.2619826E-009  0.9649205E+02  0.7561462E-02  0.1287851E+00
         -2   -1    0    0    0  501 -0.00000000000E+00  0.00000000000E+00  0.67020615473E+03  0.67020615473E+03  0.00000000000E+00 0.  1.
          2   -1    0    0  501    0  0.00000000000E+00 -0.00000000000E+00 -0.22237503418E+02  0.22237503418E+02  0.00000000000E+00 0. -1.
         25    2    1    2    0    0  0.10894687460E+01 -0.47928521467E+01  0.20422477383E+03  0.23954005389E+03  0.12509005075E+03 0.  0.
          5    1    3    3  502    0  0.33830019887E+02  0.36318153141E+02  0.16886804849E+03  0.17606069606E+03  0.41800000000E+01 0.  1.
         -5    1    3    3    0  502 -0.32740551141E+02 -0.41111005288E+02  0.35356725338E+02  0.63479357837E+02  0.41800000000E+01 0.  1.
        -11    1    1    2    0    0 -0.44895266093E+02 -0.61162215625E+01  0.23623003001E+03  0.24053610989E+03  0.00000000000E+00 0.  1.
         11    1    1    2    0    0  0.43805797347E+02  0.10909073709E+02  0.20751384747E+03  0.21236749436E+03  0.00000000000E+00 0. -1.
</event>
<event>
 7    1  0.2619826E-009  0.1040415E+03  0.7561462E-02  0.1272020E+00
          2   -1    0    0  501    0  0.00000000000E+00  0.00000000000E+00  0.54939329029E+02  0.54939329029E+02  0.00000000000E+00 0. -1.
         -2   -1    0    0    0  501 -0.00000000000E+00 -0.00000000000E+00 -0.39320365356E+03  0.39320365356E+03  0.00000000000E+00 0.  1.
         25    2    1    2    0    0  0.68383441005E+02  0.19276142494E+02 -0.28758234712E+03  0.32155712753E+03  0.12509002846E+03 0.  0.
          5    1    3    3  502    0  0.16255899323E+01 -0.16163369016E+02  0.64242030554E+01  0.17962177638E+02  0.41800000000E+01 0.  1.
         -5    1    3    3    0  502  0.66757851073E+02  0.35439511511E+02 -0.29400655018E+03  0.30359494990E+03  0.41800000000E+01 0.  1.
        -11    1    1    2    0    0 -0.12559082314E+02  0.35345268868E+02 -0.21330844422E+02  0.43151170362E+02  0.00000000000E+00 0. -1.
         11    1    1    2    0    0 -0.55824358692E+02 -0.54621411362E+02 -0.29351132993E+02  0.83434684697E+02  0.00000000000E+00 0.  1.
</event>
<event>
 7    1  0.2619826E-009  0.1257783E+03  0.7561462E-02  0.1233858E+00
          1   -1    0    0  501    0  0.00000000000E+00  0.00000000000E+00  0.23795184002E+03  0.23795184002E+03  0.00000000000E+00 0. -1.
         -1   -1    0    0    0  501 -0.00000000000E+00 -0.00000000000E+00 -0.89161394820E+02  0.89161394820E+02  0.00000000000E+00 0.  1.
         25    2    1    2    0    0 -0.64564011501E+02  0.68890208499E+02  0.10597029160E+03  0.18918572748E+03  0.12508862606E+03 0.  0.
          5    1    3    3  502    0  0.26239680678E+02 -0.46049742984E+01  0.55810196144E+02  0.61983683531E+02  0.41800000000E+01 0.  1.
         -5    1    3    3    0  502 -0.90803692178E+02  0.73495182798E+02  0.50160095456E+02  0.12720204395E+03  0.41800000000E+01 0.  1.
        -11    1    1    2    0    0  0.43431715131E+02 -0.74136586879E+02  0.64318739596E+02  0.10732868981E+03  0.00000000000E+00 0. -1.
         11    1    1    2    0    0  0.21132296370E+02  0.52463783795E+01 -0.21498585995E+02  0.30598817554E+02  0.00000000000E+00 0.  1.
</event>
<event>
 7    1  0.2619826E-009  0.1719964E+03  0.7561462E-02  0.1175782E+00
         -2   -1    0    0    0  501 -0.00000000000E+00  0.00000000000E+00  0.39531215742E+02  0.39531215742E+02  0.00000000000E+00 0.  1.
          2   -1    0    0  501    0  0.00000000000E+00 -0.00000000000E+00 -0.77844990548E+03  0.77844990548E+03  0.00000000000E+00 0. -1.
         25    2    1    2    0    0 -0.43162817083E+02 -0.12993624217E+03 -0.36218515868E+03  0.40690588212E+03  0.12509137431E+03 0.  0.
          5    1    3    3  502    0  0.29580390282E+02  0.21315704234E+01 -0.31610726321E+02  0.43545992930E+02  0.41800000000E+01 0. -1.
         -5    1    3    3    0  502 -0.72743207365E+02 -0.13206781259E+03 -0.33057443236E+03  0.36335988919E+03  0.41800000000E+01 0. -1.
        -11    1    1    2    0    0  0.24299670582E+02  0.13981778232E+03 -0.30806529358E+03  0.33918094190E+03  0.00000000000E+00 0. -1.
         11    1    1    2    0    0  0.18863146501E+02 -0.98815401461E+01 -0.68668237489E+02  0.71894297211E+02  0.00000000000E+00 0.  1.
</event>
<event>
 7    1  0.2619826E-009  0.9367223E+02  0.7561462E-02  0.1294195E+00
          2   -1    0    0  501    0  0.00000000000E+00  0.00000000000E+00  0.47170959037E+03  0.47170959037E+03  0.00000000000E+00 0. -1.
         -2   -1    0    0    0  501 -0.00000000000E+00 -0.00000000000E+00 -0.31045354805E+02  0.31045354805E+02  0.00000000000E+00 0.  1.
         25    2    1    2    0    0  0.38420631210E+01  0.43116205786E+02  0.18271240473E+03  0.22562247342E+03  0.12509160251E+03 0.  0.
          5    1    3    3  502    0 -0.49280103029E+02  0.62154402165E+01  0.13841130481E+03  0.14711329631E+03  0.41800000000E+01 0. -1.
         -5    1    3    3    0  502  0.53122166150E+02  0.36900765570E+02  0.44301099921E+02  0.78509177109E+02  0.41800000000E+01 0. -1.
        -11    1    1    2    0    0  0.87531145301E+01 -0.54804717741E+02  0.25333069160E+03  0.25933880042E+03  0.00000000000E+00 0. -1.
         11    1    1    2    0    0 -0.12595177651E+02  0.11688511955E+02  0.46211392408E+01  0.17793671337E+02  0.00000000000E+00 0.  1.
</event>
<event>
 7    1  0.2619826E-009  0.1226037E+03  0.7561462E-02  0.1238863E+00
         -1   -1    0    0    0  501 -0.00000000000E+00  0.00000000000E+00  0.39850650027E+02  0.39850650027E+02  0.00000000000E+00 0.  1.
          1   -1    0    0  501    0  0.00000000000E+00 -0.00000000000E+00 -0.51202440249E+03  0.51202440249E+03  0.00000000000E+00 0. -1.
         25    2    1    2    0    0 -0.66536687935E+01 -0.92435485044E+02 -0.28621289915E+03  0.32581398765E+03  0.12509332799E+03 0.  0.
          5    1    3    3  502    0  0.42646935247E+02 -0.91910926069E+02 -0.22718398911E+03  0.24878990479E+03  0.41800000000E+01 0. -1.
         -5    1    3    3    0  502 -0.49300604041E+02 -0.52455897448E+00 -0.59028910038E+02  0.77024082865E+02  0.41800000000E+01 0. -1.
        -11    1    1    2    0    0  0.12517243014E+02  0.53606339277E+02 -0.17756759003E+03  0.18590473370E+03  0.00000000000E+00 0. -1.
         11    1    1    2    0    0 -0.58635742207E+01  0.38829145767E+02 -0.83932632819E+01  0.40156331159E+02  0.00000000000E+00 0.  1.
</event>
<event>
 7    1  0.2619826E-009  0.2231735E+03  0.7561462E-02  0.1131539E+00
          2   -1    0    0  501    0  0.00000000000E+00  0.00000000000E+00  0.40203639662E+04  0.40203639662E+04  0.00000000000E+00 0. -1.
         -2   -1    0    0    0  501 -0.00000000000E+00 -0.00000000000E+00 -0.32560818204E+02  0.32560818204E+02  0.00000000000E+00 0.  1.
         25    2    1    2    0    0  0.18289751537E+03  0.76711033809E+02  0.36023717793E+04  0.36099952004E+04  0.12508727484E+03 0.  0.
          5    1    3    3  502    0  0.16638647744E+03  0.13233668176E+02  0.23717074392E+04  0.23775771784E+04  0.41800000000E+01 0. -1.
         -5    1    3    3    0  502  0.16511037931E+02  0.63477365634E+02  0.12306643401E+04  0.12324180219E+04  0.41800000000E+01 0. -1.
        -11    1    1    2    0    0 -0.30916482421E+02  0.16829021251E+02  0.34814748746E+02  0.49508701981E+02  0.00000000000E+00 0. -1.
         11    1    1    2    0    0 -0.15198103295E+03 -0.93540055060E+02  0.35061661998E+03  0.39342088212E+03  0.00000000000E+00 0.  1.
</event>
<event>
 7    1  0.2619826E-009  0.1236248E+03  0.7561462E-02  0.1237234E+00
          1   -1    0    0  501    0  0.00000000000E+00  0.00000000000E+00  0.25997659818E+03  0.25997659818E+03  0.00000000000E+00 0. -1.
         -1   -1    0    0    0  501 -0.00000000000E+00 -0.00000000000E+00 -0.71251499472E+02  0.71251499472E+02  0.00000000000E+00 0.  1.
         25    2    1    2    0    0 -0.75514898102E+02 -0.10267713097E+02  0.70215946355E+02  0.16243212219E+03  0.12508392954E+03 0.  0.
          5    1    3    3  502    0 -0.86173723583E+02  0.26129284542E+02  0.93943995569E+01  0.90633201918E+02  0.41800000000E+01 0.  1.
         -5    1    3    3    0  502  0.10658825481E+02 -0.36396997639E+02  0.60821546798E+02  0.71798920275E+02  0.41800000000E+01 0.  1.
        -11    1    1    2    0    0  0.72251144488E+02 -0.30229893597E+02  0.66118304518E+02  0.10249733918E+03  0.00000000000E+00 0.  1.
         11    1    1    2    0    0  0.32637536134E+01  0.40497606693E+02  0.52390847837E+02  0.66298636280E+02  0.00000000000E+00 0. -1.
</event>
<event>
 7    1  0.2619826E-009  0.8302965E+02  0.7561462E-02  0.1320667E+00
         -1   -1    0    0    0  501 -0.00000000000E+00  0.00000000000E+00  0.20415191013E+03  0.20415191013E+03  0.00000000000E+00 0.  1.
          1   -1    0    0  501    0  0.00000000000E+00 -0.00000000000E+00 -0.77092731034E+02  0.77092731034E+02  0.00000000000E+00 0. -1.
         25    2    1    2    0    0  0.68868547888E+01 -0.66630205171E+02  0.39489424513E+02  0.14728724211E+03  0.12508838487E+03 0.  0.
          5    1    3    3  502    0  0.93219417318E+01 -0.30581551360E+02  0.83900666454E+02  0.89882835473E+02  0.41800000000E+01 0.  1.
         -5    1    3    3    0  502 -0.24350869431E+01 -0.36048653811E+02 -0.44411241941E+02  0.57404406632E+02  0.41800000000E+01 0.  1.
        -11    1    1    2    0    0 -0.12761428911E+02  0.80958864503E+02  0.85321821583E+02  0.11830893900E+03  0.00000000000E+00 0.  1.
         11    1    1    2    0    0  0.58745741223E+01 -0.14328659333E+02  0.22479330000E+01  0.15648460057E+02  0.00000000000E+00 0. -1.
</event>
<event>
 7    1  0.2642108E-009  0.9164813E+02  0.7561462E-02  0.1298909E+00
         -1   -1    0    0    0  501 -0.00000000000E+00  0.00000000000E+00  0.23140508752E+02  0.23140508752E+02  0.00000000000E+00 0.  1.
          1   -1    0    0  501    0  0.00000000000E+00 -0.00000000000E+00 -0.74202079867E+03  0.74202079867E+03  0.00000000000E+00 0. -1.
         25    2    1    2    0    0 -0.53192589002E+02 -0.24539086453E+01 -0.54973495425E+03  0.56629648048E+03  0.12509080978E+03 0.  0.
          5    1    3    3  502    0 -0.55255771489E+02  0.20183311552E+02 -0.10093121477E+03  0.11689802763E+03  0.41800000000E+01 0.  1.
         -5    1    3    3    0  502  0.20631824868E+01 -0.22637220198E+02 -0.44880373947E+03  0.44939845285E+03  0.41800000000E+01 0.  1.
        -11    1    1    2    0    0  0.13758096791E+02 -0.40574580570E+02 -0.47659365335E+02  0.64085855849E+02  0.00000000000E+00 0.  1.
         11    1    1    2    0    0  0.39434492212E+02  0.43028489216E+02 -0.12148597034E+03  0.13477897110E+03  0.00000000000E+00 0. -1.
</event>
<event>
 7    1  0.2619826E-009  0.1317524E+03  0.7561462E-02  0.1224878E+00
          2   -1    0    0  501    0  0.00000000000E+00  0.00000000000E+00  0.14462916100E+03  0.14462916100E+03  0.00000000000E+00 0. -1.
         -2   -1    0    0    0  501 -0.00000000000E+00 -0.00000000000E+00 -0.14447334180E+03  0.14447334180E+03  0.00000000000E+00 0.  1.
         25    2    1    2    0    0  0.61785382860E+02  0.75025597037E+02  0.30308300929E+01  0.15843892678E+03  0.12508970318E+03 0.  0.
          5    1    3    3  502    0 -0.12955509115E+02  0.65067184401E+02  0.36499926056E+02  0.75837330546E+02  0.41800000000E+01 0. -1.
         -5    1    3    3    0  502  0.74740891975E+02  0.99584126362E+01 -0.33469095963E+02  0.82601596232E+02  0.41800000000E+01 0. -1.
        -11    1    1    2    0    0 -0.52595944892E+02 -0.72235918602E+01 -0.25097883444E+02  0.58723227532E+02  0.00000000000E+00 0.  1.
         11    1    1    2    0    0 -0.91894379676E+01 -0.67802005177E+02  0.22222872556E+02  0.71940348490E+02  0.00000000000E+00 0. -1.
</event>
<event>
 7    1  0.2619826E-009  0.7221447E+02  0.7561462E-02  0.1352721E+00
          2   -1    0    0  501    0  0.00000000000E+00  0.00000000000E+00  0.17854976183E+03  0.17854976183E+03  0.00000000000E+00 0. -1.
         -2   -1    0    0    0  501 -0.00000000000E+00 -0.00000000000E+00 -0.76629059237E+02  0.76629059237E+02  0.00000000000E+00 0.  1.
         25    2    1    2    0    0 -0.80494263981E+01  0.19022587565E+02  0.20068661674E+02  0.12836384199E+03  0.12509145713E+03 0.  0.
          5    1    3    3  502    0  0.13224211587E+02 -0.25577295726E+02  0.58691484089E+02  0.65507560887E+02  0.41800000000E+01 0.  1.
         -5    1    3    3    0  502 -0.21273637986E+02  0.44599883290E+02 -0.38622822416E+02  0.62856281102E+02  0.41800000000E+01 0.  1.
        -11    1    1    2    0    0  0.11762114682E+00 -0.41709510200E+02  0.21129425205E+00  0.41710211234E+02  0.00000000000E+00 0.  1.
         11    1    1    2    0    0  0.79318052513E+01  0.22686922636E+02  0.81640746663E+02  0.85104767839E+02  0.00000000000E+00 0. -1.
</event>
<event>
 7    1  0.2619826E-009  0.1039697E+03  0.7561462E-02  0.1272163E+00
          4   -1    0    0  501    0  0.00000000000E+00  0.00000000000E+00  0.94924333323E+02  0.94924333323E+02  0.00000000000E+00 0. -1.
         -4   -1    0    0    0  501 -0.00000000000E+00 -0.00000000000E+00 -0.20146704866E+03  0.20146704866E+03  0.00000000000E+00 0.  1.
         25    2    1    2    0    0 -0.17558714268E+02  0.50162491904E+02 -0.13209017601E+03  0.18952338129E+03  0.12508682350E+03 0.  0.
          5    1    3    3  502    0  0.97324870185E+01 -0.27420243075E+02  0.47886125054E+01  0.29782448583E+02  0.41800000000E+01 0.  1.
         -5    1    3    3    0  502 -0.27291201287E+02  0.77582734979E+02 -0.13687878852E+03  0.15974093270E+03  0.41800000000E+01 0.  1.
        -11    1    1    2    0    0 -0.30042092117E+02 -0.35246071877E+02  0.32394005419E+02  0.56517116598E+02  0.00000000000E+00 0. -1.
         11    1    1    2    0    0  0.47600806385E+02 -0.14916420027E+02 -0.68465447461E+01  0.50350884102E+02  0.00000000000E+00 0.  1.
</event>
<event>
 7    1  0.2619826E-009  0.1046383E+03  0.7561462E-02  0.1270834E+00
          2   -1    0    0  501    0  0.00000000000E+00  0.00000000000E+00  0.14036688373E+03  0.14036688373E+03  0.00000000000E+00 0. -1.
         -2   -1    0    0    0  501 -0.00000000000E+00 -0.00000000000E+00 -0.11560318290E+03  0.11560318290E+03  0.00000000000E+00 0.  1.
         25    2    1    2    0    0  0.39773997031E+02 -0.13602954460E+02  0.65870608001E+02  0.14749377230E+03  0.12509382342E+03 0.  0.
          5    1    3    3  502    0 -0.43899552849E+02 -0.13457144732E+02  0.11170915798E+02  0.47439722221E+02  0.41800000000E+01 0.  1.
         -5    1    3    3    0  502  0.83673549880E+02 -0.14580972841E+00  0.54699692203E+02  0.10005405008E+03  0.41800000000E+01 0.  1.
        -11    1    1    2    0    0 -0.25456237060E+00 -0.24497132038E+02 -0.47265722606E+02  0.53237419299E+02  0.00000000000E+00 0.  1.
         11    1    1    2    0    0 -0.39519434661E+02  0.38100086498E+02  0.61588154320E+01  0.55238875030E+02  0.00000000000E+00 0. -1.
</event>
<event>
 7    1  0.2619826E-009  0.1149860E+03  0.7561462E-02  0.1251606E+00
         -1   -1    0    0    0  501 -0.00000000000E+00  0.00000000000E+00  0.23521564377E+02  0.23521564377E+02  0.00000000000E+00 0.  1.
          1   -1    0    0  501    0  0.00000000000E+00 -0.00000000000E+00 -0.69731870752E+03  0.69731870752E+03  0.00000000000E+00 0. -1.
         25    2    1    2    0    0  0.46250642739E+02 -0.42981694625E+02 -0.29083882147E+03  0.32283263121E+03  0.12508852735E+03 0.  0.
          5    1    3    3  502    0  0.56690996242E+02 -0.75434689361E+02 -0.26017395583E+03  0.27678912751E+03  0.41800000000E+01 0. -1.
         -5    1    3    3    0  502 -0.10440353503E+02  0.32452994736E+02 -0.30664865638E+02  0.46043503702E+02  0.41800000000E+01 0. -1.
        -11    1    1    2    0    0 -0.47507930525E+02  0.64227030402E+02 -0.34823531904E+03  0.35728133497E+03  0.00000000000E+00 0. -1.
         11    1    1    2    0    0  0.12572877860E+01 -0.21245335777E+02 -0.34723002639E+02  0.40726305714E+02  0.00000000000E+00 0.  1.
</event>
<event>
 7    1  0.2619826E-009  0.8369516E+02  0.7561462E-02  0.1318881E+00
          1   -1    0    0  501    0  0.00000000000E+00  0.00000000000E+00  0.18914985297E+03  0.18914985297E+03  0.00000000000E+00 0. -1.
         -1   -1    0    0    0  501 -0.00000000000E+00 -0.00000000000E+00 -0.68480247051E+02  0.68480247051E+02  0.00000000000E+00 0.  1.
         25    2    1    2    0    0 -0.14187401296E+02 -0.26402085001E+02  0.92554960053E+02  0.15846914734E+03  0.12509075738E+03 0.  0.
          5    1    3    3  502    0  0.45582522129E+02  0.15589683349E+02  0.63335149262E+02  0.79684490854E+02  0.41800000000E+01 0.  1.
         -5    1    3    3    0  502 -0.59769923425E+02 -0.41991768350E+02  0.29219810790E+02  0.78784656489E+02  0.41800000000E+01 0.  1.
        -11    1    1    2    0    0  0.18800801866E+02 -0.26797813517E+00  0.56734849810E+02  0.59769433209E+02  0.00000000000E+00 0. -1.
         11    1    1    2    0    0 -0.46134005707E+01  0.26670063136E+02 -0.28620203943E+02  0.39391519471E+02  0.00000000000E+00 0.  1.
</event>
<event>
 7    1  0.2619826E-009  0.1137642E+03  0.7561462E-02  0.1253754E+00
          3   -1    0    0  501    0  0.00000000000E+00  0.00000000000E+00  0.21990794893E+03  0.21990794893E+03  0.00000000000E+00 0. -1.
         -3   -1    0    0    0  501 -0.00000000000E+00 -0.00000000000E+00 -0.67454439122E+02  0.67454439122E+02  0.00000000000E+00 0.  1.
         25    2    1    2    0    0 -0.24586233489E+02 -0.50681973845E+02  0.79993201669E+02  0.15880431140E+03  0.12508697637E+03 0.  0.
          5    1    3    3  502    0  0.34050361496E+02  0.23898454541E+02  0.30223114233E+02  0.51589459014E+02  0.41800000000E+01 0.  1.
         -5    1    3    3    0  502 -0.58636594985E+02 -0.74580428385E+02  0.49770087436E+02  0.10721485239E+03  0.41800000000E+01 0.  1.
        -11    1    1    2    0    0 -0.25213814436E+02  0.13451660691E+02  0.58092728922E+02  0.64741399177E+02  0.00000000000E+00 0.  1.
         11    1    1    2    0    0  0.49800047925E+02  0.37230313153E+02  0.14367579217E+02  0.63816677470E+02  0.00000000000E+00 0. -1.
</event>
<event>
 7    1  0.2619826E-009  0.8742926E+02  0.7561462E-02  0.1309199E+00
          1   -1    0    0  501    0  0.00000000000E+00  0.00000000000E+00  0.39741977007E+03  0.39741977007E+03  0.00000000000E+00 0. -1.
         -1   -1    0    0    0  501 -0.00000000000E+00 -0.00000000000E+00 -0.33289365979E+02  0.33289365979E+02  0.00000000000E+00 0.  1.
         25    2    1    2    0    0 -0.22058770082E+02  0.26896500880E+02  0.18783930811E+03  0.22834460486E+03  0.12509053442E+03 0.  0.
          5    1    3    3  502    0 -0.20968636181E+01  0.46806516125E+02  0.19362873813E+03  0.19926065196E+03  0.41800000000E+01 0.  1.
         -5    1    3    3    0  502 -0.19961906464E+02 -0.19910015245E+02 -0.57894300198E+01  0.29083952907E+02  0.41800000000E+01 0.  1.
        -11    1    1    2    0    0 -0.16218810932E+02  0.28020810243E+02  0.54636539439E+02  0.63508795270E+02  0.00000000000E+00 0.  1.
         11    1    1    2    0    0  0.38277581013E+02 -0.54917311123E+02  0.12165455655E+03  0.13885573592E+03  0.00000000000E+00 0. -1.
</event>
<event>
 7    1  0.2619826E-009  0.1761742E+03  0.7561462E-02  0.1171558E+00
          1   -1    0    0  501    0  0.00000000000E+00  0.00000000000E+00  0.38694339198E+03  0.38694339198E+03  0.00000000000E+00 0. -1.
         -1   -1    0    0    0  501 -0.00000000000E+00 -0.00000000000E+00 -0.85827550921E+02  0.85827550921E+02  0.00000000000E+00 0.  1.
         25    2    1    2    0    0  0.13556916575E+03 -0.65968501155E+02  0.18785660715E+03  0.27142095596E+03  0.12509351957E+03 0.  0.
          5    1    3    3  502    0  0.19735447749E+02 -0.71939401138E+02  0.44467279769E+02  0.86945826260E+02  0.41800000000E+01 0. -1.
         -5    1    3    3    0  502  0.11583371800E+03  0.59708999830E+01  0.14338932738E+03  0.18447512970E+03  0.41800000000E+01 0. -1.
        -11    1    1    2    0    0 -0.74333018958E+01  0.26457841548E+02  0.40064406071E+02  0.48584236027E+02  0.00000000000E+00 0.  1.
         11    1    1    2    0    0 -0.12813586386E+03  0.39510659607E+02  0.73194827840E+02  0.15276575091E+03  0.00000000000E+00 0. -1.
</event>
<event>
 7    1  0.2619826E-009  0.1914636E+03  0.7561462E-02  0.1157148E+00
         -2   -1    0    0    0  501 -0.00000000000E+00  0.00000000000E+00  0.96625780501E+02  0.96625780501E+02  0.00000000000E+00 0.  1.
          2   -1    0    0  501    0  0.00000000000E+00 -0.00000000000E+00 -0.42105347396E+03  0.42105347396E+03  0.00000000000E+00 0. -1.
         25    2    1    2    0    0  0.16732338843E+03 -0.15122626038E+02 -0.14243267044E+03  0.25329630234E+03  0.12508453556E+03 0.  0.
          5    1    3    3  502    0  0.23469954127E+02 -0.39975453039E+02  0.37064558827E+01  0.46691389009E+02  0.41800000000E+01 0. -1.
         -5    1    3    3    0  502  0.14385343430E+03  0.24852827000E+02 -0.14613912633E+03  0.20660491333E+03  0.41800000000E+01 0. -1.
        -11    1    1    2    0    0 -0.10790735141E+03  0.52647166131E+02 -0.98875464737E+02  0.15553802788E+03  0.00000000000E+00 0.  1.
         11    1    1    2    0    0 -0.59416037021E+02 -0.37524540093E+02 -0.83119558277E+02  0.10884492424E+03  0.00000000000E+00 0. -1.
</event>
<event>
 7    1  0.2619826E-009  0.1452764E+03  0.7561462E-02  0.1206400E+00
         -2   -1    0    0    0  501 -0.00000000000E+00  0.00000000000E+00  0.24408680601E+02  0.24408680601E+02  0.00000000000E+00 0.  1.
          2   -1    0    0  501    0  0.00000000000E+00 -0.00000000000E+00 -0.11117198549E+04  0.11117198549E+04  0.00000000000E+00 0. -1.
         25    2    1    2    0    0 -0.59963644459E+02 -0.85490540054E+02 -0.80987975459E+03  0.82610950902E+03  0.12508969941E+03 0.  0.
          5    1    3    3  502    0 -0.37860792585E+02  0.25726741927E+02 -0.16316231776E+03  0.16951318297E+03  0.41800000000E+01 0. -1.
         -5    1    3    3    0  502 -0.22102851874E+02 -0.11121728198E+03 -0.64671743683E+03  0.65659632604E+03  0.41800000000E+01 0. -1.
        -11    1    1    2    0    0  0.55263770563E+02  0.10088108710E+03 -0.19811396803E+03  0.22908562242E+03  0.00000000000E+00 0.  1.
         11    1    1    2    0    0  0.46998738965E+01 -0.15390547042E+02 -0.79317451723E+02  0.80933404110E+02  0.00000000000E+00 0. -1.
</event>
<event>
 7    1  0.2619826E-009  0.1135432E+03  0.7561462E-02  0.1254146E+00
         -2   -1    0    0    0  501 -0.00000000000E+00  0.00000000000E+00  0.14923917930E+02  0.14923917930E+02  0.00000000000E+00 0.  1.
          2   -1    0    0  501    0  0.00000000000E+00 -0.00000000000E+00 -0.20256232704E+04  0.20256232704E+04  0.00000000000E+00 0. -1.
         25    2    1    2    0    0 -0.58097554865E+02 -0.84513272075E+02 -0.16638502338E+04  0.16716944943E+04  0.12508822058E+03 0.  0.
          5    1    3    3  502    0 -0.46346870009E+02 -0.76817557584E+02 -0.51649537627E+03  0.52424604493E+03  0.41800000000E+01 0.  1.
         -5    1    3    3    0  502 -0.11750684856E+02 -0.76957144905E+01 -0.11473548575E+04  0.11474484494E+04  0.41800000000E+01 0.  1.
        -11    1    1    2    0    0  0.13272289782E+02  0.75800485274E+02 -0.25367489650E+03  0.26509021174E+03  0.00000000000E+00 0.  1.
         11    1    1    2    0    0  0.44825265083E+02  0.87127868010E+01 -0.93174222248E+02  0.10376248231E+03  0.00000000000E+00 0. -1.
</event>
<event>
 7    1  0.2619826E-009  0.1036472E+03  0.7561462E-02  0.1272808E+00
         -2   -1    0    0    0  501 -0.00000000000E+00  0.00000000000E+00  0.12615058939E+03  0.12615058939E+03  0.00000000000E+00 0.  1.
          2   -1    0    0  501    0  0.00000000000E+00 -0.00000000000E+00 -0.15216608701E+03  0.15216608701E+03  0.00000000000E+00 0. -1.
         25    2    1    2    0    0 -0.63496704446E+02 -0.54146126241E+02  0.50208555723E+01  0.15046103003E+03  0.12509867348E+03 0.  0.
          5    1    3    3  502    0 -0.34603098896E+02 -0.28004031967E+02  0.64952883904E+02  0.78853977624E+02  0.41800000000E+01 0.  1.
         -5    1    3    3    0  502 -0.28893605550E+02 -0.26142094274E+02 -0.59932028332E+02  0.71607052408E+02  0.41800000000E+01 0.  1.
        -11    1    1    2    0    0 -0.20288169586E+02  0.29971097808E+02 -0.32732789517E+01  0.36339935114E+02  0.00000000000E+00 0.  1.
         11    1    1    2    0    0  0.83784874033E+02  0.24175028433E+02 -0.27763074237E+02  0.91515711260E+02  0.00000000000E+00 0. -1.
</event>
<event>
 7    1  0.2619826E-009  0.9515329E+02  0.7561462E-02  0.1290831E+00
         -1   -1    0    0    0  501 -0.00000000000E+00  0.00000000000E+00  0.11311537069E+03  0.11311537069E+03  0.00000000000E+00 0.  1.
          1   -1    0    0  501    0  0.00000000000E+00 -0.00000000000E+00 -0.13216566186E+03  0.13216566186E+03  0.00000000000E+00 0. -1.
         25    2    1    2    0    0  0.22633986756E+02 -0.15356566928E+02  0.31727232904E+02  0.13191703434E+03  0.12508942856E+03 0.  0.
          5    1    3    3  502    0  0.55582627376E+02 -0.15191281915E+01 -0.27842110788E+02  0.62324888685E+02  0.41800000000E+01 0. -1.
         -5    1    3    3    0  502 -0.32948640620E+02 -0.13837438737E+02  0.59569343692E+02  0.69592145659E+02  0.41800000000E+01 0. -1.
        -11    1    1    2    0    0  0.25914723003E+02 -0.24568279814E+02 -0.31500262569E+02  0.47617641512E+02  0.00000000000E+00 0.  1.
         11    1    1    2    0    0 -0.48548709759E+02  0.39924846742E+02 -0.19277261508E+02  0.65746356689E+02  0.00000000000E+00 0. -1.
</event>
<event>
 7    1  0.2619826E-009  0.1483722E+03  0.7561462E-02  0.1202488E+00
         -1   -1    0    0    0  501 -0.00000000000E+00  0.00000000000E+00  0.30582863025E+02  0.30582863025E+02  0.00000000000E+00 0.  1.
          1   -1    0    0  501    0  0.00000000000E+00 -0.00000000000E+00 -0.89277750219E+03  0.89277750219E+03  0.00000000000E+00 0. -1.
         25    2    1    2    0    0  0.88289008819E+01  0.11681829960E+03 -0.37042321751E+03  0.40814875641E+03  0.12509029807E+03 0.  0.
          5    1    3    3  502    0  0.44140741319E+02  0.95291027449E+02 -0.14592200202E+03  0.17983183264E+03  0.41800000000E+01 0.  1.
         -5    1    3    3    0  502 -0.35311840437E+02  0.21527272152E+02 -0.22450121549E+03  0.22831692377E+03  0.41800000000E+01 0.  1.
        -11    1    1    2    0    0 -0.25868740721E+02  0.56080143309E+01 -0.13673708838E+03  0.13927552875E+03  0.00000000000E+00 0.  1.
         11    1    1    2    0    0  0.17039839839E+02 -0.12242631393E+03 -0.35503433328E+03  0.37593608006E+03  0.00000000000E+00 0. -1.
</event>
<event>
 7    1  0.2619826E-009  0.9942770E+02  0.7561462E-02  0.1281504E+00
          1   -1    0    0  501    0  0.00000000000E+00  0.00000000000E+00  0.71883744110E+02  0.71883744110E+02  0.00000000000E+00 0. -1.
         -1   -1    0    0    0  501 -0.00000000000E+00 -0.00000000000E+00 -0.16868796427E+03  0.16868796427E+03  0.00000000000E+00 0.  1.
         25    2    1    2    0    0  0.53284418090E+01 -0.46090188860E+01 -0.81885087230E+02  0.14967833662E+03  0.12509517015E+03 0.  0.
          5    1    3    3  502    0  0.52841192680E+01 -0.63510700916E+02 -0.56983161090E+02  0.85592546960E+02  0.41800000000E+01 0.  1.
         -5    1    3    3    0  502  0.44322541030E-01  0.58901682030E+02 -0.24901926141E+02  0.64085789657E+02  0.41800000000E+01 0.  1.
        -11    1    1    2    0    0  0.26123341298E+02 -0.22453106980E+02  0.17124569093E+02  0.38468452532E+02  0.00000000000E+00 0. -1.
         11    1    1    2    0    0 -0.31451783107E+02  0.27062125866E+02 -0.32043702021E+02  0.52424919229E+02  0.00000000000E+00 0.  1.
</event>
<event>
 7    1  0.2619826E-009  0.9053384E+02  0.7561462E-02  0.1301564E+00
          2   -1    0    0  501    0  0.00000000000E+00  0.00000000000E+00  0.17601488716E+04  0.17601488716E+04  0.00000000000E+00 0. -1.
         -2   -1    0    0    0  501 -0.00000000000E+00 -0.00000000000E+00 -0.27130426552E+02  0.27130426552E+02  0.00000000000E+00 0.  1.
         25    2    1    2    0    0  0.80516889888E+00 -0.10233380792E+02  0.16579387584E+04  0.16626826717E+04  0.12508944663E+03 0.  0.
          5    1    3    3  502    0  0.43586240590E+02  0.38303598907E+02  0.62100419732E+03  0.62372318504E+03  0.41800000000E+01 0.  1.
         -5    1    3    3    0  502 -0.42781071691E+02 -0.48536979699E+02  0.10369345611E+04  0.10389594866E+04  0.41800000000E+01 0.  1.
        -11    1    1    2    0    0 -0.28008545334E+02 -0.23056844034E+01 -0.13435993050E+02  0.31149971132E+02  0.00000000000E+00 0.  1.
         11    1    1    2    0    0  0.27203376435E+02  0.12539065196E+02  0.88515679726E+02  0.93446655386E+02  0.00000000000E+00 0. -1.
</event>
<event>
 7    1  0.2619826E-009  0.7955906E+02  0.7561462E-02  0.1330307E+00
          1   -1    0    0  501    0  0.00000000000E+00  0.00000000000E+00  0.24127773449E+03  0.24127773449E+03  0.00000000000E+00 0. -1.
         -1   -1    0    0    0  501 -0.00000000000E+00 -0.00000000000E+00 -0.64996319339E+02  0.64996319339E+02  0.00000000000E+00 0.  1.
         25    2    1    2    0    0  0.45968066015E+02  0.83908547335E+01  0.14957332527E+03  0.20050274044E+03  0.12508277162E+03 0.  0.
          5    1    3    3  502    0  0.71151523803E+02  0.84842635315E+01  0.29262113657E+02  0.77513003830E+02  0.41800000000E+01 0.  1.
         -5    1    3    3    0  502 -0.25183457788E+02 -0.93408797947E-01  0.12031121161E+03  0.12298973661E+03  0.41800000000E+01 0.  1.
        -11    1    1    2    0    0 -0.32085992763E+02 -0.24629409191E+02  0.56268971556E+02  0.69298743774E+02  0.00000000000E+00 0. -1.
         11    1    1    2    0    0 -0.13882073251E+02  0.16238554458E+02 -0.29560881678E+02  0.36472569613E+02  0.00000000000E+00 0.  1.
</event>
<event>
 7    1  0.2619826E-009  0.1295645E+03  0.7561462E-02  0.1228103E+00
         -2   -1    0    0    0  501 -0.00000000000E+00  0.00000000000E+00  0.26918938552E+02  0.26918938552E+02  0.00000000000E+00 0.  1.
          2   -1    0    0  501    0  0.00000000000E+00 -0.00000000000E+00 -0.68221830162E+03  0.68221830162E+03  0.00000000000E+00 0. -1.
         25    2    1    2    0    0 -0.44962100893E+02 -0.68678534635E+02 -0.38856212850E+03  0.41637365249E+03  0.12509260229E+03 0.  0.
          5    1    3    3  502    0 -0.85810823045E+02 -0.55154148085E+02 -0.22297868810E+03  0.24523956685E+03  0.41800000000E+01 0.  1.
         -5    1    3    3    0  502  0.40848722151E+02 -0.13524386550E+02 -0.16558344040E+03  0.17113408564E+03  0.41800000000E+01 0.  1.
        -11    1    1    2    0    0 -0.22635790119E+02  0.22660747073E+02 -0.37168184236E+02  0.49064879207E+02  0.00000000000E+00 0.  1.
         11    1    1    2    0    0  0.67597891012E+02  0.46017787563E+02 -0.22956905033E+03  0.24369870847E+03  0.00000000000E+00 0. -1.
</event>
<event>
 7    1  0.2619826E-009  0.1605679E+03  0.7561462E-02  0.1188057E+00
          3   -1    0    0  501    0  0.00000000000E+00  0.00000000000E+00  0.71733820913E+03  0.71733820913E+03  0.00000000000E+00 0. -1.
         -3   -1    0    0    0  501 -0.00000000000E+00 -0.00000000000E+00 -0.46281917634E+02  0.46281917634E+02  0.00000000000E+00 0.  1.
         25    2    1    2    0    0  0.27830671784E+02  0.14122823290E+03  0.40393216832E+03  0.44668313757E+03  0.12507865016E+03 0.  0.
          5    1    3    3  502    0  0.22969252647E+01  0.11770977551E+03  0.15185897033E+03  0.19219647860E+03  0.41800000000E+01 0. -1.
         -5    1    3    3    0  502  0.25533746519E+02  0.23518457388E+02  0.25207319799E+03  0.25448665897E+03  0.41800000000E+01 0. -1.
        -11    1    1    2    0    0  0.27820914644E+02 -0.17956502746E+02  0.34277077966E+02  0.47658759493E+02  0.00000000000E+00 0.  1.
         11    1    1    2    0    0 -0.55651586427E+02 -0.12327173015E+03  0.23284704521E+03  0.26927822970E+03  0.00000000000E+00 0. -1.
</event>
<event>
 7    1  0.2619826E-009  0.1389530E+03  0.7561462E-02  0.1214745E+00
          4   -1    0    0  501    0  0.00000000000E+00  0.00000000000E+00  0.92735758050E+02  0.92735758050E+02  0.00000000000E+00 0. -1.
         -4   -1    0    0    0  501 -0.00000000000E+00 -0.00000000000E+00 -0.30557233620E+03  0.30557233620E+03  0.00000000000E+00 0.  1.
         25    2    1    2    0    0 -0.16173144057E+02  0.90650379841E+02 -0.22251870063E+03  0.27136794656E+03  0.12508768259E+03 0.  0.
          5    1    3    3  502    0 -0.47402909250E+02  0.10769614242E+03 -0.15196294226E+03  0.19223866187E+03  0.41800000000E+01 0.  1.
         -5    1    3    3    0  502  0.31229765193E+02 -0.17045762583E+02 -0.70555758367E+02  0.79129284686E+02  0.41800000000E+01 0.  1.
        -11    1    1    2    0    0 -0.30057499020E+02 -0.10546529387E+02 -0.78469834646E+01  0.32806366439E+02  0.00000000000E+00 0. -1.
         11    1    1    2    0    0  0.46230643077E+02 -0.80103850454E+02  0.17529105945E+02  0.94133781248E+02  0.00000000000E+00 0.  1.
</event>
<event>
 7    1  0.2619826E-009  0.1331823E+03  0.7561462E-02  0.1222809E+00
         -1   -1    0    0    0  501 -0.00000000000E+00  0.00000000000E+00  0.35218005361E+02  0.35218005361E+02  0.00000000000E+00 0.  1.
          1   -1    0    0  501    0  0.00000000000E+00 -0.00000000000E+00 -0.60768330768E+03  0.60768330768E+03  0.00000000000E+00 0. -1.
         25    2    1    2    0    0  0.74461463518E+02  0.24470675780E+02 -0.42831398398E+03  0.45303849734E+03  0.12509071777E+03 0.  0.
          5    1    3    3  502    0  0.88236623564E+01 -0.48164209244E+02 -0.12619738916E+03  0.13542858451E+03  0.41800000000E+01 0.  1.
         -5    1    3    3    0  502  0.65637801162E+02  0.72634885024E+02 -0.30211659482E+03  0.31760991283E+03  0.41800000000E+01 0.  1.
        -11    1    1    2    0    0  0.12191232079E+01 -0.41616567770E+02 -0.27995832405E+02  0.50171621524E+02  0.00000000000E+00 0.  1.
         11    1    1    2    0    0 -0.75680586726E+02  0.17145891990E+02 -0.11615548593E+03  0.13969119418E+03  0.00000000000E+00 0. -1.
</event>
<event>
 7    1  0.2619826E-009  0.9720854E+02  0.7561462E-02  0.1286278E+00
         -1   -1    0    0    0  501 -0.00000000000E+00  0.00000000000E+00  0.17913691746E+03  0.17913691746E+03  0.00000000000E+00 0.  1.
          1   -1    0    0  501    0  0.00000000000E+00 -0.00000000000E+00 -0.74138831325E+02  0.74138831325E+02  0.00000000000E+00 0. -1.
         25    2    1    2    0    0 -0.30913185769E+02  0.10769192812E+02  0.83640174978E+02  0.15399315798E+03  0.12508642319E+03 0.  0.
          5    1    3    3  502    0 -0.75820777367E+02 -0.54780687726E+01  0.29421365177E+02  0.81620393572E+02  0.41800000000E+01 0. -1.
         -5    1    3    3    0  502  0.44907591598E+02  0.16247261585E+02  0.54218809801E+02  0.72372764411E+02  0.41800000000E+01 0. -1.
        -11    1    1    2    0    0  0.24821234177E+02  0.24308685784E+02 -0.23551745741E+02  0.41972498116E+02  0.00000000000E+00 0. -1.
         11    1    1    2    0    0  0.60919515914E+01 -0.35077878596E+02  0.44909656900E+02  0.57310092688E+02  0.00000000000E+00 0.  1.
</event>
<event>
 7    1  0.2619826E-009  0.1456826E+03  0.7561462E-02  0.1205881E+00
          2   -1    0    0  501    0  0.00000000000E+00  0.00000000000E+00  0.16836267030E+04  0.16836267030E+04  0.00000000000E+00 0.  1.
         -2   -1    0    0    0  501 -0.00000000000E+00 -0.00000000000E+00 -0.20102393752E+02  0.20102393752E+02  0.00000000000E+00 0. -1.
         25    2    1    2    0    0 -0.13349831901E+03 -0.10398732820E+02  0.10650301529E+04  0.10806790254E+04  0.12509194446E+03 0.  0.
          5    1    3    3  502    0 -0.45756178192E+02 -0.19630004339E+02  0.79504115718E+03  0.79660961513E+03  0.41800000000E+01 0. -1.
         -5    1    3    3    0  502 -0.87742140821E+02  0.92312715190E+01  0.26998899572E+03  0.28406941028E+03  0.41800000000E+01 0. -1.
        -11    1    1    2    0    0  0.64171808487E+02 -0.32107055705E+02  0.43014815277E+03  0.43609209734E+03  0.00000000000E+00 0.  1.
         11    1    1    2    0    0  0.69326510526E+02  0.42505788524E+02  0.16834600359E+03  0.18695797401E+03  0.00000000000E+00 0. -1.
</event>
<event>
 7    1  0.2619826E-009  0.1145912E+03  0.7561462E-02  0.1252296E+00
         -2   -1    0    0    0  501 -0.00000000000E+00  0.00000000000E+00  0.20391457428E+02  0.20391457428E+02  0.00000000000E+00 0.  1.
          2   -1    0    0  501    0  0.00000000000E+00 -0.00000000000E+00 -0.10597955009E+04  0.10597955009E+04  0.00000000000E+00 0. -1.
         25    2    1    2    0    0  0.61148511009E+02  0.75051037416E+02 -0.63994200711E+03  0.65920040552E+03  0.12509038160E+03 0.  0.
          5    1    3    3  502    0  0.73343349747E+02  0.73711751819E+02 -0.27506596813E+03  0.29409425110E+03  0.41800000000E+01 0.  1.
         -5    1    3    3    0  502 -0.12194838738E+02  0.13392855978E+01 -0.36487603898E+03  0.36510615442E+03  0.41800000000E+01 0.  1.
        -11    1    1    2    0    0 -0.57710869933E+02 -0.26539940196E+02 -0.10641659604E+03  0.12393306599E+03  0.00000000000E+00 0.  1.
         11    1    1    2    0    0 -0.34376410755E+01 -0.48511097220E+02 -0.29304544036E+03  0.29705348685E+03  0.00000000000E+00 0. -1.
</event>
<event>
 7    1  0.2619826E-009  0.1654222E+03  0.7561462E-02  0.1182708E+00
          1   -1    0    0  501    0  0.00000000000E+00  0.00000000000E+00  0.48344092401E+03  0.48344092401E+03  0.00000000000E+00 0. -1.
         -1   -1    0    0    0  501 -0.00000000000E+00 -0.00000000000E+00 -0.70083550756E+02  0.70083550756E+02  0.00000000000E+00 0.  1.
         25    2    1    2    0    0  0.10636919053E+03  0.93970068562E+02  0.15345184969E+03  0.24359203762E+03  0.12507930340E+03 0.  0.
          5    1    3    3  502    0 -0.93675946004E+01  0.28263771761E+02  0.92288504861E+02  0.97063037003E+02  0.41800000000E+01 0.  1.
         -5    1    3    3    0  502  0.11573678513E+03  0.65706296801E+02  0.61163344828E+02  0.14652900062E+03  0.41800000000E+01 0.  1.
        -11    1    1    2    0    0 -0.10345506560E+03 -0.35939575465E+02  0.15154812556E+03  0.18697977977E+03  0.00000000000E+00 0.  1.
         11    1    1    2    0    0 -0.29141249324E+01 -0.58030493097E+02  0.10835739800E+03  0.12295265737E+03  0.00000000000E+00 0. -1.
</event>
<event>
 7    1  0.2619826E-009  0.1211654E+03  0.7561462E-02  0.1241187E+00
         -2   -1    0    0    0  501 -0.00000000000E+00  0.00000000000E+00  0.10338909264E+03  0.10338909264E+03  0.00000000000E+00 0.  1.
          2   -1    0    0  501    0  0.00000000000E+00 -0.00000000000E+00 -0.14799516353E+03  0.14799516353E+03  0.00000000000E+00 0. -1.
         25    2    1    2    0    0 -0.46840770385E+02  0.28417912392E+02 -0.48218728280E+02  0.14482194040E+03  0.12508682244E+03 0.  0.
          5    1    3    3  502    0 -0.88217770116E+02  0.33261676527E+02 -0.37913843055E+02  0.10170371667E+03  0.41800000000E+01 0.  1.
         -5    1    3    3    0  502  0.41376999731E+02 -0.48437641352E+01 -0.10304885225E+02  0.43118223725E+02  0.41800000000E+01 0.  1.
        -11    1    1    2    0    0 -0.27548122861E+02 -0.42557517033E+01 -0.31681746106E+01  0.28054372674E+02  0.00000000000E+00 0. -1.
         11    1    1    2    0    0  0.74388893246E+02 -0.24162160689E+02  0.67808319976E+01  0.78507943102E+02  0.00000000000E+00 0.  1.
</event>
<event>
 7    1  0.2619826E-009  0.1133004E+03  0.7561462E-02  0.1254577E+00
         -2   -1    0    0    0  501 -0.00000000000E+00  0.00000000000E+00  0.12347200441E+03  0.12347200441E+03  0.00000000000E+00 0.  1.
          2   -1    0    0  501    0  0.00000000000E+00 -0.00000000000E+00 -0.16176548486E+03  0.16176548486E+03  0.00000000000E+00 0. -1.
         25    2    1    2    0    0  0.31741972857E+02  0.91449088280E+02 -0.12799168075E+02  0.15868942435E+03  0.12509207053E+03 0.  0.
          5    1    3    3  502    0 -0.17258525988E+02  0.71080608764E+02 -0.54299825367E+02  0.91193492621E+02  0.41800000000E+01 0. -1.
         -5    1    3    3    0  502  0.49000498845E+02  0.20368479516E+02  0.41500657292E+02  0.67495931733E+02  0.41800000000E+01 0. -1.
        -11    1    1    2    0    0 -0.16871607735E+02 -0.16159781204E+02  0.25362654391E+02  0.34482661062E+02  0.00000000000E+00 0.  1.
         11    1    1    2    0    0 -0.14870365122E+02 -0.75289307076E+02 -0.50856966769E+02  0.92065403859E+02  0.00000000000E+00 0. -1.
</event>
<event>
 7    1  0.2619827E-009  0.9619862E+02  0.7561462E-02  0.1288499E+00
          1   -1    0    0  501    0  0.00000000000E+00  0.00000000000E+00  0.30661820560E+03  0.30661820560E+03  0.00000000000E+00 0. -1.
         -1   -1    0    0    0  501 -0.00000000000E+00 -0.00000000000E+00 -0.76851617039E+02  0.76851617039E+02  0.00000000000E+00 0.  1.
         25    2    1    2    0    0 -0.50090660775E+02 -0.24470736315E+01  0.24304232985E+03  0.27790612570E+03  0.12508868109E+03 0.  0.
          5    1    3    3  502    0 -0.45999314898E+02 -0.49259337446E+02  0.65029804192E+02  0.93748424680E+02  0.41800000000E+01 0. -1.
         -5    1    3    3    0  502 -0.40913458773E+01  0.46812263815E+02  0.17801252566E+03  0.18415770102E+03  0.41800000000E+01 0. -1.
        -11    1    1    2    0    0 -0.72797471725E+01  0.17011579828E+02 -0.37336343424E+02  0.41670026487E+02  0.00000000000E+00 0.  1.
         11    1    1    2    0    0  0.57370407948E+02 -0.14564506196E+02  0.24060602138E+02  0.63893670454E+02  0.00000000000E+00 0. -1.
</event>
<event>
 7    1  0.2619826E-009  0.9705950E+02  0.7561462E-02  0.1286604E+00
         -1   -1    0    0    0  501 -0.00000000000E+00  0.00000000000E+00  0.12356059924E+03  0.12356059924E+03  0.00000000000E+00 0.  1.
          1   -1    0    0  501    0  0.00000000000E+00 -0.00000000000E+00 -0.10978001402E+03  0.10978001402E+03  0.00000000000E+00 0. -1.
         25    2    1    2    0    0  0.99035207385E+01  0.51800468574E+01  0.49589886863E+02  0.13502231443E+03  0.12508779280E+03 0.  0.
          5    1    3    3  502    0  0.58394952288E+02 -0.16676183397E+02  0.54152577569E+02  0.81474165248E+02  0.41800000000E+01 0. -1.
         -5    1    3    3    0  502 -0.48491431550E+02  0.21856230254E+02 -0.45626907058E+01  0.53548149185E+02  0.41800000000E+01 0. -1.
        -11    1    1    2    0    0 -0.42774076736E+02  0.96218512645E+01 -0.43165228061E+02  0.61525917920E+02  0.00000000000E+00 0. -1.
         11    1    1    2    0    0  0.32870555998E+02 -0.14801898122E+02  0.73559264167E+01  0.36792380910E+02  0.00000000000E+00 0.  1.
</event>
<event>
 7    1  0.2619826E-009  0.1655106E+03  0.7561462E-02  0.1182612E+00
         -2   -1    0    0    0  501 -0.00000000000E+00  0.00000000000E+00  0.40328249041E+03  0.40328249041E+03  0.00000000000E+00 0.  1.
          2   -1    0    0  501    0  0.00000000000E+00 -0.00000000000E+00 -0.10642644254E+03  0.10642644254E+03  0.00000000000E+00 0. -1.
         25    2    1    2    0    0 -0.39424737467E+02 -0.14193489285E+03  0.35709030841E+02  0.19652340162E+03  0.12508592554E+03 0.  0.
          5    1    3    3  502    0 -0.31627618637E+02 -0.14711869185E+03 -0.88518396033E+01  0.15079802127E+03  0.41800000000E+01 0. -1.
         -5    1    3    3    0  502 -0.77971188297E+01  0.51837990001E+01  0.44560870444E+02  0.45725380358E+02  0.41800000000E+01 0. -1.
        -11    1    1    2    0    0 -0.26768150071E+02  0.52875272289E+02  0.11818907359E+03  0.13221567757E+03  0.00000000000E+00 0.  1.
         11    1    1    2    0    0  0.66192887537E+02  0.89059620566E+02  0.14295794344E+03  0.18096985376E+03  0.00000000000E+00 0. -1.
</event>
<event>
 7    1  0.2619826E-009  0.1809639E+03  0.7561462E-02  0.1166873E+00
          4   -1    0    0  501    0  0.00000000000E+00  0.00000000000E+00  0.70477541046E+02  0.70477541046E+02  0.00000000000E+00 0.  1.
         -4   -1    0    0    0  501 -0.00000000000E+00 -0.00000000000E+00 -0.57948554925E+03  0.57948554925E+03  0.00000000000E+00 0. -1.
         25    2    1    2    0    0 -0.15562922291E+03  0.67909164611E+02 -0.24735427428E+03  0.32505865663E+03  0.12508750373E+03 0.  0.
          5    1    3    3  502    0 -0.17421944463E+01  0.89613916539E+01 -0.11009178639E+03  0.11054870244E+03  0.41800000000E+01 0. -1.
         -5    1    3    3    0  502 -0.15388702846E+03  0.58947772957E+02 -0.13726248789E+03  0.21450995419E+03  0.41800000000E+01 0. -1.
        -11    1    1    2    0    0  0.11468465088E+03 -0.84923164273E+02 -0.16235707135E+03  0.21615811711E+03  0.00000000000E+00 0.  1.
         11    1    1    2    0    0  0.40944572033E+02  0.17013999662E+02 -0.99296662577E+02  0.10874631655E+03  0.00000000000E+00 0. -1.
</event>
<event>
 7    1  0.2619826E-009  0.1527326E+03  0.7561462E-02  0.1197155E+00
         -3   -1    0    0    0  501 -0.00000000000E+00  0.00000000000E+00  0.40463297762E+02  0.40463297762E+02  0.00000000000E+00 0.  1.
          3   -1    0    0  501    0  0.00000000000E+00 -0.00000000000E+00 -0.87500283647E+03  0.87500283647E+03  0.00000000000E+00 0. -1.
         25    2    1    2    0    0 -0.13148993431E+03  0.28625956832E+01 -0.25021613390E+03  0.30911667905E+03  0.12508880974E+03 0.  0.
          5    1    3    3  502    0 -0.59120000223E+02  0.55801064142E+02 -0.17104599281E+03  0.18942844887E+03  0.41800000000E+01 0. -1.
         -5    1    3    3    0  502 -0.72369934087E+02 -0.52938468459E+02 -0.79170141095E+02  0.11968823018E+03  0.41800000000E+01 0. -1.
        -11    1    1    2    0    0  0.31970386641E+02 -0.12472662283E+02 -0.39054161214E+02  0.51989426180E+02  0.00000000000E+00 0.  1.
         11    1    1    2    0    0  0.99519547670E+02  0.96100665995E+01 -0.54526924359E+03  0.55436002900E+03  0.00000000000E+00 0. -1.
</event>
<event>
 7    1  0.2619826E-009  0.2050561E+03  0.7561462E-02  0.1145542E+00
         -1   -1    0    0    0  501 -0.00000000000E+00  0.00000000000E+00  0.90123331311E+02  0.90123331311E+02  0.00000000000E+00 0.  1.
          1   -1    0    0  501    0  0.00000000000E+00 -0.00000000000E+00 -0.49202429503E+03  0.49202429503E+03  0.00000000000E+00 0. -1.
         25    2    1    2    0    0 -0.84707191378E+02 -0.15950290551E+03 -0.20294908737E+03  0.29908676063E+03  0.12509225867E+03 0.  0.
          5    1    3    3  502    0 -0.10962754219E+03 -0.13005478582E+03 -0.12214932324E+03  0.20945256000E+03  0.41800000000E+01 0.  1.
         -5    1    3    3    0  502  0.24920350816E+02 -0.29448119690E+02 -0.80799764135E+02  0.89634200629E+02  0.41800000000E+01 0.  1.
        -11    1    1    2    0    0  0.55609897389E+01  0.10480899627E+03 -0.10989250857E+03  0.15196122448E+03  0.00000000000E+00 0.  1.
         11    1    1    2    0    0  0.79146201639E+02  0.54693909247E+02 -0.89059367773E+02  0.13109964123E+03  0.00000000000E+00 0. -1.
</event>
<event>
 7    1  0.2619826E-009  0.1827644E+03  0.7561462E-02  0.1165154E+00
         -2   -1    0    0    0  501 -0.00000000000E+00  0.00000000000E+00  0.36369705352E+02  0.36369705352E+02  0.00000000000E+00 0.  1.
          2   -1    0    0  501    0  0.00000000000E+00 -0.00000000000E+00 -0.10943617212E+04  0.10943617212E+04  0.00000000000E+00 0. -1.
         25    2    1    2    0    0  0.76848665433E+02 -0.14670635233E+03 -0.57299699750E+03  0.60942721431E+03  0.12508996443E+03 0.  0.
          5    1    3    3  502    0  0.18418264353E+02 -0.93505916739E+02 -0.14097310663E+03  0.17021597493E+03  0.41800000000E+01 0.  1.
         -5    1    3    3    0  502  0.58430401081E+02 -0.53200435592E+02 -0.43202389087E+03  0.43921123938E+03  0.41800000000E+01 0.  1.
        -11    1    1    2    0    0 -0.79354403484E+02  0.48999014869E+02 -0.24701517111E+03  0.26403507261E+03  0.00000000000E+00 0.  1.
         11    1    1    2    0    0  0.25057380507E+01  0.97707337463E+02 -0.23797984729E+03  0.25726913968E+03  0.00000000000E+00 0. -1.
</event>
<event>
 7    1  0.2619826E-009  0.1786973E+03  0.7561462E-02  0.1169070E+00
          2   -1    0    0  501    0  0.00000000000E+00  0.00000000000E+00  0.88885968261E+03  0.88885968261E+03  0.00000000000E+00 0. -1.
         -2   -1    0    0    0  501 -0.00000000000E+00 -0.00000000000E+00 -0.54542037302E+02  0.54542037302E+02  0.00000000000E+00 0.  1.
         25    2    1    2    0    0  0.62519728436E+02 -0.14014694924E+03  0.67537715481E+03  0.70379816248E+03  0.12509064096E+03 0.  0.
          5    1    3    3  502    0  0.76049496829E+02 -0.15440296957E+03  0.64335903170E+03  0.66599708637E+03  0.41800000000E+01 0.  1.
         -5    1    3    3    0  502 -0.13529768393E+02  0.14256020327E+02  0.32018123105E+02  0.37801076116E+02  0.41800000000E+01 0.  1.
        -11    1    1    2    0    0 -0.16489856198E+02  0.10736533519E+03  0.56089951123E+02  0.12225102525E+03  0.00000000000E+00 0.  1.
         11    1    1    2    0    0 -0.46029872238E+02  0.32781614054E+02  0.10285053938E+03  0.11735253218E+03  0.00000000000E+00 0. -1.
</event>
<event>
 7    1  0.2619826E-009  0.1591100E+03  0.7561462E-02  0.1189705E+00
         -1   -1    0    0    0  501 -0.00000000000E+00  0.00000000000E+00  0.24185884127E+03  0.24185884127E+03  0.00000000000E+00 0.  1.
          1   -1    0    0  501    0  0.00000000000E+00 -0.00000000000E+00 -0.25079150666E+03  0.25079150666E+03  0.00000000000E+00 0. -1.
         25    2    1    2    0    0  0.10372880629E+03  0.76271597163E+02 -0.18140829384E+03  0.25520999193E+03  0.12508456788E+03 0.  0.
          5    1    3    3  502    0  0.65101405705E+02 -0.22750491357E+02 -0.45932151502E+02  0.82963924831E+02  0.41800000000E+01 0.  1.
         -5    1    3    3    0  502  0.38627400585E+02  0.99022088520E+02 -0.13547614233E+03  0.17224606710E+03  0.41800000000E+01 0.  1.
        -11    1    1    2    0    0 -0.39706095308E+02  0.41991570677E+01  0.40877757490E+01  0.40136228463E+02  0.00000000000E+00 0. -1.
         11    1    1    2    0    0 -0.64022710982E+02 -0.80470754231E+02  0.16838785269E+03  0.19730412753E+03  0.00000000000E+00 0.  1.
</event>
<event>
 6    1  0.2619826E-009  0.1171423E+03  0.7561462E-02  0.1247887E+00
         -4   -1    0    0    0  501 -0.00000000000E+00  0.00000000000E+00  0.15433120219E+03  0.15433120219E+03  0.00000000000E+00 0.  1.
          4   -1    0    0  501    0  0.00000000000E+00 -0.00000000000E+00 -0.11177346697E+03  0.11177346697E+03  0.00000000000E+00 0. -1.
          5    1    1    2  502    0  0.24214671865E+02  0.24588854096E+02 -0.33730467057E+02  0.48437370771E+02  0.41800000000E+01 0. -1.
         -5    1    1    2    0  502 -0.25429324550E+02 -0.88320231010E+02  0.14696878632E+02  0.93169653827E+02  0.41800000000E+01 0. -1.
        -11    1    1    2    0    0  0.34962098643E+02  0.64936072870E+02  0.35647206784E+02  0.81913156775E+02  0.00000000000E+00 0. -1.
         11    1    1    2    0    0 -0.33747445958E+02 -0.12046959562E+01  0.25944116859E+02  0.42584487793E+02  0.00000000000E+00 0.  1.
</event>
<event>
 7    1  0.3003266E-009  0.7744203E+02  0.7561462E-02  0.1336471E+00
          2   -1    0    0  501    0  0.00000000000E+00  0.00000000000E+00  0.20590402100E+03  0.20590402100E+03  0.00000000000E+00 0. -1.
         -2   -1    0    0    0  501 -0.00000000000E+00 -0.00000000000E+00 -0.79373799205E+02  0.79373799205E+02  0.00000000000E+00 0.  1.
         25    2    1    2    0    0  0.58945026896E+02  0.32189621745E+02  0.70025742695E+02  0.15830950099E+03  0.12509038940E+03 0.  0.
          5    1    3    3  502    0  0.23530115727E+02  0.87758294456E+01 -0.35960245314E+02  0.44060108620E+02  0.41800000000E+01 0.  1.
         -5    1    3    3    0  502  0.35414911169E+02  0.23413792299E+02  0.10598598801E+03  0.11424939237E+03  0.41800000000E+01 0.  1.
        -11    1    1    2    0    0 -0.48613330174E+02  0.43359272168E+01  0.71151267915E+02  0.86281858240E+02  0.00000000000E+00 0. -1.
         11    1    1    2    0    0 -0.10331696722E+02 -0.36525548961E+02 -0.14646788814E+02  0.40686460975E+02  0.00000000000E+00 0.  1.
</event>
<event>
 7    1  0.2619826E-009  0.4802276E+02  0.7561462E-02  0.1456308E+00
          1   -1    0    0  501    0  0.00000000000E+00  0.00000000000E+00  0.12119995289E+03  0.12119995289E+03  0.00000000000E+00 0. -1.
         -1   -1    0    0    0  501 -0.00000000000E+00 -0.00000000000E+00 -0.10817788342E+03  0.10817788342E+03  0.00000000000E+00 0.  1.
         25    2    1    2    0    0  0.12240339094E+02 -0.77924764832E+01  0.24937228396E+02  0.12836273131E+03  0.12507828284E+03 0.  0.
          5    1    3    3  502    0  0.12263699278E+02 -0.73411909751E+01  0.75839191469E+02  0.77287429558E+02  0.41800000000E+01 0.  1.
         -5    1    3    3    0  502 -0.23360183392E-01 -0.45128550803E+00 -0.50901963073E+02  0.51075301751E+02  0.41800000000E+01 0.  1.
        -11    1    1    2    0    0  0.31309863621E+02 -0.46580177304E+01 -0.37436107886E+02  0.49025165607E+02  0.00000000000E+00 0.  1.
         11    1    1    2    0    0 -0.43550202715E+02  0.12450494214E+02  0.25520948961E+02  0.51989939397E+02  0.00000000000E+00 0. -1.
</event>
<event>
 7    1  0.2619826E-009  0.6492147E+02  0.7561462E-02  0.1378267E+00
          1   -1    0    0  501    0  0.00000000000E+00  0.00000000000E+00  0.94372701951E+02  0.94372701951E+02  0.00000000000E+00 0. -1.
         -1   -1    0    0    0  501 -0.00000000000E+00 -0.00000000000E+00 -0.15886320341E+03  0.15886320341E+03  0.00000000000E+00 0.  1.
         25    2    1    2    0    0 -0.76522339813E+01  0.17257330171E+02 -0.91585508081E+02  0.15617891443E+03  0.12509027098E+03 0.  0.
          5    1    3    3  502    0 -0.21738195297E+02  0.80808190646E+01 -0.12033115885E+03  0.12261691955E+03  0.41800000000E+01 0. -1.
         -5    1    3    3    0  502  0.14085961316E+02  0.91765111065E+01  0.28745650765E+02  0.33561994878E+02  0.41800000000E+01 0. -1.
        -11    1    1    2    0    0  0.28358951597E+02  0.27584982843E+02 -0.22128733259E+01  0.39623960207E+02  0.00000000000E+00 0.  1.
         11    1    1    2    0    0 -0.20706717615E+02 -0.44842313014E+02  0.29307879948E+02  0.57433030722E+02  0.00000000000E+00 0. -1.
</event>
<event>
 7    1  0.2619826E-009  0.9034949E+02  0.7561462E-02  0.1302008E+00
         -4   -1    0    0    0  501 -0.00000000000E+00  0.00000000000E+00  0.39400669362E+02  0.39400669362E+02  0.00000000000E+00 0.  1.
          4   -1    0    0  501    0  0.00000000000E+00 -0.00000000000E+00 -0.42429349426E+03  0.42429349426E+03  0.00000000000E+00 0. -1.
         25    2    1    2    0    0  0.48824590126E+01  0.20452412103E+01 -0.34086346152E+03  0.36312941828E+03  0.12508818331E+03 0.  0.
          5    1    3    3  502    0 -0.28013799203E+02  0.34457393742E+02 -0.43957996512E+02  0.62624777737E+02  0.41800000000E+01 0.  1.
         -5    1    3    3    0  502  0.32896258216E+02 -0.32412152531E+02 -0.29690546501E+03  0.30050464054E+03  0.41800000000E+01 0.  1.
        -11    1    1    2    0    0  0.35736771365E+02  0.22533465580E+02 -0.26938878854E+02  0.50105659287E+02  0.00000000000E+00 0. -1.
         11    1    1    2    0    0 -0.40619230378E+02 -0.24578706790E+02 -0.17090484520E+02  0.50459086051E+02  0.00000000000E+00 0.  1.
</event>
<event>
 7    1  0.2619826E-009  0.7469937E+02  0.7561462E-02  0.1344805E+00
          1   -1    0    0  501    0  0.00000000000E+00  0.00000000000E+00  0.10776767047E+03  0.10776767047E+03  0.00000000000E+00 0.  1.
         -1   -1    0    0    0  501 -0.00000000000E+00 -0.00000000000E+00 -0.23838712286E+03  0.23838712286E+03  0.00000000000E+00 0. -1.
         25    2    1    2    0    0  0.38634859571E+02  0.28307020047E+02 -0.18527553482E+03  0.22862226904E+03  0.12508868191E+03 0.  0.
          5    1    3    3  502    0  0.33047245934E+02  0.11618837447E+02  0.66044102065E+01  0.35891621328E+02  0.41800000000E+01 0.  1.
         -5    1    3    3    0  502  0.55876136374E+01  0.16688182601E+02 -0.19187994503E+03  0.19273064771E+03  0.41800000000E+01 0.  1.
        -11    1    1    2    0    0 -0.36409919677E+02  0.24044533014E+02  0.47746072778E+02  0.64680053219E+02  0.00000000000E+00 0.  1.
         11    1    1    2    0    0 -0.22249398940E+01 -0.52351553061E+02  0.69100096480E+01  0.52852471076E+02  0.00000000000E+00 0. -1.
</event>
<event>
 7    1  0.2619826E-009  0.1753186E+03  0.7561462E-02  0.1172412E+00
         -1   -1    0    0    0  501 -0.00000000000E+00  0.00000000000E+00  0.14861238728E+03  0.14861238728E+03  0.00000000000E+00 0.  1.
          1   -1    0    0  501    0  0.00000000000E+00 -0.00000000000E+00 -0.34279235058E+03  0.34279235058E+03  0.00000000000E+00 0. -1.
         25    2    1    2    0    0  0.45752749402E+02 -0.16070631523E+03 -0.21045959058E+03  0.29641258762E+03  0.12508936405E+03 0.  0.
          5    1    3    3  502    0  0.68780937935E+01 -0.59219028312E+02 -0.17029075793E+03  0.18047331139E+03  0.41800000000E+01 0. -1.
         -5    1    3    3    0  502  0.38874655609E+02 -0.10148728692E+03 -0.40168832649E+02  0.11593927623E+03  0.41800000000E+01 0. -1.
        -11    1    1    2    0    0  0.11220765237E+02  0.92792219877E+02  0.42315563181E+02  0.10260072383E+03  0.00000000000E+00 0.  1.
         11    1    1    2    0    0 -0.56973514639E+02  0.67914095355E+02 -0.26035935896E+02  0.92391426421E+02  0.00000000000E+00 0. -1.
</event>
<event>
 7    1  0.2619826E-009  0.1250219E+03  0.7561462E-02  0.1235035E+00
          2   -1    0    0  501    0  0.00000000000E+00  0.00000000000E+00  0.18350531696E+03  0.18350531696E+03  0.00000000000E+00 0. -1.
         -2   -1    0    0    0  501 -0.00000000000E+00 -0.00000000000E+00 -0.13312574341E+03  0.13312574341E+03  0.00000000000E+00 0.  1.
         25    2    1    2    0    0 -0.45743546071E+02 -0.90744964101E+02 -0.20027937436E+02  0.16240815407E+03  0.12509264453E+03 0.  0.
          5    1    3    3  502    0  0.61547377973E+01 -0.41877765913E+02 -0.65248195752E+02  0.77887274468E+02  0.41800000000E+01 0.  1.
         -5    1    3    3    0  502 -0.51898283868E+02 -0.48867198188E+02  0.45220258316E+02  0.84520879606E+02  0.41800000000E+01 0.  1.
        -11    1    1    2    0    0  0.54567204241E+02  0.10740577655E+02  0.38497863632E+02  0.67638933251E+02  0.00000000000E+00 0. -1.
         11    1    1    2    0    0 -0.88236581695E+01  0.80004386446E+02  0.31909647357E+02  0.86583973047E+02  0.00000000000E+00 0.  1.
</event>
<event>
 7    1  0.2737923E-009  0.1037230E+03  0.7561462E-02  0.1272656E+00
         -2   -1    0    0    0  501 -0.00000000000E+00  0.00000000000E+00  0.30366762354E+02  0.30366762354E+02  0.00000000000E+00 0.  1.
          2   -1    0    0  501    0  0.00000000000E+00 -0.00000000000E+00 -0.40955420941E+03  0.40955420941E+03  0.00000000000E+00 0. -1.
         25    2    1    2    0    0 -0.13085160346E+02  0.13481486161E+02 -0.17954125040E+03  0.21962461171E+03  0.12508771956E+03 0.  0.
          5    1    3    3  502    0  0.50012254324E+02  0.19579260775E+02 -0.42649326906E+02  0.68709610103E+02  0.41800000000E+01 0.  1.
         -5    1    3    3    0  502 -0.63097414669E+02 -0.60977746137E+01 -0.13689192349E+03  0.15091500161E+03  0.41800000000E+01 0.  1.
        -11    1    1    2    0    0 -0.25238133572E+02  0.25150593922E+02 -0.52849268207E+02  0.63738221742E+02  0.00000000000E+00 0.  1.
         11    1    1    2    0    0  0.38323293918E+02 -0.38632080083E+02 -0.14679692845E+03  0.15655813831E+03  0.00000000000E+00 0. -1.
</event>
<event>
 7    1  0.2619826E-009  0.1842046E+03  0.7561462E-02  0.1163795E+00
          2   -1    0    0  501    0  0.00000000000E+00  0.00000000000E+00  0.10035755562E+04  0.10035755562E+04  0.00000000000E+00 0. -1.
         -2   -1    0    0    0  501 -0.00000000000E+00 -0.00000000000E+00 -0.52903243364E+02  0.52903243364E+02  0.00000000000E+00 0.  1.
         25    2    1    2    0    0 -0.36715877001E+02 -0.16743692015E+03  0.24098556206E+03  0.32110035684E+03  0.12509284628E+03 0.  0.
          5    1    3    3  502    0 -0.44281236973E+01 -0.12658469942E+03  0.75388395661E+02  0.14745906892E+03  0.41800000000E+01 0.  1.
         -5    1    3    3    0  502 -0.32287753303E+02 -0.40852220725E+02  0.16559716640E+03  0.17364128792E+03  0.41800000000E+01 0.  1.
        -11    1    1    2    0    0 -0.22107796971E+02  0.16929674835E+02  0.64327253362E+02  0.70095392873E+02  0.00000000000E+00 0. -1.
         11    1    1    2    0    0  0.58823673971E+02  0.15050724531E+03  0.64535949743E+03  0.66528304986E+03  0.00000000000E+00 0.  1.
</event>
<event>
 7    1  0.2619826E-009  0.1562276E+03  0.7561462E-02  0.1193023E+00
          1   -1    0    0  501    0  0.00000000000E+00  0.00000000000E+00  0.18021114565E+02  0.18021114565E+02  0.00000000000E+00 0. -1.
         -1   -1    0    0    0  501 -0.00000000000E+00 -0.00000000000E+00 -0.15464809414E+04  0.15464809414E+04  0.00000000000E+00 0.  1.
         25    2    1    2    0    0  0.16907015416E+02 -0.11176849032E+03 -0.10835091446E+04  0.10965482575E+04  0.12509185421E+03 0.  0.
          5    1    3    3  502    0 -0.33148428490E+02 -0.11340586432E+03 -0.74117853323E+03  0.75054833215E+03  0.41800000000E+01 0.  1.
         -5    1    3    3    0  502  0.50055443906E+02  0.16373740047E+01 -0.34233061139E+03  0.34599992537E+03  0.41800000000E+01 0.  1.
        -11    1    1    2    0    0 -0.53752150633E+02  0.62126409515E+02 -0.27981294175E+03  0.29162350184E+03  0.00000000000E+00 0.  1.
         11    1    1    2    0    0  0.36845135217E+02  0.49642080800E+02 -0.16513774048E+03  0.17633029662E+03  0.00000000000E+00 0. -1.
</event>
<event>
 7    1  0.2619826E-009  0.2739527E+03  0.7561462E-02  0.1099038E+00
          2   -1    0    0  501    0  0.00000000000E+00  0.00000000000E+00  0.11962990337E+04  0.11962990337E+04  0.00000000000E+00 0. -1.
         -2   -1    0    0    0  501 -0.00000000000E+00 -0.00000000000E+00 -0.68379315606E+02  0.68379315606E+02  0.00000000000E+00 0.  1.
         25    2    1    2    0    0 -0.16233259579E+03 -0.19991737673E+03  0.70726711634E+03  0.76301574180E+03  0.12508964469E+03 0.  0.
          5    1    3    3  502    0  0.17599744945E+02 -0.42849853073E+02  0.94306614527E+02  0.10515260755E+03  0.41800000000E+01 0.  1.
         -5    1    3    3    0  502 -0.17993234073E+03 -0.15706752366E+03  0.61296050181E+03  0.65786313425E+03  0.41800000000E+01 0.  1.
        -11    1    1    2    0    0  0.82506179391E+02  0.14075622810E+03  0.32544189962E+03  0.36404946836E+03  0.00000000000E+00 0. -1.
         11    1    1    2    0    0  0.79826416398E+02  0.59161148631E+02  0.95210702131E+02  0.13761313913E+03  0.00000000000E+00 0.  1.
</event>
<event>
 7    1  0.2619826E-009  0.1091412E+03  0.7561462E-02  0.1262169E+00
          3   -1    0    0  501    0  0.00000000000E+00  0.00000000000E+00  0.10335831244E+03  0.10335831244E+03  0.00000000000E+00 0. -1.
         -3   -1    0    0    0  501 -0.00000000000E+00 -0.00000000000E+00 -0.21211385249E+03  0.21211385249E+03  0.00000000000E+00 0.  1.
         25    2    1    2    0    0  0.10072682119E+01  0.95474242966E+02 -0.30932136233E+02  0.16037179528E+03  0.12508385192E+03 0.  0.
          5    1    3    3  502    0  0.15146651930E+02  0.23489095803E+02  0.45999541379E+02  0.53986932617E+02  0.41800000000E+01 0.  1.
         -5    1    3    3    0  502 -0.14139383718E+02  0.71985147162E+02 -0.76931677612E+02  0.10638486266E+03  0.41800000000E+01 0.  1.
        -11    1    1    2    0    0 -0.30253508688E+02 -0.74915326633E+02 -0.86448318037E+02  0.11832536771E+03  0.00000000000E+00 0.  1.
         11    1    1    2    0    0  0.29246240476E+02 -0.20558916333E+02  0.86249142188E+01  0.36775001945E+02  0.00000000000E+00 0. -1.
</event>
<event>
 7    1  0.2619826E-009  0.2946204E+03  0.7561462E-02  0.1087961E+00
          2   -1    0    0  501    0  0.00000000000E+00  0.00000000000E+00  0.11668604347E+04  0.11668604347E+04  0.00000000000E+00 0. -1.
         -2   -1    0    0    0  501 -0.00000000000E+00 -0.00000000000E+00 -0.89421595675E+02  0.89421595675E+02  0.00000000000E+00 0.  1.
         25    2    1    2    0    0 -0.22696373171E+02 -0.28193421219E+03  0.33154852860E+03  0.45340280593E+03  0.12509057617E+03 0.  0.
          5    1    3    3  502    0  0.17328162441E+02 -0.23407126371E+03  0.30643136461E+03  0.38601460507E+03  0.41800000000E+01 0. -1.
         -5    1    3    3    0  502 -0.40024535612E+02 -0.47862948481E+02  0.25117163993E+02  0.67388200861E+02  0.41800000000E+01 0. -1.
        -11    1    1    2    0    0  0.35578887336E+02  0.60760178853E+02  0.12253988582E+03  0.14132827097E+03  0.00000000000E+00 0.  1.
         11    1    1    2    0    0 -0.12882514165E+02  0.22117403334E+03  0.62335042458E+03  0.66155095346E+03  0.00000000000E+00 0. -1.
</event>
<event>
 7    1  0.2619826E-009  0.1359851E+03  0.7561462E-02  0.1218836E+00
         -2   -1    0    0    0  501 -0.00000000000E+00  0.00000000000E+00  0.14637914434E+02  0.14637914434E+02  0.00000000000E+00 0.  1.
          2   -1    0    0  501    0  0.00000000000E+00 -0.00000000000E+00 -0.24438218736E+04  0.24438218736E+04  0.00000000000E+00 0. -1.
         25    2    1    2    0    0 -0.87890505077E+02  0.10270750847E+02 -0.20864731056E+04  0.20920916140E+04  0.12508825688E+03 0.  0.
          5    1    3    3  502    0 -0.29362818088E+02  0.61742299702E+02 -0.67624526538E+03  0.67970539060E+03  0.41800000000E+01 0. -1.
         -5    1    3    3    0  502 -0.58527686989E+02 -0.51471548854E+02 -0.14102278402E+04  0.14123862234E+04  0.41800000000E+01 0. -1.
        -11    1    1    2    0    0  0.20656774268E+02 -0.45169766309E+02 -0.93164144162E+02  0.10557730755E+03  0.00000000000E+00 0.  1.
         11    1    1    2    0    0  0.67233730809E+02  0.34899015462E+02 -0.24954670938E+03  0.26079086641E+03  0.00000000000E+00 0. -1.
</event>
<event>
 7    1  0.2619826E-009  0.1260199E+03  0.7561462E-02  0.1233484E+00
         -1   -1    0    0    0  501 -0.00000000000E+00  0.00000000000E+00  0.73950136000E+03  0.73950136000E+03  0.00000000000E+00 0.  1.
          1   -1    0    0  501    0  0.00000000000E+00 -0.00000000000E+00 -0.24452817454E+02  0.24452817454E+02  0.00000000000E+00 0. -1.
         25    2    1    2    0    0  0.36612557581E+02 -0.68984502698E+02  0.35963549861E+03  0.38869593202E+03  0.12508994653E+03 0.  0.
          5    1    3    3  502    0  0.72564552901E+02 -0.63064562249E+02  0.16822642067E+03  0.19380493895E+03  0.41800000000E+01 0.  1.
         -5    1    3    3    0  502 -0.35951995320E+02 -0.59199404494E+01  0.19140907794E+03  0.19489099307E+03  0.41800000000E+01 0.  1.
        -11    1    1    2    0    0  0.19370537514E+02 -0.10407467071E+02  0.89316524850E+02  0.91983556714E+02  0.00000000000E+00 0. -1.
         11    1    1    2    0    0 -0.55983095095E+02  0.79391969769E+02  0.26609651909E+03  0.28327468872E+03  0.00000000000E+00 0.  1.
</event>
<event>
 6    1  0.2619826E-009  0.1396960E+03  0.7561462E-02  0.1213739E+00
         -3   -1    0    0    0  501 -0.00000000000E+00  0.00000000000E+00  0.53734274205E+02  0.53734274205E+02  0.00000000000E+00 0.  1.
          3   -1    0    0  501    0  0.00000000000E+00 -0.00000000000E+00 -0.51789014557E+03  0.51789014557E+03  0.00000000000E+00 0. -1.
          5    1    1    2  502    0  0.12863359828E+01  0.58725127407E+02 -0.13741502971E+01  0.58903785432E+02  0.41800000000E+01 0.  1.
         -5    1    1    2    0  502 -0.67080507956E+02  0.32870776043E+02 -0.15033440798E+03  0.16792316424E+03  0.41800000000E+01 0.  1.
        -11    1    1    2    0    0  0.48249741804E+02 -0.11008689472E+03 -0.26311023921E+03  0.28926486124E+03  0.00000000000E+00 0.  1.
         11    1    1    2    0    0  0.17544430169E+02  0.18490991269E+02 -0.49337073883E+02  0.55532608865E+02  0.00000000000E+00 0. -1.
</event>
<event>
 7    1  0.2619826E-009  0.9592014E+02  0.7561462E-02  0.1289117E+00
          1   -1    0    0  501    0  0.00000000000E+00  0.00000000000E+00  0.15059374452E+03  0.15059374452E+03  0.00000000000E+00 0. -1.
         -1   -1    0    0    0  501 -0.00000000000E+00 -0.00000000000E+00 -0.11198002546E+03  0.11198002546E+03  0.00000000000E+00 0.  1.
         25    2    1    2    0    0  0.93720820937E+01 -0.32407378977E+02  0.86217907751E+02  0.15562216678E+03  0.12508659817E+03 0.  0.
          5    1    3    3  502    0  0.63390825115E+02 -0.21436764047E+00  0.59932528194E+02  0.87337408927E+02  0.41800000000E+01 0.  1.
         -5    1    3    3    0  502 -0.54018743022E+02 -0.32193011337E+02  0.26285379557E+02  0.68284757853E+02  0.41800000000E+01 0.  1.
        -11    1    1    2    0    0  0.13987458252E+02  0.38655040640E+02 -0.65178576941E+02  0.77059120467E+02  0.00000000000E+00 0.  1.
         11    1    1    2    0    0 -0.23359540346E+02 -0.62476616626E+01  0.17574388256E+02  0.29892482734E+02  0.00000000000E+00 0. -1.
</event>
<event>
 7    1  0.2619826E-009  0.9748326E+02  0.7561462E-02  0.1285679E+00
          1   -1    0    0  501    0  0.00000000000E+00  0.00000000000E+00  0.63638988243E+03  0.63638988243E+03  0.00000000000E+00 0. -1.
         -1   -1    0    0    0  501 -0.00000000000E+00 -0.00000000000E+00 -0.24273672610E+02  0.24273672610E+02  0.00000000000E+00 0.  1.
         25    2    1    2    0    0 -0.28942494078E+02 -0.23108862484E+01  0.46794542833E+03  0.48525174342E+03  0.12511323844E+03 0.  0.
          5    1    3    3  502    0  0.33781754160E+02  0.13831540713E+02  0.48664676114E+02  0.60977385430E+02  0.41800000000E+01 0.  1.
         -5    1    3    3    0  502 -0.62724248238E+02 -0.16142426961E+02  0.41928075222E+03  0.42427435799E+03  0.41800000000E+01 0.  1.
        -11    1    1    2    0    0 -0.12463307940E+01 -0.40729846177E+02  0.95243299082E+02  0.10359420703E+03  0.00000000000E+00 0. -1.
         11    1    1    2    0    0  0.30188824872E+02  0.43040732426E+02  0.48927482408E+02  0.71817604594E+02  0.00000000000E+00 0.  1.
</event>
<event>
 7    1  0.2619826E-009  0.9671144E+02  0.7561462E-02  0.1287367E+00
          1   -1    0    0  501    0  0.00000000000E+00  0.00000000000E+00  0.60102250850E+03  0.60102250850E+03  0.00000000000E+00 0. -1.
         -1   -1    0    0    0  501 -0.00000000000E+00 -0.00000000000E+00 -0.25386554889E+02  0.25386554889E+02  0.00000000000E+00 0.  1.
         25    2    1    2    0    0 -0.48128574271E+01 -0.59615063656E+02  0.34756838211E+03  0.37420292162E+03  0.12508767684E+03 0.  0.
          5    1    3    3  502    0 -0.48154178133E+01  0.23384096486E+02  0.22388479742E+03  0.22519298198E+03  0.41800000000E+01 0.  1.
         -5    1    3    3    0  502  0.25603862525E-02 -0.82999160142E+02  0.12368358469E+03  0.14900993964E+03  0.41800000000E+01 0.  1.
        -11    1    1    2    0    0 -0.28174933558E+02  0.34943748730E+02  0.41456637065E+02  0.61102743089E+02  0.00000000000E+00 0.  1.
         11    1    1    2    0    0  0.32987790985E+02  0.24671314926E+02  0.18661093444E+03  0.19110339868E+03  0.00000000000E+00 0. -1.
</event>
<event>
 7    1  0.2619826E-009  0.1198228E+03  0.7561462E-02  0.1243390E+00
          2   -1    0    0  501    0  0.00000000000E+00  0.00000000000E+00  0.35823269565E+03  0.35823269565E+03  0.00000000000E+00 0. -1.
         -2   -1    0    0    0  501 -0.00000000000E+00 -0.00000000000E+00 -0.44126667682E+02  0.44126667682E+02  0.00000000000E+00 0.  1.
         25    2    1    2    0    0 -0.19198159386E+02  0.61303216821E+02  0.17313826275E+03  0.22304601875E+03  0.12508403070E+03 0.  0.
          5    1    3    3  502    0  0.35855580110E+02  0.72786853922E+02  0.12400522836E+03  0.14825086101E+03  0.41800000000E+01 0.  1.
         -5    1    3    3    0  502 -0.55053739496E+02 -0.11483637101E+02  0.49133034391E+02  0.74795157744E+02  0.41800000000E+01 0.  1.
        -11    1    1    2    0    0  0.10870331721E+02 -0.80420993273E+02  0.13518634916E+03  0.15767386997E+03  0.00000000000E+00 0. -1.
         11    1    1    2    0    0  0.83278276647E+01  0.19117776452E+02  0.57814160617E+01  0.21639474619E+02  0.00000000000E+00 0.  1.
</event>
<event>
 7    1  0.2619826E-009  0.1168923E+03  0.7561462E-02  0.1248314E+00
         -3   -1    0    0    0  501 -0.00000000000E+00  0.00000000000E+00  0.16871665727E+03  0.16871665727E+03  0.00000000000E+00 0.  1.
          3   -1    0    0  501    0  0.00000000000E+00 -0.00000000000E+00 -0.81308694332E+02  0.81308694332E+02  0.00000000000E+00 0. -1.
         25    2    1    2    0    0  0.44390335246E+02 -0.12127430262E+02  0.48510249323E+02  0.14183798798E+03  0.12508874497E+03 0.  0.
          5    1    3    3  502    0  0.29070018691E+02 -0.68470528790E+02  0.22906292626E+02  0.77945172663E+02  0.41800000000E+01 0. -1.
         -5    1    3    3    0  502  0.15320316555E+02  0.56343098529E+02  0.25603956697E+02  0.63892815321E+02  0.41800000000E+01 0. -1.
        -11    1    1    2    0    0  0.10002329122E+02 -0.30205264190E+02  0.90735213512E+01  0.33086755090E+02  0.00000000000E+00 0. -1.
         11    1    1    2    0    0 -0.54392664368E+02  0.42332694452E+02  0.29824192260E+02  0.75100608523E+02  0.00000000000E+00 0.  1.
</event>
<event>
 7    1  0.2619826E-009  0.1660234E+03  0.7561462E-02  0.1182059E+00
         -1   -1    0    0    0  501 -0.00000000000E+00  0.00000000000E+00  0.36833613924E+02  0.36833613924E+02  0.00000000000E+00 0.  1.
          1   -1    0    0  501    0  0.00000000000E+00 -0.00000000000E+00 -0.10114193595E+04  0.10114193595E+04  0.00000000000E+00 0. -1.
         25    2    1    2    0    0 -0.79120079679E+02  0.10818881147E+03 -0.27681729213E+03  0.33202163301E+03  0.12508295501E+03 0.  0.
          5    1    3    3  502    0  0.16345648190E+02  0.62286198606E+02 -0.49936713660E+02  0.81595946730E+02  0.41800000000E+01 0.  1.
         -5    1    3    3    0  502 -0.95465727869E+02  0.45902612863E+02 -0.22688057847E+03  0.25042568628E+03  0.41800000000E+01 0.  1.
        -11    1    1    2    0    0  0.52108479931E+02 -0.22280516626E+01 -0.21561575415E+03  0.22183419784E+03  0.00000000000E+00 0. -1.
         11    1    1    2    0    0  0.27011599747E+02 -0.10596075981E+03 -0.48215269934E+03  0.49439714261E+03  0.00000000000E+00 0.  1.
</event>
<event>
 7    1  0.2619826E-009  0.1399682E+03  0.7561462E-02  0.1213372E+00
         -2   -1    0    0    0  501 -0.00000000000E+00  0.00000000000E+00  0.39030058982E+02  0.39030058982E+02  0.00000000000E+00 0.  1.
          2   -1    0    0  501    0  0.00000000000E+00 -0.00000000000E+00 -0.69227741102E+03  0.69227741102E+03  0.00000000000E+00 0. -1.
         25    2    1    2    0    0 -0.97052392259E+02  0.13645983301E+02 -0.51368770187E+03  0.53770655629E+03  0.12509159011E+03 0.  0.
          5    1    3    3  502    0 -0.34704578255E+02 -0.55167618703E+02 -0.23629791359E+03  0.24515719503E+03  0.41800000000E+01 0.  1.
         -5    1    3    3    0  502 -0.62347814004E+02  0.68813602004E+02 -0.27738978828E+03  0.29254936126E+03  0.41800000000E+01 0.  1.
        -11    1    1    2    0    0 -0.72421661195E+01  0.12234519482E+02 -0.55155032190E+02  0.56957967071E+02  0.00000000000E+00 0. -1.
         11    1    1    2    0    0  0.10429455838E+03 -0.25880502783E+02 -0.84404617973E+02  0.13664294664E+03  0.00000000000E+00 0.  1.
</event>
<event>
 7    1  0.2619826E-009  0.2035002E+03  0.7561462E-02  0.1146819E+00
         -2   -1    0    0    0  501 -0.00000000000E+00  0.00000000000E+00  0.16265037736E+03  0.16265037736E+03  0.00000000000E+00 0.  1.
          2   -1    0    0  501    0  0.00000000000E+00 -0.00000000000E+00 -0.30085373162E+03  0.30085373162E+03  0.00000000000E+00 0. -1.
         25    2    1    2    0    0 -0.15735750300E+03 -0.10425134078E+03 -0.31125524599E+02  0.22857128380E+03  0.12508520173E+03 0.  0.
          5    1    3    3  502    0 -0.53387565986E+01 -0.52965948047E+02 -0.41671890220E+02  0.67734133264E+02  0.41800000000E+01 0. -1.
         -5    1    3    3    0  502 -0.15201874640E+03 -0.51285392736E+02  0.10546365621E+02  0.16083715054E+03  0.41800000000E+01 0. -1.
        -11    1    1    2    0    0  0.48718540410E+02  0.56036997254E+02 -0.87020719657E+02  0.11439513491E+03  0.00000000000E+00 0. -1.
         11    1    1    2    0    0  0.10863896259E+03  0.48214343528E+02 -0.20057110000E+02  0.12053769027E+03  0.00000000000E+00 0.  1.
</event>
<event>
 7    1  0.2619826E-009  0.1354449E+03  0.7561462E-02  0.1219593E+00
          2   -1    0    0  501    0  0.00000000000E+00  0.00000000000E+00  0.95009730615E+03  0.95009730615E+03  0.00000000000E+00 0. -1.
         -2   -1    0    0    0  501 -0.00000000000E+00 -0.00000000000E+00 -0.35844731820E+02  0.35844731820E+02  0.00000000000E+00 0.  1.
         25    2    1    2    0    0  0.80848176292E+00 -0.95994491952E+02  0.81077197621E+03  0.82596176750E+03  0.12508416304E+03 0.  0.
          5    1    3    3  502    0 -0.37886830187E+02  0.79168324567E+01  0.11533231402E+03  0.12172552401E+03  0.41800000000E+01 0. -1.
         -5    1    3    3    0  502  0.38695311950E+02 -0.10391132441E+03  0.69543966218E+03  0.70423624349E+03  0.41800000000E+01 0. -1.
        -11    1    1    2    0    0 -0.24483114685E+02  0.25660831453E+01  0.29853792048E+02  0.38694399944E+02  0.00000000000E+00 0. -1.
         11    1    1    2    0    0  0.23674632922E+02  0.93428408807E+02  0.73626806077E+02  0.12128587053E+03  0.00000000000E+00 0.  1.
</event>
<event>
 7    1  0.2763863E-009  0.2225730E+03  0.7561462E-02  0.1131979E+00
          2   -1    0    0  501    0  0.00000000000E+00  0.00000000000E+00  0.81401388097E+03  0.81401388097E+03  0.00000000000E+00 0. -1.
         -2   -1    0    0    0  501 -0.00000000000E+00 -0.00000000000E+00 -0.84715536712E+02  0.84715536712E+02  0.00000000000E+00 0.  1.
         25    2    1    2    0    0  0.18041732593E+03  0.96580374959E+02  0.58597040857E+03  0.63315576756E+03  0.12508687366E+03 0.  0.
          5    1    3    3  502    0  0.15475447405E+03  0.12587550220E+03  0.46494238736E+03  0.50594711706E+03  0.41800000000E+01 0.  1.
         -5    1    3    3    0  502  0.25662851876E+02 -0.29295127243E+02  0.12102802120E+03  0.12720865051E+03  0.41800000000E+01 0.  1.
        -11    1    1    2    0    0 -0.12014975548E+03 -0.49393144378E+02  0.13695603033E+03  0.18876599454E+03  0.00000000000E+00 0. -1.
         11    1    1    2    0    0 -0.60267570449E+02 -0.47187230581E+02  0.63719053705E+01  0.76807655580E+02  0.00000000000E+00 0.  1.
</event>
<event>
 7    1  0.2619826E-009  0.1154490E+03  0.7561462E-02  0.1250799E+00
         -3   -1    0    0    0  501 -0.00000000000E+00  0.00000000000E+00  0.28258670078E+02  0.28258670078E+02  0.00000000000E+00 0.  1.
          3   -1    0    0  501    0  0.00000000000E+00 -0.00000000000E+00 -0.80588117566E+03  0.80588117566E+03  0.00000000000E+00 0. -1.
         25    2    1    2    0    0  0.79178247647E+02  0.21151822922E+02 -0.63564826834E+03  0.65300392813E+03  0.12509522213E+03 0.  0.
          5    1    3    3  502    0 -0.30714355969E+02 -0.13213114757E+02 -0.17057863953E+03  0.17387496291E+03  0.41800000000E+01 0. -1.
         -5    1    3    3    0  502  0.10989260362E+03  0.34364937679E+02 -0.46506962881E+03  0.47912896522E+03  0.41800000000E+01 0. -1.
        -11    1    1    2    0    0 -0.17730425027E+02 -0.57084292314E+01 -0.10730967069E+03  0.10891427620E+03  0.00000000000E+00 0. -1.
         11    1    1    2    0    0 -0.61447822620E+02 -0.15443393691E+02 -0.34664566550E+02  0.72221641407E+02  0.00000000000E+00 0.  1.
</event>
<event>
 7    1  0.2619826E-009  0.1507459E+03  0.7561462E-02  0.1199559E+00
         -2   -1    0    0    0  501 -0.00000000000E+00  0.00000000000E+00  0.13278869394E+03  0.13278869394E+03  0.00000000000E+00 0. -1.
          2   -1    0    0  501    0  0.00000000000E+00 -0.00000000000E+00 -0.19400151947E+03  0.19400151947E+03  0.00000000000E+00 0.  1.
         25    2    1    2    0    0 -0.23048382727E+02  0.10356561412E+03 -0.93603754598E+01  0.16429112982E+03  0.12508754668E+03 0.  0.
          5    1    3    3  502    0  0.39674038807E+02  0.65421429150E+02 -0.37814585337E+02  0.85448276820E+02  0.41800000000E+01 0. -1.
         -5    1    3    3    0  502 -0.62722421534E+02  0.38144184970E+02  0.28454209877E+02  0.78842853004E+02  0.41800000000E+01 0. -1.
        -11    1    1    2    0    0  0.63250120618E+02 -0.36169947155E+02 -0.40043405830E+02  0.83140346318E+02  0.00000000000E+00 0. -1.
         11    1    1    2    0    0 -0.40201737892E+02 -0.67395666965E+02 -0.11809044238E+02  0.79358737269E+02  0.00000000000E+00 0.  1.
</event>
<event>
 7    1  0.2619826E-009  0.1062576E+03  0.7561462E-02  0.1267661E+00
         -2   -1    0    0    0  501 -0.00000000000E+00  0.00000000000E+00  0.39252415411E+02  0.39252415411E+02  0.00000000000E+00 0. -1.
          2   -1    0    0  501    0  0.00000000000E+00 -0.00000000000E+00 -0.38293005619E+03  0.38293005619E+03  0.00000000000E+00 0.  1.
         25    2    1    2    0    0  0.11283449370E+02 -0.36992876198E+02 -0.22621893603E+03  0.26137952757E+03  0.12509380998E+03 0.  0.
          5    1    3    3  502    0 -0.37606386966E+02  0.12756537236E+02 -0.16071558676E+03  0.16560175667E+03  0.41800000000E+01 0.  1.
         -5    1    3    3    0  502  0.48889836336E+02 -0.49749413434E+02 -0.65503349273E+02  0.95777770908E+02  0.41800000000E+01 0.  1.
        -11    1    1    2    0    0 -0.53521990987E+02  0.18950530268E+02 -0.35826048160E+02  0.67135920664E+02  0.00000000000E+00 0.  1.
         11    1    1    2    0    0  0.42238541616E+02  0.18042345929E+02 -0.81632656581E+02  0.93667023360E+02  0.00000000000E+00 0. -1.
</event>
<event>
 7    1  0.2619826E-009  0.1394427E+03  0.7561462E-02  0.1214081E+00
          1   -1    0    0  501    0  0.00000000000E+00  0.00000000000E+00  0.18091404997E+03  0.18091404997E+03  0.00000000000E+00 0. -1.
         -1   -1    0    0    0  501 -0.00000000000E+00 -0.00000000000E+00 -0.22237308895E+03  0.22237308895E+03  0.00000000000E+00 0.  1.
         25    2    1    2    0    0  0.52754045642E+02 -0.10881179404E+03 -0.13783604016E+03  0.22195969316E+03  0.12507731835E+03 0.  0.
          5    1    3    3  502    0 -0.91833168726E+01 -0.21313165823E+02  0.20131648934E+02  0.31005483950E+02  0.41800000000E+01 0. -1.
         -5    1    3    3    0  502  0.61937362515E+02 -0.87498628218E+02 -0.15796768910E+03  0.19095420921E+03  0.41800000000E+01 0. -1.
        -11    1    1    2    0    0 -0.60141522821E+02  0.27081399415E+02  0.67385767943E+02  0.94293407420E+02  0.00000000000E+00 0. -1.
         11    1    1    2    0    0  0.73874771791E+01  0.81730394626E+02  0.28991233249E+02  0.87034038342E+02  0.00000000000E+00 0.  1.
</event>
<event>
 7    1  0.2619826E-009  0.7753784E+02  0.7561462E-02  0.1336188E+00
          2   -1    0    0  501    0  0.00000000000E+00  0.00000000000E+00  0.22761625272E+03  0.22761625272E+03  0.00000000000E+00 0. -1.
         -2   -1    0    0    0  501 -0.00000000000E+00 -0.00000000000E+00 -0.70429643249E+02  0.70429643249E+02  0.00000000000E+00 0.  1.
         25    2    1    2    0    0 -0.57016703957E+02 -0.12156768722E+02  0.10976978276E+03  0.17633844338E+03  0.12508856802E+03 0.  0.
          5    1    3    3  502    0 -0.29122832757E+01  0.19571932875E+02 -0.22279933884E+02  0.30090028318E+02  0.41800000000E+01 0.  1.
         -5    1    3    3    0  502 -0.54104420681E+02 -0.31728701597E+02  0.13204971664E+03  0.14624841506E+03  0.41800000000E+01 0.  1.
        -11    1    1    2    0    0 -0.33283774860E+01  0.11151262801E+02  0.59098908279E+02  0.60233792165E+02  0.00000000000E+00 0. -1.
         11    1    1    2    0    0  0.60345081443E+02  0.10055059210E+01 -0.11682081566E+02  0.61473660426E+02  0.00000000000E+00 0.  1.
</event>
<event>
 7    1  0.2619826E-009  0.1370014E+03  0.7561462E-02  0.1217422E+00
          1   -1    0    0  501    0  0.00000000000E+00  0.00000000000E+00  0.20069108323E+03  0.20069108323E+03  0.00000000000E+00 0. -1.
         -1   -1    0    0    0  501 -0.00000000000E+00 -0.00000000000E+00 -0.12263794664E+03  0.12263794664E+03  0.00000000000E+00 0.  1.
         25    2    1    2    0    0 -0.73598820626E+02 -0.52893460192E+02  0.11096789360E+03  0.19019512335E+03  0.12508320034E+03 0.  0.
          5    1    3    3  502    0 -0.48345064483E+02  0.36610507203E+02  0.52034702322E+02  0.80016605422E+02  0.41800000000E+01 0.  1.
         -5    1    3    3    0  502 -0.25253756144E+02 -0.89503967395E+02  0.58933191274E+02  0.11017851793E+03  0.41800000000E+01 0.  1.
        -11    1    1    2    0    0  0.77370350329E+02  0.11102548016E+02 -0.44049854902E+02  0.89720830354E+02  0.00000000000E+00 0.  1.
         11    1    1    2    0    0 -0.37715297026E+01  0.41790912176E+02  0.11135097894E+02  0.43413076162E+02  0.00000000000E+00 0. -1.
</event>
<event>
 7    1  0.2619826E-009  0.1131844E+03  0.7561462E-02  0.1254784E+00
          3   -1    0    0  501    0  0.00000000000E+00  0.00000000000E+00  0.31660896657E+03  0.31660896657E+03  0.00000000000E+00 0. -1.
         -3   -1    0    0    0  501 -0.00000000000E+00 -0.00000000000E+00 -0.53961507588E+02  0.53961507588E+02  0.00000000000E+00 0.  1.
         25    2    1    2    0    0  0.58194536696E+02  0.40878322464E+02  0.12684201549E+03  0.19181846748E+03  0.12509111169E+03 0.  0.
          5    1    3    3  502    0  0.45872321736E+02  0.67106991919E+02  0.23954957477E+02  0.84846512324E+02  0.41800000000E+01 0. -1.
         -5    1    3    3    0  502  0.12322214960E+02 -0.26228669455E+02  0.10288705801E+03  0.10697195516E+03  0.41800000000E+01 0. -1.
        -11    1    1    2    0    0 -0.83014585252E+02 -0.35568657997E+02  0.11275819458E+03  0.14446785539E+03  0.00000000000E+00 0.  1.
         11    1    1    2    0    0  0.24820048556E+02 -0.53096644667E+01  0.23047248910E+02  0.34284151286E+02  0.00000000000E+00 0. -1.
</event>
<event>
 7    1  0.2619826E-009  0.9993153E+02  0.7561462E-02  0.1280440E+00
          2   -1    0    0  501    0  0.00000000000E+00  0.00000000000E+00  0.49404761242E+03  0.49404761242E+03  0.00000000000E+00 0. -1.
         -2   -1    0    0    0  501 -0.00000000000E+00 -0.00000000000E+00 -0.34689665727E+02  0.34689665727E+02  0.00000000000E+00 0.  1.
         25    2    1    2    0    0  0.12632377862E+02  0.60788363261E+02  0.32208871840E+03  0.35106133081E+03  0.12509241941E+03 0.  0.
          5    1    3    3  502    0 -0.47878165647E+02 -0.29556543269E+01  0.78768720885E+02  0.92320303444E+02  0.41800000000E+01 0.  1.
         -5    1    3    3    0  502  0.60510543509E+02  0.63744017588E+02  0.24331999751E+03  0.25874102737E+03  0.41800000000E+01 0.  1.
        -11    1    1    2    0    0  0.25188485243E+00 -0.33948910366E+02  0.14332795261E+03  0.14729390334E+03  0.00000000000E+00 0. -1.
         11    1    1    2    0    0 -0.12884262715E+02 -0.26839452895E+02 -0.60587243112E+01  0.30382044001E+02  0.00000000000E+00 0.  1.
</event>
<event>
 7    1  0.2619826E-009  0.7519824E+02  0.7561462E-02  0.1343258E+00
          2   -1    0    0  501    0  0.00000000000E+00  0.00000000000E+00  0.15355991639E+03  0.15355991639E+03  0.00000000000E+00 0. -1.
         -2   -1    0    0    0  501 -0.00000000000E+00 -0.00000000000E+00 -0.79015783038E+02  0.79015783038E+02  0.00000000000E+00 0.  1.
         25    2    1    2    0    0  0.29545539987E+01  0.33326419931E+01  0.34129068012E+02  0.12979614832E+03  0.12514955431E+03 0.  0.
          5    1    3    3  502    0  0.25939923481E+02 -0.51573858324E+02 -0.55362147733E+01  0.58145202438E+02  0.41800000000E+01 0. -1.
         -5    1    3    3    0  502 -0.22985369482E+02  0.54906500317E+02  0.39665282785E+02  0.71650945881E+02  0.41800000000E+01 0. -1.
        -11    1    1    2    0    0 -0.10388486373E+02 -0.15456853810E+02 -0.27598864207E+02  0.33294628461E+02  0.00000000000E+00 0.  1.
         11    1    1    2    0    0  0.74339323742E+01  0.12124211817E+02  0.68013929551E+02  0.69484922650E+02  0.00000000000E+00 0. -1.
</event>
<event>
 7    1  0.2619826E-009  0.2927560E+03  0.7561462E-02  0.1088919E+00
          1   -1    0    0  501    0  0.00000000000E+00  0.00000000000E+00  0.16426279447E+04  0.16426279447E+04  0.00000000000E+00 0. -1.
         -1   -1    0    0    0  501 -0.00000000000E+00 -0.00000000000E+00 -0.82038658735E+02  0.82038658735E+02  0.00000000000E+00 0.  1.
         25    2    1    2    0    0  0.25604188958E+03  0.13985671021E+03  0.33498848104E+03  0.46149970333E+03  0.12508934859E+03 0.  0.
          5    1    3    3  502    0  0.22378593880E+03  0.13259497115E+03  0.33966685632E+03  0.42784648936E+03  0.41800000000E+01 0.  1.
         -5    1    3    3    0  502  0.32255950778E+02  0.72617390579E+01 -0.46783752785E+01  0.33653213962E+02  0.41800000000E+01 0.  1.
        -11    1    1    2    0    0 -0.73253088071E+02 -0.33448447843E+02  0.19297762079E+03  0.20910565679E+03  0.00000000000E+00 0.  1.
         11    1    1    2    0    0 -0.18278880151E+03 -0.10640826236E+03  0.10326231841E+04  0.10540612433E+04  0.00000000000E+00 0. -1.
</event>
<event>
 7    1  0.2619826E-009  0.1206635E+03  0.7561462E-02  0.1242006E+00
         -2   -1    0    0    0  501 -0.00000000000E+00  0.00000000000E+00  0.54261649334E+02  0.54261649334E+02  0.00000000000E+00 0.  1.
          2   -1    0    0  501    0  0.00000000000E+00 -0.00000000000E+00 -0.32470958028E+03  0.32470958028E+03  0.00000000000E+00 0. -1.
         25    2    1    2    0    0 -0.43969905665E+00  0.72732133723E+02 -0.11647442897E+03  0.18575233828E+03  0.12508989552E+03 0.  0.
          5    1    3    3  502    0 -0.47626239355E+02  0.32166528722E+01 -0.81581294219E+01  0.48606923441E+02  0.41800000000E+01 0.  1.
         -5    1    3    3    0  502  0.47186540298E+02  0.69515480851E+02 -0.10831629955E+03  0.13714541484E+03  0.41800000000E+01 0.  1.
        -11    1    1    2    0    0  0.26661878477E+02 -0.78096972514E+02 -0.81597299062E+02  0.11605219556E+03  0.00000000000E+00 0.  1.
         11    1    1    2    0    0 -0.26222179420E+02  0.53648387907E+01 -0.72376202909E+02  0.77166695772E+02  0.00000000000E+00 0. -1.
</event>
<event>
 7    1  0.2619826E-009  0.1291558E+03  0.7561462E-02  0.1228714E+00
          1   -1    0    0  501    0  0.00000000000E+00  0.00000000000E+00  0.52264342109E+03  0.52264342109E+03  0.00000000000E+00 0. -1.
         -1   -1    0    0    0  501 -0.00000000000E+00 -0.00000000000E+00 -0.36122877426E+02  0.36122877426E+02  0.00000000000E+00 0.  1.
         25    2    1    2    0    0  0.21309694711E+02  0.67201914400E+02  0.35899447376E+03  0.38664798257E+03  0.12509768123E+03 0.  0.
          5    1    3    3  502    0  0.69609300152E+02  0.14674825460E+02  0.20026839890E+03  0.21256930439E+03  0.41800000000E+01 0.  1.
         -5    1    3    3    0  502 -0.48299605441E+02  0.52527088940E+02  0.15872607485E+03  0.17407867818E+03  0.41800000000E+01 0.  1.
        -11    1    1    2    0    0 -0.54118978454E+02 -0.62088329400E+02  0.89288315177E+02  0.12147521436E+03  0.00000000000E+00 0.  1.
         11    1    1    2    0    0  0.32809283744E+02 -0.51135850000E+01  0.38237754727E+02  0.50643101582E+02  0.00000000000E+00 0. -1.
</event>
<event>
 7    1  0.2619826E-009  0.1326599E+03  0.7561462E-02  0.1223561E+00
         -2   -1    0    0    0  501 -0.00000000000E+00  0.00000000000E+00  0.54645652749E+02  0.54645652749E+02  0.00000000000E+00 0. -1.
          2   -1    0    0  501    0  0.00000000000E+00 -0.00000000000E+00 -0.69835973650E+03  0.69835973650E+03  0.00000000000E+00 0.  1.
         25    2    1    2    0    0 -0.86847868217E+02 -0.63310418080E+02 -0.57118858092E+03  0.59451835665E+03  0.12507965529E+03 0.  0.
          5    1    3    3  502    0 -0.10146085418E+02  0.13369427179E+02 -0.49773111171E+01  0.17998073740E+02  0.41800000000E+01 0. -1.
         -5    1    3    3    0  502 -0.76701782799E+02 -0.76679845259E+02 -0.56621126980E+03  0.57652028291E+03  0.41800000000E+01 0. -1.
        -11    1    1    2    0    0 -0.13029982223E+02  0.32419539358E+02 -0.28335116775E+02  0.44985395536E+02  0.00000000000E+00 0.  1.
         11    1    1    2    0    0  0.99877850440E+02  0.30890878722E+02 -0.44190386061E+02  0.11350163707E+03  0.00000000000E+00 0. -1.
</event>
<event>
 7    1  0.2619826E-009  0.1733110E+03  0.7561462E-02  0.1174438E+00
         -2   -1    0    0    0  501 -0.00000000000E+00  0.00000000000E+00  0.24928268081E+03  0.24928268081E+03  0.00000000000E+00 0.  1.
          2   -1    0    0  501    0  0.00000000000E+00 -0.00000000000E+00 -0.17016724490E+03  0.17016724490E+03  0.00000000000E+00 0. -1.
         25    2    1    2    0    0 -0.97420680881E+02 -0.10585492829E+03  0.14178861168E+03  0.23759343418E+03  0.12510225680E+03 0.  0.
          5    1    3    3  502    0  0.15161064561E+02 -0.50323149969E+02  0.84370483410E+02  0.99489336978E+02  0.41800000000E+01 0. -1.
         -5    1    3    3    0  502 -0.11258174544E+03 -0.55531778324E+02  0.57418128273E+02  0.13810409721E+03  0.41800000000E+01 0. -1.
        -11    1    1    2    0    0  0.10799521375E+03  0.64894355671E+02 -0.33186228696E+02  0.13029032721E+03  0.00000000000E+00 0. -1.
         11    1    1    2    0    0 -0.10574532865E+02  0.40960572621E+02 -0.29486947078E+02  0.51566164321E+02  0.00000000000E+00 0.  1.
</event>
<event>
 7    1  0.2619826E-009  0.1409749E+03  0.7561462E-02  0.1212023E+00
          2   -1    0    0  501    0  0.00000000000E+00  0.00000000000E+00  0.85100080536E+03  0.85100080536E+03  0.00000000000E+00 0. -1.
         -2   -1    0    0    0  501 -0.00000000000E+00 -0.00000000000E+00 -0.47764970254E+02  0.47764970254E+02  0.00000000000E+00 0.  1.
         25    2    1    2    0    0 -0.13274015365E+03  0.31837613433E+02  0.64364544067E+03  0.66974602233E+03  0.12508676637E+03 0.  0.
          5    1    3    3  502    0 -0.10565603926E+03  0.28484109729E+02  0.22543398362E+03  0.25062421373E+03  0.41800000000E+01 0.  1.
         -5    1    3    3    0  502 -0.27084114397E+02  0.33535037039E+01  0.41821145705E+03  0.41912180860E+03  0.41800000000E+01 0.  1.
        -11    1    1    2    0    0  0.10697184836E+03 -0.44815957852E+02  0.71321387673E+02  0.13615501004E+03  0.00000000000E+00 0.  1.
         11    1    1    2    0    0  0.25768305299E+02  0.12978344420E+02  0.88269006764E+02  0.92864743239E+02  0.00000000000E+00 0. -1.
</event>
<event>
 7    1  0.2619826E-009  0.1103624E+03  0.7561462E-02  0.1259900E+00
          2   -1    0    0  501    0  0.00000000000E+00  0.00000000000E+00  0.46599353795E+03  0.46599353795E+03  0.00000000000E+00 0. -1.
         -2   -1    0    0    0  501 -0.00000000000E+00 -0.00000000000E+00 -0.30486458095E+02  0.30486458095E+02  0.00000000000E+00 0.  1.
         25    2    1    2    0    0 -0.20133937828E+02 -0.46374392535E+02  0.24327943069E+03  0.27818758230E+03  0.12508992690E+03 0.  0.
          5    1    3    3  502    0  0.48105120491E+02 -0.22063363973E+02  0.55150018299E+02  0.76549928581E+02  0.41800000000E+01 0. -1.
         -5    1    3    3    0  502 -0.68239058319E+02 -0.24311028562E+02  0.18812941239E+03  0.20163765372E+03  0.41800000000E+01 0. -1.
        -11    1    1    2    0    0  0.50735291871E+02  0.19515586041E+02  0.65141392611E+02  0.84842966539E+02  0.00000000000E+00 0. -1.
         11    1    1    2    0    0 -0.30601354043E+02  0.26858806494E+02  0.12708625655E+03  0.13344944721E+03  0.00000000000E+00 0.  1.
</event>
<event>
 7    1  0.2619826E-009  0.9158658E+02  0.7561462E-02  0.1299054E+00
         -1   -1    0    0    0  501 -0.00000000000E+00  0.00000000000E+00  0.74068652067E+02  0.74068652067E+02  0.00000000000E+00 0.  1.
          1   -1    0    0  501    0  0.00000000000E+00 -0.00000000000E+00 -0.30182434079E+03  0.30182434079E+03  0.00000000000E+00 0. -1.
         25    2    1    2    0    0 -0.29497888631E+02 -0.24502861712E+02 -0.24200596452E+03  0.27509793381E+03  0.12506586528E+03 0.  0.
          5    1    3    3  502    0 -0.88153207008E+01 -0.74842250437E+02 -0.15477907848E+03  0.17220077777E+03  0.41800000000E+01 0.  1.
         -5    1    3    3    0  502 -0.20682567930E+02  0.50339388725E+02 -0.87226886036E+02  0.10289715604E+03  0.41800000000E+01 0.  1.
        -11    1    1    2    0    0  0.93926893742E+01 -0.96608189919E+01  0.47301655642E+02  0.49183337257E+02  0.00000000000E+00 0.  1.
         11    1    1    2    0    0  0.20105199256E+02  0.34163680704E+02 -0.33051379850E+02  0.51611721792E+02  0.00000000000E+00 0. -1.
</event>
<event>
 7    1  0.2619826E-009  0.1005903E+03  0.7561462E-02  0.1279059E+00
         -2   -1    0    0    0  501 -0.00000000000E+00  0.00000000000E+00  0.94814547269E+02  0.94814547269E+02  0.00000000000E+00 0.  1.
          2   -1    0    0  501    0  0.00000000000E+00 -0.00000000000E+00 -0.16937233783E+03  0.16937233783E+03  0.00000000000E+00 0. -1.
         25    2    1    2    0    0  0.58746490738E+02  0.21862201790E+02 -0.65187336087E+02  0.15435559314E+03  0.12508858583E+03 0.  0.
          5    1    3    3  502    0  0.89774731898E+02  0.35320132774E+02 -0.70906283445E+02  0.11980061644E+03  0.41800000000E+01 0.  1.
         -5    1    3    3    0  502 -0.31028241159E+02 -0.13457930984E+02  0.57189473588E+01  0.34554976700E+02  0.41800000000E+01 0.  1.
        -11    1    1    2    0    0 -0.55403816987E+01 -0.16094066131E+02  0.35902412677E+02  0.39732833149E+02  0.00000000000E+00 0.  1.
         11    1    1    2    0    0 -0.53206109039E+02 -0.57681356588E+01 -0.45272867153E+02  0.70098458816E+02  0.00000000000E+00 0. -1.
</event>
<event>
 7    1  0.2619826E-009  0.1150518E+03  0.7561462E-02  0.1251491E+00
          4   -1    0    0  501    0  0.00000000000E+00  0.00000000000E+00  0.69792816206E+02  0.69792816206E+02  0.00000000000E+00 0. -1.
         -4   -1    0    0    0  501 -0.00000000000E+00 -0.00000000000E+00 -0.22568337494E+03  0.22568337494E+03  0.00000000000E+00 0.  1.
         25    2    1    2    0    0 -0.59282458379E+02  0.38100790166E+02 -0.59476059208E+02  0.15540495581E+03  0.12508884279E+03 0.  0.
          5    1    3    3  502    0  0.55077040064E+01  0.67933932518E+02 -0.11259431274E+02  0.69206944618E+02  0.41800000000E+01 0. -1.
         -5    1    3    3    0  502 -0.64790162385E+02 -0.29833142352E+02 -0.48216627934E+02  0.86198011194E+02  0.41800000000E+01 0. -1.
        -11    1    1    2    0    0  0.64999788048E+02 -0.15185632678E+02 -0.95397981267E+02  0.11643174273E+03  0.00000000000E+00 0.  1.
         11    1    1    2    0    0 -0.57173296694E+01 -0.22915157488E+02 -0.10165182635E+01  0.23639492605E+02  0.00000000000E+00 0. -1.
</event>
<event>
 7    1  0.2619826E-009  0.9131074E+02  0.7561462E-02  0.1299708E+00
         -1   -1    0    0    0  501 -0.00000000000E+00  0.00000000000E+00  0.71474129212E+02  0.71474129212E+02  0.00000000000E+00 0.  1.
          1   -1    0    0  501    0  0.00000000000E+00 -0.00000000000E+00 -0.17695174283E+03  0.17695174283E+03  0.00000000000E+00 0. -1.
         25    2    1    2    0    0  0.38260948763E+00  0.32403136206E+02 -0.14620469895E+00  0.12923319608E+03  0.12510430835E+03 0.  0.
          5    1    3    3  502    0  0.58506624995E+02  0.36697908686E+02  0.10056871933E+02  0.69916913142E+02  0.41800000000E+01 0.  1.
         -5    1    3    3    0  502 -0.58124015508E+02 -0.42947724803E+01 -0.10203076632E+02  0.59316282943E+02  0.41800000000E+01 0.  1.
        -11    1    1    2    0    0 -0.19416726189E+02 -0.30110062893E+02 -0.77691146273E+02  0.85554306453E+02  0.00000000000E+00 0. -1.
         11    1    1    2    0    0  0.19034116701E+02 -0.22930733127E+01 -0.27640262646E+02  0.33638369505E+02  0.00000000000E+00 0.  1.
</event>
<event>
 7    1  0.2619826E-009  0.3128306E+03  0.7561462E-02  0.1078997E+00
          1   -1    0    0  501    0  0.00000000000E+00  0.00000000000E+00  0.38489794622E+03  0.38489794622E+03  0.00000000000E+00 0. -1.
         -1   -1    0    0    0  501 -0.00000000000E+00 -0.00000000000E+00 -0.29526338920E+03  0.29526338920E+03  0.00000000000E+00 0.  1.
         25    2    1    2    0    0  0.78668069237E+02 -0.30142719541E+03 -0.22758077489E+02  0.33649241508E+03  0.12514869583E+03 0.  0.
          5    1    3    3  502    0  0.35741387653E+02 -0.19501437679E+03 -0.72790972608E+02  0.21124405799E+03  0.41800000000E+01 0. -1.
         -5    1    3    3    0  502  0.42926681585E+02 -0.10641281862E+03  0.50032895119E+02  0.12524835709E+03  0.41800000000E+01 0. -1.
        -11    1    1    2    0    0 -0.40165117743E+02  0.10610699093E+03  0.87010834154E+02  0.14297837412E+03  0.00000000000E+00 0. -1.
         11    1    1    2    0    0 -0.38502951495E+02  0.19532020448E+03  0.25381800356E+02  0.20069054622E+03  0.00000000000E+00 0.  1.
</event>
<event>
 7    1  0.2619826E-009  0.1667143E+03  0.7561462E-02  0.1181318E+00
          2   -1    0    0  501    0  0.00000000000E+00  0.00000000000E+00  0.60334037192E+03  0.60334037192E+03  0.00000000000E+00 0. -1.
         -2   -1    0    0    0  501 -0.00000000000E+00 -0.00000000000E+00 -0.56226920292E+02  0.56226920292E+02  0.00000000000E+00 0.  1.
         25    2    1    2    0    0  0.40833519085E+02 -0.14287750219E+03  0.29749046301E+03  0.35528614421E+03  0.12508521804E+03 0.  0.
          5    1    3    3  502    0 -0.30943982522E+01  0.16900866285E+02  0.38604015170E+01  0.18099438709E+02  0.41800000000E+01 0.  1.
         -5    1    3    3    0  502  0.43927917338E+02 -0.15977836848E+03  0.29363006149E+03  0.33718670550E+03  0.41800000000E+01 0.  1.
        -11    1    1    2    0    0  0.14130234929E+01  0.19981493588E+02  0.11662629780E+03  0.11833406129E+03  0.00000000000E+00 0. -1.
         11    1    1    2    0    0 -0.42246542578E+02  0.12289600860E+03  0.13299669082E+03  0.18594708672E+03  0.00000000000E+00 0.  1.
</event>
<event>
 7    1  0.2619826E-009  0.1340556E+03  0.7561462E-02  0.1221559E+00
          1   -1    0    0  501    0  0.00000000000E+00  0.00000000000E+00  0.14238405786E+03  0.14238405786E+03  0.00000000000E+00 0.  1.
         -1   -1    0    0    0  501 -0.00000000000E+00 -0.00000000000E+00 -0.18814538319E+03  0.18814538319E+03  0.00000000000E+00 0. -1.
         25    2    1    2    0    0  0.56604811613E+02 -0.93114593961E+02 -0.81246278599E+02  0.18472253636E+03  0.12508807036E+03 0.  0.
          5    1    3    3  502    0  0.30288831063E+02  0.30465723582E+01  0.24522232263E+02  0.39312938907E+02  0.41800000000E+01 0.  1.
         -5    1    3    3    0  502  0.26315980550E+02 -0.96161166320E+02 -0.10576851086E+03  0.14540959745E+03  0.41800000000E+01 0.  1.
        -11    1    1    2    0    0 -0.73110108347E+02  0.42957918661E+02  0.52462779113E+01  0.84958779124E+02  0.00000000000E+00 0. -1.
         11    1    1    2    0    0  0.16505296734E+02  0.50156675300E+02  0.30238675366E+02  0.60848125570E+02  0.00000000000E+00 0.  1.
</event>
<event>
 7    1  0.2619826E-009  0.1529330E+03  0.7561462E-02  0.1196915E+00
         -2   -1    0    0    0  501 -0.00000000000E+00  0.00000000000E+00  0.81081399934E+02  0.81081399934E+02  0.00000000000E+00 0.  1.
          2   -1    0    0  501    0  0.00000000000E+00 -0.00000000000E+00 -0.36272878817E+03  0.36272878817E+03  0.00000000000E+00 0. -1.
         25    2    1    2    0    0  0.13880754522E+02 -0.12962228782E+03 -0.12940929921E+03  0.22223680337E+03  0.12509123553E+03 0.  0.
          5    1    3    3  502    0  0.50070696452E+02 -0.45293053775E+02 -0.10876266155E+03  0.12808327100E+03  0.41800000000E+01 0.  1.
         -5    1    3    3    0  502 -0.36189941930E+02 -0.84329234045E+02 -0.20646637660E+02  0.94153532373E+02  0.41800000000E+01 0.  1.
        -11    1    1    2    0    0 -0.40556015100E+02  0.67435719966E+02 -0.34815751198E+02  0.86049423122E+02  0.00000000000E+00 0.  1.
         11    1    1    2    0    0  0.26675260579E+02  0.62186567854E+02 -0.11742233784E+03  0.13552396161E+03  0.00000000000E+00 0. -1.
</event>
<event>
 7    1  0.2619826E-009  0.2366349E+03  0.7561462E-02  0.1122055E+00
         -1   -1    0    0    0  501 -0.00000000000E+00  0.00000000000E+00  0.30446375494E+03  0.30446375494E+03  0.00000000000E+00 0.  1.
          1   -1    0    0  501    0  0.00000000000E+00 -0.00000000000E+00 -0.24026228479E+03  0.24026228479E+03  0.00000000000E+00 0. -1.
         25    2    1    2    0    0 -0.19092521180E+03 -0.12491878934E+03 -0.41058423875E+02  0.26341848756E+03  0.12508543075E+03 0.  0.
          5    1    3    3  502    0 -0.13413812128E+03 -0.35213201843E+02  0.21068870252E+02  0.14033664831E+03  0.41800000000E+01 0.  1.
         -5    1    3    3    0  502 -0.56787090521E+02 -0.89705587498E+02 -0.62127294127E+02  0.12308183925E+03  0.41800000000E+01 0.  1.
        -11    1    1    2    0    0  0.17984145426E+03  0.11959203202E+03  0.46044403237E+02  0.22082864366E+03  0.00000000000E+00 0. -1.
         11    1    1    2    0    0  0.11083757539E+02  0.53267573233E+01  0.59215490794E+02  0.60478908511E+02  0.00000000000E+00 0.  1.
</event>
<event>
 7    1  0.2619826E-009  0.2129705E+03  0.7561462E-02  0.1139235E+00
          2   -1    0    0  501    0  0.00000000000E+00  0.00000000000E+00  0.10385409650E+04  0.10385409650E+04  0.00000000000E+00 0. -1.
         -2   -1    0    0    0  501 -0.00000000000E+00 -0.00000000000E+00 -0.50316935551E+02  0.50316935551E+02  0.00000000000E+00 0.  1.
         25    2    1    2    0    0  0.83309611680E+02 -0.16724663342E+03  0.33553907360E+03  0.40390986625E+03  0.12507910439E+03 0.  0.
          5    1    3    3  502    0  0.91123111799E+02 -0.55224450575E+02  0.11787330423E+03  0.15894889020E+03  0.41800000000E+01 0.  1.
         -5    1    3    3    0  502 -0.78135001188E+01 -0.11202218284E+03  0.21766576937E+03  0.24496097605E+03  0.41800000000E+01 0.  1.
        -11    1    1    2    0    0 -0.10257361207E+03  0.13918854156E+03  0.56604392494E+03  0.59186191038E+03  0.00000000000E+00 0. -1.
         11    1    1    2    0    0  0.19264000390E+02  0.28058091859E+02  0.86641030898E+02  0.93086123912E+02  0.00000000000E+00 0.  1.
</event>
<event>
 7    1  0.2619826E-009  0.7590861E+02  0.7561462E-02  0.1341080E+00
         -1   -1    0    0    0  501 -0.00000000000E+00  0.00000000000E+00  0.12954370008E+03  0.12954370008E+03  0.00000000000E+00 0.  1.
          1   -1    0    0  501    0  0.00000000000E+00 -0.00000000000E+00 -0.12838316974E+03  0.12838316974E+03  0.00000000000E+00 0. -1.
         25    2    1    2    0    0  0.22492579275E+02  0.62158704185E+02  0.30366926938E+02  0.14470425307E+03  0.12509016738E+03 0.  0.
          5    1    3    3  502    0  0.17653210727E+02  0.50698092832E+02  0.78288334016E+02  0.95018251451E+02  0.41800000000E+01 0.  1.
         -5    1    3    3    0  502  0.48393685484E+01  0.11460611354E+02 -0.47921407077E+02  0.49686001618E+02  0.41800000000E+01 0.  1.
        -11    1    1    2    0    0  0.16971037652E+02 -0.27550396421E+02  0.22603105196E+02  0.39470759132E+02  0.00000000000E+00 0.  1.
         11    1    1    2    0    0 -0.39463616927E+02 -0.34608307764E+02 -0.51809501793E+02  0.73751857626E+02  0.00000000000E+00 0. -1.
</event>
<event>
 7    1  0.2619826E-009  0.1246512E+03  0.7561462E-02  0.1235615E+00
          3   -1    0    0  501    0  0.00000000000E+00  0.00000000000E+00  0.10320585375E+04  0.10320585375E+04  0.00000000000E+00 0. -1.
         -3   -1    0    0    0  501 -0.00000000000E+00 -0.00000000000E+00 -0.21610504390E+02  0.21610504390E+02  0.00000000000E+00 0.  1.
         25    2    1    2    0    0 -0.25500627830E+02  0.89407023411E+02  0.70222889022E+03  0.71931793171E+03  0.12509586235E+03 0.  0.
          5    1    3    3  502    0 -0.53121286121E+02  0.42417517968E+02  0.15422286859E+03  0.16859205932E+03  0.41800000000E+01 0.  1.
         -5    1    3    3    0  502  0.27620658291E+02  0.46989505443E+02  0.54800602162E+03  0.55072587239E+03  0.41800000000E+01 0.  1.
        -11    1    1    2    0    0  0.38431077403E+02 -0.23347112891E+01  0.63259847078E+02  0.74055430858E+02  0.00000000000E+00 0.  1.
         11    1    1    2    0    0 -0.12930449572E+02 -0.87072312122E+02  0.24495929580E+03  0.26029567931E+03  0.00000000000E+00 0. -1.
</event>
<event>
 7    1  0.2619826E-009  0.1346464E+03  0.7561462E-02  0.1220720E+00
          2   -1    0    0  501    0  0.00000000000E+00  0.00000000000E+00  0.77234150437E+03  0.77234150437E+03  0.00000000000E+00 0. -1.
         -2   -1    0    0    0  501 -0.00000000000E+00 -0.00000000000E+00 -0.32662741005E+02  0.32662741005E+02  0.00000000000E+00 0.  1.
         25    2    1    2    0    0  0.86237773930E+02  0.57832564955E+02  0.52243917052E+03  0.54714845229E+03  0.12508869943E+03 0.  0.
          5    1    3    3  502    0 -0.23704743621E+02 -0.11865533030E+02  0.46272482683E+02  0.53491315162E+02  0.41800000000E+01 0.  1.
         -5    1    3    3    0  502  0.10994251755E+03  0.69698097985E+02  0.47616668784E+03  0.49365713713E+03  0.41800000000E+01 0.  1.
        -11    1    1    2    0    0 -0.13087302522E+02 -0.32110122070E+02  0.15382790901E+03  0.15768754871E+03  0.00000000000E+00 0. -1.
         11    1    1    2    0    0 -0.73150471408E+02 -0.25722442885E+02  0.63411683830E+02  0.10016824438E+03  0.00000000000E+00 0.  1.
</event>
<event>
 7    1  0.2619826E-009  0.8006523E+02  0.7561462E-02  0.1328866E+00
         -2   -1    0    0    0  501 -0.00000000000E+00  0.00000000000E+00  0.51380576572E+02  0.51380576572E+02  0.00000000000E+00 0.  1.
          2   -1    0    0  501    0  0.00000000000E+00 -0.00000000000E+00 -0.23303642691E+03  0.23303642691E+03  0.00000000000E+00 0. -1.
         25    2    1    2    0    0 -0.44347398113E+01 -0.80127743035E+01 -0.12236087393E+03  0.17522518056E+03  0.12509120258E+03 0.  0.
          5    1    3    3  502    0  0.23765136712E+01 -0.42716049849E+02 -0.13159340728E+03  0.13843628849E+03  0.41800000000E+01 0.  1.
         -5    1    3    3    0  502 -0.68112534825E+01  0.34703275546E+02  0.92325333483E+01  0.36788892069E+02  0.41800000000E+01 0.  1.
        -11    1    1    2    0    0  0.42611791334E+02  0.79988098959E+01 -0.62010701354E+01  0.43797248672E+02  0.00000000000E+00 0.  1.
         11    1    1    2    0    0 -0.38177051523E+02  0.13964407563E-01 -0.53093906268E+02  0.65394574246E+02  0.00000000000E+00 0. -1.
</event>
<event>
 7    1  0.2619826E-009  0.1424561E+03  0.7561462E-02  0.1210062E+00
         -1   -1    0    0    0  501 -0.00000000000E+00  0.00000000000E+00  0.27870022588E+02  0.27870022588E+02  0.00000000000E+00 0.  1.
          1   -1    0    0  501    0  0.00000000000E+00 -0.00000000000E+00 -0.90120785293E+03  0.90120785293E+03  0.00000000000E+00 0. -1.
         25    2    1    2    0    0  0.53225843672E+02  0.95042054805E+02 -0.57120099231E+03  0.59479709871E+03  0.12508809852E+03 0.  0.
          5    1    3    3  502    0  0.80687419146E+02  0.18007814993E+02 -0.25136820675E+03  0.26464729126E+03  0.41800000000E+01 0. -1.
         -5    1    3    3    0  502 -0.27461575474E+02  0.77034239812E+02 -0.31983278557E+03  0.33014980744E+03  0.41800000000E+01 0. -1.
        -11    1    1    2    0    0 -0.10284351465E+01 -0.53563889152E+02 -0.49314145850E+02  0.72815059438E+02  0.00000000000E+00 0.  1.
         11    1    1    2    0    0 -0.52197408526E+02 -0.41478165652E+02 -0.25282269218E+03  0.26146571738E+03  0.00000000000E+00 0. -1.
</event>
<event>
 7    1  0.2619826E-009  0.1443113E+03  0.7561462E-02  0.1207643E+00
         -2   -1    0    0    0  501 -0.00000000000E+00  0.00000000000E+00  0.18285918703E+03  0.18285918703E+03  0.00000000000E+00 0.  1.
          2   -1    0    0  501    0  0.00000000000E+00 -0.00000000000E+00 -0.15736912896E+03  0.15736912896E+03  0.00000000000E+00 0. -1.
         25    2    1    2    0    0  0.63915502629E+02 -0.10166568714E+03 -0.33225893736E+02  0.17654996074E+03  0.12507927568E+03 0.  0.
          5    1    3    3  502    0  0.38940856675E+02  0.12437656201E+02  0.22737592168E+02  0.46963348560E+02  0.41800000000E+01 0. -1.
         -5    1    3    3    0  502  0.24974645954E+02 -0.11410334334E+03 -0.55963485904E+02  0.12958661218E+03  0.41800000000E+01 0. -1.
        -11    1    1    2    0    0 -0.44341850176E+02  0.23724472717E+02  0.66012725437E+02  0.82986325394E+02  0.00000000000E+00 0.  1.
         11    1    1    2    0    0 -0.19573652453E+02  0.77941214422E+02 -0.72967736280E+01  0.80692029850E+02  0.00000000000E+00 0. -1.
</event>
<event>
 7    1  0.2619826E-009  0.1295207E+03  0.7561462E-02  0.1228169E+00
         -1   -1    0    0    0  501 -0.00000000000E+00  0.00000000000E+00  0.17591369675E+03  0.17591369675E+03  0.00000000000E+00 0.  1.
          1   -1    0    0  501    0  0.00000000000E+00 -0.00000000000E+00 -0.15171863675E+03  0.15171863675E+03  0.00000000000E+00 0. -1.
         25    2    1    2    0    0  0.11003831335E+03  0.24129746008E+02 -0.34697398612E+02  0.17187796585E+03  0.12508977027E+03 0.  0.
          5    1    3    3  502    0  0.15326663393E+02  0.20396219403E+02 -0.66870435821E+02  0.71694072026E+02  0.41800000000E+01 0.  1.
         -5    1    3    3    0  502  0.94711649954E+02  0.37335266045E+01  0.32173037209E+02  0.10018389382E+03  0.41800000000E+01 0.  1.
        -11    1    1    2    0    0 -0.39853508799E+02 -0.49617817265E+02  0.49234388919E+02  0.80462755396E+02  0.00000000000E+00 0.  1.
         11    1    1    2    0    0 -0.70184804548E+02  0.25488071257E+02  0.96580696885E+01  0.75291612256E+02  0.00000000000E+00 0. -1.
</event>
<event>
 7    1  0.2619826E-009  0.1475956E+03  0.7561462E-02  0.1203459E+00
         -2   -1    0    0    0  501 -0.00000000000E+00  0.00000000000E+00  0.16849703870E+03  0.16849703870E+03  0.00000000000E+00 0.  1.
          2   -1    0    0  501    0  0.00000000000E+00 -0.00000000000E+00 -0.15841827711E+03  0.15841827711E+03  0.00000000000E+00 0. -1.
         25    2    1    2    0    0 -0.11883887683E+03 -0.24079009107E+02  0.26972179424E+02  0.17628862197E+03  0.12509077683E+03 0.  0.
          5    1    3    3  502    0 -0.72275968782E+01  0.40809847343E+02  0.21798612915E+02  0.47014186389E+02  0.41800000000E+01 0. -1.
         -5    1    3    3    0  502 -0.11161127995E+03 -0.64888856451E+02  0.51735665094E+01  0.12927443558E+03  0.41800000000E+01 0. -1.
        -11    1    1    2    0    0  0.19233917443E+02 -0.62851808771E+01  0.30191985115E+02  0.36345605567E+02  0.00000000000E+00 0.  1.
         11    1    1    2    0    0  0.99604959385E+02  0.30364189984E+02 -0.47085402940E+02  0.11428108828E+03  0.00000000000E+00 0. -1.
</event>
<event>
 7    1  0.2619826E-009  0.1290154E+03  0.7561462E-02  0.1228924E+00
          2   -1    0    0  501    0  0.00000000000E+00  0.00000000000E+00  0.22015727506E+03  0.22015727506E+03  0.00000000000E+00 0. -1.
         -2   -1    0    0    0  501 -0.00000000000E+00 -0.00000000000E+00 -0.10384128332E+03  0.10384128332E+03  0.00000000000E+00 0.  1.
         25    2    1    2    0    0 -0.36144365188E+02 -0.72744887299E+02 -0.78874740856E+01  0.14937380449E+03  0.12510830291E+03 0.  0.
          5    1    3    3  502    0  0.40395375823E+02 -0.41430881948E+02  0.20965919200E+02  0.61687490910E+02  0.41800000000E+01 0. -1.
         -5    1    3    3    0  502 -0.76539741011E+02 -0.31314005351E+02 -0.28853393286E+02  0.87686313580E+02  0.41800000000E+01 0. -1.
        -11    1    1    2    0    0 -0.27366938441E+02  0.14188820076E+02  0.58380036620E+02  0.66018941301E+02  0.00000000000E+00 0.  1.
         11    1    1    2    0    0  0.63511303629E+02  0.58556067223E+02  0.65823429205E+02  0.10860581260E+03  0.00000000000E+00 0. -1.
</event>
<event>
 7    1  0.2619826E-009  0.1178300E+03  0.7561462E-02  0.1246720E+00
          1   -1    0    0  501    0  0.00000000000E+00  0.00000000000E+00  0.15995232443E+03  0.15995232443E+03  0.00000000000E+00 0. -1.
         -1   -1    0    0    0  501 -0.00000000000E+00 -0.00000000000E+00 -0.10154152427E+03  0.10154152427E+03  0.00000000000E+00 0.  1.
         25    2    1    2    0    0 -0.12664174162E+02 -0.74491959779E+02  0.24166619929E+02  0.14812391695E+03  0.12508891188E+03 0.  0.
          5    1    3    3  502    0 -0.21832532724E+02  0.31193930215E+02 -0.33517206481E+01  0.38450321178E+02  0.41800000000E+01 0.  1.
         -5    1    3    3    0  502  0.91683585625E+01 -0.10568588999E+03  0.27518340577E+02  0.10967359578E+03  0.41800000000E+01 0.  1.
        -11    1    1    2    0    0 -0.17938802693E+02  0.46015242881E+02 -0.12211085254E+02  0.50875473684E+02  0.00000000000E+00 0.  1.
         11    1    1    2    0    0  0.30602976855E+02  0.28476716897E+02  0.46455265486E+02  0.62494458066E+02  0.00000000000E+00 0. -1.
</event>
<event>
 6    1  0.2619826E-009  0.1513814E+03  0.7561462E-02  0.1198786E+00
         -1   -1    0    0    0  501 -0.00000000000E+00  0.00000000000E+00  0.40964564514E+02  0.40964564514E+02  0.00000000000E+00 0.  1.
          1   -1    0    0  501    0  0.00000000000E+00 -0.00000000000E+00 -0.78921638314E+03  0.78921638314E+03  0.00000000000E+00 0. -1.
          5    1    1    2  502    0 -0.36663522091E+02 -0.22444678417E+01 -0.74024376654E+02  0.82742565992E+02  0.41800000000E+01 0.  1.
         -5    1    1    2    0  502  0.55173862202E+02  0.10939098065E+03 -0.10799450264E+03  0.16337327419E+03  0.41800000000E+01 0.  1.
        -11    1    1    2    0    0  0.62546476817E+01  0.16216300445E+02 -0.65882371034E+02  0.68136450090E+02  0.00000000000E+00 0.  1.
         11    1    1    2    0    0 -0.24764987793E+02 -0.12336281326E+03 -0.50035056830E+03  0.51592865738E+03  0.00000000000E+00 0. -1.
</event>
<event>
 7    1  0.2619826E-009  0.1412808E+03  0.7561462E-02  0.1211616E+00
          2   -1    0    0  501    0  0.00000000000E+00  0.00000000000E+00  0.21355762957E+03  0.21355762957E+03  0.00000000000E+00 0. -1.
         -2   -1    0    0    0  501 -0.00000000000E+00 -0.00000000000E+00 -0.10293651126E+03  0.10293651126E+03  0.00000000000E+00 0.  1.
         25    2    1    2    0    0 -0.25259317892E+02 -0.98274627813E+02  0.54592592734E+02  0.17006458076E+03  0.12508267200E+03 0.  0.
          5    1    3    3  502    0  0.41841684331E+01 -0.12021269981E+03  0.56709515667E+02  0.13304902115E+03  0.41800000000E+01 0. -1.
         -5    1    3    3    0  502 -0.29443486325E+02  0.21938072002E+02 -0.21169229331E+01  0.37015559604E+02  0.41800000000E+01 0. -1.
        -11    1    1    2    0    0  0.49668386778E+02  0.46634333116E+02  0.25414671652E+01  0.68177479607E+02  0.00000000000E+00 0.  1.
         11    1    1    2    0    0 -0.24409068886E+02  0.51640294697E+02  0.53487058409E+02  0.78252080468E+02  0.00000000000E+00 0. -1.
</event>
<event>
 7    1  0.2619826E-009  0.1057261E+03  0.7561462E-02  0.1268696E+00
          1   -1    0    0  501    0  0.00000000000E+00  0.00000000000E+00  0.52527265706E+03  0.52527265706E+03  0.00000000000E+00 0. -1.
         -1   -1    0    0    0  501 -0.00000000000E+00 -0.00000000000E+00 -0.23863069643E+02  0.23863069643E+02  0.00000000000E+00 0.  1.
         25    2    1    2    0    0  0.10130779090E+02  0.49457098606E+01  0.21825180077E+03  0.25180861053E+03  0.12508651033E+03 0.  0.
          5    1    3    3  502    0  0.67093344508E+02 -0.21457493082E+01  0.13148673879E+03  0.14769006736E+03  0.41800000000E+01 0. -1.
         -5    1    3    3    0  502 -0.56962565418E+02  0.70914591688E+01  0.86765061980E+02  0.10411854317E+03  0.41800000000E+01 0. -1.
        -11    1    1    2    0    0  0.19618269532E+02  0.33019552488E+02  0.17060836631E+03  0.17487819190E+03  0.00000000000E+00 0. -1.
         11    1    1    2    0    0 -0.29749048622E+02 -0.37965262349E+02  0.11254942033E+03  0.12244892427E+03  0.00000000000E+00 0.  1.
</event>
<event>
 7    1  0.2619826E-009  0.1348722E+03  0.7561462E-02  0.1220400E+00
         -2   -1    0    0    0  501 -0.00000000000E+00  0.00000000000E+00  0.42275871130E+02  0.42275871130E+02  0.00000000000E+00 0.  1.
          2   -1    0    0  501    0  0.00000000000E+00 -0.00000000000E+00 -0.58046221417E+03  0.58046221417E+03  0.00000000000E+00 0. -1.
         25    2    1    2    0    0 -0.78511760464E+02 -0.71168381527E+02 -0.21252004799E+03  0.26840367832E+03  0.12508688452E+03 0.  0.
          5    1    3    3  502    0  0.63362395705E+01  0.14698708589E+02 -0.10622298965E+03  0.10750346923E+03  0.41800000000E+01 0. -1.
         -5    1    3    3    0  502 -0.84848000034E+02 -0.85867090116E+02 -0.10629705834E+03  0.16090020909E+03  0.41800000000E+01 0. -1.
        -11    1    1    2    0    0 -0.53803711432E+01  0.43858993688E+02 -0.60801843299E+02  0.75162649431E+02  0.00000000000E+00 0.  1.
         11    1    1    2    0    0  0.83892131607E+02  0.27309387839E+02 -0.26486445175E+03  0.27917175755E+03  0.00000000000E+00 0. -1.
</event>
<event>
 7    1  0.2619826E-009  0.1413521E+03  0.7561462E-02  0.1211521E+00
          1   -1    0    0  501    0  0.00000000000E+00  0.00000000000E+00  0.16815402300E+03  0.16815402300E+03  0.00000000000E+00 0. -1.
         -1   -1    0    0    0  501 -0.00000000000E+00 -0.00000000000E+00 -0.13746705406E+03  0.13746705406E+03  0.00000000000E+00 0.  1.
         25    2    1    2    0    0  0.91264769591E+02 -0.19038974385E+02  0.69719726040E+02  0.17088697647E+03  0.12509907200E+03 0.  0.
          5    1    3    3  502    0  0.29341072609E+02  0.51730727645E+02  0.13101573359E+02  0.61041709912E+02  0.41800000000E+01 0.  1.
         -5    1    3    3    0  502  0.61923696981E+02 -0.70769702030E+02  0.56618152681E+02  0.10984526656E+03  0.41800000000E+01 0.  1.
        -11    1    1    2    0    0  0.16938437869E+02 -0.58618436531E+01 -0.52653982312E+01  0.18681442851E+02  0.00000000000E+00 0. -1.
         11    1    1    2    0    0 -0.10820320746E+03  0.24900818038E+02 -0.33767358869E+02  0.11605265774E+03  0.00000000000E+00 0.  1.
</event>
<event>
 7    1  0.2619826E-009  0.9964902E+02  0.7561462E-02  0.1281036E+00
          2   -1    0    0  501    0  0.00000000000E+00  0.00000000000E+00  0.30421977938E+03  0.30421977938E+03  0.00000000000E+00 0.  1.
         -2   -1    0    0    0  501 -0.00000000000E+00 -0.00000000000E+00 -0.69320196560E+02  0.69320196560E+02  0.00000000000E+00 0. -1.
         25    2    1    2    0    0 -0.12078718778E+02  0.65980919673E+02  0.20442995951E+03  0.24888606026E+03  0.12511309059E+03 0.  0.
          5    1    3    3  502    0 -0.14703975643E+02 -0.20296455231E+02  0.13682849459E+03  0.13916774887E+03  0.41800000000E+01 0. -1.
         -5    1    3    3    0  502  0.26252568646E+01  0.86277374904E+02  0.67601464921E+02  0.10971831139E+03  0.41800000000E+01 0. -1.
        -11    1    1    2    0    0 -0.13487917263E+02 -0.59616891512E+02  0.59603464415E+02  0.85373711621E+02  0.00000000000E+00 0.  1.
         11    1    1    2    0    0  0.25566636042E+02 -0.63640281610E+01 -0.29133841110E+02  0.39280204057E+02  0.00000000000E+00 0. -1.
</event>
<event>
 7    1  0.2619826E-009  0.1212718E+03  0.7561462E-02  0.1241014E+00
         -3   -1    0    0    0  501 -0.00000000000E+00  0.00000000000E+00  0.37281489702E+02  0.37281489702E+02  0.00000000000E+00 0.  1.
          3   -1    0    0  501    0  0.00000000000E+00 -0.00000000000E+00 -0.61785616136E+03  0.61785616136E+03  0.00000000000E+00 0. -1.
         25    2    1    2    0    0  0.63884027161E+02  0.80268614712E+02 -0.25355733419E+03  0.30077050005E+03  0.12508937824E+03 0.  0.
          5    1    3    3  502    0  0.42474937566E+02  0.23035898907E+02 -0.98572795210E+01  0.49491527752E+02  0.41800000000E+01 0. -1.
         -5    1    3    3    0  502  0.21409089594E+02  0.57232715805E+02 -0.24370005467E+03  0.25127897230E+03  0.41800000000E+01 0. -1.
        -11    1    1    2    0    0 -0.20145525463E-01  0.16691854666E+02 -0.75828004390E+02  0.77643445750E+02  0.00000000000E+00 0.  1.
         11    1    1    2    0    0 -0.63863881635E+02 -0.96960469378E+02 -0.25118933308E+03  0.27672370526E+03  0.00000000000E+00 0. -1.
</event>
<event>
 7    1  0.2619826E-009  0.1858252E+03  0.7561462E-02  0.1162282E+00
         -1   -1    0    0    0  501 -0.00000000000E+00  0.00000000000E+00  0.99474846649E+02  0.99474846649E+02  0.00000000000E+00 0.  1.
          1   -1    0    0  501    0  0.00000000000E+00 -0.00000000000E+00 -0.43915060684E+03  0.43915060684E+03  0.00000000000E+00 0. -1.
         25    2    1    2    0    0  0.11988459986E+03 -0.12312989302E+03 -0.11703552606E+03  0.24264543561E+03  0.12508479214E+03 0.  0.
          5    1    3    3  502    0 -0.29363343572E+01 -0.61994032829E+02 -0.78347158048E+02  0.10003815142E+03  0.41800000000E+01 0.  1.
         -5    1    3    3    0  502  0.12282093422E+03 -0.61135860187E+02 -0.38688368008E+02  0.14260728418E+03  0.41800000000E+01 0.  1.
        -11    1    1    2    0    0 -0.10387366333E+03  0.11157308898E+03 -0.12726353345E+03  0.19858071171E+03  0.00000000000E+00 0.  1.
         11    1    1    2    0    0 -0.16010936532E+02  0.11556804034E+02 -0.95376700686E+02  0.97399306167E+02  0.00000000000E+00 0. -1.
</event>
<event>
 7    1  0.2619826E-009  0.1011393E+03  0.7561462E-02  0.1277918E+00
          2   -1    0    0  501    0  0.00000000000E+00  0.00000000000E+00  0.13215025407E+03  0.13215025407E+03  0.00000000000E+00 0. -1.
         -2   -1    0    0    0  501 -0.00000000000E+00 -0.00000000000E+00 -0.12839630346E+03  0.12839630346E+03  0.00000000000E+00 0.  1.
         25    2    1    2    0    0  0.56490066082E+01 -0.60169614058E+02  0.42185050781E+02  0.14518514798E+03  0.12508738926E+03 0.  0.
          5    1    3    3  502    0  0.18038020488E+02  0.20704743362E+02  0.55616517779E+02  0.62166920711E+02  0.41800000000E+01 0. -1.
         -5    1    3    3    0  502 -0.12389013879E+02 -0.80874357419E+02 -0.13431466998E+02  0.83018227267E+02  0.41800000000E+01 0. -1.
        -11    1    1    2    0    0 -0.30176209104E+02  0.60979086816E+02 -0.53509937192E+02  0.86558454255E+02  0.00000000000E+00 0.  1.
         11    1    1    2    0    0  0.24527202495E+02 -0.80947275796E+00  0.15078837019E+02  0.28802955304E+02  0.00000000000E+00 0. -1.
</event>
<event>
 7    1  0.2619826E-009  0.1433191E+03  0.7561462E-02  0.1208931E+00
         -2   -1    0    0    0  501 -0.00000000000E+00  0.00000000000E+00  0.11389980676E+03  0.11389980676E+03  0.00000000000E+00 0.  1.
          2   -1    0    0  501    0  0.00000000000E+00 -0.00000000000E+00 -0.19232239252E+03  0.19232239252E+03  0.00000000000E+00 0. -1.
         25    2    1    2    0    0 -0.92844246450E+02 -0.23549857524E+02 -0.10849218628E+02  0.15792247703E+03  0.12508858188E+03 0.  0.
          5    1    3    3  502    0 -0.82244055566E+02 -0.70997723191E+02 -0.62570129004E+01  0.10890998111E+03  0.41800000000E+01 0.  1.
         -5    1    3    3    0  502 -0.10600190884E+02  0.47447865667E+02 -0.45922057279E+01  0.49012495922E+02  0.41800000000E+01 0.  1.
        -11    1    1    2    0    0 -0.12931918829E+02 -0.11878696215E+02  0.59259334761E+00  0.17569550799E+02  0.00000000000E+00 0.  1.
         11    1    1    2    0    0  0.10577616528E+03  0.35428553739E+02 -0.68165960482E+02  0.13073017146E+03  0.00000000000E+00 0. -1.
</event>
<event>
 7    1  0.2619826E-009  0.1295845E+03  0.7561462E-02  0.1228074E+00
          2   -1    0    0  501    0  0.00000000000E+00  0.00000000000E+00  0.72046793256E+02  0.72046793256E+02  0.00000000000E+00 0. -1.
         -2   -1    0    0    0  501 -0.00000000000E+00 -0.00000000000E+00 -0.32387974649E+03  0.32387974649E+03  0.00000000000E+00 0.  1.
         25    2    1    2    0    0 -0.88099061860E+02 -0.55798091817E+02 -0.10238277423E+03  0.19236261137E+03  0.12508505124E+03 0.  0.
          5    1    3    3  502    0 -0.42571018652E+02  0.69478548080E+01  0.19764706615E+02  0.47630665994E+02  0.41800000000E+01 0. -1.
         -5    1    3    3    0  502 -0.45528043208E+02 -0.62745946625E+02 -0.12214748084E+03  0.14473194538E+03  0.41800000000E+01 0. -1.
        -11    1    1    2    0    0  0.58514588366E+02  0.80593482637E+02 -0.10911283459E+03  0.14773245130E+03  0.00000000000E+00 0. -1.
         11    1    1    2    0    0  0.29584473494E+02 -0.24795390820E+02 -0.40337344415E+02  0.55831477074E+02  0.00000000000E+00 0.  1.
</event>
<event>
 7    1  0.2619826E-009  0.8256693E+02  0.7561462E-02  0.1321921E+00
          4   -1    0    0  501    0  0.00000000000E+00  0.00000000000E+00  0.24000806600E+02  0.24000806600E+02  0.00000000000E+00 0. -1.
         -4   -1    0    0    0  501 -0.00000000000E+00 -0.00000000000E+00 -0.57271063350E+03  0.57271063350E+03  0.00000000000E+00 0.  1.
         25    2    1    2    0    0  0.16265860370E+02  0.17203902608E+02 -0.24293337609E+03  0.27427153146E+03  0.12509074815E+03 0.  0.
          5    1    3    3  502    0  0.33430116006E+02 -0.17421701571E+02 -0.23029408430E+03  0.23339649956E+03  0.41800000000E+01 0.  1.
         -5    1    3    3    0  502 -0.17164255636E+02  0.34625604179E+02 -0.12639291791E+02  0.40875031906E+02  0.41800000000E+01 0.  1.
        -11    1    1    2    0    0  0.67391598220E+00 -0.50749304417E+02 -0.89209884033E+02  0.10263697906E+03  0.00000000000E+00 0. -1.
         11    1    1    2    0    0 -0.16939776352E+02  0.33545401809E+02 -0.21656656677E+03  0.21980292957E+03  0.00000000000E+00 0.  1.
</event>
<event>
 7    1  0.3204066E-009  0.6787095E+02  0.7561462E-02  0.1367486E+00
         -1   -1    0    0    0  501 -0.00000000000E+00  0.00000000000E+00  0.34612638866E+02  0.34612638866E+02  0.00000000000E+00 0.  1.
          1   -1    0    0  501    0  0.00000000000E+00 -0.00000000000E+00 -0.37520166245E+03  0.37520166245E+03  0.00000000000E+00 0. -1.
         25    2    1    2    0    0 -0.11061387061E+02  0.33561886291E+02 -0.19981099738E+03  0.23837047893E+03  0.12508915243E+03 0.  0.
          5    1    3    3  502    0 -0.16476285341E+02  0.25277194564E+02  0.70209075120E+01  0.31259719864E+02  0.41800000000E+01 0. -1.
         -5    1    3    3    0  502  0.54148982799E+01  0.82846917268E+01 -0.20683190489E+03  0.20711075906E+03  0.41800000000E+01 0. -1.
        -11    1    1    2    0    0  0.47312519518E+02 -0.34981885893E+01 -0.48514163013E+02  0.67855256535E+02  0.00000000000E+00 0. -1.
         11    1    1    2    0    0 -0.36251132457E+02 -0.30063697701E+02 -0.92263863190E+02  0.10358856585E+03  0.00000000000E+00 0.  1.
</event>
<event>
 7    1  0.2619826E-009  0.8601649E+02  0.7561462E-02  0.1312796E+00
          1   -1    0    0  501    0  0.00000000000E+00  0.00000000000E+00  0.22199013864E+03  0.22199013864E+03  0.00000000000E+00 0. -1.
         -1   -1    0    0    0  501 -0.00000000000E+00 -0.00000000000E+00 -0.87868930174E+02  0.87868930174E+02  0.00000000000E+00 0.  1.
         25    2    1    2    0    0  0.45893747868E+02  0.31555919724E+02 -0.12597737345E+01  0.13693311943E+03  0.12508828883E+03 0.  0.
          5    1    3    3  502    0  0.50422353499E+02  0.26737978673E+02  0.55451516345E+02  0.79684856158E+02  0.41800000000E+01 0. -1.
         -5    1    3    3    0  502 -0.45286056309E+01  0.48179410507E+01 -0.56711290080E+02  0.57248263270E+02  0.41800000000E+01 0. -1.
        -11    1    1    2    0    0  0.24402304775E+02 -0.27217058878E+02  0.37810508013E+02  0.52591589523E+02  0.00000000000E+00 0. -1.
         11    1    1    2    0    0 -0.70296052643E+02 -0.43388608459E+01  0.97570474186E+02  0.12033435986E+03  0.00000000000E+00 0.  1.
</event>
<event>
 7    1  0.2619826E-009  0.4587050E+03  0.7561462E-02  0.1025157E+00
         -1   -1    0    0    0  501 -0.00000000000E+00  0.00000000000E+00  0.12851831445E+03  0.12851831445E+03  0.00000000000E+00 0.  1.
          1   -1    0    0  501    0  0.00000000000E+00 -0.00000000000E+00 -0.24161248026E+04  0.24161248026E+04  0.00000000000E+00 0. -1.
         25    2    1    2    0    0  0.45283349305E+03 -0.60667946851E+02 -0.18321679446E+04  0.18924128061E+04  0.12509228331E+03 0.  0.
          5    1    3    3  502    0  0.40309108082E+02 -0.21746485964E+02 -0.36379913430E+03  0.36669471821E+03  0.41800000000E+01 0.  1.
         -5    1    3    3    0  502  0.41252438497E+03 -0.38921460887E+02 -0.14683688103E+04  0.15257180879E+04  0.41800000000E+01 0.  1.
        -11    1    1    2    0    0 -0.38050565980E+03  0.46467931923E+02 -0.42540690356E+03  0.57263850677E+03  0.00000000000E+00 0.  1.
         11    1    1    2    0    0 -0.72327833259E+02  0.14200014928E+02 -0.30031639957E+02  0.79591804141E+02  0.00000000000E+00 0. -1.
</event>
<event>
 7    1  0.2619826E-009  0.2099279E+03  0.7561462E-02  0.1141623E+00
         -1   -1    0    0    0  501 -0.00000000000E+00  0.00000000000E+00  0.54692461652E+03  0.54692461652E+03  0.00000000000E+00 0.  1.
          1   -1    0    0  501    0  0.00000000000E+00 -0.00000000000E+00 -0.98561186587E+02  0.98561186587E+02  0.00000000000E+00 0. -1.
         25    2    1    2    0    0  0.13646090329E+03 -0.14676735039E+03  0.16365293448E+03  0.28738851237E+03  0.12509053047E+03 0.  0.
          5    1    3    3  502    0  0.20577098213E+02 -0.61294271422E+01 -0.19270223661E+02  0.29151342471E+02  0.41800000000E+01 0. -1.
         -5    1    3    3    0  502  0.11588380507E+03 -0.14063792325E+03  0.18292315814E+03  0.25823716990E+03  0.41800000000E+01 0. -1.
        -11    1    1    2    0    0 -0.14709008578E+03  0.14023486226E+03  0.27653712824E+03  0.34318230320E+03  0.00000000000E+00 0.  1.
         11    1    1    2    0    0  0.10629182498E+02  0.65324881309E+01  0.81733672034E+01  0.14914987536E+02  0.00000000000E+00 0. -1.
</event>
<event>
 7    1  0.2619826E-009  0.1128175E+03  0.7561462E-02  0.1255439E+00
          2   -1    0    0  501    0  0.00000000000E+00  0.00000000000E+00  0.53989170448E+02  0.53989170448E+02  0.00000000000E+00 0. -1.
         -2   -1    0    0    0  501 -0.00000000000E+00 -0.00000000000E+00 -0.25285465109E+03  0.25285465109E+03  0.00000000000E+00 0.  1.
         25    2    1    2    0    0  0.28500780191E+02 -0.22624238358E+02 -0.14419361206E+03  0.19432866260E+03  0.12509068996E+03 0.  0.
          5    1    3    3  502    0 -0.21541412986E+02  0.42538222053E+02 -0.57494162008E+02  0.74810319301E+02  0.41800000000E+01 0.  1.
         -5    1    3    3    0  502  0.50042193177E+02 -0.65162460411E+02 -0.86699450055E+02  0.11951834330E+03  0.41800000000E+01 0.  1.
        -11    1    1    2    0    0 -0.22389010542E+02 -0.32816865182E+02 -0.36235739377E+02  0.53770282142E+02  0.00000000000E+00 0.  1.
         11    1    1    2    0    0 -0.61117696482E+01  0.55441103539E+02 -0.18436129200E+02  0.58744876796E+02  0.00000000000E+00 0. -1.
</event>
<event>
 7    1  0.2619826E-009  0.1128875E+03  0.7561462E-02  0.1255314E+00
          2   -1    0    0  501    0  0.00000000000E+00  0.00000000000E+00  0.11960730139E+03  0.11960730139E+03  0.00000000000E+00 0. -1.
         -2   -1    0    0    0  501 -0.00000000000E+00 -0.00000000000E+00 -0.14167935649E+03  0.14167935649E+03  0.00000000000E+00 0.  1.
         25    2    1    2    0    0  0.49990302198E+02 -0.51846092229E+02 -0.11088735342E+02  0.14475444977E+03  0.12507534963E+03 0.  0.
          5    1    3    3  502    0 -0.37698100978E+02 -0.61698238873E+01 -0.23462274652E+02  0.45024041090E+02  0.41800000000E+01 0. -1.
         -5    1    3    3    0  502  0.87688403176E+02 -0.45676268342E+02  0.12373539310E+02  0.99730408684E+02  0.41800000000E+01 0. -1.
        -11    1    1    2    0    0  0.10784753464E+02  0.86557501909E+01 -0.35457948960E+02  0.38059152160E+02  0.00000000000E+00 0.  1.
         11    1    1    2    0    0 -0.60775055662E+02  0.43190342038E+02  0.24474629202E+02  0.78473055954E+02  0.00000000000E+00 0. -1.
</event>
<event>
 7    1  0.2619826E-009  0.1131680E+03  0.7561462E-02  0.1254813E+00
          2   -1    0    0  501    0  0.00000000000E+00  0.00000000000E+00  0.39861762283E+03  0.39861762283E+03  0.00000000000E+00 0. -1.
         -2   -1    0    0    0  501 -0.00000000000E+00 -0.00000000000E+00 -0.34332694183E+02  0.34332694183E+02  0.00000000000E+00 0.  1.
         25    2    1    2    0    0  0.19954076225E+02 -0.45762778648E+02  0.20102295192E+03  0.24196769827E+03  0.12508294343E+03 0.  0.
          5    1    3    3  502    0  0.21566822112E+02  0.41324590529E+02  0.58974155059E+02  0.75287933717E+02  0.41800000000E+01 0.  1.
         -5    1    3    3    0  502 -0.16127458866E+01 -0.87087369176E+02  0.14204879686E+03  0.16667976455E+03  0.41800000000E+01 0.  1.
        -11    1    1    2    0    0  0.21665702490E+02  0.45851774182E+02  0.12313544250E+03  0.13316953503E+03  0.00000000000E+00 0. -1.
         11    1    1    2    0    0 -0.41619778716E+02 -0.88995534509E-01  0.40126534226E+02  0.57813083723E+02  0.00000000000E+00 0.  1.
</event>
<event>
 7    1  0.2619826E-009  0.1481277E+03  0.7561462E-02  0.1202793E+00
          1   -1    0    0  501    0  0.00000000000E+00  0.00000000000E+00  0.44215485258E+03  0.44215485258E+03  0.00000000000E+00 0. -1.
         -1   -1    0    0    0  501 -0.00000000000E+00 -0.00000000000E+00 -0.51786317524E+02  0.51786317524E+02  0.00000000000E+00 0.  1.
         25    2    1    2    0    0 -0.64716667009E+02 -0.80483579107E+02  0.17591288616E+03  0.23928842621E+03  0.12509098251E+03 0.  0.
          5    1    3    3  502    0 -0.97997188906E+02 -0.31865864683E+02  0.11021245983E+03  0.15094085288E+03  0.41800000000E+01 0. -1.
         -5    1    3    3    0  502  0.33280521897E+02 -0.48617714424E+02  0.65700426331E+02  0.88347573332E+02  0.41800000000E+01 0. -1.
        -11    1    1    2    0    0  0.59453459085E+02  0.64115323521E+01  0.12364305775E+03  0.13734419272E+03  0.00000000000E+00 0. -1.
         11    1    1    2    0    0  0.52632079236E+01  0.74072046755E+02  0.90812591144E+02  0.11730855117E+03  0.00000000000E+00 0.  1.
</event>
<event>
 7    1  0.2619826E-009  0.1047660E+03  0.7561462E-02  0.1270581E+00
          1   -1    0    0  501    0  0.00000000000E+00  0.00000000000E+00  0.54052562824E+02  0.54052562824E+02  0.00000000000E+00 0. -1.
         -1   -1    0    0    0  501 -0.00000000000E+00 -0.00000000000E+00 -0.28246535145E+03  0.28246535145E+03  0.00000000000E+00 0.  1.
         25    2    1    2    0    0  0.47460476072E+02  0.11180550236E+01 -0.17409857436E+03  0.21957135915E+03  0.12509005288E+03 0.  0.
          5    1    3    3  502    0 -0.39522455589E+01  0.45471473331E+02 -0.13161296092E+03  0.13936541542E+03  0.41800000000E+01 0. -1.
         -5    1    3    3    0  502  0.51412721631E+02 -0.44353418307E+02 -0.42485613444E+02  0.80205943737E+02  0.41800000000E+01 0. -1.
        -11    1    1    2    0    0  0.21068126711E+02 -0.14853008616E+02  0.37930163328E+01  0.26055034081E+02  0.00000000000E+00 0. -1.
         11    1    1    2    0    0 -0.68528602783E+02  0.13734953593E+02 -0.58107230594E+02  0.90891521040E+02  0.00000000000E+00 0.  1.
</event>
<event>
 7    1  0.2619826E-009  0.1093754E+03  0.7561462E-02  0.1261731E+00
          2   -1    0    0  501    0  0.00000000000E+00  0.00000000000E+00  0.23565019412E+03  0.23565019412E+03  0.00000000000E+00 0. -1.
         -2   -1    0    0    0  501 -0.00000000000E+00 -0.00000000000E+00 -0.84575641321E+02  0.84575641321E+02  0.00000000000E+00 0.  1.
         25    2    1    2    0    0 -0.18394092761E+02 -0.84201253100E+02  0.10968040656E+03  0.18736602068E+03  0.12509212785E+03 0.  0.
          5    1    3    3  502    0 -0.45801443145E+01  0.16243345148E+01  0.99540516084E+02  0.99746693814E+02  0.41800000000E+01 0.  1.
         -5    1    3    3    0  502 -0.13813948447E+02 -0.85825587615E+02  0.10139890475E+02  0.87619326863E+02  0.41800000000E+01 0.  1.
        -11    1    1    2    0    0 -0.17329343189E+02 -0.13057681641E+02  0.13513373041E+02  0.25562089824E+02  0.00000000000E+00 0. -1.
         11    1    1    2    0    0  0.35723435951E+02  0.97258934741E+02  0.27880773199E+02  0.10729772494E+03  0.00000000000E+00 0.  1.
</event>
<event>
 7    1  0.2619826E-009  0.1145443E+03  0.7561462E-02  0.1252379E+00
         -3   -1    0    0    0  501 -0.00000000000E+00  0.00000000000E+00  0.11876687132E+03  0.11876687132E+03  0.00000000000E+00 0.  1.
          3   -1    0    0  501    0  0.00000000000E+00 -0.00000000000E+00 -0.12855642934E+03  0.12855642934E+03  0.00000000000E+00 0. -1.
         25    2    1    2    0    0  0.57932625305E+01 -0.49931159038E+02 -0.35645062858E+02  0.13944426247E+03  0.12508976495E+03 0.  0.
          5    1    3    3  502    0 -0.12461291377E+02  0.38056435661E+02 -0.28245806592E+02  0.49182050263E+02  0.41800000000E+01 0.  1.
         -5    1    3    3    0  502  0.18254553907E+02 -0.87987594699E+02 -0.73992562666E+01  0.90262212207E+02  0.41800000000E+01 0.  1.
        -11    1    1    2    0    0  0.33105503147E+02 -0.29324365885E+01 -0.77737575192E+01  0.34132167071E+02  0.00000000000E+00 0.  1.
         11    1    1    2    0    0 -0.38898765678E+02  0.52863595626E+02  0.33629262352E+02  0.73746871121E+02  0.00000000000E+00 0. -1.
</event>
<event>
 7    1  0.2619826E-009  0.1282880E+03  0.7561462E-02  0.1230018E+00
         -1   -1    0    0    0  501 -0.00000000000E+00  0.00000000000E+00  0.21488372588E+03  0.21488372588E+03  0.00000000000E+00 0.  1.
          1   -1    0    0  501    0  0.00000000000E+00 -0.00000000000E+00 -0.21984778807E+03  0.21984778807E+03  0.00000000000E+00 0. -1.
         25    2    1    2    0    0 -0.10550298998E+03 -0.43651258880E+02 -0.15199705841E+03  0.22756912512E+03  0.12509311591E+03 0.  0.
          5    1    3    3  502    0 -0.33900989506E+02 -0.25623572052E+02  0.14735238762E+02  0.45171276222E+02  0.41800000000E+01 0. -1.
         -5    1    3    3    0  502 -0.71602000470E+02 -0.18027686828E+02 -0.16673229717E+03  0.18239784890E+03  0.41800000000E+01 0. -1.
        -11    1    1    2    0    0 -0.76848926125E+01 -0.11641643932E+02  0.38275733985E+02  0.40738400312E+02  0.00000000000E+00 0.  1.
         11    1    1    2    0    0  0.11318788259E+03  0.55292902812E+02  0.10875726223E+03  0.16642398852E+03  0.00000000000E+00 0. -1.
</event>
<event>
 7    1  0.2619826E-009  0.8252676E+02  0.7561462E-02  0.1322030E+00
         -2   -1    0    0    0  501 -0.00000000000E+00  0.00000000000E+00  0.24533825189E+02  0.24533825189E+02  0.00000000000E+00 0.  1.
          2   -1    0    0  501    0  0.00000000000E+00 -0.00000000000E+00 -0.51039083961E+03  0.51039083961E+03  0.00000000000E+00 0. -1.
         25    2    1    2    0    0  0.12917743526E+02 -0.29867394491E+02 -0.23969725359E+03  0.27232409888E+03  0.12508681825E+03 0.  0.
          5    1    3    3  502    0  0.17268732961E+02 -0.53256306985E+02 -0.34895902581E+02  0.66103250969E+02  0.41800000000E+01 0. -1.
         -5    1    3    3    0  502 -0.43509894354E+01  0.23388912494E+02 -0.20480135101E+03  0.20622084791E+03  0.41800000000E+01 0. -1.
        -11    1    1    2    0    0  0.11706026874E+01 -0.26565923404E+02 -0.37404752477E+02  0.45893726203E+02  0.00000000000E+00 0.  1.
         11    1    1    2    0    0 -0.14088346213E+02  0.56433317896E+02 -0.20875500835E+03  0.21670683972E+03  0.00000000000E+00 0. -1.
</event>
<event>
 7    1  0.2619826E-009  0.1572296E+03  0.7561462E-02  0.1191861E+00
          2   -1    0    0  501    0  0.00000000000E+00  0.00000000000E+00  0.44255347046E+03  0.44255347046E+03  0.00000000000E+00 0. -1.
         -2   -1    0    0    0  501 -0.00000000000E+00 -0.00000000000E+00 -0.97208474033E+02  0.97208474033E+02  0.00000000000E+00 0.  1.
         25    2    1    2    0    0  0.12583036686E+03 -0.37870408764E+02  0.33823021941E+03  0.38381573382E+03  0.12508951645E+03 0.  0.
          5    1    3    3  502    0  0.34691341351E+02 -0.72514941347E+02  0.18995593097E+03  0.20630713510E+03  0.41800000000E+01 0.  1.
         -5    1    3    3    0  502  0.91139025504E+02  0.34644532583E+02  0.14827428843E+03  0.17750859872E+03  0.41800000000E+01 0.  1.
        -11    1    1    2    0    0 -0.36496714570E+02  0.28971002729E+02  0.38909491616E+02  0.60706488215E+02  0.00000000000E+00 0.  1.
         11    1    1    2    0    0 -0.89333652286E+02  0.88994060346E+01 -0.31794714592E+02  0.95239722461E+02  0.00000000000E+00 0. -1.
</event>
<event>
 7    1  0.2619826E-009  0.1317110E+03  0.7561462E-02  0.1224939E+00
         -2   -1    0    0    0  501 -0.00000000000E+00  0.00000000000E+00  0.15312626885E+02  0.15312626885E+02  0.00000000000E+00 0.  1.
          2   -1    0    0  501    0  0.00000000000E+00 -0.00000000000E+00 -0.12161681219E+04  0.12161681219E+04  0.00000000000E+00 0. -1.
         25    2    1    2    0    0  0.53335523325E+02  0.59893348937E+02 -0.80030065234E+03  0.81397832171E+03  0.12509069821E+03 0.  0.
          5    1    3    3  502    0 -0.61646825230E+01  0.82463677841E+02 -0.51698894379E+03  0.52357740772E+03  0.41800000000E+01 0.  1.
         -5    1    3    3    0  502  0.59500205848E+02 -0.22570328905E+02 -0.28331170855E+03  0.29040091399E+03  0.41800000000E+01 0.  1.
        -11    1    1    2    0    0 -0.14695055028E+02 -0.74202359790E+02 -0.23380641698E+03  0.24573842895E+03  0.00000000000E+00 0. -1.
         11    1    1    2    0    0 -0.38640468297E+02  0.14309010854E+02 -0.16674842569E+03  0.17176399812E+03  0.00000000000E+00 0.  1.
</event>
<event>
 7    1  0.2619826E-009  0.2240266E+03  0.7561462E-02  0.1130916E+00
         -2   -1    0    0    0  501 -0.00000000000E+00  0.00000000000E+00  0.78791116548E+02  0.78791116548E+02  0.00000000000E+00 0.  1.
          2   -1    0    0  501    0  0.00000000000E+00 -0.00000000000E+00 -0.73475928529E+03  0.73475928529E+03  0.00000000000E+00 0. -1.
         25    2    1    2    0    0  0.55518144419E+02  0.19364842278E+03 -0.21368064947E+03  0.31919934665E+03  0.12508727728E+03 0.  0.
          5    1    3    3  502    0  0.25351247209E+02 -0.84742732451E+01 -0.58201788490E+01  0.27673921369E+02  0.41800000000E+01 0.  1.
         -5    1    3    3    0  502  0.30166897210E+02  0.20212269603E+03 -0.20786047062E+03  0.29152542528E+03  0.41800000000E+01 0.  1.
        -11    1    1    2    0    0  0.96870939115E+01 -0.11051854642E+03 -0.17818801418E+03  0.20990273292E+03  0.00000000000E+00 0.  1.
         11    1    1    2    0    0 -0.65205238331E+02 -0.83129876368E+02 -0.26409950509E+03  0.28444832227E+03  0.00000000000E+00 0. -1.
</event>
<event>
 7    1  0.2619826E-009  0.5254834E+02  0.7561462E-02  0.1432062E+00
         -1   -1    0    0    0  501 -0.00000000000E+00  0.00000000000E+00  0.17219272032E+03  0.17219272032E+03  0.00000000000E+00 0.  1.
          1   -1    0    0  501    0  0.00000000000E+00 -0.00000000000E+00 -0.13803929094E+03  0.13803929094E+03  0.00000000000E+00 0. -1.
         25    2    1    2    0    0 -0.39077859601E+02 -0.22169069673E+02  0.11991157623E+03  0.17901195710E+03  0.12509175795E+03 0.  0.
          5    1    3    3  502    0 -0.21642946800E+01  0.70208439481E+01  0.13035272860E+03  0.13062650066E+03  0.41800000000E+01 0. -1.
         -5    1    3    3    0  502 -0.36913564921E+02 -0.29189913621E+02 -0.10441152363E+02  0.48385456442E+02  0.41800000000E+01 0. -1.
        -11    1    1    2    0    0  0.19890418252E+02  0.22728489575E+02  0.11325824028E+02  0.32256584855E+02  0.00000000000E+00 0.  1.
         11    1    1    2    0    0  0.19187441349E+02 -0.55941990167E+00 -0.97083970875E+02  0.98963469305E+02  0.00000000000E+00 0. -1.
</event>
<event>
 7    1  0.2619826E-009  0.1689086E+03  0.7561462E-02  0.1178991E+00
         -2   -1    0    0    0  501 -0.00000000000E+00  0.00000000000E+00  0.23220195042E+02  0.23220195042E+02  0.00000000000E+00 0.  1.
          2   -1    0    0  501    0  0.00000000000E+00 -0.00000000000E+00 -0.12300975311E+04  0.12300975311E+04  0.00000000000E+00 0. -1.
         25    2    1    2    0    0 -0.88923132524E+02 -0.94578889965E+02 -0.62784106770E+03  0.65321139603E+03  0.12509289223E+03 0.  0.
          5    1    3    3  502    0 -0.10859189630E+03 -0.11019930364E+03 -0.53377885667E+03  0.55576382277E+03  0.41800000000E+01 0. -1.
         -5    1    3    3    0  502  0.19668763771E+02  0.15620413674E+02 -0.94062211028E+02  0.97447573264E+02  0.41800000000E+01 0. -1.
        -11    1    1    2    0    0  0.80320477355E+02  0.20348080923E+02 -0.29802276272E+03  0.30932667292E+03  0.00000000000E+00 0.  1.
         11    1    1    2    0    0  0.86026551698E+01  0.74230809042E+02 -0.28101350564E+03  0.29077965720E+03  0.00000000000E+00 0. -1.
</event>
<event>
 7    1  0.2619826E-009  0.1267220E+03  0.7561462E-02  0.1232402E+00
         -2   -1    0    0    0  501 -0.00000000000E+00  0.00000000000E+00  0.35919688273E+02  0.35919688273E+02  0.00000000000E+00 0.  1.
          2   -1    0    0  501    0  0.00000000000E+00 -0.00000000000E+00 -0.56291108255E+03  0.56291108255E+03  0.00000000000E+00 0. -1.
         25    2    1    2    0    0 -0.29593213907E+02  0.97437249121E+02 -0.28226802445E+03  0.32510561041E+03  0.12509454212E+03 0.  0.
          5    1    3    3  502    0 -0.34933925661E+02 -0.14118706908E+02 -0.13505494686E+03  0.14027483066E+03  0.41800000000E+01 0.  1.
         -5    1    3    3    0  502  0.53407117537E+01  0.11155595603E+03 -0.14721307759E+03  0.18483077974E+03  0.41800000000E+01 0.  1.
        -11    1    1    2    0    0  0.49929663198E+00 -0.33751965528E+02 -0.22089033410E+02  0.40340672665E+02  0.00000000000E+00 0.  1.
         11    1    1    2    0    0  0.29093917275E+02 -0.63685283594E+02 -0.22263433641E+03  0.23338448774E+03  0.00000000000E+00 0. -1.
</event>
<event>
 7    1  0.2619826E-009  0.2268301E+03  0.7561462E-02  0.1128891E+00
          2   -1    0    0  501    0  0.00000000000E+00  0.00000000000E+00  0.17651186102E+04  0.17651186102E+04  0.00000000000E+00 0. -1.
         -2   -1    0    0    0  501 -0.00000000000E+00 -0.00000000000E+00 -0.35939275778E+02  0.35939275778E+02  0.00000000000E+00 0.  1.
         25    2    1    2    0    0  0.10014653083E+03  0.20223943875E+03  0.97494031730E+03  0.10085042353E+04  0.12506819016E+03 0.  0.
          5    1    3    3  502    0  0.51464504674E+02  0.12895856354E+03  0.33691721275E+03  0.36443049680E+03  0.41800000000E+01 0.  1.
         -5    1    3    3    0  502  0.48682026160E+02  0.73280875209E+02  0.63802310455E+03  0.64407373855E+03  0.41800000000E+01 0.  1.
        -11    1    1    2    0    0 -0.82006283451E+02 -0.14447833816E+03  0.65965336758E+03  0.68025111987E+03  0.00000000000E+00 0. -1.
         11    1    1    2    0    0 -0.18140247383E+02 -0.57761100595E+02  0.94585649558E+02  0.11230253078E+03  0.00000000000E+00 0.  1.
</event>
<event>
 7    1  0.2791310E-009  0.2089053E+03  0.7561462E-02  0.1142436E+00
         -2   -1    0    0    0  501 -0.00000000000E+00  0.00000000000E+00  0.22771248242E+02  0.22771248242E+02  0.00000000000E+00 0.  1.
          2   -1    0    0  501    0  0.00000000000E+00 -0.00000000000E+00 -0.19312417412E+04  0.19312417412E+04  0.00000000000E+00 0. -1.
         25    2    1    2    0    0  0.17028876660E+02 -0.17836073230E+03 -0.96102112720E+03  0.98555246547E+03  0.12509804874E+03 0.  0.
          5    1    3    3  502    0 -0.50239065232E+02 -0.39072120596E+02 -0.28297396116E+03  0.29007297250E+03  0.41800000000E+01 0. -1.
         -5    1    3    3    0  502  0.67267941892E+02 -0.13928861170E+03 -0.67804716604E+03  0.69547949296E+03  0.41800000000E+01 0. -1.
        -11    1    1    2    0    0 -0.52731575194E+02  0.96092635531E+02 -0.57618593359E+03  0.58651909064E+03  0.00000000000E+00 0. -1.
         11    1    1    2    0    0  0.35702698534E+02  0.82268096769E+02 -0.37126343219E+03  0.38194143335E+03  0.00000000000E+00 0.  1.
</event>
<event>
 7    1  0.2619826E-009  0.2556803E+03  0.7561462E-02  0.1109767E+00
         -1   -1    0    0    0  501 -0.00000000000E+00  0.00000000000E+00  0.10230129531E+03  0.10230129531E+03  0.00000000000E+00 0.  1.
          1   -1    0    0  501    0  0.00000000000E+00 -0.00000000000E+00 -0.71646553433E+03  0.71646553433E+03  0.00000000000E+00 0. -1.
         25    2    1    2    0    0  0.16642243256E+03 -0.16593646975E+03 -0.43459572540E+03  0.50965879868E+03  0.12508920209E+03 0.  0.
          5    1    3    3  502    0  0.10304403044E+03 -0.26018635441E+02 -0.23344256411E+03  0.25653059221E+03  0.41800000000E+01 0. -1.
         -5    1    3    3    0  502  0.63378402114E+02 -0.13991783431E+03 -0.20115316128E+03  0.25312820646E+03  0.41800000000E+01 0. -1.
        -11    1    1    2    0    0 -0.94862637581E+02  0.33129112085E+02 -0.78708177924E+02  0.12763790718E+03  0.00000000000E+00 0.  1.
         11    1    1    2    0    0 -0.71559794978E+02  0.13280735767E+03 -0.10086033570E+03  0.18147012378E+03  0.00000000000E+00 0. -1.
</event>
<event>
 7    1  0.2619826E-009  0.7515527E+02  0.7561462E-02  0.1343391E+00
         -1   -1    0    0    0  501 -0.00000000000E+00  0.00000000000E+00  0.16489527793E+03  0.16489527793E+03  0.00000000000E+00 0.  1.
          1   -1    0    0  501    0  0.00000000000E+00 -0.00000000000E+00 -0.77228623301E+02  0.77228623301E+02  0.00000000000E+00 0. -1.
         25    2    1    2    0    0  0.14478556619E+02 -0.12968753592E+02  0.57632854705E+02  0.13909328461E+03  0.12509028224E+03 0.  0.
          5    1    3    3  502    0  0.51786154587E+02 -0.37725646150E+02  0.67387370529E+02  0.93078248217E+02  0.41800000000E+01 0. -1.
         -5    1    3    3    0  502 -0.37307597968E+02  0.24756892558E+02 -0.97545158235E+01  0.46015036393E+02  0.41800000000E+01 0. -1.
        -11    1    1    2    0    0 -0.28524221703E+01 -0.12667808214E+02 -0.32203784981E+02  0.34723096697E+02  0.00000000000E+00 0. -1.
         11    1    1    2    0    0 -0.11626134449E+02  0.25636561806E+02  0.62237584904E+02  0.68307519924E+02  0.00000000000E+00 0.  1.
</event>
<event>
 7    1  0.2619826E-009  0.1302507E+03  0.7561462E-02  0.1227084E+00
          2   -1    0    0  501    0  0.00000000000E+00  0.00000000000E+00  0.69289496200E+03  0.69289496200E+03  0.00000000000E+00 0. -1.
         -2   -1    0    0    0  501 -0.00000000000E+00 -0.00000000000E+00 -0.41072847451E+02  0.41072847451E+02  0.00000000000E+00 0.  1.
         25    2    1    2    0    0 -0.88444325726E+02 -0.80129883199E+02  0.45290264144E+03  0.48478006663E+03  0.12509082077E+03 0.  0.
          5    1    3    3  502    0 -0.71263760521E+02 -0.83193804022E+02  0.45376031176E+03  0.46681433731E+03  0.41800000000E+01 0. -1.
         -5    1    3    3    0  502 -0.17180565205E+02  0.30639208226E+01 -0.85767031597E+00  0.17965729319E+02  0.41800000000E+01 0. -1.
        -11    1    1    2    0    0  0.43811319490E+02  0.76494453721E+02  0.69545072401E+02  0.11228245749E+03  0.00000000000E+00 0.  1.
         11    1    1    2    0    0  0.44633006236E+02  0.36354294779E+01  0.12937440071E+03  0.13690528533E+03  0.00000000000E+00 0. -1.
</event>
<event>
 7    1  0.2619826E-009  0.1219498E+03  0.7561462E-02  0.1239915E+00
          1   -1    0    0  501    0  0.00000000000E+00  0.00000000000E+00  0.10268371138E+03  0.10268371138E+03  0.00000000000E+00 0. -1.
         -1   -1    0    0    0  501 -0.00000000000E+00 -0.00000000000E+00 -0.25292572271E+03  0.25292572271E+03  0.00000000000E+00 0.  1.
         25    2    1    2    0    0  0.94224140151E+01  0.10790463127E+03 -0.26625806058E+02  0.16758224629E+03  0.12507071755E+03 0.  0.
          5    1    3    3  502    0  0.17349648756E+02  0.16855097497E+02 -0.64157790968E+02  0.68693516183E+02  0.41800000000E+01 0.  1.
         -5    1    3    3    0  502 -0.79272347409E+01  0.91049533769E+02  0.37531984910E+02  0.98888730104E+02  0.41800000000E+01 0.  1.
        -11    1    1    2    0    0  0.21090472339E+02 -0.66556398367E+01 -0.61570306616E+02  0.65421771773E+02  0.00000000000E+00 0.  1.
         11    1    1    2    0    0 -0.30512886354E+02 -0.10124899143E+03 -0.62045898655E+02  0.12260541603E+03  0.00000000000E+00 0. -1.
</event>
<event>
 7    1  0.4114572E-009  0.7459269E+02  0.7561462E-02  0.1345137E+00
          1   -1    0    0  501    0  0.00000000000E+00  0.00000000000E+00  0.81392412365E+02  0.81392412365E+02  0.00000000000E+00 0. -1.
         -1   -1    0    0    0  501 -0.00000000000E+00 -0.00000000000E+00 -0.25220514099E+03  0.25220514099E+03  0.00000000000E+00 0.  1.
         25    2    1    2    0    0 -0.19083075429E+01  0.18441683280E+02 -0.19977394781E+03  0.23643204477E+03  0.12508694676E+03 0.  0.
          5    1    3    3  502    0 -0.38272445997E+02 -0.24419696180E+02 -0.16270227796E+03  0.16896924376E+03  0.41800000000E+01 0. -1.
         -5    1    3    3    0  502  0.36364138454E+02  0.42861379460E+02 -0.37071669857E+02  0.67462801014E+02  0.41800000000E+01 0. -1.
        -11    1    1    2    0    0  0.21937836767E+02 -0.15781272769E+02 -0.26676144840E+02  0.37972805477E+02  0.00000000000E+00 0.  1.
         11    1    1    2    0    0 -0.20029529224E+02 -0.26604105113E+01  0.55637364028E+02  0.59192703107E+02  0.00000000000E+00 0. -1.
</event>
<event>
 7    1  0.2619826E-009  0.8532013E+02  0.7561462E-02  0.1314597E+00
         -2   -1    0    0    0  501 -0.00000000000E+00  0.00000000000E+00  0.18955088002E+03  0.18955088002E+03  0.00000000000E+00 0.  1.
          2   -1    0    0  501    0  0.00000000000E+00 -0.00000000000E+00 -0.82493495558E+02  0.82493495558E+02  0.00000000000E+00 0. -1.
         25    2    1    2    0    0  0.24047950090E+02 -0.56427674440E+02  0.37384868933E+02  0.14423214397E+03  0.12507156584E+03 0.  0.
          5    1    3    3  502    0  0.28527034418E+02 -0.53229134683E+02  0.80413195882E+02  0.10065230720E+03  0.41800000000E+01 0.  1.
         -5    1    3    3    0  502 -0.44790843286E+01 -0.31985397570E+01 -0.43028326949E+02  0.43579836771E+02  0.41800000000E+01 0.  1.
        -11    1    1    2    0    0  0.20172190936E+02 -0.10680784242E+02  0.31339842627E+02  0.38770893401E+02  0.00000000000E+00 0.  1.
         11    1    1    2    0    0 -0.44220141026E+02  0.67108458682E+02  0.38332672907E+02  0.89041338215E+02  0.00000000000E+00 0. -1.
</event>
<event>
 7    1  0.2619826E-009  0.1055303E+03  0.7561462E-02  0.1269078E+00
          1   -1    0    0  501    0  0.00000000000E+00  0.00000000000E+00  0.39017495828E+03  0.39017495828E+03  0.00000000000E+00 0. -1.
         -1   -1    0    0    0  501 -0.00000000000E+00 -0.00000000000E+00 -0.33680508413E+02  0.33680508413E+02  0.00000000000E+00 0.  1.
         25    2    1    2    0    0 -0.11618718731E+02  0.12283477256E+02  0.26940875551E+03  0.29751446204E+03  0.12509156302E+03 0.  0.
          5    1    3    3  502    0  0.17149874190E+02 -0.48793021251E+02  0.71341306912E+02  0.88215257067E+02  0.41800000000E+01 0.  1.
         -5    1    3    3    0  502 -0.28768592921E+02  0.61076498506E+02  0.19806744860E+03  0.20929920498E+03  0.41800000000E+01 0.  1.
        -11    1    1    2    0    0  0.15778719713E+02 -0.50592833891E+02  0.50087562883E+02  0.72920276964E+02  0.00000000000E+00 0. -1.
         11    1    1    2    0    0 -0.41600009813E+01  0.38309356636E+02  0.36998131470E+02  0.53420727684E+02  0.00000000000E+00 0.  1.
</event>
<event>
 7    1  0.2619826E-009  0.1118606E+03  0.7561462E-02  0.1257163E+00
          3   -1    0    0  501    0  0.00000000000E+00  0.00000000000E+00  0.15273661948E+02  0.15273661948E+02  0.00000000000E+00 0. -1.
         -3   -1    0    0    0  501 -0.00000000000E+00 -0.00000000000E+00 -0.10038362926E+04  0.10038362926E+04  0.00000000000E+00 0.  1.
         25    2    1    2    0    0 -0.24184724566E+02  0.31943517268E+02 -0.72722183274E+03  0.73898877675E+03  0.12509008337E+03 0.  0.
          5    1    3    3  502    0 -0.42560542117E+02 -0.39026265302E+02 -0.32777126776E+03  0.33284519750E+03  0.41800000000E+01 0.  1.
         -5    1    3    3    0  502  0.18375817552E+02  0.70969782569E+02 -0.39945056498E+03  0.40614357926E+03  0.41800000000E+01 0.  1.
        -11    1    1    2    0    0  0.51457043031E+02 -0.38597111830E+02 -0.12135591273E+03  0.13734926965E+03  0.00000000000E+00 0. -1.
         11    1    1    2    0    0 -0.27272318465E+02  0.66535945628E+01 -0.13998488523E+03  0.14277190819E+03  0.00000000000E+00 0.  1.
</event>
<event>
 7    1  0.2619826E-009  0.1072638E+03  0.7561462E-02  0.1265722E+00
          1   -1    0    0  501    0  0.00000000000E+00  0.00000000000E+00  0.31131721252E+03  0.31131721252E+03  0.00000000000E+00 0. -1.
         -1   -1    0    0    0  501 -0.00000000000E+00 -0.00000000000E+00 -0.69523978785E+02  0.69523978785E+02  0.00000000000E+00 0.  1.
         25    2    1    2    0    0 -0.26911789552E+02 -0.47738746188E+02  0.23722198177E+03  0.27372748929E+03  0.12509691225E+03 0.  0.
          5    1    3    3  502    0 -0.47811569317E+02  0.24313385078E+02  0.56551551633E+02  0.78055347329E+02  0.41800000000E+01 0.  1.
         -5    1    3    3    0  502  0.20899779765E+02 -0.72052131266E+02  0.18067043014E+03  0.19567214196E+03  0.41800000000E+01 0.  1.
        -11    1    1    2    0    0 -0.17104669000E+02  0.36271630221E+02 -0.29916324672E+02  0.50031863271E+02  0.00000000000E+00 0.  1.
         11    1    1    2    0    0  0.44016458551E+02  0.11467115966E+02  0.34487576636E+02  0.57081838742E+02  0.00000000000E+00 0. -1.
</event>
<event>
 7    1  0.2619826E-009  0.1100886E+03  0.7561462E-02  0.1260406E+00
         -2   -1    0    0    0  501 -0.00000000000E+00  0.00000000000E+00  0.23616290944E+02  0.23616290944E+02  0.00000000000E+00 0.  1.
          2   -1    0    0  501    0  0.00000000000E+00 -0.00000000000E+00 -0.81180848163E+03  0.81180848163E+03  0.00000000000E+00 0. -1.
         25    2    1    2    0    0 -0.72343558668E+02  0.41250694384E+01 -0.58120683567E+03  0.59891532393E+03  0.12509025832E+03 0.  0.
          5    1    3    3  502    0 -0.77772501855E+02 -0.26686248880E+02 -0.54368384382E+03  0.54988208950E+03  0.41800000000E+01 0.  1.
         -5    1    3    3    0  502  0.54289431875E+01  0.30811318319E+02 -0.37522991848E+02  0.49033234422E+02  0.41800000000E+01 0.  1.
        -11    1    1    2    0    0  0.55086422992E+02  0.33791139079E+02 -0.79860909441E+02  0.10273324649E+03  0.00000000000E+00 0.  1.
         11    1    1    2    0    0  0.17257135676E+02 -0.37916208518E+02 -0.12712444557E+03  0.13377620215E+03  0.00000000000E+00 0. -1.
</event>
<event>
 7    1  0.2954248E-009  0.1211077E+03  0.7561462E-02  0.1241281E+00
         -2   -1    0    0    0  501 -0.00000000000E+00  0.00000000000E+00  0.17784359269E+03  0.17784359269E+03  0.00000000000E+00 0.  1.
          2   -1    0    0  501    0  0.00000000000E+00 -0.00000000000E+00 -0.11253299856E+03  0.11253299856E+03  0.00000000000E+00 0. -1.
         25    2    1    2    0    0  0.22886968635E+01 -0.60640951087E+02 -0.33348684176E+02  0.14296877247E+03  0.12508146179E+03 0.  0.
          5    1    3    3  502    0 -0.57635679022E+02 -0.67331273269E+01 -0.17079427864E+02  0.60633206711E+02  0.41800000000E+01 0.  1.
         -5    1    3    3    0  502  0.59924375886E+02 -0.53907823760E+02 -0.16269256312E+02  0.82335565759E+02  0.41800000000E+01 0.  1.
        -11    1    1    2    0    0  0.33661188172E+02  0.98632505011E+00  0.57130770138E+02  0.66317217394E+02  0.00000000000E+00 0.  1.
         11    1    1    2    0    0 -0.35949885036E+02  0.59654626037E+02  0.41528508168E+02  0.81090601381E+02  0.00000000000E+00 0. -1.
</event>
<event>
 7    1  0.2619826E-009  0.8912724E+02  0.7561462E-02  0.1304979E+00
         -2   -1    0    0    0  501 -0.00000000000E+00  0.00000000000E+00  0.17207085171E+03  0.17207085171E+03  0.00000000000E+00 0.  1.
          2   -1    0    0  501    0  0.00000000000E+00 -0.00000000000E+00 -0.82237163825E+02  0.82237163825E+02  0.00000000000E+00 0. -1.
         25    2    1    2    0    0  0.70153069997E+00  0.46381382535E+02  0.58626575291E+02  0.14572712857E+03  0.12509035087E+03 0.  0.
          5    1    3    3  502    0  0.90526799503E+01 -0.34803354731E+02 -0.11559350712E+02  0.38004151138E+02  0.41800000000E+01 0. -1.
         -5    1    3    3    0  502 -0.83511492503E+01  0.81184737266E+02  0.70185926003E+02  0.10772297744E+03  0.41800000000E+01 0. -1.
        -11    1    1    2    0    0 -0.19586732446E+02 -0.25888532436E+02  0.60182119324E+02  0.68379409810E+02  0.00000000000E+00 0.  1.
         11    1    1    2    0    0  0.18885201746E+02 -0.20492850099E+02 -0.28975006729E+02  0.40201477151E+02  0.00000000000E+00 0. -1.
</event>
<event>
 7    1  0.2619826E-009  0.1213116E+03  0.7561462E-02  0.1240949E+00
         -3   -1    0    0    0  501 -0.00000000000E+00  0.00000000000E+00  0.16461802935E+03  0.16461802935E+03  0.00000000000E+00 0.  1.
          3   -1    0    0  501    0  0.00000000000E+00 -0.00000000000E+00 -0.11540341281E+03  0.11540341281E+03  0.00000000000E+00 0. -1.
         25    2    1    2    0    0  0.24160233288E+02  0.42433819576E+02  0.89119965817E+02  0.16116258307E+03  0.12508662582E+03 0.  0.
          5    1    3    3  502    0  0.10924947675E+02  0.86235963016E+02  0.68729842112E+02  0.11089300878E+03  0.41800000000E+01 0.  1.
         -5    1    3    3    0  502  0.13235285613E+02 -0.43802143440E+02  0.20390123706E+02  0.50269574296E+02  0.41800000000E+01 0.  1.
        -11    1    1    2    0    0 -0.43261496653E+02 -0.66246996411E+02 -0.17612581291E+02  0.81058155949E+02  0.00000000000E+00 0.  1.
         11    1    1    2    0    0  0.19101263365E+02  0.23813176835E+02 -0.22292767992E+02  0.37800703140E+02  0.00000000000E+00 0. -1.
</event>
<event>
 7    1  0.2619826E-009  0.1024836E+03  0.7561462E-02  0.1275158E+00
          2   -1    0    0  501    0  0.00000000000E+00  0.00000000000E+00  0.40856478891E+02  0.40856478891E+02  0.00000000000E+00 0. -1.
         -2   -1    0    0    0  501 -0.00000000000E+00 -0.00000000000E+00 -0.57787724217E+03  0.57787724217E+03  0.00000000000E+00 0.  1.
         25    2    1    2    0    0  0.66359951520E+02 -0.27879433046E+02 -0.44932185543E+03  0.47193009127E+03  0.12508787043E+03 0.  0.
          5    1    3    3  502    0  0.68729570022E+01 -0.44161047316E+02 -0.47396851455E+02  0.65279166400E+02  0.41800000000E+01 0. -1.
         -5    1    3    3    0  502  0.59486994518E+02  0.16281614270E+02 -0.40192500397E+03  0.40665092487E+03  0.41800000000E+01 0. -1.
        -11    1    1    2    0    0 -0.40377061258E+02  0.49910163793E+02 -0.14135340553E+02  0.65735373873E+02  0.00000000000E+00 0. -1.
         11    1    1    2    0    0 -0.25982890262E+02 -0.22030730748E+02 -0.73563567296E+02  0.81068255913E+02  0.00000000000E+00 0.  1.
</event>
<event>
 7    1  0.2619826E-009  0.1262527E+03  0.7561462E-02  0.1233124E+00
          2   -1    0    0  501    0  0.00000000000E+00  0.00000000000E+00  0.80871061453E+03  0.80871061453E+03  0.00000000000E+00 0. -1.
         -2   -1    0    0    0  501 -0.00000000000E+00 -0.00000000000E+00 -0.42048503221E+02  0.42048503221E+02  0.00000000000E+00 0.  1.
         25    2    1    2    0    0 -0.48150261003E+02 -0.72375895491E+02  0.68278420136E+03  0.69957050726E+03  0.12509161094E+03 0.  0.
          5    1    3    3  502    0 -0.72668295079E+02 -0.31317469918E+02  0.21165005390E+03  0.22599708571E+03  0.41800000000E+01 0. -1.
         -5    1    3    3    0  502  0.24518034076E+02 -0.41058425573E+02  0.47113414746E+03  0.47357342156E+03  0.41800000000E+01 0. -1.
        -11    1    1    2    0    0 -0.26598684849E+02  0.26559004723E+02  0.18974369516E+02  0.42105788985E+02  0.00000000000E+00 0.  1.
         11    1    1    2    0    0  0.74748945852E+02  0.45816890769E+02  0.64903540437E+02  0.10908282150E+03  0.00000000000E+00 0. -1.
</event>
<event>
 7    1  0.2619826E-009  0.1892366E+03  0.7561462E-02  0.1159152E+00
         -2   -1    0    0    0  501 -0.00000000000E+00  0.00000000000E+00  0.31225675805E+02  0.31225675805E+02  0.00000000000E+00 0. -1.
          2   -1    0    0  501    0  0.00000000000E+00 -0.00000000000E+00 -0.13992382796E+04  0.13992382796E+04  0.00000000000E+00 0.  1.
         25    2    1    2    0    0  0.94228359051E+02  0.15545802502E+03 -0.74488196247E+03  0.77688041539E+03  0.12509140905E+03 0.  0.
          5    1    3    3  502    0  0.45216591871E+01 -0.60991048289E+01  0.73125474683E+00  0.86977936871E+01  0.41800000000E+01 0.  1.
         -5    1    3    3    0  502  0.89706699864E+02  0.16155712985E+03 -0.74561321722E+03  0.76818262171E+03  0.41800000000E+01 0.  1.
        -11    1    1    2    0    0 -0.60935914313E+02 -0.67589326565E+02 -0.42038210820E+03  0.43011930858E+03  0.00000000000E+00 0.  1.
         11    1    1    2    0    0 -0.33292444738E+02 -0.87868698457E+02 -0.20274853315E+03  0.22346423146E+03  0.00000000000E+00 0. -1.
</event>
<event>
 7    1  0.2619826E-009  0.1176934E+03  0.7561462E-02  0.1246951E+00
         -1   -1    0    0    0  501 -0.00000000000E+00  0.00000000000E+00  0.83877520489E+02  0.83877520489E+02  0.00000000000E+00 0.  1.
          1   -1    0    0  501    0  0.00000000000E+00 -0.00000000000E+00 -0.35388222707E+03  0.35388222707E+03  0.00000000000E+00 0. -1.
         25    2    1    2    0    0 -0.59559873253E+02 -0.11268253748E+02  0.69163777936E+01  0.13917048743E+03  0.12508491614E+03 0.  0.
          5    1    3    3  502    0  0.15400899466E+02 -0.42960736749E+02  0.29628602018E+02  0.54572328739E+02  0.41800000000E+01 0.  1.
         -5    1    3    3    0  502 -0.74960772720E+02  0.31692483001E+02 -0.22712224224E+02  0.84598158696E+02  0.41800000000E+01 0.  1.
        -11    1    1    2    0    0  0.73661917046E+02 -0.17778061345E+02 -0.15598495060E+03  0.17341696083E+03  0.00000000000E+00 0.  1.
         11    1    1    2    0    0 -0.14102043793E+02  0.29046315093E+02 -0.12093613377E+03  0.12517229930E+03  0.00000000000E+00 0. -1.
</event>
<event>
 7    1  0.2619826E-009  0.1088797E+03  0.7561462E-02  0.1262659E+00
         -1   -1    0    0    0  501 -0.00000000000E+00  0.00000000000E+00  0.33233948486E+02  0.33233948486E+02  0.00000000000E+00 0.  1.
          1   -1    0    0  501    0  0.00000000000E+00 -0.00000000000E+00 -0.44316650843E+03  0.44316650843E+03  0.00000000000E+00 0. -1.
         25    2    1    2    0    0  0.22122176222E+02 -0.47739021014E+02 -0.26422085283E+03  0.29703219654E+03  0.12508821646E+03 0.  0.
          5    1    3    3  502    0 -0.37625043315E+02  0.18904513005E+00 -0.23910650898E+02  0.44775788646E+02  0.41800000000E+01 0.  1.
         -5    1    3    3    0  502  0.59747219538E+02 -0.47928066145E+02 -0.24031020194E+03  0.25225640789E+03  0.41800000000E+01 0.  1.
        -11    1    1    2    0    0  0.28326269101E+02  0.44359031019E+02 -0.88932256558E+02  0.10333947654E+03  0.00000000000E+00 0.  1.
         11    1    1    2    0    0 -0.50448445323E+02  0.33799899956E+01 -0.56779450550E+02  0.76028783843E+02  0.00000000000E+00 0. -1.
</event>
<event>
 7    1  0.2619826E-009  0.1457669E+03  0.7561462E-02  0.1205773E+00
         -2   -1    0    0    0  501 -0.00000000000E+00  0.00000000000E+00  0.23173456005E+02  0.23173456005E+02  0.00000000000E+00 0.  1.
          2   -1    0    0  501    0  0.00000000000E+00 -0.00000000000E+00 -0.10928532415E+04  0.10928532415E+04  0.00000000000E+00 0. -1.
         25    2    1    2    0    0  0.28994259202E+02 -0.11249491788E+03 -0.57585379665E+03  0.60062600842E+03  0.12509289853E+03 0.  0.
          5    1    3    3  502    0  0.53738230501E+02 -0.10460710108E+03 -0.55419713696E+03  0.56655307080E+03  0.41800000000E+01 0. -1.
         -5    1    3    3    0  502 -0.24743971299E+02 -0.78878168030E+01 -0.21656659686E+02  0.34072937624E+02  0.41800000000E+01 0. -1.
        -11    1    1    2    0    0  0.17930519666E+02 -0.69419951124E+01 -0.62601095846E+02  0.65487342539E+02  0.00000000000E+00 0.  1.
         11    1    1    2    0    0 -0.46924778868E+02  0.11943691299E+03 -0.43122489302E+03  0.44991334657E+03  0.00000000000E+00 0. -1.
</event>
<event>
 7    1  0.2619826E-009  0.1284058E+03  0.7561462E-02  0.1229841E+00
          1   -1    0    0  501    0  0.00000000000E+00  0.00000000000E+00  0.23621199067E+03  0.23621199067E+03  0.00000000000E+00 0. -1.
         -1   -1    0    0    0  501 -0.00000000000E+00 -0.00000000000E+00 -0.99224081532E+02  0.99224081532E+02  0.00000000000E+00 0.  1.
         25    2    1    2    0    0  0.91176927713E+02  0.22247814703E+02  0.13346398958E+03  0.20559256688E+03  0.12508984625E+03 0.  0.
          5    1    3    3  502    0  0.66076243668E+02 -0.47688595258E+02  0.62762559727E+02  0.10294116474E+03  0.41800000000E+01 0. -1.
         -5    1    3    3    0  502  0.25100684045E+02  0.69936409961E+02  0.70701429848E+02  0.10265140214E+03  0.41800000000E+01 0. -1.
        -11    1    1    2    0    0 -0.78565923989E+02 -0.40706408657E+01 -0.34459131758E+02  0.85887171864E+02  0.00000000000E+00 0.  1.
         11    1    1    2    0    0 -0.12611003724E+02 -0.18177173837E+02  0.37983051321E+02  0.43956333460E+02  0.00000000000E+00 0. -1.
</event>
<event>
 7    1  0.2619826E-009  0.1398141E+03  0.7561462E-02  0.1213579E+00
          1   -1    0    0  501    0  0.00000000000E+00  0.00000000000E+00  0.25969751737E+02  0.25969751737E+02  0.00000000000E+00 0. -1.
         -1   -1    0    0    0  501 -0.00000000000E+00 -0.00000000000E+00 -0.12925676499E+04  0.12925676499E+04  0.00000000000E+00 0.  1.
         25    2    1    2    0    0 -0.55583908859E+02 -0.77758094210E+02 -0.10735009995E+04  0.10849841255E+04  0.12510101753E+03 0.  0.
          5    1    3    3  502    0  0.24122530277E+02 -0.62411709097E+02 -0.30984569357E+03  0.31701568435E+03  0.41800000000E+01 0. -1.
         -5    1    3    3    0  502 -0.79706439136E+02 -0.15346385113E+02 -0.76365530593E+03  0.76796844118E+03  0.41800000000E+01 0. -1.
        -11    1    1    2    0    0  0.45464494611E+02  0.98358033707E+02 -0.15635197538E+03  0.19022950157E+03  0.00000000000E+00 0. -1.
         11    1    1    2    0    0  0.10119414248E+02 -0.20599939497E+02 -0.36744923257E+02  0.43323774503E+02  0.00000000000E+00 0.  1.
</event>
<event>
 7    1  0.2619826E-009  0.1182693E+03  0.7561462E-02  0.1245980E+00
         -1   -1    0    0    0  501 -0.00000000000E+00  0.00000000000E+00  0.70939945009E+02  0.70939945009E+02  0.00000000000E+00 0.  1.
          1   -1    0    0  501    0  0.00000000000E+00 -0.00000000000E+00 -0.56595541679E+03  0.56595541679E+03  0.00000000000E+00 0. -1.
         25    2    1    2    0    0 -0.61346347372E+02 -0.52617409787E+02 -0.49170183637E+03  0.51376105249E+03  0.12509099496E+03 0.  0.
          5    1    3    3  502    0 -0.25368485021E+02  0.23262236454E+02 -0.34572660298E+02  0.48963587666E+02  0.41800000000E+01 0. -1.
         -5    1    3    3    0  502 -0.35977862351E+02 -0.75879646241E+02 -0.45712917607E+03  0.46479746482E+03  0.41800000000E+01 0. -1.
        -11    1    1    2    0    0  0.71805457956E+02  0.68191176638E+02 -0.16245185338E+02  0.10034922227E+03  0.00000000000E+00 0. -1.
         11    1    1    2    0    0 -0.10459110584E+02 -0.15573766851E+02  0.12931549921E+02  0.22785087041E+02  0.00000000000E+00 0.  1.
</event>
<event>
 7    1  0.2619826E-009  0.1244986E+03  0.7561462E-02  0.1235855E+00
         -1   -1    0    0    0  501 -0.00000000000E+00  0.00000000000E+00  0.28302505014E+02  0.28302505014E+02  0.00000000000E+00 0.  1.
          1   -1    0    0  501    0  0.00000000000E+00 -0.00000000000E+00 -0.85849380996E+03  0.85849380996E+03  0.00000000000E+00 0. -1.
         25    2    1    2    0    0  0.65866775742E+02  0.42099776008E+01 -0.69937575753E+03  0.71353343568E+03  0.12508939826E+03 0.  0.
          5    1    3    3  502    0  0.17205152936E+02  0.60203699892E+02 -0.40981359475E+03  0.41459034915E+03  0.41800000000E+01 0. -1.
         -5    1    3    3    0  502  0.48661622806E+02 -0.55993722291E+02 -0.28956216278E+03  0.29894308653E+03  0.41800000000E+01 0. -1.
        -11    1    1    2    0    0 -0.88352889145E+02 -0.94407864903E+01 -0.90656441279E+02  0.12694074135E+03  0.00000000000E+00 0. -1.
         11    1    1    2    0    0  0.22486113402E+02  0.52308088895E+01 -0.40159106133E+02  0.46322137936E+02  0.00000000000E+00 0.  1.
</event>
<event>
 7    1  0.2619826E-009  0.1049102E+03  0.7561462E-02  0.1270297E+00
          1   -1    0    0  501    0  0.00000000000E+00  0.00000000000E+00  0.68978004161E+03  0.68978004161E+03  0.00000000000E+00 0. -1.
         -1   -1    0    0    0  501 -0.00000000000E+00 -0.00000000000E+00 -0.22711609721E+02  0.22711609721E+02  0.00000000000E+00 0.  1.
         25    2    1    2    0    0  0.46730101435E+02 -0.34834483133E+01  0.33194591605E+03  0.35781463722E+03  0.12508951449E+03 0.  0.
          5    1    3    3  502    0  0.33954107031E+02  0.38172858852E+02  0.47059945072E+02  0.69585626156E+02  0.41800000000E+01 0. -1.
         -5    1    3    3    0  502  0.12775994404E+02 -0.41656307166E+02  0.28488597098E+03  0.28822901107E+03  0.41800000000E+01 0. -1.
        -11    1    1    2    0    0  0.33990438224E+02  0.21394814196E+01  0.76306295042E+02  0.83561821033E+02  0.00000000000E+00 0.  1.
         11    1    1    2    0    0 -0.80720539659E+02  0.13439668937E+01  0.25881622080E+03  0.27111519308E+03  0.00000000000E+00 0. -1.
</event>
<event>
 7    1  0.2619826E-009  0.1844009E+03  0.7561462E-02  0.1163611E+00
         -2   -1    0    0    0  501 -0.00000000000E+00  0.00000000000E+00  0.23839891217E+02  0.23839891217E+02  0.00000000000E+00 0.  1.
          2   -1    0    0  501    0  0.00000000000E+00 -0.00000000000E+00 -0.18378680296E+04  0.18378680296E+04  0.00000000000E+00 0. -1.
         25    2    1    2    0    0 -0.17329860477E+03 -0.21490871194E+02 -0.77855556865E+03  0.80764139993E+03  0.12506635615E+03 0.  0.
          5    1    3    3  502    0 -0.16671844321E+03 -0.29541784800E+02 -0.48229497890E+03  0.51116893043E+03  0.41800000000E+01 0. -1.
         -5    1    3    3    0  502 -0.65801615580E+01  0.80509136060E+01 -0.29626058975E+03  0.29647246951E+03  0.41800000000E+01 0. -1.
        -11    1    1    2    0    0  0.91396158485E+01 -0.17284039813E+02 -0.41397156119E+02  0.45782039544E+02  0.00000000000E+00 0.  1.
         11    1    1    2    0    0  0.16415898892E+03  0.38774911007E+02 -0.99407541356E+03  0.10082844813E+04  0.00000000000E+00 0. -1.
</event>
<event>
 7    1  0.2619826E-009  0.9439712E+02  0.7561462E-02  0.1292540E+00
          1   -1    0    0  501    0  0.00000000000E+00  0.00000000000E+00  0.76019358967E+02  0.76019358967E+02  0.00000000000E+00 0. -1.
         -1   -1    0    0    0  501 -0.00000000000E+00 -0.00000000000E+00 -0.18402561882E+03  0.18402561882E+03  0.00000000000E+00 0.  1.
         25    2    1    2    0    0  0.41447347320E+01  0.13090469697E+01 -0.11268133501E+03  0.16841435366E+03  0.12508964317E+03 0.  0.
          5    1    3    3  502    0  0.57498021053E+02 -0.15411014236E+02 -0.25800473333E+02  0.65012757278E+02  0.41800000000E+01 0. -1.
         -5    1    3    3    0  502 -0.53353286321E+02  0.16720061205E+02 -0.86880861675E+02  0.10340159638E+03  0.41800000000E+01 0. -1.
        -11    1    1    2    0    0  0.33739464929E+02  0.65300174751E+01 -0.25313288136E+02  0.42682024064E+02  0.00000000000E+00 0.  1.
         11    1    1    2    0    0 -0.37884199661E+02 -0.78390644448E+01  0.29988363294E+02  0.48948600066E+02  0.00000000000E+00 0. -1.
</event>
<event>
 7    1  0.2619826E-009  0.1057581E+03  0.7561462E-02  0.1268633E+00
          2   -1    0    0  501    0  0.00000000000E+00  0.00000000000E+00  0.85294744615E+03  0.85294744615E+03  0.00000000000E+00 0. -1.
         -2   -1    0    0    0  501 -0.00000000000E+00 -0.00000000000E+00 -0.22618701755E+02  0.22618701755E+02  0.00000000000E+00 0.  1.
         25    2    1    2    0    0 -0.88864232613E+01 -0.70997801550E+02  0.58774825609E+03  0.60515735139E+03  0.12509097115E+03 0.  0.
          5    1    3    3  502    0  0.16974613609E+02 -0.69812451865E+02  0.56745064502E+03  0.57199617383E+03  0.41800000000E+01 0. -1.
         -5    1    3    3    0  502 -0.25861036871E+02 -0.11853496847E+01  0.20297611062E+02  0.33161177553E+02  0.41800000000E+01 0. -1.
        -11    1    1    2    0    0 -0.18697406279E+02 -0.14388994152E+02  0.21932675844E+02  0.32213016374E+02  0.00000000000E+00 0.  1.
         11    1    1    2    0    0  0.27583829540E+02  0.85386795702E+02  0.22064781247E+03  0.23819578015E+03  0.00000000000E+00 0. -1.
</event>
<event>
 7    1  0.2619826E-009  0.1268194E+03  0.7561462E-02  0.1232253E+00
         -2   -1    0    0    0  501 -0.00000000000E+00  0.00000000000E+00  0.36084667342E+02  0.36084667342E+02  0.00000000000E+00 0.  1.
          2   -1    0    0  501    0  0.00000000000E+00 -0.00000000000E+00 -0.58791906915E+03  0.58791906915E+03  0.00000000000E+00 0. -1.
         25    2    1    2    0    0  0.77969107236E+02  0.49214479320E+01 -0.41844604583E+03  0.44367559029E+03  0.12509010279E+03 0.  0.
          5    1    3    3  502    0  0.34364529379E+02 -0.51389012381E+02 -0.10248002421E+03  0.11975549772E+03  0.41800000000E+01 0.  1.
         -5    1    3    3    0  502  0.43604577857E+02  0.56310460313E+02 -0.31596602163E+03  0.32392009257E+03  0.41800000000E+01 0.  1.
        -11    1    1    2    0    0  0.20015702327E+02  0.78934906950E+01 -0.15594336290E+02  0.26572897081E+02  0.00000000000E+00 0.  1.
         11    1    1    2    0    0 -0.97984809562E+02 -0.12814938627E+02 -0.11779401968E+03  0.15375524911E+03  0.00000000000E+00 0. -1.
</event>
<event>
 7    1  0.2619826E-009  0.7154862E+02  0.7561462E-02  0.1354905E+00
          1   -1    0    0  501    0  0.00000000000E+00  0.00000000000E+00  0.47980242334E+02  0.47980242334E+02  0.00000000000E+00 0. -1.
         -1   -1    0    0    0  501 -0.00000000000E+00 -0.00000000000E+00 -0.31672355780E+03  0.31672355780E+03  0.00000000000E+00 0.  1.
         25    2    1    2    0    0 -0.50727210725E+02  0.81264699711E+01 -0.19466699571E+03  0.23702685350E+03  0.12508877105E+03 0.  0.
          5    1    3    3  502    0 -0.65918488429E+02  0.19369512346E+02 -0.36943115272E+02  0.78119724086E+02  0.41800000000E+01 0. -1.
         -5    1    3    3    0  502  0.15191277705E+02 -0.11243042375E+02 -0.15772388043E+03  0.15890712942E+03  0.41800000000E+01 0. -1.
        -11    1    1    2    0    0  0.11183831966E+02  0.62758758451E+01  0.20488070310E+02  0.24170762092E+02  0.00000000000E+00 0. -1.
         11    1    1    2    0    0  0.39543378759E+02 -0.14402345816E+02 -0.94564390067E+02  0.10350618454E+03  0.00000000000E+00 0.  1.
</event>
<event>
 7    1  0.2619826E-009  0.1202334E+03  0.7561462E-02  0.1242712E+00
         -2   -1    0    0    0  501 -0.00000000000E+00  0.00000000000E+00  0.23941945713E+02  0.23941945713E+02  0.00000000000E+00 0.  1.
          2   -1    0    0  501    0  0.00000000000E+00 -0.00000000000E+00 -0.76466349346E+03  0.76466349346E+03  0.00000000000E+00 0. -1.
         25    2    1    2    0    0  0.32096693501E+02  0.17622963864E+02 -0.52246058820E+03  0.53847354728E+03  0.12509167959E+03 0.  0.
          5    1    3    3  502    0  0.75126762870E+02  0.64663645069E+01 -0.41957737023E+03  0.42631969974E+03  0.41800000000E+01 0. -1.
         -5    1    3    3    0  502 -0.43030069370E+02  0.11156599357E+02 -0.10288321797E+03  0.11215384754E+03  0.41800000000E+01 0. -1.
        -11    1    1    2    0    0 -0.47980761378E+02  0.38784766530E+02 -0.13371773306E+03  0.14726453651E+03  0.00000000000E+00 0.  1.
         11    1    1    2    0    0  0.15884067877E+02 -0.56407730394E+02 -0.84543226479E+02  0.10286735539E+03  0.00000000000E+00 0. -1.
</event>
<event>
 7    1  0.2619826E-009  0.2718316E+03  0.7561462E-02  0.1100236E+00
         -2   -1    0    0    0  501 -0.00000000000E+00  0.00000000000E+00  0.17390025773E+03  0.17390025773E+03  0.00000000000E+00 0.  1.
          2   -1    0    0  501    0  0.00000000000E+00 -0.00000000000E+00 -0.47380710539E+03  0.47380710539E+03  0.00000000000E+00 0. -1.
         25    2    1    2    0    0  0.12889348859E+03 -0.23052332636E+03 -0.18484651501E+03  0.34579042404E+03  0.12509295684E+03 0.  0.
          5    1    3    3  502    0  0.79793955933E+02 -0.72126183642E+02 -0.15532801484E+02  0.10875661861E+03  0.41800000000E+01 0.  1.
         -5    1    3    3    0  502  0.49099532661E+02 -0.15839714272E+03 -0.16931371353E+03  0.23703380543E+03  0.41800000000E+01 0.  1.
        -11    1    1    2    0    0 -0.87694220714E+02  0.98725124859E+02 -0.18318596237E+02  0.13331353117E+03  0.00000000000E+00 0. -1.
         11    1    1    2    0    0 -0.41199267880E+02  0.13179820150E+03 -0.96741736409E+02  0.16860340790E+03  0.00000000000E+00 0.  1.
</event>
<event>
 7    1  0.2619826E-009  0.8260135E+02  0.7561462E-02  0.1321827E+00
         -1   -1    0    0    0  501 -0.00000000000E+00  0.00000000000E+00  0.56346409541E+03  0.56346409541E+03  0.00000000000E+00 0.  1.
          1   -1    0    0  501    0  0.00000000000E+00 -0.00000000000E+00 -0.25055069312E+02  0.25055069312E+02  0.00000000000E+00 0. -1.
         25    2    1    2    0    0 -0.45662500544E+02 -0.18135798998E+02  0.31303785287E+03  0.34066686250E+03  0.12508893920E+03 0.  0.
          5    1    3    3  502    0 -0.35742085496E+02  0.32080753446E+02  0.39429565680E+02  0.62280289554E+02  0.41800000000E+01 0. -1.
         -5    1    3    3    0  502 -0.99204150485E+01 -0.50216552444E+02  0.27360828719E+03  0.27838657294E+03  0.41800000000E+01 0. -1.
        -11    1    1    2    0    0  0.22069120486E+02  0.31544760882E+02  0.21559843825E+03  0.21900868612E+03  0.00000000000E+00 0.  1.
         11    1    1    2    0    0  0.23593380058E+02 -0.13408961883E+02  0.97727349755E+01  0.28843616109E+02  0.00000000000E+00 0. -1.
</event>
<event>
 7    1  0.2619826E-009  0.6844343E+02  0.7561462E-02  0.1365468E+00
          1   -1    0    0  501    0  0.00000000000E+00  0.00000000000E+00  0.11602141130E+03  0.11602141130E+03  0.00000000000E+00 0. -1.
         -1   -1    0    0    0  501 -0.00000000000E+00 -0.00000000000E+00 -0.11155119972E+03  0.11155119972E+03  0.00000000000E+00 0.  1.
         25    2    1    2    0    0 -0.16482856381E+02  0.19491015769E+02 -0.17486040563E+02  0.12885728255E+03  0.12508738306E+03 0.  0.
          5    1    3    3  502    0 -0.22150209524E+02 -0.11213476390E+01  0.51652902518E+02  0.56368288435E+02  0.41800000000E+01 0. -1.
         -5    1    3    3    0  502  0.56673531438E+01  0.20612363408E+02 -0.69138943081E+02  0.72488994112E+02  0.41800000000E+01 0. -1.
        -11    1    1    2    0    0 -0.36777978140E+02 -0.12361393012E+02 -0.40621432513E+01  0.39011853596E+02  0.00000000000E+00 0.  1.
         11    1    1    2    0    0  0.53260834520E+02 -0.71296227572E+01  0.26018395392E+02  0.59703474884E+02  0.00000000000E+00 0. -1.
</event>
<event>
 7    1  0.2619826E-009  0.2367286E+03  0.7561462E-02  0.1121991E+00
         -2   -1    0    0    0  501 -0.00000000000E+00  0.00000000000E+00  0.13586768781E+04  0.13586768781E+04  0.00000000000E+00 0.  1.
          2   -1    0    0  501    0  0.00000000000E+00 -0.00000000000E+00 -0.11315325038E+03  0.11315325038E+03  0.00000000000E+00 0. -1.
         25    2    1    2    0    0  0.17326955326E+03  0.13666040420E+03  0.12013813196E+04  0.12278697727E+04  0.12509476137E+03 0.  0.
          5    1    3    3  502    0  0.85358658464E+02 -0.53427446097E+01  0.45950513805E+03  0.46741532900E+03  0.41800000000E+01 0. -1.
         -5    1    3    3    0  502  0.87910894798E+02  0.14200314881E+03  0.74187618159E+03  0.76045444367E+03  0.41800000000E+01 0. -1.
        -11    1    1    2    0    0 -0.12589083571E+03 -0.95726128425E+02 -0.13667183445E+02  0.15874125513E+03  0.00000000000E+00 0. -1.
         11    1    1    2    0    0 -0.47378717557E+02 -0.40934275778E+02  0.57809491577E+02  0.85219100718E+02  0.00000000000E+00 0.  1.
</event>
<event>
 7    1  0.2619826E-009  0.1039445E+03  0.7561462E-02  0.1272213E+00
          2   -1    0    0  501    0  0.00000000000E+00  0.00000000000E+00  0.11029139306E+03  0.11029139306E+03  0.00000000000E+00 0. -1.
         -2   -1    0    0    0  501 -0.00000000000E+00 -0.00000000000E+00 -0.12402018790E+03  0.12402018790E+03  0.00000000000E+00 0.  1.
         25    2    1    2    0    0 -0.23159987290E+02 -0.34381348917E+02 -0.11330061466E+02  0.13226029021E+03  0.12508377956E+03 0.  0.
          5    1    3    3  502    0 -0.18057140162E+02  0.40299092092E+02  0.22813950487E+02  0.49880114987E+02  0.41800000000E+01 0. -1.
         -5    1    3    3    0  502 -0.51028471280E+01 -0.74680441009E+02 -0.34144011954E+02  0.82380175227E+02  0.41800000000E+01 0. -1.
        -11    1    1    2    0    0 -0.14627192294E+02 -0.18488840478E+02 -0.23929443857E+02  0.33591818349E+02  0.00000000000E+00 0.  1.
         11    1    1    2    0    0  0.37787179584E+02  0.52870189395E+02  0.21530710482E+02  0.68459472401E+02  0.00000000000E+00 0. -1.
</event>
<event>
 7    1  0.2619826E-009  0.2113850E+03  0.7561462E-02  0.1140474E+00
         -2   -1    0    0    0  501 -0.00000000000E+00  0.00000000000E+00  0.75551865520E+02  0.75551865520E+02  0.00000000000E+00 0.  1.
          2   -1    0    0  501    0  0.00000000000E+00 -0.00000000000E+00 -0.68016771235E+03  0.68016771235E+03  0.00000000000E+00 0. -1.
         25    2    1    2    0    0  0.86532212250E+02 -0.16510076271E+03 -0.19942118919E+03  0.30026929196E+03  0.12508697531E+03 0.  0.
          5    1    3    3  502    0 -0.25992914453E+02 -0.39511415866E+02 -0.81974172896E+02  0.94731309541E+02  0.41800000000E+01 0.  1.
         -5    1    3    3    0  502  0.11252512670E+03 -0.12558934685E+03 -0.11744701629E+03  0.20553798242E+03  0.41800000000E+01 0.  1.
        -11    1    1    2    0    0 -0.23815717869E+02  0.13493326509E+03 -0.24327129055E+03  0.27920439690E+03  0.00000000000E+00 0. -1.
         11    1    1    2    0    0 -0.62716494382E+02  0.30167497627E+02 -0.16192336709E+03  0.17624588901E+03  0.00000000000E+00 0.  1.
</event>
<event>
 7    1  0.2619826E-009  0.9934379E+02  0.7561462E-02  0.1281682E+00
          2   -1    0    0  501    0  0.00000000000E+00  0.00000000000E+00  0.31318893038E+03  0.31318893038E+03  0.00000000000E+00 0. -1.
         -2   -1    0    0    0  501 -0.00000000000E+00 -0.00000000000E+00 -0.51909465172E+02  0.51909465172E+02  0.00000000000E+00 0.  1.
         25    2    1    2    0    0  0.29775316107E+01  0.43922319126E+02  0.21727352045E+03  0.25454465887E+03  0.12508862802E+03 0.  0.
          5    1    3    3  502    0 -0.50612907504E+02  0.38271337012E+02  0.17415953309E+03  0.18540597889E+03  0.41800000000E+01 0.  1.
         -5    1    3    3    0  502  0.53590439115E+02  0.56509821133E+01  0.43113987362E+02  0.69138679982E+02  0.41800000000E+01 0.  1.
        -11    1    1    2    0    0  0.27030251060E+02  0.97152056040E+00 -0.14704460888E+02  0.30786352408E+02  0.00000000000E+00 0.  1.
         11    1    1    2    0    0 -0.30007782671E+02 -0.44893839686E+02  0.58710405646E+02  0.79767384273E+02  0.00000000000E+00 0. -1.
</event>
<event>
 7    1  0.2619826E-009  0.1443218E+03  0.7561462E-02  0.1207629E+00
         -2   -1    0    0    0  501 -0.00000000000E+00  0.00000000000E+00  0.43248303204E+02  0.43248303204E+02  0.00000000000E+00 0.  1.
          2   -1    0    0  501    0  0.00000000000E+00 -0.00000000000E+00 -0.79254271202E+03  0.79254271202E+03  0.00000000000E+00 0. -1.
         25    2    1    2    0    0  0.36281183888E+02  0.13154135573E+03 -0.25596967711E+03  0.31589235490E+03  0.12509217287E+03 0.  0.
          5    1    3    3  502    0  0.50827813783E+02  0.80095646985E+02 -0.24275101430E+03  0.26066128723E+03  0.41800000000E+01 0. -1.
         -5    1    3    3    0  502 -0.14546629895E+02  0.51445708742E+02 -0.13218662816E+02  0.55231067669E+02  0.41800000000E+01 0. -1.
        -11    1    1    2    0    0 -0.23282602142E+02 -0.12130314025E+03 -0.48661003911E+03  0.50204169305E+03  0.00000000000E+00 0. -1.
         11    1    1    2    0    0 -0.12998581746E+02 -0.10238215475E+02 -0.67146925927E+01  0.17856967271E+02  0.00000000000E+00 0.  1.
</event>
<event>
 7    1  0.2619826E-009  0.1857905E+03  0.7561462E-02  0.1162314E+00
         -2   -1    0    0    0  501 -0.00000000000E+00  0.00000000000E+00  0.25622206651E+02  0.25622206651E+02  0.00000000000E+00 0. -1.
          2   -1    0    0  501    0  0.00000000000E+00 -0.00000000000E+00 -0.15993464499E+04  0.15993464499E+04  0.00000000000E+00 0.  1.
         25    2    1    2    0    0  0.27970491642E+02  0.16482046756E+03 -0.68736540620E+03  0.71837758101E+03  0.12508801836E+03 0.  0.
          5    1    3    3  502    0 -0.25605535838E+02  0.44357498440E+02 -0.68621984038E+02  0.85730276021E+02  0.41800000000E+01 0.  1.
         -5    1    3    3    0  502  0.53576027479E+02  0.12046296912E+03 -0.61874342216E+03  0.63264730499E+03  0.41800000000E+01 0.  1.
        -11    1    1    2    0    0 -0.55969816598E+02 -0.14036169413E+03 -0.75998335645E+03  0.77486045688E+03  0.00000000000E+00 0. -1.
         11    1    1    2    0    0  0.27999324956E+02 -0.24458773423E+02 -0.12637548062E+03  0.13173061867E+03  0.00000000000E+00 0.  1.
</event>
<event>
 7    1  0.2619826E-009  0.9469019E+02  0.7561462E-02  0.1291875E+00
          2   -1    0    0  501    0  0.00000000000E+00  0.00000000000E+00  0.72905598522E+02  0.72905598522E+02  0.00000000000E+00 0. -1.
         -2   -1    0    0    0  501 -0.00000000000E+00 -0.00000000000E+00 -0.25240901359E+03  0.25240901359E+03  0.00000000000E+00 0.  1.
         25    2    1    2    0    0  0.44868253256E+02 -0.17517439002E+02 -0.17766012278E+03  0.22255471718E+03  0.12508981610E+03 0.  0.
          5    1    3    3  502    0  0.86387588792E+02 -0.28163486943E+02 -0.12228578388E+03  0.15240499609E+03  0.41800000000E+01 0. -1.
         -5    1    3    3    0  502 -0.41519335536E+02  0.10646047940E+02 -0.55374338902E+02  0.70149721090E+02  0.41800000000E+01 0. -1.
        -11    1    1    2    0    0 -0.19983790167E+02  0.22377047391E+02 -0.44184710960E+02  0.53407609964E+02  0.00000000000E+00 0.  1.
         11    1    1    2    0    0 -0.24884463088E+02 -0.48596083889E+01  0.42341418671E+02  0.49352284972E+02  0.00000000000E+00 0. -1.
</event>
<event>
 7    1  0.2619826E-009  0.9167867E+02  0.7561462E-02  0.1298837E+00
          1   -1    0    0  501    0  0.00000000000E+00  0.00000000000E+00  0.19577961469E+03  0.19577961469E+03  0.00000000000E+00 0. -1.
         -1   -1    0    0    0  501 -0.00000000000E+00 -0.00000000000E+00 -0.80668661136E+02  0.80668661136E+02  0.00000000000E+00 0.  1.
         25    2    1    2    0    0 -0.11284596890E+02 -0.37401671696E+02  0.12064415057E+03  0.17812544833E+03  0.12508971621E+03 0.  0.
          5    1    3    3  502    0  0.33174331213E+02  0.26521095778E+02  0.78841788627E+02  0.89651574479E+02  0.41800000000E+01 0. -1.
         -5    1    3    3    0  502 -0.44458928103E+02 -0.63922767474E+02  0.41802361941E+02  0.88473873847E+02  0.41800000000E+01 0. -1.
        -11    1    1    2    0    0  0.14655952683E+02 -0.83236899211E+01 -0.38382577836E+02  0.41920198524E+02  0.00000000000E+00 0. -1.
         11    1    1    2    0    0 -0.33713557932E+01  0.45725361617E+02  0.32849380818E+02  0.56402628972E+02  0.00000000000E+00 0.  1.
</event>
<event>
 7    1  0.2619826E-009  0.3252076E+03  0.7561462E-02  0.1073277E+00
          1   -1    0    0  501    0  0.00000000000E+00  0.00000000000E+00  0.11267225278E+04  0.11267225278E+04  0.00000000000E+00 0. -1.
         -1   -1    0    0    0  501 -0.00000000000E+00 -0.00000000000E+00 -0.10123463175E+03  0.10123463175E+03  0.00000000000E+00 0.  1.
         25    2    1    2    0    0 -0.26637555623E+03 -0.16355076791E+03  0.63707873541E+03  0.72056962312E+03  0.12508587455E+03 0.  0.
          5    1    3    3  502    0  0.57396424639E+01  0.35346571266E+01  0.64256622783E+02  0.64744291394E+02  0.41800000000E+01 0.  1.
         -5    1    3    3    0  502 -0.27211519870E+03 -0.16708542503E+03  0.57282211263E+03  0.65582533173E+03  0.41800000000E+01 0.  1.
        -11    1    1    2    0    0  0.16041023073E+03  0.50459440244E+02  0.23807194607E+03  0.29147186612E+03  0.00000000000E+00 0. -1.
         11    1    1    2    0    0  0.10596532550E+03  0.11309132766E+03  0.15033721457E+03  0.21591567031E+03  0.00000000000E+00 0.  1.
</event>
<event>
 7    1  0.2619826E-009  0.1453866E+03  0.7561462E-02  0.1206259E+00
         -2   -1    0    0    0  501 -0.00000000000E+00  0.00000000000E+00  0.25833821674E+03  0.25833821674E+03  0.00000000000E+00 0.  1.
          2   -1    0    0  501    0  0.00000000000E+00 -0.00000000000E+00 -0.10023962552E+03  0.10023962552E+03  0.00000000000E+00 0. -1.
         25    2    1    2    0    0  0.85608019814E+02  0.58516501973E+02  0.21349187346E+02  0.16387886955E+03  0.12509029549E+03 0.  0.
          5    1    3    3  502    0  0.44343237809E+02  0.91094083622E+02 -0.11020773330E+02  0.10199698356E+03  0.41800000000E+01 0.  1.
         -5    1    3    3    0  502  0.41264782004E+02 -0.32577581649E+02  0.32369960676E+02  0.61881885994E+02  0.41800000000E+01 0.  1.
        -11    1    1    2    0    0 -0.69545449140E+02 -0.82415729353E+02  0.93427860613E+02  0.14268036683E+03  0.00000000000E+00 0.  1.
         11    1    1    2    0    0 -0.16062570674E+02  0.23899227380E+02  0.43321543261E+02  0.52018605869E+02  0.00000000000E+00 0. -1.
</event>
<event>
 7    1  0.2619826E-009  0.1046210E+03  0.7561462E-02  0.1270868E+00
         -1   -1    0    0    0  501 -0.00000000000E+00  0.00000000000E+00  0.31384194846E+02  0.31384194846E+02  0.00000000000E+00 0.  1.
          1   -1    0    0  501    0  0.00000000000E+00 -0.00000000000E+00 -0.49981154838E+03  0.49981154838E+03  0.00000000000E+00 0. -1.
         25    2    1    2    0    0 -0.34865639746E+02  0.16109392696E+02 -0.15479879661E+03  0.20267704181E+03  0.12506074715E+03 0.  0.
          5    1    3    3  502    0  0.31797609807E+02 -0.20252404391E+02 -0.10166758827E+02  0.39269367936E+02  0.41800000000E+01 0. -1.
         -5    1    3    3    0  502 -0.66663249554E+02  0.36361797087E+02 -0.14463203778E+03  0.16340767387E+03  0.41800000000E+01 0. -1.
        -11    1    1    2    0    0  0.15747578009E+01 -0.48669305456E+02 -0.12307886522E+03  0.13236158136E+03  0.00000000000E+00 0. -1.
         11    1    1    2    0    0  0.33290881945E+02  0.32559912760E+02 -0.19054969171E+03  0.19615712006E+03  0.00000000000E+00 0.  1.
</event>
<event>
 7    1  0.3007833E-009  0.1838321E+03  0.7561462E-02  0.1164145E+00
          1   -1    0    0  501    0  0.00000000000E+00  0.00000000000E+00  0.59328909067E+03  0.59328909067E+03  0.00000000000E+00 0. -1.
         -1   -1    0    0    0  501 -0.00000000000E+00 -0.00000000000E+00 -0.70827321101E+02  0.70827321101E+02  0.00000000000E+00 0.  1.
         25    2    1    2    0    0  0.54411577857E+02 -0.16458365969E+03  0.27640305192E+03  0.34942054412E+03  0.12509064195E+03 0.  0.
          5    1    3    3  502    0 -0.31144452670E+01 -0.99127074866E+02  0.59745007805E+02  0.11585687333E+03  0.41800000000E+01 0. -1.
         -5    1    3    3    0  502  0.57526023124E+02 -0.65456584822E+02  0.21665804411E+03  0.23356367079E+03  0.41800000000E+01 0. -1.
        -11    1    1    2    0    0  0.74812530712E+01  0.53280860877E+02  0.13642921449E+03  0.14665520737E+03  0.00000000000E+00 0. -1.
         11    1    1    2    0    0 -0.61892830928E+02  0.11130279881E+03  0.10962950317E+03  0.16804066028E+03  0.00000000000E+00 0.  1.
</event>
<event>
 7    1  0.2619826E-009  0.7326152E+02  0.7561462E-02  0.1349341E+00
         -2   -1    0    0    0  501 -0.00000000000E+00  0.00000000000E+00  0.13180480401E+03  0.13180480401E+03  0.00000000000E+00 0.  1.
          2   -1    0    0  501    0  0.00000000000E+00 -0.00000000000E+00 -0.89667703257E+02  0.89667703257E+02  0.00000000000E+00 0. -1.
         25    2    1    2    0    0 -0.16669285962E+02 -0.38922345050E+01  0.30292986037E+02  0.12984794526E+03  0.12509919784E+03 0.  0.
          5    1    3    3  502    0 -0.52276021215E+02  0.23884314368E+02 -0.21043472104E+02  0.61347721922E+02  0.41800000000E+01 0.  1.
         -5    1    3    3    0  502  0.35606735253E+02 -0.27776548873E+02  0.51336458140E+02  0.68500223336E+02  0.41800000000E+01 0.  1.
        -11    1    1    2    0    0  0.12448015898E+02  0.21823175626E+02 -0.33966823270E+02  0.42248658882E+02  0.00000000000E+00 0. -1.
         11    1    1    2    0    0  0.42212700631E+01 -0.17930941121E+02  0.45810937982E+02  0.49375903123E+02  0.00000000000E+00 0.  1.
</event>
<event>
 7    1  0.2619826E-009  0.1151911E+03  0.7561462E-02  0.1251248E+00
          1   -1    0    0  501    0  0.00000000000E+00  0.00000000000E+00  0.69761007934E+02  0.69761007934E+02  0.00000000000E+00 0. -1.
         -1   -1    0    0    0  501 -0.00000000000E+00 -0.00000000000E+00 -0.19855448283E+03  0.19855448283E+03  0.00000000000E+00 0.  1.
         25    2    1    2    0    0  0.51517983531E+02 -0.17894094555E+02 -0.79900993883E+02  0.15813367711E+03  0.12509112584E+03 0.  0.
          5    1    3    3  502    0 -0.39218966648E+02 -0.85589045130E+01 -0.44824644083E+02  0.60316691790E+02  0.41800000000E+01 0. -1.
         -5    1    3    3    0  502  0.90736950178E+02 -0.93351900424E+01 -0.35076349800E+02  0.97816985315E+02  0.41800000000E+01 0. -1.
        -11    1    1    2    0    0 -0.64097709052E+02 -0.12957064057E+02 -0.31137640783E+02  0.72428961667E+02  0.00000000000E+00 0.  1.
         11    1    1    2    0    0  0.12579725521E+02  0.30851158612E+02 -0.17754840229E+02  0.37752851991E+02  0.00000000000E+00 0. -1.
</event>
<event>
 7    1  0.2619826E-009  0.1269881E+03  0.7561462E-02  0.1231995E+00
          1   -1    0    0  501    0  0.00000000000E+00  0.00000000000E+00  0.40600967427E+03  0.40600967427E+03  0.00000000000E+00 0. -1.
         -1   -1    0    0    0  501 -0.00000000000E+00 -0.00000000000E+00 -0.47026468623E+02  0.47026468623E+02  0.00000000000E+00 0.  1.
         25    2    1    2    0    0  0.65904160952E+02 -0.18606042029E+02  0.28027367822E+03  0.31446921146E+03  0.12509199424E+03 0.  0.
          5    1    3    3  502    0  0.10276467471E+03 -0.13601358884E+02  0.22432118450E+03  0.24714983623E+03  0.41800000000E+01 0.  1.
         -5    1    3    3    0  502 -0.36860513760E+02 -0.50046831453E+01  0.55952493727E+02  0.67319375237E+02  0.41800000000E+01 0.  1.
        -11    1    1    2    0    0  0.15777581048E+02 -0.17438867331E+02  0.85702611443E+01  0.25029892800E+02  0.00000000000E+00 0.  1.
         11    1    1    2    0    0 -0.81681742000E+02  0.36044909360E+02  0.70139266278E+02  0.11353703863E+03  0.00000000000E+00 0. -1.
</event>
<event>
 7    1  0.2619826E-009  0.1017926E+03  0.7561462E-02  0.1276571E+00
          2   -1    0    0  501    0  0.00000000000E+00  0.00000000000E+00  0.20741059192E+03  0.20741059192E+03  0.00000000000E+00 0. -1.
         -2   -1    0    0    0  501 -0.00000000000E+00 -0.00000000000E+00 -0.77056585965E+02  0.77056585965E+02  0.00000000000E+00 0.  1.
         25    2    1    2    0    0  0.32191705168E+02  0.50671486564E+02  0.43402985628E+02  0.14538055571E+03  0.12509109235E+03 0.  0.
          5    1    3    3  502    0 -0.24324898969E+02  0.70852251498E+02  0.76893340172E+01  0.75421087965E+02  0.41800000000E+01 0. -1.
         -5    1    3    3    0  502  0.56516604137E+02 -0.20180764934E+02  0.35713651611E+02  0.69959467750E+02  0.41800000000E+01 0. -1.
        -11    1    1    2    0    0 -0.82934955935E+01 -0.42258091567E+02 -0.53281084942E+01  0.43392592826E+02  0.00000000000E+00 0.  1.
         11    1    1    2    0    0 -0.23898209575E+02 -0.84133949973E+01  0.92279128817E+02  0.95694029340E+02  0.00000000000E+00 0. -1.
</event>
<event>
 7    1  0.2619826E-009  0.1853276E+03  0.7561462E-02  0.1162744E+00
         -2   -1    0    0    0  501 -0.00000000000E+00  0.00000000000E+00  0.10436059025E+03  0.10436059025E+03  0.00000000000E+00 0. -1.
          2   -1    0    0  501    0  0.00000000000E+00 -0.00000000000E+00 -0.36449442236E+03  0.36449442236E+03  0.00000000000E+00 0.  1.
         25    2    1    2    0    0  0.26612034013E+01  0.14981916102E+03 -0.16127060020E+03  0.25319227110E+03  0.12508100031E+03 0.  0.
          5    1    3    3  502    0 -0.44772404044E+02  0.13847357340E+03 -0.11149186423E+03  0.18337777097E+03  0.41800000000E+01 0. -1.
         -5    1    3    3    0  502  0.47433607445E+02  0.11345587624E+02 -0.49778735969E+02  0.69814500131E+02  0.41800000000E+01 0. -1.
        -11    1    1    2    0    0  0.12472365257E+02  0.97480421439E+01 -0.43167640787E+02  0.45978575792E+02  0.00000000000E+00 0.  1.
         11    1    1    2    0    0 -0.15133568658E+02 -0.15956720317E+03 -0.55695591119E+02  0.16968416572E+03  0.00000000000E+00 0. -1.
</event>
<event>
 7    1  0.2619826E-009  0.1359697E+03  0.7561462E-02  0.1218857E+00
         -2   -1    0    0    0  501 -0.00000000000E+00  0.00000000000E+00  0.18846550930E+03  0.18846550930E+03  0.00000000000E+00 0.  1.
          2   -1    0    0  501    0  0.00000000000E+00 -0.00000000000E+00 -0.13770303510E+03  0.13770303510E+03  0.00000000000E+00 0. -1.
         25    2    1    2    0    0  0.13547450937E+02  0.10215135597E+03 -0.36641011385E+02  0.16615864004E+03  0.12509075502E+03 0.  0.
          5    1    3    3  502    0  0.54984216775E+02  0.99009131865E+02 -0.47692532240E+02  0.12295577383E+03  0.41800000000E+01 0.  1.
         -5    1    3    3    0  502 -0.41436765838E+02  0.31422241037E+01  0.11051520855E+02  0.43202866209E+02  0.41800000000E+01 0.  1.
        -11    1    1    2    0    0 -0.34989463335E+02 -0.57442704660E+02  0.87577246691E+02  0.11042509226E+03  0.00000000000E+00 0.  1.
         11    1    1    2    0    0  0.21442012399E+02 -0.44708651308E+02 -0.17376110019E+00  0.49584812094E+02  0.00000000000E+00 0. -1.
</event>
<event>
 7    1  0.2619826E-009  0.2156528E+03  0.7561462E-02  0.1137166E+00
          2   -1    0    0  501    0  0.00000000000E+00  0.00000000000E+00  0.24025052533E+03  0.24025052533E+03  0.00000000000E+00 0. -1.
         -2   -1    0    0    0  501 -0.00000000000E+00 -0.00000000000E+00 -0.24591023739E+03  0.24591023739E+03  0.00000000000E+00 0.  1.
         25    2    1    2    0    0  0.15671011585E+03 -0.14575176559E+03  0.34093166083E+02  0.25022245102E+03  0.12508914198E+03 0.  0.
          5    1    3    3  502    0  0.11072661559E+03 -0.89095095400E+02 -0.38403461206E+02  0.14727734944E+03  0.41800000000E+01 0.  1.
         -5    1    3    3    0  502  0.45983500256E+02 -0.56656670186E+02  0.72496627289E+02  0.10294510159E+03  0.41800000000E+01 0.  1.
        -11    1    1    2    0    0 -0.61354075767E+02  0.77118222925E+02  0.25163514130E+02  0.10170912134E+03  0.00000000000E+00 0. -1.
         11    1    1    2    0    0 -0.95356040081E+02  0.68633542661E+02 -0.64916392276E+02  0.13422919036E+03  0.00000000000E+00 0.  1.
</event>
<event>
 7    1  0.2619826E-009  0.1051667E+03  0.7561462E-02  0.1269792E+00
          1   -1    0    0  501    0  0.00000000000E+00  0.00000000000E+00  0.32302435368E+03  0.32302435368E+03  0.00000000000E+00 0. -1.
         -1   -1    0    0    0  501 -0.00000000000E+00 -0.00000000000E+00 -0.43281066071E+02  0.43281066071E+02  0.00000000000E+00 0.  1.
         25    2    1    2    0    0  0.34898684936E+02  0.12529747587E+02  0.11082483444E+03  0.17118628589E+03  0.12509071814E+03 0.  0.
          5    1    3    3  502    0 -0.41358052304E+02 -0.15951247606E+02  0.61463773974E+02  0.75895972895E+02  0.41800000000E+01 0. -1.
         -5    1    3    3    0  502  0.76256737240E+02  0.28480995193E+02  0.49361060461E+02  0.95290313000E+02  0.41800000000E+01 0. -1.
        -11    1    1    2    0    0  0.13992024860E+02  0.20843854555E+02  0.12851291440E+02  0.28202814116E+02  0.00000000000E+00 0.  1.
         11    1    1    2    0    0 -0.48890709796E+02 -0.33373602142E+02  0.15606716174E+03  0.16691631975E+03  0.00000000000E+00 0. -1.
</event>
<event>
 7    1  0.3608888E-009  0.2235750E+03  0.7561462E-02  0.1131245E+00
         -2   -1    0    0    0  501 -0.00000000000E+00  0.00000000000E+00  0.86702049864E+02  0.86702049864E+02  0.00000000000E+00 0.  1.
          2   -1    0    0  501    0  0.00000000000E+00 -0.00000000000E+00 -0.64885764794E+03  0.64885764794E+03  0.00000000000E+00 0. -1.
         25    2    1    2    0    0  0.16365399622E+03  0.13226548121E+03 -0.27853006126E+03  0.37081334448E+03  0.12508698342E+03 0.  0.
          5    1    3    3  502    0  0.15950245536E+03  0.13750458245E+03 -0.19539990582E+03  0.28731017917E+03  0.41800000000E+01 0. -1.
         -5    1    3    3    0  502  0.41515408524E+01 -0.52391012371E+01 -0.83130155440E+02  0.83503165309E+02  0.41800000000E+01 0. -1.
        -11    1    1    2    0    0 -0.21167339075E+02 -0.70010458094E+02 -0.10438738360E+03  0.12746076393E+03  0.00000000000E+00 0. -1.
         11    1    1    2    0    0 -0.14248665714E+03 -0.62255023116E+02 -0.17923815322E+03  0.23728558940E+03  0.00000000000E+00 0.  1.
</event>
<event>
 7    1  0.2619826E-009  0.1227102E+03  0.7561462E-02  0.1238692E+00
         -1   -1    0    0    0  501 -0.00000000000E+00  0.00000000000E+00  0.14119174111E+03  0.14119174111E+03  0.00000000000E+00 0.  1.
          1   -1    0    0  501    0  0.00000000000E+00 -0.00000000000E+00 -0.20506525154E+03  0.20506525154E+03  0.00000000000E+00 0. -1.
         25    2    1    2    0    0 -0.23606003926E+02  0.56377367055E+02 -0.15089410748E+03  0.20531003449E+03  0.12509007816E+03 0.  0.
          5    1    3    3  502    0 -0.52976134082E+02  0.80415187667E+02 -0.82025961359E+02  0.12656541363E+03  0.41800000000E+01 0. -1.
         -5    1    3    3    0  502  0.29370130156E+02 -0.24037820612E+02 -0.68868146122E+02  0.78744620866E+02  0.41800000000E+01 0. -1.
        -11    1    1    2    0    0  0.16390725876E+02  0.24595621994E+02  0.24544244502E+02  0.38419011624E+02  0.00000000000E+00 0.  1.
         11    1    1    2    0    0  0.72152780501E+01 -0.80972989049E+02  0.62476352552E+02  0.10252794654E+03  0.00000000000E+00 0. -1.
</event>
<event>
 7    1  0.2619826E-009  0.1894972E+03  0.7561462E-02  0.1158916E+00
          1   -1    0    0  501    0  0.00000000000E+00  0.00000000000E+00  0.32301515493E+03  0.32301515493E+03  0.00000000000E+00 0. -1.
         -1   -1    0    0    0  501 -0.00000000000E+00 -0.00000000000E+00 -0.16122551317E+03  0.16122551317E+03  0.00000000000E+00 0.  1.
         25    2    1    2    0    0  0.17014638332E+03 -0.53858804872E+02  0.18101799927E+03  0.28331725065E+03  0.12510230149E+03 0.  0.
          5    1    3    3  502    0  0.15558161399E+03 -0.38864064540E+02  0.78477031406E+02  0.17858379261E+03  0.41800000000E+01 0.  1.
         -5    1    3    3    0  502  0.14564769328E+02 -0.14994740332E+02  0.10254096786E+03  0.10473345804E+03  0.41800000000E+01 0.  1.
        -11    1    1    2    0    0 -0.10518994965E+03  0.74729781538E+02 -0.28288667724E+02  0.13209736741E+03  0.00000000000E+00 0.  1.
         11    1    1    2    0    0 -0.64956433667E+02 -0.20870976665E+02  0.90603102162E+01  0.68826050031E+02  0.00000000000E+00 0. -1.
</event>
<event>
 7    1  0.2619826E-009  0.1000409E+03  0.7561462E-02  0.1280210E+00
         -1   -1    0    0    0  501 -0.00000000000E+00  0.00000000000E+00  0.45047093094E+02  0.45047093094E+02  0.00000000000E+00 0.  1.
          1   -1    0    0  501    0  0.00000000000E+00 -0.00000000000E+00 -0.58924053914E+03  0.58924053914E+03  0.00000000000E+00 0. -1.
         25    2    1    2    0    0  0.76993416154E+02  0.19692483718E+02 -0.46973370771E+03  0.49255899942E+03  0.12509529049E+03 0.  0.
          5    1    3    3  502    0  0.79984469185E+02 -0.83796823759E+01 -0.45164962248E+03  0.45877291581E+03  0.41800000000E+01 0. -1.
         -5    1    3    3    0  502 -0.29910530317E+01  0.28072166094E+02 -0.18084085230E+02  0.33786083615E+02  0.41800000000E+01 0. -1.
        -11    1    1    2    0    0 -0.61526004380E+02 -0.33694596084E+02 -0.91144757027E+02  0.11501365899E+03  0.00000000000E+00 0. -1.
         11    1    1    2    0    0 -0.15467411774E+02  0.14002112366E+02  0.16685018694E+02  0.26714973825E+02  0.00000000000E+00 0.  1.
</event>
<event>
 7    1  0.2619826E-009  0.1078190E+03  0.7561462E-02  0.1264663E+00
          2   -1    0    0  501    0  0.00000000000E+00  0.00000000000E+00  0.71861120448E+03  0.71861120448E+03  0.00000000000E+00 0. -1.
         -2   -1    0    0    0  501 -0.00000000000E+00 -0.00000000000E+00 -0.27994950012E+02  0.27994950012E+02  0.00000000000E+00 0.  1.
         25    2    1    2    0    0 -0.77263346461E+02  0.44861475132E+02  0.42915645383E+03  0.45585590901E+03  0.12508865360E+03 0.  0.
          5    1    3    3  502    0 -0.28837147482E+02  0.18818358333E+02  0.14577402689E+02  0.37625586433E+02  0.41800000000E+01 0. -1.
         -5    1    3    3    0  502 -0.48426198979E+02  0.26043116799E+02  0.41457905114E+03  0.41823032258E+03  0.41800000000E+01 0. -1.
        -11    1    1    2    0    0 -0.12014459529E+02 -0.33769836041E+02  0.94965015700E+02  0.10150420322E+03  0.00000000000E+00 0.  1.
         11    1    1    2    0    0  0.89277805991E+02 -0.11091639091E+02  0.16649478494E+03  0.18924604226E+03  0.00000000000E+00 0. -1.
</event>
<event>
 7    1  0.2619826E-009  0.1025238E+03  0.7561462E-02  0.1275076E+00
          2   -1    0    0  501    0  0.00000000000E+00  0.00000000000E+00  0.11541026055E+04  0.11541026055E+04  0.00000000000E+00 0. -1.
         -2   -1    0    0    0  501 -0.00000000000E+00 -0.00000000000E+00 -0.12698194908E+02  0.12698194908E+02  0.00000000000E+00 0.  1.
         25    2    1    2    0    0 -0.35638342072E+02  0.14308191413E+02  0.78320744490E+03  0.79406392359E+03  0.12509515274E+03 0.  0.
          5    1    3    3  502    0 -0.57642361891E+02  0.49759569666E+02  0.64880064106E+03  0.65326748036E+03  0.41800000000E+01 0.  1.
         -5    1    3    3    0  502  0.22004019819E+02 -0.35451378253E+02  0.13440680384E+03  0.14079644323E+03  0.41800000000E+01 0.  1.
        -11    1    1    2    0    0  0.59361148528E+02 -0.19658478238E+02  0.32828101056E+03  0.33418351787E+03  0.00000000000E+00 0. -1.
         11    1    1    2    0    0 -0.23722806456E+02  0.53502868249E+01  0.29915955178E+02  0.38553358991E+02  0.00000000000E+00 0.  1.
</event>
<event>
 7    1  0.2619826E-009  0.9221694E+02  0.7561462E-02  0.1297570E+00
         -3   -1    0    0    0  501 -0.00000000000E+00  0.00000000000E+00  0.71661100393E+03  0.71661100393E+03  0.00000000000E+00 0.  1.
          3   -1    0    0  501    0  0.00000000000E+00 -0.00000000000E+00 -0.36234809551E+02  0.36234809551E+02  0.00000000000E+00 0. -1.
         25    2    1    2    0    0 -0.36582065874E+02  0.52608864573E+02  0.12883039144E+03  0.19066001182E+03  0.12509208678E+03 0.  0.
          5    1    3    3  502    0  0.67529023432E+01  0.18980414931E+02 -0.21993297522E+02  0.30117028022E+02  0.41800000000E+01 0. -1.
         -5    1    3    3    0  502 -0.43334968217E+02  0.33628449642E+02  0.15082368896E+03  0.16054298380E+03  0.41800000000E+01 0. -1.
        -11    1    1    2    0    0 -0.27563491653E+02 -0.29396215127E+01  0.14393455130E+03  0.14657947505E+03  0.00000000000E+00 0.  1.
         11    1    1    2    0    0  0.64145557527E+02 -0.49669243060E+02  0.40761125164E+03  0.41560632661E+03  0.00000000000E+00 0. -1.
</event>
<event>
 7    1  0.2619826E-009  0.1118276E+03  0.7561462E-02  0.1257222E+00
         -1   -1    0    0    0  501 -0.00000000000E+00  0.00000000000E+00  0.68168443470E+03  0.68168443470E+03  0.00000000000E+00 0.  1.
          1   -1    0    0  501    0  0.00000000000E+00 -0.00000000000E+00 -0.19773174501E+02  0.19773174501E+02  0.00000000000E+00 0. -1.
         25    2    1    2    0    0 -0.11205491389E+02 -0.29885243175E+02  0.45942124280E+03  0.47721485836E+03  0.12508977539E+03 0.  0.
          5    1    3    3  502    0 -0.65079286301E+02 -0.33271009268E+02  0.22450672468E+03  0.23614193908E+03  0.41800000000E+01 0.  1.
         -5    1    3    3    0  502  0.53873794912E+02  0.33857660928E+01  0.23491451812E+03  0.24107291928E+03  0.41800000000E+01 0.  1.
        -11    1    1    2    0    0 -0.40089545322E+02  0.10255567819E+02  0.83703528431E+02  0.93373598985E+02  0.00000000000E+00 0.  1.
         11    1    1    2    0    0  0.51295036712E+02  0.19629675356E+02  0.11878648897E+03  0.13086915185E+03  0.00000000000E+00 0. -1.
</event>
<event>
 7    1  0.2619826E-009  0.1089219E+03  0.7561462E-02  0.1262579E+00
          2   -1    0    0  501    0  0.00000000000E+00  0.00000000000E+00  0.53625540446E+03  0.53625540446E+03  0.00000000000E+00 0. -1.
         -2   -1    0    0    0  501 -0.00000000000E+00 -0.00000000000E+00 -0.34424757676E+02  0.34424757676E+02  0.00000000000E+00 0.  1.
         25    2    1    2    0    0  0.65785371334E+01 -0.36677089054E+02  0.41700797774E+03  0.43695794692E+03  0.12509239730E+03 0.  0.
          5    1    3    3  502    0  0.51865579265E+02 -0.46684291588E+02  0.14475588886E+03  0.16075198647E+03  0.41800000000E+01 0. -1.
         -5    1    3    3    0  502 -0.45287042131E+02  0.10007202535E+02  0.27225208888E+03  0.27620596045E+03  0.41800000000E+01 0. -1.
        -11    1    1    2    0    0  0.58459871760E+01  0.67699656262E+02  0.68661835121E+02  0.96601587079E+02  0.00000000000E+00 0.  1.
         11    1    1    2    0    0 -0.12424524309E+02 -0.31022567208E+02  0.16160833921E+02  0.37120628140E+02  0.00000000000E+00 0. -1.
</event>
<event>
 7    1  0.2619826E-009  0.1061203E+03  0.7561462E-02  0.1267928E+00
          2   -1    0    0  501    0  0.00000000000E+00  0.00000000000E+00  0.13198756992E+04  0.13198756992E+04  0.00000000000E+00 0. -1.
         -2   -1    0    0    0  501 -0.00000000000E+00 -0.00000000000E+00 -0.12101043207E+02  0.12101043207E+02  0.00000000000E+00 0.  1.
         25    2    1    2    0    0 -0.15537074138E+01  0.18106822569E+02  0.10878526383E+04  0.10951718639E+04  0.12509107806E+03 0.  0.
          5    1    3    3  502    0 -0.30205665640E+02 -0.45635926007E+02  0.39591873205E+03  0.39970505972E+03  0.41800000000E+01 0. -1.
         -5    1    3    3    0  502  0.28651958226E+02  0.63742748576E+02  0.69193390627E+03  0.69546680421E+03  0.41800000000E+01 0. -1.
        -11    1    1    2    0    0  0.20017480223E+02 -0.48113319480E+02  0.14296616439E+03  0.15216739200E+03  0.00000000000E+00 0.  1.
         11    1    1    2    0    0 -0.18463772809E+02  0.30006496912E+02  0.76955853234E+02  0.84637486436E+02  0.00000000000E+00 0. -1.
</event>
<event>
 7    1  0.2619826E-009  0.7305114E+02  0.7561462E-02  0.1350014E+00
          4   -1    0    0  501    0  0.00000000000E+00  0.00000000000E+00  0.25183017856E+03  0.25183017856E+03  0.00000000000E+00 0. -1.
         -4   -1    0    0    0  501 -0.00000000000E+00 -0.00000000000E+00 -0.56584459169E+02  0.56584459169E+02  0.00000000000E+00 0.  1.
         25    2    1    2    0    0 -0.31849001181E+02 -0.21215751532E+02  0.63033665513E+02  0.14520849865E+03  0.12509115917E+03 0.  0.
          5    1    3    3  502    0 -0.35655154025E+02 -0.54223428374E+01  0.99040743791E+02  0.10548570112E+03  0.41800000000E+01 0. -1.
         -5    1    3    3    0  502  0.38061528432E+01 -0.15793408694E+02 -0.36007078278E+02  0.39722797532E+02  0.41800000000E+01 0. -1.
        -11    1    1    2    0    0  0.24741899339E+01 -0.32075131388E+02  0.28592055580E+02  0.43039996650E+02  0.00000000000E+00 0.  1.
         11    1    1    2    0    0  0.29374811248E+02  0.53290882919E+02  0.10361999830E+03  0.12016614243E+03  0.00000000000E+00 0. -1.
</event>
<event>
 7    1  0.2619826E-009  0.1008447E+03  0.7561462E-02  0.1278530E+00
          1   -1    0    0  501    0  0.00000000000E+00  0.00000000000E+00  0.50766865450E+03  0.50766865450E+03  0.00000000000E+00 0. -1.
         -1   -1    0    0    0  501 -0.00000000000E+00 -0.00000000000E+00 -0.36081169261E+02  0.36081169261E+02  0.00000000000E+00 0.  1.
         25    2    1    2    0    0 -0.13403033862E+01 -0.65810781534E+02  0.35925388066E+03  0.38605938542E+03  0.12508254445E+03 0.  0.
          5    1    3    3  502    0  0.18419428917E+02 -0.73996590982E+02  0.35591035629E+03  0.36401157256E+03  0.41800000000E+01 0.  1.
         -5    1    3    3    0  502 -0.19759732303E+02  0.81858094472E+01  0.33435243640E+01  0.22047812866E+02  0.41800000000E+01 0.  1.
        -11    1    1    2    0    0  0.38911956022E+02  0.18424367651E+02  0.75411651180E+02  0.86836137515E+02  0.00000000000E+00 0. -1.
         11    1    1    2    0    0 -0.37571652636E+02  0.47386413884E+02  0.36921953409E+02  0.70854300830E+02  0.00000000000E+00 0.  1.
</event>
<event>
 7    1  0.2619826E-009  0.1001667E+03  0.7561462E-02  0.1279946E+00
         -1   -1    0    0    0  501 -0.00000000000E+00  0.00000000000E+00  0.57862412354E+03  0.57862412354E+03  0.00000000000E+00 0.  1.
          1   -1    0    0  501    0  0.00000000000E+00 -0.00000000000E+00 -0.30803086574E+02  0.30803086574E+02  0.00000000000E+00 0. -1.
         25    2    1    2    0    0 -0.37442939540E+02  0.51508925837E+02  0.40758237512E+03  0.43107077507E+03  0.12507388797E+03 0.  0.
          5    1    3    3  502    0 -0.74138043077E+02  0.62190828372E+02  0.23347403140E+03  0.25276816315E+03  0.41800000000E+01 0. -1.
         -5    1    3    3    0  502  0.36695103537E+02 -0.10681902535E+02  0.17410834372E+03  0.17830261192E+03  0.41800000000E+01 0. -1.
        -11    1    1    2    0    0  0.11294465980E+02 -0.26670564780E+02 -0.43941413675E+01  0.29294922185E+02  0.00000000000E+00 0. -1.
         11    1    1    2    0    0  0.26148473561E+02 -0.24838361057E+02  0.14463280322E+03  0.14906151286E+03  0.00000000000E+00 0.  1.
</event>
<event>
 7    1  0.2619826E-009  0.1810039E+03  0.7561462E-02  0.1166835E+00
         -1   -1    0    0    0  501 -0.00000000000E+00  0.00000000000E+00  0.15134345956E+03  0.15134345956E+03  0.00000000000E+00 0.  1.
          1   -1    0    0  501    0  0.00000000000E+00 -0.00000000000E+00 -0.24727363852E+03  0.24727363852E+03  0.00000000000E+00 0. -1.
         25    2    1    2    0    0 -0.35158621512E+02 -0.14808677627E+03 -0.19260139781E+01  0.19701633045E+03  0.12508358391E+03 0.  0.
          5    1    3    3  502    0  0.60467631707E+01  0.20498749021E+02 -0.82893880347E+01  0.23301253406E+02  0.41800000000E+01 0.  1.
         -5    1    3    3    0  502 -0.41205384683E+02 -0.16858552529E+03  0.63633740566E+01  0.17371507705E+03  0.41800000000E+01 0.  1.
        -11    1    1    2    0    0  0.26552743571E+02  0.10148822346E+02  0.83420503944E+01  0.29624931914E+02  0.00000000000E+00 0.  1.
         11    1    1    2    0    0  0.86058779410E+01  0.13793795392E+03 -0.10234621538E+03  0.17197583572E+03  0.00000000000E+00 0. -1.
</event>
<event>
 7    1  0.2619826E-009  0.7516646E+02  0.7561462E-02  0.1343356E+00
          2   -1    0    0  501    0  0.00000000000E+00  0.00000000000E+00  0.24307531018E+02  0.24307531018E+02  0.00000000000E+00 0. -1.
         -2   -1    0    0    0  501 -0.00000000000E+00 -0.00000000000E+00 -0.56143718512E+03  0.56143718512E+03  0.00000000000E+00 0.  1.
         25    2    1    2    0    0  0.15100015849E+02  0.39186794057E+02 -0.34164202145E+03  0.36623531883E+03  0.12508166384E+03 0.  0.
          5    1    3    3  502    0 -0.13649647200E+02 -0.15710866735E+02 -0.24099574021E+01  0.21364093637E+02  0.41800000000E+01 0.  1.
         -5    1    3    3    0  502  0.28749663050E+02  0.54897660791E+02 -0.33923206405E+03  0.34487122519E+03  0.41800000000E+01 0.  1.
        -11    1    1    2    0    0  0.15645202906E+02 -0.31700063541E+02 -0.18150264959E+03  0.18491316397E+03  0.00000000000E+00 0.  1.
         11    1    1    2    0    0 -0.30745218755E+02 -0.74867305159E+01 -0.13984983066E+02  0.34596233343E+02  0.00000000000E+00 0. -1.
</event>
<event>
 7    1  0.2619826E-009  0.1051576E+03  0.7561462E-02  0.1269809E+00
         -1   -1    0    0    0  501 -0.00000000000E+00  0.00000000000E+00  0.28834194256E+02  0.28834194256E+02  0.00000000000E+00 0.  1.
          1   -1    0    0  501    0  0.00000000000E+00 -0.00000000000E+00 -0.59197261993E+03  0.59197261993E+03  0.00000000000E+00 0. -1.
         25    2    1    2    0    0  0.51579290409E+02  0.44944025256E+02 -0.38093553500E+03  0.40675796502E+03  0.12513900940E+03 0.  0.
          5    1    3    3  502    0  0.53066933675E+01  0.51547734262E+02 -0.48735705607E+02  0.71259885651E+02  0.41800000000E+01 0.  1.
         -5    1    3    3    0  502  0.46272597041E+02 -0.66037090067E+01 -0.33219982939E+03  0.33549807936E+03  0.41800000000E+01 0.  1.
        -11    1    1    2    0    0 -0.69019476439E+02 -0.66730512668E+01 -0.99672175315E+02  0.12141976887E+03  0.00000000000E+00 0.  1.
         11    1    1    2    0    0  0.17440186030E+02 -0.38270973989E+02 -0.82530715363E+02  0.92629080300E+02  0.00000000000E+00 0. -1.
</event>
<event>
 7    1  0.2619826E-009  0.1244312E+03  0.7561462E-02  0.1235961E+00
          1   -1    0    0  501    0  0.00000000000E+00  0.00000000000E+00  0.85384277786E+02  0.85384277786E+02  0.00000000000E+00 0. -1.
         -1   -1    0    0    0  501 -0.00000000000E+00 -0.00000000000E+00 -0.18971987875E+03  0.18971987875E+03  0.00000000000E+00 0.  1.
         25    2    1    2    0    0  0.64512200868E+02  0.18197998244E+02 -0.67685055339E+02  0.15723023958E+03  0.12508833008E+03 0.  0.
          5    1    3    3  502    0  0.47944728896E+02 -0.48910618143E+02 -0.52338932283E+02  0.86300532030E+02  0.41800000000E+01 0.  1.
         -5    1    3    3    0  502  0.16567471972E+02  0.67108616387E+02 -0.15346123056E+02  0.70929707554E+02  0.41800000000E+01 0.  1.
        -11    1    1    2    0    0 -0.15594304022E+02 -0.50181771679E+02 -0.93825846726E+01  0.53380009572E+02  0.00000000000E+00 0. -1.
         11    1    1    2    0    0 -0.48917896846E+02  0.31983773435E+02 -0.27267960957E+02  0.64493907385E+02  0.00000000000E+00 0.  1.
</event>
<event>
 7    1  0.2619826E-009  0.1323804E+03  0.7561462E-02  0.1223966E+00
         -1   -1    0    0    0  501 -0.00000000000E+00  0.00000000000E+00  0.80010249784E+02  0.80010249784E+02  0.00000000000E+00 0.  1.
          1   -1    0    0  501    0  0.00000000000E+00 -0.00000000000E+00 -0.26764329487E+03  0.26764329487E+03  0.00000000000E+00 0. -1.
         25    2    1    2    0    0  0.16675825621E+01  0.52207186596E+02 -0.11040351760E+03  0.17482781512E+03  0.12508979605E+03 0.  0.
          5    1    3    3  502    0 -0.60346588800E+02  0.26653543582E+02 -0.70627323157E+02  0.96735791419E+02  0.41800000000E+01 0. -1.
         -5    1    3    3    0  502  0.62014171362E+02  0.25553643014E+02 -0.39776194443E+02  0.78092023699E+02  0.41800000000E+01 0. -1.
        -11    1    1    2    0    0 -0.49221921450E+02 -0.65635188115E+02 -0.10797030425E+01  0.82048407839E+02  0.00000000000E+00 0.  1.
         11    1    1    2    0    0  0.47554338888E+02  0.13428001519E+02 -0.76149824446E+02  0.90777321700E+02  0.00000000000E+00 0. -1.
</event>
<event>
 7    1  0.2619826E-009  0.1437209E+03  0.7561462E-02  0.1208408E+00
          2   -1    0    0  501    0  0.00000000000E+00  0.00000000000E+00  0.11170821489E+03  0.11170821489E+03  0.00000000000E+00 0. -1.
         -2   -1    0    0    0  501 -0.00000000000E+00 -0.00000000000E+00 -0.35837235940E+03  0.35837235940E+03  0.00000000000E+00 0.  1.
         25    2    1    2    0    0 -0.10333603956E+03  0.67777917714E+02  0.47348631933E+01  0.17590375430E+03  0.12509008213E+03 0.  0.
          5    1    3    3  502    0 -0.28932584324E+02  0.50329923343E+02 -0.54025132780E+02  0.79412738218E+02  0.41800000000E+01 0.  1.
         -5    1    3    3    0  502 -0.74403455231E+02  0.17447994371E+02  0.58759995973E+02  0.96491016083E+02  0.41800000000E+01 0.  1.
        -11    1    1    2    0    0  0.11675045292E+02  0.21678903795E+02 -0.37392122796E+02  0.44771111216E+02  0.00000000000E+00 0. -1.
         11    1    1    2    0    0  0.91660994263E+02 -0.89456821509E+02 -0.21400688490E+03  0.24940570877E+03  0.00000000000E+00 0.  1.
</event>
<event>
 7    1  0.2619826E-009  0.1254494E+03  0.7561462E-02  0.1234369E+00
         -2   -1    0    0    0  501 -0.00000000000E+00  0.00000000000E+00  0.46982909375E+02  0.46982909375E+02  0.00000000000E+00 0.  1.
          2   -1    0    0  501    0  0.00000000000E+00 -0.00000000000E+00 -0.36650497904E+03  0.36650497904E+03  0.00000000000E+00 0. -1.
         25    2    1    2    0    0 -0.67175985540E+02 -0.76675270050E+01 -0.22572058762E+03  0.26677508793E+03  0.12509100633E+03 0.  0.
          5    1    3    3  502    0  0.28662234538E+02 -0.30950527599E+02 -0.53365757314E+02  0.68153028554E+02  0.41800000000E+01 0.  1.
         -5    1    3    3    0  502 -0.95838220077E+02  0.23283000594E+02 -0.17235483030E+03  0.19862205938E+03  0.41800000000E+01 0.  1.
        -11    1    1    2    0    0  0.74685383571E+02  0.34255143618E+02 -0.54222471964E+02  0.98444897529E+02  0.00000000000E+00 0. -1.
         11    1    1    2    0    0 -0.75093980315E+01 -0.26587616613E+02 -0.39579010083E+02  0.48267902949E+02  0.00000000000E+00 0.  1.
</event>
<event>
 7    1  0.2619826E-009  0.1573083E+03  0.7561462E-02  0.1191770E+00
         -2   -1    0    0    0  501 -0.00000000000E+00  0.00000000000E+00  0.27373501816E+02  0.27373501816E+02  0.00000000000E+00 0.  1.
          2   -1    0    0  501    0  0.00000000000E+00 -0.00000000000E+00 -0.10643507345E+04  0.10643507345E+04  0.00000000000E+00 0. -1.
         25    2    1    2    0    0  0.25280569471E+02 -0.12814456255E+03 -0.49649320397E+03  0.52840611412E+03  0.12508950296E+03 0.  0.
          5    1    3    3  502    0  0.58318059230E+02 -0.69723542527E+02 -0.14995225637E+03  0.17540102624E+03  0.41800000000E+01 0.  1.
         -5    1    3    3    0  502 -0.33037489759E+02 -0.58421020024E+02 -0.34654094759E+03  0.35300508788E+03  0.41800000000E+01 0.  1.
        -11    1    1    2    0    0  0.30018950430E+02  0.69844299422E+02 -0.31156007689E+03  0.32070086538E+03  0.00000000000E+00 0.  1.
         11    1    1    2    0    0 -0.55299519901E+02  0.58300263128E+02 -0.22892395183E+03  0.24261725682E+03  0.00000000000E+00 0. -1.
</event>
<event>
 7    1  0.2619826E-009  0.6410090E+02  0.7561462E-02  0.1381386E+00
          1   -1    0    0  501    0  0.00000000000E+00  0.00000000000E+00  0.73159585479E+03  0.73159585479E+03  0.00000000000E+00 0. -1.
         -1   -1    0    0    0  501 -0.00000000000E+00 -0.00000000000E+00 -0.57194702034E+02  0.57194702034E+02  0.00000000000E+00 0.  1.
         25    2    1    2    0    0 -0.47292994981E-02 -0.40841118292E+01  0.68503194824E+03  0.69637159847E+03  0.12509177851E+03 0.  0.
          5    1    3    3  502    0 -0.34783257593E+02  0.28724316410E+02  0.56906711716E+03  0.57086760076E+03  0.41800000000E+01 0. -1.
         -5    1    3    3    0  502  0.34778528293E+02 -0.32808428239E+02  0.11596483108E+03  0.12550399771E+03  0.41800000000E+01 0. -1.
        -11    1    1    2    0    0  0.11499230176E+02 -0.11017702425E+02 -0.47963958506E+02  0.50538731454E+02  0.00000000000E+00 0.  1.
         11    1    1    2    0    0 -0.11494500877E+02  0.15101814254E+02  0.37333163014E+02  0.41880226895E+02  0.00000000000E+00 0. -1.
</event>
<event>
 7    1  0.3082685E-009  0.1364394E+03  0.7561462E-02  0.1218202E+00
          2   -1    0    0  501    0  0.00000000000E+00  0.00000000000E+00  0.70604820424E+03  0.70604820424E+03  0.00000000000E+00 0. -1.
         -2   -1    0    0    0  501 -0.00000000000E+00 -0.00000000000E+00 -0.38663148592E+02  0.38663148592E+02  0.00000000000E+00 0.  1.
         25    2    1    2    0    0 -0.10356913115E+03 -0.32146911381E+02  0.48905544143E+03  0.51631714155E+03  0.12509267372E+03 0.  0.
          5    1    3    3  502    0 -0.87086493282E+02 -0.71451926050E+02  0.26141742348E+03  0.28468575087E+03  0.41800000000E+01 0. -1.
         -5    1    3    3    0  502 -0.16482637865E+02  0.39305014669E+02  0.22763801795E+03  0.23163139068E+03  0.41800000000E+01 0. -1.
        -11    1    1    2    0    0  0.45299951138E+02  0.37508438281E+02  0.24320228319E+02  0.63643083056E+02  0.00000000000E+00 0.  1.
         11    1    1    2    0    0  0.58269180009E+02 -0.53615269002E+01  0.15400938590E+03  0.16475112823E+03  0.00000000000E+00 0. -1.
</event>
<event>
 7    1  0.2619826E-009  0.1849556E+03  0.7561462E-02  0.1163091E+00
         -1   -1    0    0    0  501 -0.00000000000E+00  0.00000000000E+00  0.28178678843E+03  0.28178678843E+03  0.00000000000E+00 0.  1.
          1   -1    0    0  501    0  0.00000000000E+00 -0.00000000000E+00 -0.12815550408E+03  0.12815550408E+03  0.00000000000E+00 0. -1.
         25    2    1    2    0    0 -0.98550131773E+02 -0.11405207564E+03  0.37508179788E+02  0.19943526257E+03  0.12509019136E+03 0.  0.
          5    1    3    3  502    0  0.29557921584E+02 -0.21077076449E+02  0.14981956839E+02  0.39494877019E+02  0.41800000000E+01 0.  1.
         -5    1    3    3    0  502 -0.12810805336E+03 -0.92974999196E+02  0.22526222949E+02  0.15994038555E+03  0.41800000000E+01 0.  1.
        -11    1    1    2    0    0  0.85129306476E+02  0.12923774363E+03  0.97000116180E+02  0.18264286391E+03  0.00000000000E+00 0. -1.
         11    1    1    2    0    0  0.13420825297E+02 -0.15185667982E+02  0.19122988386E+02  0.27864166030E+02  0.00000000000E+00 0.  1.
</event>
<event>
 7    1  0.2619826E-009  0.9962652E+02  0.7561462E-02  0.1281083E+00
         -1   -1    0    0    0  501 -0.00000000000E+00  0.00000000000E+00  0.53566208954E+02  0.53566208954E+02  0.00000000000E+00 0.  1.
          1   -1    0    0  501    0  0.00000000000E+00 -0.00000000000E+00 -0.22416750882E+03  0.22416750882E+03  0.00000000000E+00 0. -1.
         25    2    1    2    0    0  0.11935593505E+02 -0.23788614717E+02 -0.75891836370E+02  0.14871607030E+03  0.12509413317E+03 0.  0.
          5    1    3    3  502    0 -0.36563288221E+02 -0.56560215696E+02 -0.28349800479E+02  0.73192319489E+02  0.41800000000E+01 0. -1.
         -5    1    3    3    0  502  0.48498881726E+02  0.32771600979E+02 -0.47542035891E+02  0.75523750807E+02  0.41800000000E+01 0. -1.
        -11    1    1    2    0    0 -0.40503415251E+02  0.15191304584E+02 -0.88554970216E+02  0.98555999979E+02  0.00000000000E+00 0. -1.
         11    1    1    2    0    0  0.28567821745E+02  0.85973101324E+01 -0.61544932821E+01  0.30461647499E+02  0.00000000000E+00 0.  1.
</event>
<event>
 7    1  0.2619826E-009  0.7084604E+02  0.7561462E-02  0.1357239E+00
         -3   -1    0    0    0  501 -0.00000000000E+00  0.00000000000E+00  0.85239243543E+02  0.85239243543E+02  0.00000000000E+00 0.  1.
          3   -1    0    0  501    0  0.00000000000E+00 -0.00000000000E+00 -0.14413586112E+03  0.14413586112E+03  0.00000000000E+00 0. -1.
         25    2    1    2    0    0  0.16322266007E+02  0.17530496463E+02 -0.27851413368E+02  0.13036938657E+03  0.12508693399E+03 0.  0.
          5    1    3    3  502    0  0.58542969572E+02  0.11739724419E+02  0.22793881975E+02  0.64047902942E+02  0.41800000000E+01 0. -1.
         -5    1    3    3    0  502 -0.42220703565E+02  0.57907720440E+01 -0.50645295343E+02  0.66321483629E+02  0.41800000000E+01 0. -1.
        -11    1    1    2    0    0  0.53990865573E+01 -0.16400435373E+02  0.29771737893E+02  0.34416286744E+02  0.00000000000E+00 0.  1.
         11    1    1    2    0    0 -0.21721352564E+02 -0.11300610901E+01 -0.60816942105E+02  0.64589431351E+02  0.00000000000E+00 0. -1.
</event>
<event>
 7    1  0.2619826E-009  0.1216233E+03  0.7561462E-02  0.1240443E+00
         -1   -1    0    0    0  501 -0.00000000000E+00  0.00000000000E+00  0.14286513629E+03  0.14286513629E+03  0.00000000000E+00 0.  1.
          1   -1    0    0  501    0  0.00000000000E+00 -0.00000000000E+00 -0.16957495629E+03  0.16957495629E+03  0.00000000000E+00 0. -1.
         25    2    1    2    0    0  0.14577622565E+02  0.73243542335E+02 -0.98384205399E+02  0.17579740389E+03  0.12509257279E+03 0.  0.
          5    1    3    3  502    0  0.55438174950E+02 -0.12978078970E+00 -0.64463513201E+02  0.85125936230E+02  0.41800000000E+01 0. -1.
         -5    1    3    3    0  502 -0.40860552386E+02  0.73373323125E+02 -0.33920692198E+02  0.90671467656E+02  0.41800000000E+01 0. -1.
        -11    1    1    2    0    0 -0.21147219395E+02  0.75864686328E+01  0.46641362199E+02  0.51770416864E+02  0.00000000000E+00 0.  1.
         11    1    1    2    0    0  0.65695968308E+01 -0.80830010968E+02  0.25033023200E+02  0.84872271833E+02  0.00000000000E+00 0. -1.
</event>
<event>
 7    1  0.2619826E-009  0.7453495E+02  0.7561462E-02  0.1345317E+00
          2   -1    0    0  501    0  0.00000000000E+00  0.00000000000E+00  0.25469493606E+03  0.25469493606E+03  0.00000000000E+00 0. -1.
         -2   -1    0    0    0  501 -0.00000000000E+00 -0.00000000000E+00 -0.48701297738E+02  0.48701297738E+02  0.00000000000E+00 0.  1.
         25    2    1    2    0    0  0.47680434036E+01 -0.15594405029E+02  0.85913112456E+02  0.15262492191E+03  0.12508950472E+03 0.  0.
          5    1    3    3  502    0 -0.37884171307E+02 -0.26946629406E+02 -0.93007327250E+01  0.47595244523E+02  0.41800000000E+01 0. -1.
         -5    1    3    3    0  502  0.42652214711E+02  0.11352224377E+02  0.95213845181E+02  0.10502967739E+03  0.41800000000E+01 0. -1.
        -11    1    1    2    0    0  0.58258255873E+01  0.35250388713E+02  0.81645410963E+01  0.36649554970E+02  0.00000000000E+00 0.  1.
         11    1    1    2    0    0 -0.10593868991E+02 -0.19655983684E+02  0.11191598477E+03  0.11412175691E+03  0.00000000000E+00 0. -1.
</event>
<event>
 7    1  0.2619826E-009  0.1091540E+03  0.7561462E-02  0.1262145E+00
          1   -1    0    0  501    0  0.00000000000E+00  0.00000000000E+00  0.76775901224E+03  0.76775901224E+03  0.00000000000E+00 0. -1.
         -1   -1    0    0    0  501 -0.00000000000E+00 -0.00000000000E+00 -0.23771049391E+02  0.23771049391E+02  0.00000000000E+00 0.  1.
         25    2    1    2    0    0 -0.62587597063E+02 -0.10985288514E+02  0.53450996339E+03  0.55261782513E+03  0.12509067038E+03 0.  0.
          5    1    3    3  502    0  0.32109918207E+02 -0.19432908483E+02  0.82995892265E+02  0.91183744781E+02  0.41800000000E+01 0.  1.
         -5    1    3    3    0  502 -0.94697515270E+02  0.84476199682E+01  0.45151407113E+03  0.46143408035E+03  0.41800000000E+01 0.  1.
        -11    1    1    2    0    0  0.39771620406E+02 -0.21861910607E+02  0.28551690983E+02  0.53618317608E+02  0.00000000000E+00 0.  1.
         11    1    1    2    0    0  0.22815976657E+02  0.32847199121E+02  0.18092630847E+03  0.18529391889E+03  0.00000000000E+00 0. -1.
</event>
<event>
 7    1  0.2619826E-009  0.1037059E+03  0.7561462E-02  0.1272690E+00
         -1   -1    0    0    0  501 -0.00000000000E+00  0.00000000000E+00  0.41913870757E+03  0.41913870757E+03  0.00000000000E+00 0.  1.
          1   -1    0    0  501    0  0.00000000000E+00 -0.00000000000E+00 -0.36079556082E+02  0.36079556082E+02  0.00000000000E+00 0. -1.
         25    2    1    2    0    0  0.29292388247E+02  0.11292335353E+01  0.30099032791E+03  0.32726483416E+03  0.12509106684E+03 0.  0.
          5    1    3    3  502    0 -0.65674854862E+01  0.55272422171E+02  0.85040766893E+02  0.10172304042E+03  0.41800000000E+01 0.  1.
         -5    1    3    3    0  502  0.35859873733E+02 -0.54143188636E+02  0.21594956102E+03  0.22554179374E+03  0.41800000000E+01 0.  1.
        -11    1    1    2    0    0  0.14488982939E+02 -0.30521123019E+02  0.63714846440E+02  0.72118314136E+02  0.00000000000E+00 0.  1.
         11    1    1    2    0    0 -0.43781371186E+02  0.29391889484E+02  0.18353977141E+02  0.55835115360E+02  0.00000000000E+00 0. -1.
</event>
<event>
 7    1  0.2619826E-009  0.2816197E+03  0.7561462E-02  0.1094808E+00
          1   -1    0    0  501    0  0.00000000000E+00  0.00000000000E+00  0.11860192684E+04  0.11860192684E+04  0.00000000000E+00 0. -1.
         -1   -1    0    0    0  501 -0.00000000000E+00 -0.00000000000E+00 -0.10251294847E+03  0.10251294847E+03  0.00000000000E+00 0.  1.
         25    2    1    2    0    0 -0.25254241992E+03 -0.66170641525E+02  0.92630532191E+03  0.97048689347E+03  0.12508810234E+03 0.  0.
          5    1    3    3  502    0 -0.87047247022E+01  0.26709479223E+02  0.99723267926E+02  0.10368881848E+03  0.41800000000E+01 0. -1.
         -5    1    3    3    0  502 -0.24383769522E+03 -0.92880120748E+02  0.82658205398E+03  0.86679807499E+03  0.41800000000E+01 0. -1.
        -11    1    1    2    0    0  0.17624391776E+02  0.31936606047E+02  0.36971706462E+02  0.51937203140E+02  0.00000000000E+00 0. -1.
         11    1    1    2    0    0  0.23491802815E+03  0.34234035477E+02  0.12022929160E+03  0.26610812030E+03  0.00000000000E+00 0.  1.
</event>
<event>
 7    1  0.2619826E-009  0.1449080E+03  0.7561462E-02  0.1206873E+00
         -1   -1    0    0    0  501 -0.00000000000E+00  0.00000000000E+00  0.26714344867E+02  0.26714344867E+02  0.00000000000E+00 0.  1.
          1   -1    0    0  501    0  0.00000000000E+00 -0.00000000000E+00 -0.94607510919E+03  0.94607510919E+03  0.00000000000E+00 0. -1.
         25    2    1    2    0    0 -0.66707781905E+01  0.11528884955E+03 -0.49769491142E+03  0.52600740162E+03  0.12509014188E+03 0.  0.
          5    1    3    3  502    0 -0.38815954703E+02 -0.63964840043E+01 -0.72934058936E+02  0.82972541843E+02  0.41800000000E+01 0.  1.
         -5    1    3    3    0  502  0.32145176512E+02  0.12168533356E+03 -0.42476085248E+03  0.44303485978E+03  0.41800000000E+01 0.  1.
        -11    1    1    2    0    0 -0.19101424273E+02 -0.33386216567E+02 -0.39671680449E+02  0.55257090907E+02  0.00000000000E+00 0.  1.
         11    1    1    2    0    0  0.25772202463E+02 -0.81902632986E+02 -0.38199417246E+03  0.39152496153E+03  0.00000000000E+00 0. -1.
</event>
<event>
 7    1  0.2619826E-009  0.8524568E+02  0.7561462E-02  0.1314791E+00
          1   -1    0    0  501    0  0.00000000000E+00  0.00000000000E+00  0.64603935319E+02  0.64603935319E+02  0.00000000000E+00 0. -1.
         -1   -1    0    0    0  501 -0.00000000000E+00 -0.00000000000E+00 -0.25706690360E+03  0.25706690360E+03  0.00000000000E+00 0.  1.
         25    2    1    2    0    0  0.72006365421E+01 -0.59788784512E+02 -0.62601320608E+02  0.15229090075E+03  0.12508814968E+03 0.  0.
          5    1    3    3  502    0 -0.15924892234E+02  0.16305848522E+02  0.24871971598E+02  0.33993679705E+02  0.41800000000E+01 0. -1.
         -5    1    3    3    0  502  0.23125528777E+02 -0.76094633035E+02 -0.87473292206E+02  0.11829722105E+03  0.41800000000E+01 0. -1.
        -11    1    1    2    0    0  0.12092709618E+02  0.18463645179E+02  0.85336779995E+01  0.23663547482E+02  0.00000000000E+00 0. -1.
         11    1    1    2    0    0 -0.19293346160E+02  0.41325139333E+02 -0.13839532567E+03  0.14571639068E+03  0.00000000000E+00 0.  1.
</event>
<event>
 7    1  0.2619826E-009  0.1450473E+03  0.7561462E-02  0.1206694E+00
         -1   -1    0    0    0  501 -0.00000000000E+00  0.00000000000E+00  0.67941286598E+02  0.67941286598E+02  0.00000000000E+00 0.  1.
          1   -1    0    0  501    0  0.00000000000E+00 -0.00000000000E+00 -0.52732616479E+03  0.52732616479E+03  0.00000000000E+00 0. -1.
         25    2    1    2    0    0  0.10204554794E+03  0.22746376242E+02 -0.62822908880E+02  0.17471738355E+03  0.12509498291E+03 0.  0.
          5    1    3    3  502    0  0.10139256779E+03  0.58684631535E+02 -0.20450483606E+02  0.11899593885E+03  0.41800000000E+01 0. -1.
         -5    1    3    3    0  502  0.65298014655E+00 -0.35938255293E+02 -0.42372425274E+02  0.55721444706E+02  0.41800000000E+01 0. -1.
        -11    1    1    2    0    0 -0.31237157897E+02  0.33831266326E+02 -0.17978460344E+03  0.18558776427E+03  0.00000000000E+00 0. -1.
         11    1    1    2    0    0 -0.70808390044E+02 -0.56577642569E+02 -0.21677736588E+03  0.23496230356E+03  0.00000000000E+00 0.  1.
</event>
<event>
 7    1  0.2619826E-009  0.8644356E+02  0.7561462E-02  0.1311700E+00
         -1   -1    0    0    0  501 -0.00000000000E+00  0.00000000000E+00  0.11372334622E+03  0.11372334622E+03  0.00000000000E+00 0.  1.
          1   -1    0    0  501    0  0.00000000000E+00 -0.00000000000E+00 -0.14544679842E+03  0.14544679842E+03  0.00000000000E+00 0. -1.
         25    2    1    2    0    0  0.34417580362E+02 -0.22161391692E+02 -0.75620654573E+02  0.15179499735E+03  0.12509013032E+03 0.  0.
          5    1    3    3  502    0  0.48324950223E+02  0.31027019431E+02 -0.77594047715E+02  0.96624455443E+02  0.41800000000E+01 0. -1.
         -5    1    3    3    0  502 -0.13907369862E+02 -0.53188411122E+02  0.19733931420E+01  0.55170541910E+02  0.41800000000E+01 0. -1.
        -11    1    1    2    0    0 -0.16779531062E+02  0.34691398756E+02  0.66011966804E+02  0.76437069356E+02  0.00000000000E+00 0.  1.
         11    1    1    2    0    0 -0.17638049300E+02 -0.12530007065E+02 -0.22114764426E+02  0.30938077926E+02  0.00000000000E+00 0. -1.
</event>
<event>
 7    1  0.2619826E-009  0.2809744E+03  0.7561462E-02  0.1095158E+00
          2   -1    0    0  501    0  0.00000000000E+00  0.00000000000E+00  0.64644655446E+03  0.64644655446E+03  0.00000000000E+00 0. -1.
         -2   -1    0    0    0  501 -0.00000000000E+00 -0.00000000000E+00 -0.12568822235E+03  0.12568822235E+03  0.00000000000E+00 0.  1.
         25    2    1    2    0    0  0.20627313550E+03  0.16381453382E+03  0.27105392030E+03  0.39812278990E+03  0.12509084784E+03 0.  0.
          5    1    3    3  502    0  0.20227619078E+02  0.86439837544E+02  0.66800505833E+02  0.11117905409E+03  0.41800000000E+01 0.  1.
         -5    1    3    3    0  502  0.18604551642E+03  0.77374696272E+02  0.20425341446E+03  0.28694373581E+03  0.41800000000E+01 0.  1.
        -11    1    1    2    0    0 -0.12429494674E+03 -0.13770092146E+03  0.12967728268E+03  0.22633376947E+03  0.00000000000E+00 0.  1.
         11    1    1    2    0    0 -0.81978188754E+02 -0.26113612353E+02  0.12002712913E+03  0.14767821745E+03  0.00000000000E+00 0. -1.
</event>
<event>
 7    1  0.2619826E-009  0.1313354E+03  0.7561462E-02  0.1225488E+00
         -1   -1    0    0    0  501 -0.00000000000E+00  0.00000000000E+00  0.20734514356E+02  0.20734514356E+02  0.00000000000E+00 0.  1.
          1   -1    0    0  501    0  0.00000000000E+00 -0.00000000000E+00 -0.11043008307E+04  0.11043008307E+04  0.00000000000E+00 0. -1.
         25    2    1    2    0    0 -0.70972576896E+02  0.76768378147E+02 -0.59474202091E+03  0.61668174582E+03  0.12509122128E+03 0.  0.
          5    1    3    3  502    0 -0.29818320250E+01  0.61730915963E+02 -0.10433315020E+03  0.12133621033E+03  0.41800000000E+01 0. -1.
         -5    1    3    3    0  502 -0.67990744871E+02  0.15037462184E+02 -0.49040887071E+03  0.49534553549E+03  0.41800000000E+01 0. -1.
        -11    1    1    2    0    0 -0.16849040980E+02 -0.50706318177E+01 -0.23153284057E+02  0.29080509823E+02  0.00000000000E+00 0.  1.
         11    1    1    2    0    0  0.87821617876E+02 -0.71697746329E+02 -0.46567101142E+03  0.47927308945E+03  0.00000000000E+00 0. -1.
</event>
<event>
 7    1  0.2619826E-009  0.4592723E+02  0.7561462E-02  0.1468635E+00
          2   -1    0    0  501    0  0.00000000000E+00  0.00000000000E+00  0.16956093167E+03  0.16956093167E+03  0.00000000000E+00 0.  1.
         -2   -1    0    0    0  501 -0.00000000000E+00 -0.00000000000E+00 -0.88748909648E+02  0.88748909648E+02  0.00000000000E+00 0. -1.
         25    2    1    2    0    0 -0.14477669669E+02 -0.65322510187E+01  0.10129971190E+03  0.16174720214E+03  0.12509297561E+03 0.  0.
          5    1    3    3  502    0  0.29977747221E+01 -0.38746311416E+01  0.12870663001E+03  0.12886763918E+03  0.41800000000E+01 0. -1.
         -5    1    3    3    0  502 -0.17475444391E+02 -0.26576198770E+01 -0.27406918112E+02  0.32879562961E+02  0.41800000000E+01 0. -1.
        -11    1    1    2    0    0 -0.25758652317E+02  0.80456611205E+01 -0.42748730227E+02  0.50553879852E+02  0.00000000000E+00 0. -1.
         11    1    1    2    0    0  0.40236321986E+02 -0.15134101019E+01  0.22261040352E+02  0.46008759325E+02  0.00000000000E+00 0.  1.
</event>
<event>
 7    1  0.2619826E-009  0.1285580E+03  0.7561462E-02  0.1229611E+00
         -1   -1    0    0    0  501 -0.00000000000E+00  0.00000000000E+00  0.66666833615E+02  0.66666833615E+02  0.00000000000E+00 0.  1.
          1   -1    0    0  501    0  0.00000000000E+00 -0.00000000000E+00 -0.30677148731E+03  0.30677148731E+03  0.00000000000E+00 0. -1.
         25    2    1    2    0    0 -0.65491764903E+02  0.67116911798E+02 -0.12436697686E+03  0.19976947349E+03  0.12508735542E+03 0.  0.
          5    1    3    3  502    0 -0.80639432594E+02  0.19381627748E+02 -0.22272144966E+02  0.85976080538E+02  0.41800000000E+01 0.  1.
         -5    1    3    3    0  502  0.15147667692E+02  0.47735284050E+02 -0.10209483189E+03  0.11379339295E+03  0.41800000000E+01 0.  1.
        -11    1    1    2    0    0  0.31644587367E+02 -0.81208570272E+02 -0.56060642641E+02  0.10362918242E+03  0.00000000000E+00 0.  1.
         11    1    1    2    0    0  0.33847177536E+02  0.14091658473E+02 -0.59677034191E+02  0.70039665015E+02  0.00000000000E+00 0. -1.
</event>
<event>
 7    1  0.2619826E-009  0.1479945E+03  0.7561462E-02  0.1202959E+00
         -1   -1    0    0    0  501 -0.00000000000E+00  0.00000000000E+00  0.23191201093E+02  0.23191201093E+02  0.00000000000E+00 0.  1.
          1   -1    0    0  501    0  0.00000000000E+00 -0.00000000000E+00 -0.11546599658E+04  0.11546599658E+04  0.00000000000E+00 0. -1.
         25    2    1    2    0    0  0.10681442246E+03  0.37998938922E+02 -0.76485188759E+03  0.78326176664E+03  0.12508934775E+03 0.  0.
          5    1    3    3  502    0  0.61453298135E+02 -0.31055020741E+02 -0.52569201174E+03  0.53019853430E+03  0.41800000000E+01 0.  1.
         -5    1    3    3    0  502  0.45361124321E+02  0.69053959663E+02 -0.23915987585E+03  0.25306323234E+03  0.41800000000E+01 0.  1.
        -11    1    1    2    0    0 -0.48151745837E+02  0.28223269854E+02 -0.11401027712E+03  0.12693891002E+03  0.00000000000E+00 0. -1.
         11    1    1    2    0    0 -0.58662676619E+02 -0.66222208776E+02 -0.25260660004E+03  0.26765049028E+03  0.00000000000E+00 0.  1.
</event>
<event>
 7    1  0.2643562E-009  0.9386155E+02  0.7561462E-02  0.1293761E+00
         -2   -1    0    0    0  501 -0.00000000000E+00  0.00000000000E+00  0.11280055043E+03  0.11280055043E+03  0.00000000000E+00 0.  1.
          2   -1    0    0  501    0  0.00000000000E+00 -0.00000000000E+00 -0.13453770116E+03  0.13453770116E+03  0.00000000000E+00 0. -1.
         25    2    1    2    0    0  0.11459193213E+02 -0.51973787006E+02  0.13670922253E+02  0.13661379384E+03  0.12507536491E+03 0.  0.
          5    1    3    3  502    0 -0.53075151316E+02 -0.48672189652E+01 -0.71605704711E+01  0.53938925436E+02  0.41800000000E+01 0.  1.
         -5    1    3    3    0  502  0.64534344530E+02 -0.47106568040E+02  0.20831492724E+02  0.82674868403E+02  0.41800000000E+01 0.  1.
        -11    1    1    2    0    0 -0.13230287000E+02  0.39536237597E+02  0.25275203034E+02  0.48754389196E+02  0.00000000000E+00 0.  1.
         11    1    1    2    0    0  0.17710937872E+01  0.12437549409E+02 -0.60683276014E+02  0.61970068552E+02  0.00000000000E+00 0. -1.
</event>
<event>
 7    1  0.2619826E-009  0.1866301E+03  0.7561462E-02  0.1161536E+00
          1   -1    0    0  501    0  0.00000000000E+00  0.00000000000E+00  0.14662687842E+04  0.14662687842E+04  0.00000000000E+00 0. -1.
         -1   -1    0    0    0  501 -0.00000000000E+00 -0.00000000000E+00 -0.34901809084E+02  0.34901809084E+02  0.00000000000E+00 0.  1.
         25    2    1    2    0    0 -0.86611481305E+02 -0.14306556984E+03  0.38913541524E+03  0.44163668381E+03  0.12508910075E+03 0.  0.
          5    1    3    3  502    0 -0.78087677691E+01 -0.88704865290E+02  0.86584677112E+02  0.12427352369E+03  0.41800000000E+01 0.  1.
         -5    1    3    3    0  502 -0.78802713536E+02 -0.54360704548E+02  0.30255073812E+03  0.31736316012E+03  0.41800000000E+01 0.  1.
        -11    1    1    2    0    0  0.16726652364E+02 -0.10375329434E+02  0.66875507092E+02  0.69711991859E+02  0.00000000000E+00 0.  1.
         11    1    1    2    0    0  0.69884828941E+02  0.15344089927E+03  0.97535605281E+03  0.98982191764E+03  0.00000000000E+00 0. -1.
</event>
<event>
 7    1  0.2619826E-009  0.2239496E+03  0.7561462E-02  0.1130972E+00
          2   -1    0    0  501    0  0.00000000000E+00  0.00000000000E+00  0.50086529223E+02  0.50086529223E+02  0.00000000000E+00 0. -1.
         -2   -1    0    0    0  501 -0.00000000000E+00 -0.00000000000E+00 -0.11225370164E+04  0.11225370164E+04  0.00000000000E+00 0.  1.
         25    2    1    2    0    0 -0.18443981735E+03  0.10063727223E+03 -0.58730232639E+03  0.63617417818E+03  0.12509058962E+03 0.  0.
          5    1    3    3  502    0 -0.78342419571E+02  0.82167678081E+02 -0.16494564477E+03  0.20028379903E+03  0.41800000000E+01 0. -1.
         -5    1    3    3    0  502 -0.10609739778E+03  0.18469594148E+02 -0.42235668162E+03  0.43589037915E+03  0.41800000000E+01 0. -1.
        -11    1    1    2    0    0  0.10190082535E+03 -0.10170657569E+03 -0.26956328711E+03  0.30560165494E+03  0.00000000000E+00 0. -1.
         11    1    1    2    0    0  0.82538992002E+02  0.10693034608E+01 -0.21558487371E+03  0.23084771253E+03  0.00000000000E+00 0.  1.
</event>
<event>
 7    1  0.2619826E-009  0.3177837E+03  0.7561462E-02  0.1076674E+00
          1   -1    0    0  501    0  0.00000000000E+00  0.00000000000E+00  0.63616486840E+03  0.63616486840E+03  0.00000000000E+00 0. -1.
         -1   -1    0    0    0  501 -0.00000000000E+00 -0.00000000000E+00 -0.17575491935E+03  0.17575491935E+03  0.00000000000E+00 0.  1.
         25    2    1    2    0    0  0.22571454957E+03 -0.21834181821E+03  0.19202561891E+03  0.38876873486E+03  0.12508830249E+03 0.  0.
          5    1    3    3  502    0  0.68201489654E+02 -0.50852421097E+02 -0.58767343344E+01  0.85378102162E+02  0.41800000000E+01 0.  1.
         -5    1    3    3    0  502  0.15751305992E+03 -0.16748939712E+03  0.19790235324E+03  0.30339063270E+03  0.41800000000E+01 0.  1.
        -11    1    1    2    0    0 -0.18432210455E+03  0.20770332477E+03  0.19891495648E+03  0.34158815737E+03  0.00000000000E+00 0.  1.
         11    1    1    2    0    0 -0.41392445024E+02  0.10638493442E+02  0.69469373666E+02  0.81562895518E+02  0.00000000000E+00 0. -1.
</event>
<event>
 7    1  0.2619826E-009  0.1657507E+03  0.7561462E-02  0.1182353E+00
         -4   -1    0    0    0  501 -0.00000000000E+00  0.00000000000E+00  0.34991325119E+03  0.34991325119E+03  0.00000000000E+00 0.  1.
          4   -1    0    0  501    0  0.00000000000E+00 -0.00000000000E+00 -0.98678458788E+02  0.98678458788E+02  0.00000000000E+00 0. -1.
         25    2    1    2    0    0 -0.14700880312E+03  0.32323230222E+02  0.12437729955E+03  0.23189020110E+03  0.12508786239E+03 0.  0.
          5    1    3    3  502    0 -0.13710517703E+03  0.16536168137E+02  0.14736531399E+03  0.20200317471E+03  0.41800000000E+01 0. -1.
         -5    1    3    3    0  502 -0.99036260885E+01  0.15787062085E+02 -0.22988014437E+02  0.29887026395E+02  0.41800000000E+01 0. -1.
        -11    1    1    2    0    0  0.97052076933E+02 -0.62915003078E+02  0.97001689092E+02  0.15095274405E+03  0.00000000000E+00 0.  1.
         11    1    1    2    0    0  0.49956726188E+02  0.30591772856E+02  0.29855803760E+02  0.65748764825E+02  0.00000000000E+00 0. -1.
</event>
<event>
 7    1  0.2619826E-009  0.1081021E+03  0.7561462E-02  0.1264125E+00
          3   -1    0    0  501    0  0.00000000000E+00  0.00000000000E+00  0.33413510587E+02  0.33413510587E+02  0.00000000000E+00 0. -1.
         -3   -1    0    0    0  501 -0.00000000000E+00 -0.00000000000E+00 -0.62593533801E+03  0.62593533801E+03  0.00000000000E+00 0.  1.
         25    2    1    2    0    0  0.35206811303E+02  0.75475712915E+02 -0.42007528650E+03  0.44614859680E+03  0.12509684769E+03 0.  0.
          5    1    3    3  502    0  0.50943380561E+02  0.47643716226E+02 -0.87328686087E+02  0.11184329901E+03  0.41800000000E+01 0.  1.
         -5    1    3    3    0  502 -0.15736569258E+02  0.27831996689E+02 -0.33274660041E+03  0.33430529780E+03  0.41800000000E+01 0.  1.
        -11    1    1    2    0    0  0.18589908062E+02 -0.52302816936E+02 -0.40121293087E+02  0.68490054024E+02  0.00000000000E+00 0.  1.
         11    1    1    2    0    0 -0.53796719365E+02 -0.23172895979E+02 -0.13232524784E+03  0.14471019777E+03  0.00000000000E+00 0. -1.
</event>
<event>
 7    1  0.2976290E-009  0.1451523E+03  0.7561462E-02  0.1206560E+00
          2   -1    0    0  501    0  0.00000000000E+00  0.00000000000E+00  0.70702263812E+03  0.70702263812E+03  0.00000000000E+00 0. -1.
         -2   -1    0    0    0  501 -0.00000000000E+00 -0.00000000000E+00 -0.35503954273E+02  0.35503954273E+02  0.00000000000E+00 0.  1.
         25    2    1    2    0    0  0.15267696332E+02  0.10550410481E+03  0.25834409320E+03  0.30619184146E+03  0.12509018586E+03 0.  0.
          5    1    3    3  502    0 -0.48117346005E+02  0.14629040631E+02  0.55432022738E+02  0.74963120007E+02  0.41800000000E+01 0.  1.
         -5    1    3    3    0  502  0.63385042337E+02  0.90875064182E+02  0.20291207047E+03  0.23122872145E+03  0.41800000000E+01 0.  1.
        -11    1    1    2    0    0  0.29005817679E+02 -0.32298811826E+02  0.23136190457E+03  0.23539940864E+03  0.00000000000E+00 0.  1.
         11    1    1    2    0    0 -0.44273514011E+02 -0.73205292987E+02  0.18181268608E+03  0.20093534229E+03  0.00000000000E+00 0. -1.
</event>
<event>
 7    1  0.2619826E-009  0.1554336E+03  0.7561462E-02  0.1193951E+00
          2   -1    0    0  501    0  0.00000000000E+00  0.00000000000E+00  0.12098475353E+04  0.12098475353E+04  0.00000000000E+00 0. -1.
         -2   -1    0    0    0  501 -0.00000000000E+00 -0.00000000000E+00 -0.20587255780E+02  0.20587255780E+02  0.00000000000E+00 0.  1.
         25    2    1    2    0    0 -0.42843152899E+02  0.10540941771E+03  0.61063899696E+03  0.63362463000E+03  0.12511397222E+03 0.  0.
          5    1    3    3  502    0 -0.52415260783E+02  0.12974071911E+03  0.54842945042E+03  0.56601444173E+03  0.41800000000E+01 0. -1.
         -5    1    3    3    0  502  0.95721078837E+01 -0.24331301407E+02  0.62209546538E+02  0.67610188271E+02  0.41800000000E+01 0. -1.
        -11    1    1    2    0    0 -0.25983848536E+02 -0.12669171474E+02  0.82303695621E+02  0.87232829849E+02  0.00000000000E+00 0.  1.
         11    1    1    2    0    0  0.68827001435E+02 -0.92740246232E+02  0.49631758693E+03  0.50957733122E+03  0.00000000000E+00 0. -1.
</event>
<event>
 7    1  0.2619826E-009  0.1461914E+03  0.7561462E-02  0.1205233E+00
         -2   -1    0    0    0  501 -0.00000000000E+00  0.00000000000E+00  0.10085756424E+03  0.10085756424E+03  0.00000000000E+00 0.  1.
          2   -1    0    0  501    0  0.00000000000E+00 -0.00000000000E+00 -0.28389852841E+03  0.28389852841E+03  0.00000000000E+00 0. -1.
         25    2    1    2    0    0  0.10309825343E+03  0.21618026040E+02 -0.10355412021E+02  0.16386253815E+03  0.12508840051E+03 0.  0.
          5    1    3    3  502    0  0.11246588181E+03 -0.25401758342E+02 -0.88446309561E+01  0.11571310987E+03  0.41800000000E+01 0.  1.
         -5    1    3    3    0  502 -0.93676283830E+01  0.47019784381E+02 -0.15107810646E+01  0.48149428285E+02  0.41800000000E+01 0.  1.
        -11    1    1    2    0    0 -0.48986806067E+02 -0.48086684452E+02 -0.52368728488E+02  0.86339562853E+02  0.00000000000E+00 0.  1.
         11    1    1    2    0    0 -0.54111447362E+02  0.26468658413E+02 -0.12031682366E+03  0.13455399165E+03  0.00000000000E+00 0. -1.
</event>
<event>
 7    1  0.2619826E-009  0.6471308E+02  0.7561462E-02  0.1379054E+00
          3   -1    0    0  501    0  0.00000000000E+00  0.00000000000E+00  0.35792095935E+02  0.35792095935E+02  0.00000000000E+00 0. -1.
         -3   -1    0    0    0  501 -0.00000000000E+00 -0.00000000000E+00 -0.40626455671E+03  0.40626455671E+03  0.00000000000E+00 0.  1.
         25    2    1    2    0    0  0.29999894242E+02 -0.37716747387E+02 -0.24309903503E+03  0.27760652010E+03  0.12508274255E+03 0.  0.
          5    1    3    3  502    0  0.32306725846E+02 -0.96390889689E+01 -0.11548647644E+01  0.33991803184E+02  0.41800000000E+01 0.  1.
         -5    1    3    3    0  502 -0.23068316040E+01 -0.28077658419E+02 -0.24194417026E+03  0.24361471692E+03  0.41800000000E+01 0.  1.
        -11    1    1    2    0    0  0.10728925692E+02  0.19711307216E+02 -0.11645795627E+03  0.11860059468E+03  0.00000000000E+00 0.  1.
         11    1    1    2    0    0 -0.40728819934E+02  0.18005440172E+02 -0.10915469478E+02  0.45849537871E+02  0.00000000000E+00 0. -1.
</event>
<event>
 7    1  0.2619826E-009  0.1026500E+03  0.7561462E-02  0.1274820E+00
         -1   -1    0    0    0  501 -0.00000000000E+00  0.00000000000E+00  0.22207872655E+02  0.22207872655E+02  0.00000000000E+00 0.  1.
          1   -1    0    0  501    0  0.00000000000E+00 -0.00000000000E+00 -0.57307863380E+03  0.57307863380E+03  0.00000000000E+00 0. -1.
         25    2    1    2    0    0  0.25060218829E+02  0.22621401690E+01 -0.34051559351E+03  0.36363677438E+03  0.12509077669E+03 0.  0.
          5    1    3    3  502    0 -0.35336419395E+02  0.39717629609E+02 -0.18631019839E+03  0.19379142153E+03  0.41800000000E+01 0. -1.
         -5    1    3    3    0  502  0.60396638224E+02 -0.37455489440E+02 -0.15420539512E+03  0.16984535285E+03  0.41800000000E+01 0. -1.
        -11    1    1    2    0    0 -0.32840939253E+02  0.31877806922E+02 -0.51139741383E+02  0.68629403420E+02  0.00000000000E+00 0.  1.
         11    1    1    2    0    0  0.77807204235E+01 -0.34139947092E+02 -0.15921542626E+03  0.16302032866E+03  0.00000000000E+00 0. -1.
</event>
<event>
 7    1  0.2619826E-009  0.9597696E+02  0.7561462E-02  0.1288991E+00
          2   -1    0    0  501    0  0.00000000000E+00  0.00000000000E+00  0.64326466354E+03  0.64326466354E+03  0.00000000000E+00 0. -1.
         -2   -1    0    0    0  501 -0.00000000000E+00 -0.00000000000E+00 -0.21812928327E+02  0.21812928327E+02  0.00000000000E+00 0.  1.
         25    2    1    2    0    0 -0.51185039170E+01 -0.49535366014E+02  0.35242412885E+03  0.37726776007E+03  0.12509294395E+03 0.  0.
          5    1    3    3  502    0 -0.51504741147E+02 -0.38976249647E+02  0.91915807718E+02  0.11241830147E+03  0.41800000000E+01 0.  1.
         -5    1    3    3    0  502  0.46386237230E+02 -0.10559116367E+02  0.26050832113E+03  0.26484945860E+03  0.41800000000E+01 0.  1.
        -11    1    1    2    0    0 -0.28399471902E+02  0.26128607116E+02  0.22271876434E+03  0.22603734670E+03  0.00000000000E+00 0. -1.
         11    1    1    2    0    0  0.33517975819E+02  0.23406758897E+02  0.46308842022E+02  0.61772485093E+02  0.00000000000E+00 0.  1.
</event>
<event>
 7    1  0.2619826E-009  0.1014674E+03  0.7561462E-02  0.1277240E+00
          2   -1    0    0  501    0  0.00000000000E+00  0.00000000000E+00  0.32991367093E+03  0.32991367093E+03  0.00000000000E+00 0.  1.
         -2   -1    0    0    0  501 -0.00000000000E+00 -0.00000000000E+00 -0.37744114550E+02  0.37744114550E+02  0.00000000000E+00 0. -1.
         25    2    1    2    0    0 -0.30862041548E+02  0.62905178519E+01  0.17681782282E+03  0.21887006657E+03  0.12509007694E+03 0.  0.
          5    1    3    3  502    0 -0.58817292132E+02  0.45733276688E+02  0.73583773928E+02  0.10480005074E+03  0.41800000000E+01 0. -1.
         -5    1    3    3    0  502  0.27955250584E+02 -0.39442758836E+02  0.10323404889E+03  0.11407001583E+03  0.41800000000E+01 0. -1.
        -11    1    1    2    0    0  0.51019871804E+02  0.12172644616E+02  0.32884116868E+02  0.61907719535E+02  0.00000000000E+00 0.  1.
         11    1    1    2    0    0 -0.20157830256E+02 -0.18463162468E+02  0.82467616689E+02  0.86879999374E+02  0.00000000000E+00 0. -1.
</event>
<event>
 7    1  0.2619826E-009  0.2036335E+03  0.7561462E-02  0.1146709E+00
         -1   -1    0    0    0  501 -0.00000000000E+00  0.00000000000E+00  0.24302151065E+03  0.24302151065E+03  0.00000000000E+00 0.  1.
          1   -1    0    0  501    0  0.00000000000E+00 -0.00000000000E+00 -0.19386891187E+03  0.19386891187E+03  0.00000000000E+00 0. -1.
         25    2    1    2    0    0 -0.17754827318E+03  0.50026032907E+02  0.59738266284E+02  0.23074939032E+03  0.12510246759E+03 0.  0.
          5    1    3    3  502    0  0.19019065094E+02 -0.66394793979E+00  0.16060346634E+01  0.19550381358E+02  0.41800000000E+01 0. -1.
         -5    1    3    3    0  502 -0.19656733827E+03  0.50689980846E+02  0.58132231621E+02  0.21119900896E+03  0.41800000000E+01 0. -1.
        -11    1    1    2    0    0  0.61273219953E+02 -0.22314865322E+02  0.39830391795E+02  0.76412177094E+02  0.00000000000E+00 0.  1.
         11    1    1    2    0    0  0.11627505323E+03 -0.27711167585E+02 -0.50416059299E+02  0.12972885510E+03  0.00000000000E+00 0. -1.
</event>
<event>
 7    1  0.2619826E-009  0.1882413E+03  0.7561462E-02  0.1160057E+00
          2   -1    0    0  501    0  0.00000000000E+00  0.00000000000E+00  0.41780115797E+03  0.41780115797E+03  0.00000000000E+00 0.  1.
         -2   -1    0    0    0  501 -0.00000000000E+00 -0.00000000000E+00 -0.92223125276E+02  0.92223125276E+02  0.00000000000E+00 0. -1.
         25    2    1    2    0    0 -0.94240588427E+02 -0.13263144296E+03  0.15889256006E+03  0.25954134854E+03  0.12506989164E+03 0.  0.
          5    1    3    3  502    0 -0.11173501685E+03 -0.14097098558E+03  0.12117197259E+03  0.21692775781E+03  0.41800000000E+01 0. -1.
         -5    1    3    3    0  502  0.17494428422E+02  0.83395426204E+01  0.37720587462E+02  0.42613590736E+02  0.41800000000E+01 0. -1.
        -11    1    1    2    0    0  0.10179876194E+02  0.72893048043E+02  0.11127573038E+03  0.13341407161E+03  0.00000000000E+00 0.  1.
         11    1    1    2    0    0  0.84060712233E+02  0.59738394916E+02  0.55409742261E+02  0.11706886309E+03  0.00000000000E+00 0. -1.
</event>
<event>
 7    1  0.2619826E-009  0.9368463E+02  0.7561462E-02  0.1294166E+00
         -2   -1    0    0    0  501 -0.00000000000E+00  0.00000000000E+00  0.63258278038E+02  0.63258278038E+02  0.00000000000E+00 0.  1.
          2   -1    0    0  501    0  0.00000000000E+00 -0.00000000000E+00 -0.18681889150E+03  0.18681889150E+03  0.00000000000E+00 0. -1.
         25    2    1    2    0    0  0.25929410517E+01 -0.29214608304E+01 -0.85860348059E+02  0.15177359843E+03  0.12509183640E+03 0.  0.
          5    1    3    3  502    0  0.38470981854E+02  0.46482919935E+02 -0.60435414539E+02  0.85501988404E+02  0.41800000000E+01 0. -1.
         -5    1    3    3    0  502 -0.35878040803E+02 -0.49404380766E+02 -0.25424933520E+02  0.66271610024E+02  0.41800000000E+01 0. -1.
        -11    1    1    2    0    0  0.13520219057E+02  0.30715321588E+02 -0.52990800317E+02  0.62723617736E+02  0.00000000000E+00 0. -1.
         11    1    1    2    0    0 -0.16113160109E+02 -0.27793860758E+02  0.15290534911E+02  0.35579953378E+02  0.00000000000E+00 0.  1.
</event>
<event>
 7    1  0.2619826E-009  0.1064314E+03  0.7561462E-02  0.1267325E+00
          2   -1    0    0  501    0  0.00000000000E+00  0.00000000000E+00  0.45512417193E+03  0.45512417193E+03  0.00000000000E+00 0. -1.
         -2   -1    0    0    0  501 -0.00000000000E+00 -0.00000000000E+00 -0.33515668111E+02  0.33515668111E+02  0.00000000000E+00 0.  1.
         25    2    1    2    0    0 -0.26115771326E+02  0.83063922643E+01  0.34166740969E+03  0.36488629787E+03  0.12511739235E+03 0.  0.
          5    1    3    3  502    0 -0.62944542684E+02 -0.33547747060E+02  0.17216951682E+03  0.18640622765E+03  0.41800000000E+01 0. -1.
         -5    1    3    3    0  502  0.36828771359E+02  0.41854139325E+02  0.16949789287E+03  0.17848007022E+03  0.41800000000E+01 0. -1.
        -11    1    1    2    0    0  0.52932652780E+02 -0.19551110888E+02  0.75623348580E+02  0.94355723291E+02  0.00000000000E+00 0. -1.
         11    1    1    2    0    0 -0.26816881455E+02  0.11244718624E+02  0.43177455484E+01  0.29397818873E+02  0.00000000000E+00 0.  1.
</event>
<event>
 7    1  0.2619826E-009  0.9696271E+02  0.7561462E-02  0.1286816E+00
          1   -1    0    0  501    0  0.00000000000E+00  0.00000000000E+00  0.78815558392E+03  0.78815558392E+03  0.00000000000E+00 0. -1.
         -1   -1    0    0    0  501 -0.00000000000E+00 -0.00000000000E+00 -0.17039440237E+02  0.17039440237E+02  0.00000000000E+00 0.  1.
         25    2    1    2    0    0  0.31122092676E+02 -0.23161017879E+02  0.49379447472E+03  0.51086745753E+03  0.12509020144E+03 0.  0.
          5    1    3    3  502    0 -0.19233331202E+02 -0.45904414453E+02  0.39020930506E+03  0.39339281952E+03  0.41800000000E+01 0. -1.
         -5    1    3    3    0  502  0.50355423879E+02  0.22743396574E+02  0.10358516965E+03  0.11747463800E+03  0.41800000000E+01 0. -1.
        -11    1    1    2    0    0 -0.30076133862E+02 -0.25781842189E+02  0.62486125104E+02  0.73985086641E+02  0.00000000000E+00 0.  1.
         11    1    1    2    0    0 -0.10459588144E+01  0.48942860068E+02  0.21483554386E+03  0.22034247998E+03  0.00000000000E+00 0. -1.
</event>
<event>
 7    1  0.2619826E-009  0.2036790E+03  0.7561462E-02  0.1146672E+00
         -4   -1    0    0    0  501 -0.00000000000E+00  0.00000000000E+00  0.40218380140E+03  0.40218380140E+03  0.00000000000E+00 0.  1.
          4   -1    0    0  501    0  0.00000000000E+00 -0.00000000000E+00 -0.12883857011E+03  0.12883857011E+03  0.00000000000E+00 0. -1.
         25    2    1    2    0    0  0.72877269070E+02  0.18516247451E+03  0.12605082758E+03  0.26671001190E+03  0.12509668661E+03 0.  0.
          5    1    3    3  502    0  0.61889757009E+02  0.93685589436E+02  0.13313194902E+03  0.17420941404E+03  0.41800000000E+01 0.  1.
         -5    1    3    3    0  502  0.10987512061E+02  0.91476885073E+02 -0.70811214377E+01  0.92500597862E+02  0.41800000000E+01 0.  1.
        -11    1    1    2    0    0 -0.56975502079E+00 -0.45452086256E+02  0.82468226899E+02  0.94165945085E+02  0.00000000000E+00 0.  1.
         11    1    1    2    0    0 -0.72307514049E+02 -0.13971038825E+03  0.64826176807E+02  0.17014641452E+03  0.00000000000E+00 0. -1.
</event>
<event>
 7    1  0.2619826E-009  0.1219546E+03  0.7561462E-02  0.1239907E+00
          1   -1    0    0  501    0  0.00000000000E+00  0.00000000000E+00  0.44533734373E+03  0.44533734373E+03  0.00000000000E+00 0. -1.
         -1   -1    0    0    0  501 -0.00000000000E+00 -0.00000000000E+00 -0.44864989707E+02  0.44864989707E+02  0.00000000000E+00 0.  1.
         25    2    1    2    0    0  0.62226306692E+02 -0.58387175674E+02  0.16299343914E+03  0.22247601295E+03  0.12509012594E+03 0.  0.
          5    1    3    3  502    0  0.97013973173E+02 -0.46726125808E+02  0.14691728667E+03  0.18220099710E+03  0.41800000000E+01 0.  1.
         -5    1    3    3    0  502 -0.34787666481E+02 -0.11661049866E+02  0.16076152468E+02  0.40275015846E+02  0.41800000000E+01 0.  1.
        -11    1    1    2    0    0 -0.48086375473E+01  0.37981148323E+02  0.22783631900E+02  0.44550920367E+02  0.00000000000E+00 0.  1.
         11    1    1    2    0    0 -0.57417669144E+02  0.20406027351E+02  0.21469528299E+03  0.22317540012E+03  0.00000000000E+00 0. -1.
</event>
<event>
 7    1  0.2619826E-009  0.1119854E+03  0.7561462E-02  0.1256937E+00
         -1   -1    0    0    0  501 -0.00000000000E+00  0.00000000000E+00  0.24915733320E+02  0.24915733320E+02  0.00000000000E+00 0.  1.
          1   -1    0    0  501    0  0.00000000000E+00 -0.00000000000E+00 -0.60531772503E+03  0.60531772503E+03  0.00000000000E+00 0. -1.
         25    2    1    2    0    0  0.17859607070E+02  0.31006507132E+02 -0.44172600976E+03  0.46048890926E+03  0.12509116196E+03 0.  0.
          5    1    3    3  502    0 -0.49151643014E+02  0.35636545791E+02 -0.17039574216E+03  0.18093653239E+03  0.41800000000E+01 0.  1.
         -5    1    3    3    0  502  0.67011250084E+02 -0.46300386590E+01 -0.27133026760E+03  0.27955237687E+03  0.41800000000E+01 0.  1.
        -11    1    1    2    0    0 -0.12242317821E+02 -0.62569511122E+02 -0.74873466084E+02  0.98340500259E+02  0.00000000000E+00 0.  1.
         11    1    1    2    0    0 -0.56172892487E+01  0.31563003990E+02 -0.63802515868E+02  0.71404048837E+02  0.00000000000E+00 0. -1.
</event>
<event>
 7    1  0.2619826E-009  0.2779829E+03  0.7561462E-02  0.1096796E+00
          2   -1    0    0  501    0  0.00000000000E+00  0.00000000000E+00  0.81477627900E+03  0.81477627900E+03  0.00000000000E+00 0. -1.
         -2   -1    0    0    0  501 -0.00000000000E+00 -0.00000000000E+00 -0.15648367874E+03  0.15648367874E+03  0.00000000000E+00 0.  1.
         25    2    1    2    0    0 -0.24112412030E+03 -0.11449370832E+03  0.62109328647E+03  0.68749818577E+03  0.12508890560E+03 0.  0.
          5    1    3    3  502    0 -0.64691564578E+02  0.15939659685E+02  0.83963880619E+02  0.10726824752E+03  0.41800000000E+01 0. -1.
         -5    1    3    3    0  502 -0.17643255573E+03 -0.13043336800E+03  0.53712940585E+03  0.58022993825E+03  0.41800000000E+01 0. -1.
        -11    1    1    2    0    0  0.81634206761E+02  0.59634819086E+02 -0.24753105533E+02  0.10408252300E+03  0.00000000000E+00 0. -1.
         11    1    1    2    0    0  0.15948991354E+03  0.54858889229E+02  0.61952419320E+02  0.17967924897E+03  0.00000000000E+00 0.  1.
</event>
<event>
 7    1  0.2619826E-009  0.1206544E+03  0.7561462E-02  0.1242021E+00
          3   -1    0    0  501    0  0.00000000000E+00  0.00000000000E+00  0.20058848609E+03  0.20058848609E+03  0.00000000000E+00 0. -1.
         -3   -1    0    0    0  501 -0.00000000000E+00 -0.00000000000E+00 -0.78684623027E+02  0.78684623027E+02  0.00000000000E+00 0.  1.
         25    2    1    2    0    0  0.33546793366E+02 -0.45692643604E+02  0.35797685775E+02  0.14192180348E+03  0.12508844460E+03 0.  0.
          5    1    3    3  502    0  0.75155354568E+01 -0.86808627157E+02  0.32051845327E+02  0.92935537934E+02  0.41800000000E+01 0.  1.
         -5    1    3    3    0  502  0.26031257909E+02  0.41115983554E+02  0.37458404480E+01  0.48986265551E+02  0.41800000000E+01 0.  1.
        -11    1    1    2    0    0 -0.53383335438E+02  0.60346802232E+02  0.54543904504E+02  0.97296220690E+02  0.00000000000E+00 0. -1.
         11    1    1    2    0    0  0.19836542072E+02 -0.14654158628E+02  0.31562272787E+02  0.40055084945E+02  0.00000000000E+00 0.  1.
</event>
<event>
 7    1  0.2619826E-009  0.1168051E+03  0.7561462E-02  0.1248463E+00
          2   -1    0    0  501    0  0.00000000000E+00  0.00000000000E+00  0.18304939677E+03  0.18304939677E+03  0.00000000000E+00 0. -1.
         -2   -1    0    0    0  501 -0.00000000000E+00 -0.00000000000E+00 -0.99978319232E+02  0.99978319232E+02  0.00000000000E+00 0.  1.
         25    2    1    2    0    0 -0.53775435796E+02 -0.48502838106E+02  0.83947367462E+02  0.16714447863E+03  0.12508314608E+03 0.  0.
          5    1    3    3  502    0 -0.74632130599E+02  0.16112957409E+02  0.46412759685E+02  0.89449421327E+02  0.41800000000E+01 0.  1.
         -5    1    3    3    0  502  0.20856694803E+02 -0.64615795515E+02  0.37534607776E+02  0.77695057302E+02  0.41800000000E+01 0.  1.
        -11    1    1    2    0    0  0.47749661986E+02  0.59672689314E+02 -0.31554503892E+02  0.82683413002E+02  0.00000000000E+00 0.  1.
         11    1    1    2    0    0  0.60257738095E+01 -0.11169851208E+02  0.30678213972E+02  0.33199824375E+02  0.00000000000E+00 0. -1.
</event>
<event>
 7    1  0.2619826E-009  0.1724681E+03  0.7561462E-02  0.1175298E+00
         -2   -1    0    0    0  501 -0.00000000000E+00  0.00000000000E+00  0.76462375043E+02  0.76462375043E+02  0.00000000000E+00 0.  1.
          2   -1    0    0  501    0  0.00000000000E+00 -0.00000000000E+00 -0.53186633768E+03  0.53186633768E+03  0.00000000000E+00 0. -1.
         25    2    1    2    0    0 -0.14473333132E+03  0.77098353475E+02 -0.30865029719E+03  0.37123071285E+03  0.12512131276E+03 0.  0.
          5    1    3    3  502    0 -0.13529303130E+03  0.74619130843E+02 -0.32019349095E+03  0.35554685071E+03  0.41800000000E+01 0. -1.
         -5    1    3    3    0  502 -0.94403000180E+01  0.24792226318E+01  0.11543193763E+02  0.15683862137E+02  0.41800000000E+01 0. -1.
        -11    1    1    2    0    0  0.90992821375E+02 -0.86094108657E+02 -0.71651120674E+02  0.14431137232E+03  0.00000000000E+00 0.  1.
         11    1    1    2    0    0  0.53740509945E+02  0.89957551812E+01 -0.75102544775E+02  0.92786627550E+02  0.00000000000E+00 0. -1.
</event>
<event>
 7    1  0.2619826E-009  0.1072827E+03  0.7561462E-02  0.1265686E+00
          2   -1    0    0  501    0  0.00000000000E+00  0.00000000000E+00  0.37558790525E+03  0.37558790525E+03  0.00000000000E+00 0. -1.
         -2   -1    0    0    0  501 -0.00000000000E+00 -0.00000000000E+00 -0.46939978068E+02  0.46939978068E+02  0.00000000000E+00 0.  1.
         25    2    1    2    0    0  0.49783322742E+02  0.31245494530E+02  0.25720248090E+03  0.29198374009E+03  0.12508688239E+03 0.  0.
          5    1    3    3  502    0  0.35712356487E+02 -0.39338571813E+02  0.17356280322E+03  0.18156104951E+03  0.41800000000E+01 0.  1.
         -5    1    3    3    0  502  0.14070966255E+02  0.70584066343E+02  0.83639677680E+02  0.11042269058E+03  0.41800000000E+01 0.  1.
        -11    1    1    2    0    0 -0.52396218082E+02 -0.48696117014E+02  0.17296023343E+02  0.73592308736E+02  0.00000000000E+00 0.  1.
         11    1    1    2    0    0  0.26128953404E+01  0.17450622484E+02  0.54149422938E+02  0.56951834489E+02  0.00000000000E+00 0. -1.
</event>
<event>
 7    1  0.2619826E-009  0.6341106E+02  0.7561462E-02  0.1384050E+00
         -3   -1    0    0    0  501 -0.00000000000E+00  0.00000000000E+00  0.50702735963E+02  0.50702735963E+02  0.00000000000E+00 0.  1.
          3   -1    0    0  501    0  0.00000000000E+00 -0.00000000000E+00 -0.25552986457E+03  0.25552986457E+03  0.00000000000E+00 0. -1.
         25    2    1    2    0    0  0.30909087417E+02 -0.23013002479E+02 -0.12103820119E+03  0.17827808357E+03  0.12509140244E+03 0.  0.
          5    1    3    3  502    0  0.37512193551E+02 -0.85207139732E+01 -0.14451356806E+03  0.14960418104E+03  0.41800000000E+01 0.  1.
         -5    1    3    3    0  502 -0.66031061340E+01 -0.14492288506E+02  0.23475366865E+02  0.28673902528E+02  0.41800000000E+01 0.  1.
        -11    1    1    2    0    0 -0.18059587969E+02 -0.19896662637E+02 -0.78354350316E+02  0.82833749856E+02  0.00000000000E+00 0. -1.
         11    1    1    2    0    0 -0.12849499448E+02  0.42909665117E+02 -0.54345771001E+01  0.45120767112E+02  0.00000000000E+00 0.  1.
</event>
<event>
 7    1  0.2619826E-009  0.9965672E+02  0.7561462E-02  0.1281019E+00
          1   -1    0    0  501    0  0.00000000000E+00  0.00000000000E+00  0.89392761104E+02  0.89392761104E+02  0.00000000000E+00 0. -1.
         -1   -1    0    0    0  501 -0.00000000000E+00 -0.00000000000E+00 -0.19862394519E+03  0.19862394519E+03  0.00000000000E+00 0.  1.
         25    2    1    2    0    0 -0.52706357256E+01  0.21450575834E+02 -0.13958692189E+03  0.18873549701E+03  0.12509465323E+03 0.  0.
          5    1    3    3  502    0  0.49739324224E+02  0.42703159362E+02 -0.55795918505E+02  0.86187105275E+02  0.41800000000E+01 0.  1.
         -5    1    3    3    0  502 -0.55009959950E+02 -0.21252583528E+02 -0.83791003384E+02  0.10254839174E+03  0.41800000000E+01 0.  1.
        -11    1    1    2    0    0  0.24575737054E+02  0.18080958700E+02 -0.16767186141E+02  0.34814170252E+02  0.00000000000E+00 0. -1.
         11    1    1    2    0    0 -0.19305101328E+02 -0.39531534534E+02  0.47122923944E+02  0.64467039027E+02  0.00000000000E+00 0.  1.
</event>
<event>
 7    1  0.2619826E-009  0.5679328E+02  0.7561462E-02  0.1411804E+00
         -3   -1    0    0    0  501 -0.00000000000E+00  0.00000000000E+00  0.16184746733E+03  0.16184746733E+03  0.00000000000E+00 0.  1.
          3   -1    0    0  501    0  0.00000000000E+00 -0.00000000000E+00 -0.12448822976E+03  0.12448822976E+03  0.00000000000E+00 0. -1.
         25    2    1    2    0    0  0.20035066947E+02 -0.18029978700E+02 -0.68141340943E+02  0.14497339972E+03  0.12509020842E+03 0.  0.
          5    1    3    3  502    0  0.19852663926E+02 -0.20061977409E+02 -0.10449657633E+03  0.10832182637E+03  0.41800000000E+01 0. -1.
         -5    1    3    3    0  502  0.18240302062E+00  0.20319987093E+01  0.36355235387E+02  0.36651573358E+02  0.41800000000E+01 0. -1.
        -11    1    1    2    0    0  0.13216390462E+02  0.38941188571E+02  0.16928629210E+02  0.44470975154E+02  0.00000000000E+00 0. -1.
         11    1    1    2    0    0 -0.33251457409E+02 -0.20911209871E+02  0.88571949302E+02  0.96891322218E+02  0.00000000000E+00 0.  1.
</event>
<event>
 7    1  0.2619826E-009  0.1114059E+03  0.7561462E-02  0.1257988E+00
          3   -1    0    0  501    0  0.00000000000E+00  0.00000000000E+00  0.16297544536E+03  0.16297544536E+03  0.00000000000E+00 0.  1.
         -3   -1    0    0    0  501 -0.00000000000E+00 -0.00000000000E+00 -0.97464069435E+02  0.97464069435E+02  0.00000000000E+00 0. -1.
         25    2    1    2    0    0  0.29515942174E+02 -0.45428576003E+02  0.10699021429E+01  0.13632149277E+03  0.12508980110E+03 0.  0.
          5    1    3    3  502    0  0.27236493516E+01 -0.78500573114E+02  0.30544287269E+02  0.84381183505E+02  0.41800000000E+01 0.  1.
         -5    1    3    3    0  502  0.26792292822E+02  0.33071997111E+02 -0.29474385126E+02  0.51940309261E+02  0.41800000000E+01 0.  1.
        -11    1    1    2    0    0 -0.22176216926E+02  0.71208109554E+02  0.62388825623E+02  0.97235513193E+02  0.00000000000E+00 0.  1.
         11    1    1    2    0    0 -0.73397252483E+01 -0.25779533551E+02  0.20526481574E+01  0.26882508835E+02  0.00000000000E+00 0. -1.
</event>
<event>
 7    1  0.2619826E-009  0.7512469E+02  0.7561462E-02  0.1343485E+00
         -2   -1    0    0    0  501 -0.00000000000E+00  0.00000000000E+00  0.11547237955E+03  0.11547237955E+03  0.00000000000E+00 0.  1.
          2   -1    0    0  501    0  0.00000000000E+00 -0.00000000000E+00 -0.12047758810E+03  0.12047758810E+03  0.00000000000E+00 0. -1.
         25    2    1    2    0    0  0.15063945945E+02  0.44081664633E+02 -0.67965777454E+01  0.13366150509E+03  0.12509631829E+03 0.  0.
          5    1    3    3  502    0 -0.83799395887E+00  0.17253779288E+02 -0.65060301640E+02  0.67444127863E+02  0.41800000000E+01 0.  1.
         -5    1    3    3    0  502  0.15901939904E+02  0.26827885344E+02  0.58263723895E+02  0.66217377227E+02  0.41800000000E+01 0.  1.
        -11    1    1    2    0    0 -0.49971245683E+02 -0.76465123312E+01  0.89049216298E+01  0.51331200796E+02  0.00000000000E+00 0.  1.
         11    1    1    2    0    0  0.34907299737E+02 -0.36435152301E+02 -0.71135524368E+01  0.50957261764E+02  0.00000000000E+00 0. -1.
</event>
<event>
 7    1  0.2619826E-009  0.1784987E+03  0.7561462E-02  0.1169264E+00
          1   -1    0    0  501    0  0.00000000000E+00  0.00000000000E+00  0.29209214924E+02  0.29209214924E+02  0.00000000000E+00 0. -1.
         -1   -1    0    0    0  501 -0.00000000000E+00 -0.00000000000E+00 -0.13831550261E+04  0.13831550261E+04  0.00000000000E+00 0.  1.
         25    2    1    2    0    0 -0.15714741166E+03  0.60270817037E+02 -0.73389695368E+03  0.76326944174E+03  0.12509045408E+03 0.  0.
          5    1    3    3  502    0 -0.89820922296E+02  0.73964291486E+02 -0.26639080814E+03  0.29072332132E+03  0.41800000000E+01 0.  1.
         -5    1    3    3    0  502 -0.67326489368E+02 -0.13693474449E+02 -0.46750614554E+03  0.47254612042E+03  0.41800000000E+01 0.  1.
        -11    1    1    2    0    0  0.12702707860E+03 -0.33336155534E+02 -0.56915974125E+03  0.58411470537E+03  0.00000000000E+00 0.  1.
         11    1    1    2    0    0  0.30120333060E+02 -0.26934661502E+02 -0.50889116289E+02  0.64980093956E+02  0.00000000000E+00 0. -1.
</event>
<event>
 7    1  0.2619826E-009  0.1176037E+03  0.7561462E-02  0.1247103E+00
          1   -1    0    0  501    0  0.00000000000E+00  0.00000000000E+00  0.59441459892E+03  0.59441459892E+03  0.00000000000E+00 0. -1.
         -1   -1    0    0    0  501 -0.00000000000E+00 -0.00000000000E+00 -0.27675739357E+02  0.27675739357E+02  0.00000000000E+00 0.  1.
         25    2    1    2    0    0  0.45597486206E+02  0.27551526706E+02  0.21119374915E+03  0.25117699860E+03  0.12509543388E+03 0.  0.
          5    1    3    3  502    0  0.84557854224E+02 -0.35736744443E+01  0.14833121570E+03  0.17082863873E+03  0.41800000000E+01 0. -1.
         -5    1    3    3    0  502 -0.38960368018E+02  0.31125201151E+02  0.62862533451E+02  0.80348359875E+02  0.41800000000E+01 0. -1.
        -11    1    1    2    0    0 -0.12890765379E+02 -0.55764779780E+02  0.14310084361E+03  0.15412246410E+03  0.00000000000E+00 0.  1.
         11    1    1    2    0    0 -0.32706720827E+02  0.28213253073E+02  0.21244426680E+03  0.21679087558E+03  0.00000000000E+00 0. -1.
</event>
<event>
 7    1  0.2619826E-009  0.1072884E+03  0.7561462E-02  0.1265675E+00
         -2   -1    0    0    0  501 -0.00000000000E+00  0.00000000000E+00  0.42362475527E+02  0.42362475527E+02  0.00000000000E+00 0. -1.
          2   -1    0    0  501    0  0.00000000000E+00 -0.00000000000E+00 -0.39623020888E+03  0.39623020888E+03  0.00000000000E+00 0.  1.
         25    2    1    2    0    0 -0.42422482035E+02  0.53724230876E+02 -0.22409074128E+03  0.26561391439E+03  0.12509249068E+03 0.  0.
          5    1    3    3  502    0  0.13509407175E+02 -0.18521458466E+02 -0.13817981112E+03  0.14013094271E+03  0.41800000000E+01 0. -1.
         -5    1    3    3    0  502 -0.55931889210E+02  0.72245689342E+02 -0.85910930164E+02  0.12548297168E+03  0.41800000000E+01 0. -1.
        -11    1    1    2    0    0 -0.17937917892E+02 -0.30005810545E+02 -0.93310208081E+01  0.36182668698E+02  0.00000000000E+00 0. -1.
         11    1    1    2    0    0  0.60360399927E+02 -0.23718420331E+02 -0.12044597127E+03  0.13679610132E+03  0.00000000000E+00 0.  1.
</event>
<event>
 7    1  0.2619826E-009  0.1217344E+03  0.7561462E-02  0.1240263E+00
         -1   -1    0    0    0  501 -0.00000000000E+00  0.00000000000E+00  0.26514539605E+02  0.26514539605E+02  0.00000000000E+00 0.  1.
          1   -1    0    0  501    0  0.00000000000E+00 -0.00000000000E+00 -0.77023591738E+03  0.77023591738E+03  0.00000000000E+00 0. -1.
         25    2    1    2    0    0  0.65177503803E+02 -0.13743592795E+02 -0.30740489106E+03  0.33850011624E+03  0.12509024064E+03 0.  0.
          5    1    3    3  502    0  0.47684576690E+02  0.53430008710E+02 -0.14268717456E+03  0.15970499951E+03  0.41800000000E+01 0. -1.
         -5    1    3    3    0  502  0.17492927113E+02 -0.67173601505E+02 -0.16471771650E+03  0.17879511674E+03  0.41800000000E+01 0. -1.
        -11    1    1    2    0    0 -0.48825780444E+01 -0.28280004554E+02 -0.18784783112E+02  0.34299654554E+02  0.00000000000E+00 0.  1.
         11    1    1    2    0    0 -0.60294925759E+02  0.42023597350E+02 -0.41753170360E+03  0.42395068618E+03  0.00000000000E+00 0. -1.
</event>
<event>
 7    1  0.2619826E-009  0.2222255E+03  0.7561462E-02  0.1132235E+00
         -2   -1    0    0    0  501 -0.00000000000E+00  0.00000000000E+00  0.61153025157E+02  0.61153025157E+02  0.00000000000E+00 0.  1.
          2   -1    0    0  501    0  0.00000000000E+00 -0.00000000000E+00 -0.96044038761E+03  0.96044038761E+03  0.00000000000E+00 0. -1.
         25    2    1    2    0    0 -0.11601768777E+03 -0.16951641842E+03 -0.32161208041E+03  0.40159415494E+03  0.12509042740E+03 0.  0.
          5    1    3    3  502    0 -0.51547431186E+02 -0.12165277886E+02 -0.15352217017E+03  0.16245510389E+03  0.41800000000E+01 0. -1.
         -5    1    3    3    0  502 -0.64470256587E+02 -0.15735114053E+03 -0.16808991024E+03  0.23913905105E+03  0.41800000000E+01 0. -1.
        -11    1    1    2    0    0  0.10443120297E+03  0.17833644350E+03 -0.50095473465E+03  0.54190904163E+03  0.00000000000E+00 0. -1.
         11    1    1    2    0    0  0.11586484806E+02 -0.88200250797E+01 -0.76720547393E+02  0.78090216192E+02  0.00000000000E+00 0.  1.
</event>
<event>
 7    1  0.2619826E-009  0.1695253E+03  0.7561462E-02  0.1178344E+00
          1   -1    0    0  501    0  0.00000000000E+00  0.00000000000E+00  0.22305529228E+03  0.22305529228E+03  0.00000000000E+00 0. -1.
         -1   -1    0    0    0  501 -0.00000000000E+00 -0.00000000000E+00 -0.32958509618E+03  0.32958509618E+03  0.00000000000E+00 0.  1.
         25    2    1    2    0    0 -0.14082354916E+03  0.61900922333E+02 -0.25328951400E+03  0.32166067382E+03  0.12508802900E+03 0.  0.
          5    1    3    3  502    0 -0.12332536598E+03  0.72477747558E+02 -0.12003948841E+03  0.18678629758E+03  0.41800000000E+01 0. -1.
         -5    1    3    3    0  502 -0.17498183173E+02 -0.10576825226E+02 -0.13325002560E+03  0.13487437625E+03  0.41800000000E+01 0. -1.
        -11    1    1    2    0    0  0.22411589973E+00 -0.31150509426E+02  0.44942400570E+02  0.54682939153E+02  0.00000000000E+00 0. -1.
         11    1    1    2    0    0  0.14059943326E+03 -0.30750412906E+02  0.10181730952E+03  0.17629677548E+03  0.00000000000E+00 0.  1.
</event>
<event>
 7    1  0.2619826E-009  0.7427206E+02  0.7561462E-02  0.1346140E+00
         -2   -1    0    0    0  501 -0.00000000000E+00  0.00000000000E+00  0.19291875766E+03  0.19291875766E+03  0.00000000000E+00 0.  1.
          2   -1    0    0  501    0  0.00000000000E+00 -0.00000000000E+00 -0.94468352661E+02  0.94468352661E+02  0.00000000000E+00 0. -1.
         25    2    1    2    0    0 -0.12625565788E+02 -0.37681583953E+02  0.12890167964E+03  0.18396451109E+03  0.12509193277E+03 0.  0.
          5    1    3    3  502    0  0.41991146195E+02 -0.19929728189E+02  0.11588704973E+03  0.12493090538E+03  0.41800000000E+01 0.  1.
         -5    1    3    3    0  502 -0.54616711982E+02 -0.17751855764E+02  0.13014629916E+02  0.59033605706E+02  0.41800000000E+01 0.  1.
        -11    1    1    2    0    0  0.16505541200E+02  0.18794720272E+02  0.30528437207E+02  0.39467200036E+02  0.00000000000E+00 0.  1.
         11    1    1    2    0    0 -0.38799754129E+01  0.18886863681E+02 -0.60979711852E+02  0.63955399197E+02  0.00000000000E+00 0. -1.
</event>
<event>
 7    1  0.2619826E-009  0.1750054E+03  0.7561462E-02  0.1172726E+00
         -2   -1    0    0    0  501 -0.00000000000E+00  0.00000000000E+00  0.37726105283E+02  0.37726105283E+02  0.00000000000E+00 0.  1.
          2   -1    0    0  501    0  0.00000000000E+00 -0.00000000000E+00 -0.10768588693E+04  0.10768588693E+04  0.00000000000E+00 0. -1.
         25    2    1    2    0    0  0.14458694851E+03 -0.63014539189E+02 -0.71557373681E+03  0.74335004548E+03  0.12508916609E+03 0.  0.
          5    1    3    3  502    0  0.51179917818E+02  0.23157475034E+02 -0.99937006014E+02  0.11471935412E+03  0.41800000000E+01 0.  1.
         -5    1    3    3    0  502  0.93407030689E+02 -0.86172014222E+02 -0.61563673080E+03  0.62863069136E+03  0.41800000000E+01 0.  1.
        -11    1    1    2    0    0 -0.25207916793E+02 -0.93980432760E+01 -0.11296732957E+02  0.29178390325E+02  0.00000000000E+00 0.  1.
         11    1    1    2    0    0 -0.11937903171E+03  0.72412582465E+02 -0.31226229425E+03  0.34205653878E+03  0.00000000000E+00 0. -1.
</event>
<event>
 7    1  0.2619826E-009  0.8597739E+02  0.7561462E-02  0.1312896E+00
          1   -1    0    0  501    0  0.00000000000E+00  0.00000000000E+00  0.45464374103E+03  0.45464374103E+03  0.00000000000E+00 0. -1.
         -1   -1    0    0    0  501 -0.00000000000E+00 -0.00000000000E+00 -0.32021405326E+02  0.32021405326E+02  0.00000000000E+00 0.  1.
         25    2    1    2    0    0  0.58280137057E+01 -0.30522291588E+02  0.32339110660E+03  0.34813056724E+03  0.12508999956E+03 0.  0.
          5    1    3    3  502    0 -0.15927926711E+02 -0.72402163245E+02  0.13717173156E+03  0.15597861530E+03  0.41800000000E+01 0.  1.
         -5    1    3    3    0  502  0.21755940417E+02  0.41879871656E+02  0.18621937504E+03  0.19215195194E+03  0.41800000000E+01 0.  1.
        -11    1    1    2    0    0  0.17050689109E+02  0.11438487273E+02 -0.11727752927E+02  0.23645405027E+02  0.00000000000E+00 0.  1.
         11    1    1    2    0    0 -0.22878702814E+02  0.19083804316E+02  0.11095898203E+03  0.11488917409E+03  0.00000000000E+00 0. -1.
</event>
<event>
 7    1  0.2619826E-009  0.1271000E+03  0.7561462E-02  0.1231823E+00
          2   -1    0    0  501    0  0.00000000000E+00  0.00000000000E+00  0.16022729163E+03  0.16022729163E+03  0.00000000000E+00 0. -1.
         -2   -1    0    0    0  501 -0.00000000000E+00 -0.00000000000E+00 -0.14216503260E+03  0.14216503260E+03  0.00000000000E+00 0.  1.
         25    2    1    2    0    0  0.83258115565E+02  0.43746118554E+02 -0.35715250637E+02  0.16052691373E+03  0.12509066395E+03 0.  0.
          5    1    3    3  502    0  0.83084791753E+02  0.65297148067E+02  0.13522506779E+02  0.10661674707E+03  0.41800000000E+01 0. -1.
         -5    1    3    3    0  502  0.17332381243E+00 -0.21551029513E+02 -0.49237757415E+02  0.53910166662E+02  0.41800000000E+01 0. -1.
        -11    1    1    2    0    0  0.12910990243E+02 -0.25534012366E+02 -0.29037111336E+01  0.28759537459E+02  0.00000000000E+00 0.  1.
         11    1    1    2    0    0 -0.96169105808E+02 -0.18212106189E+02  0.56681220796E+02  0.11310587303E+03  0.00000000000E+00 0. -1.
</event>
<event>
 7    1  0.2619826E-009  0.1001556E+03  0.7561462E-02  0.1279969E+00
          2   -1    0    0  501    0  0.00000000000E+00  0.00000000000E+00  0.12187672627E+04  0.12187672627E+04  0.00000000000E+00 0. -1.
         -2   -1    0    0    0  501 -0.00000000000E+00 -0.00000000000E+00 -0.16071469605E+02  0.16071469605E+02  0.00000000000E+00 0.  1.
         25    2    1    2    0    0  0.55390966550E+02  0.36272942529E+02  0.87815410748E+03  0.88948631776E+03  0.12508951782E+03 0.  0.
          5    1    3    3  502    0  0.76179115881E+02  0.40486558906E+01  0.28449181235E+03  0.29457208457E+03  0.41800000000E+01 0. -1.
         -5    1    3    3    0  502 -0.20788149332E+02  0.32224286638E+02  0.59366229512E+03  0.59491423319E+03  0.41800000000E+01 0. -1.
        -11    1    1    2    0    0 -0.24888036005E+02  0.12467978740E+02  0.17294667486E+02  0.32771486898E+02  0.00000000000E+00 0.  1.
         11    1    1    2    0    0 -0.30502930545E+02 -0.48740921268E+02  0.30724701813E+03  0.31258092764E+03  0.00000000000E+00 0. -1.
</event>
<event>
 7    1  0.2619826E-009  0.2178517E+03  0.7561462E-02  0.1135495E+00
         -2   -1    0    0    0  501 -0.00000000000E+00  0.00000000000E+00  0.12773670444E+03  0.12773670444E+03  0.00000000000E+00 0.  1.
          2   -1    0    0  501    0  0.00000000000E+00 -0.00000000000E+00 -0.45291905424E+03  0.45291905424E+03  0.00000000000E+00 0. -1.
         25    2    1    2    0    0 -0.20588532595E+03  0.23853128594E+02 -0.10118815146E+03  0.26238377660E+03  0.12509382497E+03 0.  0.
          5    1    3    3  502    0  0.74327550023E+01  0.10049530603E+02 -0.36807199601E+02  0.39095795870E+02  0.41800000000E+01 0. -1.
         -5    1    3    3    0  502 -0.21331808095E+03  0.13803597991E+02 -0.64380951856E+02  0.22328798073E+03  0.41800000000E+01 0. -1.
        -11    1    1    2    0    0  0.15521795570E+03 -0.28594051257E+02 -0.10697616912E+03  0.19066760160E+03  0.00000000000E+00 0.  1.
         11    1    1    2    0    0  0.50667370245E+02  0.47409226631E+01 -0.11701802923E+03  0.12760438048E+03  0.00000000000E+00 0. -1.
</event>
<event>
 7    1  0.2619826E-009  0.1407129E+03  0.7561462E-02  0.1212373E+00
         -2   -1    0    0    0  501 -0.00000000000E+00  0.00000000000E+00  0.74130554806E+03  0.74130554806E+03  0.00000000000E+00 0.  1.
          2   -1    0    0  501    0  0.00000000000E+00 -0.00000000000E+00 -0.45221563318E+02  0.45221563318E+02  0.00000000000E+00 0. -1.
         25    2    1    2    0    0 -0.63636595190E+02 -0.80599497492E+02  0.59608836933E+03  0.61766965175E+03  0.12509420212E+03 0.  0.
          5    1    3    3  502    0  0.26724300029E+02  0.32910806962E+01  0.22424817369E+03  0.22589762112E+03  0.41800000000E+01 0.  1.
         -5    1    3    3    0  502 -0.90360895219E+02 -0.83890578189E+02  0.37184019564E+03  0.39177203064E+03  0.41800000000E+01 0.  1.
        -11    1    1    2    0    0  0.35922122578E+01  0.69686306762E+02  0.29892985486E+02  0.75912290970E+02  0.00000000000E+00 0.  1.
         11    1    1    2    0    0  0.60044382932E+02  0.10913190730E+02  0.70102629922E+02  0.92945168651E+02  0.00000000000E+00 0. -1.
</event>
<event>
 7    1  0.2619826E-009  0.1042112E+03  0.7561462E-02  0.1271681E+00
          2   -1    0    0  501    0  0.00000000000E+00  0.00000000000E+00  0.47380871494E+03  0.47380871494E+03  0.00000000000E+00 0.  1.
         -2   -1    0    0    0  501 -0.00000000000E+00 -0.00000000000E+00 -0.31280634227E+02  0.31280634227E+02  0.00000000000E+00 0. -1.
         25    2    1    2    0    0 -0.16067587840E+02  0.82599963923E+01  0.14501781306E+03  0.19236767800E+03  0.12509501395E+03 0.  0.
          5    1    3    3  502    0  0.35172923058E+02  0.42115675538E+02  0.10615054694E+03  0.11956703416E+03  0.41800000000E+01 0.  1.
         -5    1    3    3    0  502 -0.51240510898E+02 -0.33855679146E+02  0.38867266124E+02  0.72800643840E+02  0.41800000000E+01 0.  1.
        -11    1    1    2    0    0  0.42903182997E+02 -0.33930293995E+02  0.22109138722E+03  0.22775721605E+03  0.00000000000E+00 0.  1.
         11    1    1    2    0    0 -0.26835595156E+02  0.25670297603E+02  0.76418880432E+02  0.84964455114E+02  0.00000000000E+00 0. -1.
</event>
<event>
 7    1  0.2619826E-009  0.1741306E+03  0.7561462E-02  0.1173607E+00
          1   -1    0    0  501    0  0.00000000000E+00  0.00000000000E+00  0.94520921270E+02  0.94520921270E+02  0.00000000000E+00 0. -1.
         -1   -1    0    0    0  501 -0.00000000000E+00 -0.00000000000E+00 -0.38917195968E+03  0.38917195968E+03  0.00000000000E+00 0.  1.
         25    2    1    2    0    0  0.10907644986E+03  0.11297098276E+03 -0.16323319150E+03  0.25875295144E+03  0.12509156731E+03 0.  0.
          5    1    3    3  502    0 -0.23202133430E-01  0.75520382363E+02 -0.27267484244E+02  0.80400975042E+02  0.41800000000E+01 0.  1.
         -5    1    3    3    0  502  0.10909965199E+03  0.37450600394E+02 -0.13596570725E+03  0.17835197639E+03  0.41800000000E+01 0.  1.
        -11    1    1    2    0    0 -0.92978194320E+02 -0.92437115681E+02 -0.14503241387E+03  0.19550950373E+03  0.00000000000E+00 0.  1.
         11    1    1    2    0    0 -0.16098255540E+02 -0.20533867077E+02  0.13614566958E+02  0.29430425787E+02  0.00000000000E+00 0. -1.
</event>
<event>
 7    1  0.2619826E-009  0.1565139E+03  0.7561462E-02  0.1192690E+00
         -1   -1    0    0    0  501 -0.00000000000E+00  0.00000000000E+00  0.37220324156E+02  0.37220324156E+02  0.00000000000E+00 0.  1.
          1   -1    0    0  501    0  0.00000000000E+00 -0.00000000000E+00 -0.10088314655E+04  0.10088314655E+04  0.00000000000E+00 0. -1.
         25    2    1    2    0    0  0.10678106287E+03  0.81968034642E+02 -0.27495863015E+03  0.33071474971E+03  0.12509613620E+03 0.  0.
          5    1    3    3  502    0  0.51425989838E+02 -0.20028163776E+00 -0.16954371677E+02  0.54310180101E+02  0.41800000000E+01 0. -1.
         -5    1    3    3    0  502  0.55355073028E+02  0.82168316279E+02 -0.25800425848E+03  0.27640456961E+03  0.41800000000E+01 0. -1.
        -11    1    1    2    0    0 -0.10878989911E+03 -0.33601843558E+02 -0.47413926533E+03  0.48761908183E+03  0.00000000000E+00 0.  1.
         11    1    1    2    0    0  0.20088362480E+01 -0.48366191083E+02 -0.22251324585E+03  0.22771795810E+03  0.00000000000E+00 0. -1.
</event>
<event>
 7    1  0.3212377E-009  0.1303387E+03  0.7561462E-02  0.1226954E+00
         -1   -1    0    0    0  501 -0.00000000000E+00  0.00000000000E+00  0.68462741442E+02  0.68462741442E+02  0.00000000000E+00 0. -1.
          1   -1    0    0  501    0  0.00000000000E+00 -0.00000000000E+00 -0.34759324962E+03  0.34759324962E+03  0.00000000000E+00 0.  1.
         25    2    1    2    0    0 -0.16983772839E+02  0.10428361061E+03 -0.18714144060E+03  0.24866085941E+03  0.12508710657E+03 0.  0.
          5    1    3    3  502    0  0.24102256002E+02  0.19026579781E+02 -0.13897083413E+03  0.14238432013E+03  0.41800000000E+01 0. -1.
         -5    1    3    3    0  502 -0.41086028841E+02  0.85257030832E+02 -0.48170606471E+02  0.10627653927E+03  0.41800000000E+01 0. -1.
        -11    1    1    2    0    0  0.45203867555E+02 -0.26938919312E+02 -0.15106950096E+02  0.54747739286E+02  0.00000000000E+00 0.  1.
         11    1    1    2    0    0 -0.28220094716E+02 -0.77344691301E+02 -0.76882117486E+02  0.11264739237E+03  0.00000000000E+00 0. -1.
</event>
<event>
 7    1  0.2619826E-009  0.2819368E+03  0.7561462E-02  0.1094636E+00
          3   -1    0    0  501    0  0.00000000000E+00  0.00000000000E+00  0.20356677881E+03  0.20356677881E+03  0.00000000000E+00 0. -1.
         -3   -1    0    0    0  501 -0.00000000000E+00 -0.00000000000E+00 -0.42476171412E+03  0.42476171412E+03  0.00000000000E+00 0.  1.
         25    2    1    2    0    0 -0.26832517112E+03  0.64738394311E+02 -0.10413044721E+03  0.32042450139E+03  0.12505700261E+03 0.  0.
          5    1    3    3  502    0 -0.98719550793E+02  0.61408434652E+02  0.86780017622E+01  0.11665901452E+03  0.41800000000E+01 0. -1.
         -5    1    3    3    0  502 -0.16960562032E+03  0.33299596588E+01 -0.11280844898E+03  0.20376548687E+03  0.41800000000E+01 0. -1.
        -11    1    1    2    0    0  0.19769408299E+03 -0.33064555103E+02 -0.11365588291E+03  0.23042108188E+03  0.00000000000E+00 0.  1.
         11    1    1    2    0    0  0.70631088127E+02 -0.31673839208E+02 -0.34086051920E+01  0.77482909661E+02  0.00000000000E+00 0. -1.
</event>
<event>
 7    1  0.2619826E-009  0.1120025E+03  0.7561462E-02  0.1256906E+00
         -1   -1    0    0    0  501 -0.00000000000E+00  0.00000000000E+00  0.43074071600E+03  0.43074071600E+03  0.00000000000E+00 0.  1.
          1   -1    0    0  501    0  0.00000000000E+00 -0.00000000000E+00 -0.57025195085E+02  0.57025195085E+02  0.00000000000E+00 0. -1.
         25    2    1    2    0    0  0.68493917279E+01 -0.25016993821E+02  0.33505356991E+03  0.35858461015E+03  0.12509701748E+03 0.  0.
          5    1    3    3  502    0 -0.43681437271E+02  0.28476809788E+01  0.45381047821E+02  0.63190894521E+02  0.41800000000E+01 0.  1.
         -5    1    3    3    0  502  0.50530828999E+02 -0.27864674800E+02  0.28967252209E+03  0.29539371563E+03  0.41800000000E+01 0.  1.
        -11    1    1    2    0    0 -0.49540503262E+02 -0.25759652496E+02  0.91816416425E+01  0.56587310445E+02  0.00000000000E+00 0. -1.
         11    1    1    2    0    0  0.42691111534E+02  0.50776646318E+02  0.29480309368E+02  0.72593990493E+02  0.00000000000E+00 0.  1.
</event>
<event>
 7    1  0.2619826E-009  0.8819117E+02  0.7561462E-02  0.1307292E+00
         -1   -1    0    0    0  501 -0.00000000000E+00  0.00000000000E+00  0.25980375255E+02  0.25980375255E+02  0.00000000000E+00 0.  1.
          1   -1    0    0  501    0  0.00000000000E+00 -0.00000000000E+00 -0.64768977733E+03  0.64768977733E+03  0.00000000000E+00 0. -1.
         25    2    1    2    0    0 -0.10079299078E+02  0.25022193357E+02 -0.52890459282E+03  0.54416516744E+03  0.12509180117E+03 0.  0.
          5    1    3    3  502    0 -0.50681448699E+02 -0.23546697801E+02 -0.34742928898E+03  0.35191993331E+03  0.41800000000E+01 0. -1.
         -5    1    3    3    0  502  0.40602149621E+02  0.48568891158E+02 -0.18147530384E+03  0.19224523413E+03  0.41800000000E+01 0. -1.
        -11    1    1    2    0    0 -0.19369469008E+02 -0.19085970513E+01  0.86981652880E+01  0.21318469733E+02  0.00000000000E+00 0.  1.
         11    1    1    2    0    0  0.29448768086E+02 -0.23113596305E+02 -0.10150297455E+03  0.10818651542E+03  0.00000000000E+00 0. -1.
</event>
<event>
 7    1  0.2619826E-009  0.2062361E+03  0.7561462E-02  0.1144582E+00
         -1   -1    0    0    0  501 -0.00000000000E+00  0.00000000000E+00  0.29858592152E+03  0.29858592152E+03  0.00000000000E+00 0. -1.
          1   -1    0    0  501    0  0.00000000000E+00 -0.00000000000E+00 -0.17240846510E+03  0.17240846510E+03  0.00000000000E+00 0.  1.
         25    2    1    2    0    0  0.61830131697E+02  0.18469644622E+03  0.10997802149E+03  0.25627658351E+03  0.12508708811E+03 0.  0.
          5    1    3    3  502    0  0.32589388736E+02  0.35736430237E+02  0.91126556537E+02  0.10325058068E+03  0.41800000000E+01 0. -1.
         -5    1    3    3    0  502  0.29240742961E+02  0.14896001598E+03  0.18851464956E+02  0.15302600283E+03  0.41800000000E+01 0. -1.
        -11    1    1    2    0    0 -0.46587684876E+02 -0.27429626396E+02 -0.87181840863E+01  0.54761332345E+02  0.00000000000E+00 0.  1.
         11    1    1    2    0    0 -0.15242446821E+02 -0.15726681982E+03  0.24917619021E+02  0.15995647077E+03  0.00000000000E+00 0. -1.
</event>
<event>
 7    1  0.2619826E-009  0.1803343E+03  0.7561462E-02  0.1167480E+00
         -1   -1    0    0    0  501 -0.00000000000E+00  0.00000000000E+00  0.20274862183E+03  0.20274862183E+03  0.00000000000E+00 0.  1.
          1   -1    0    0  501    0  0.00000000000E+00 -0.00000000000E+00 -0.18770899882E+03  0.18770899882E+03  0.00000000000E+00 0. -1.
         25    2    1    2    0    0  0.79589470631E+02 -0.13359318462E+03  0.49606407178E+02  0.20564539685E+03  0.12509041051E+03 0.  0.
          5    1    3    3  502    0  0.30910223279E+02 -0.14406375899E+03  0.50075620972E+02  0.15567545977E+03  0.41800000000E+01 0.  1.
         -5    1    3    3    0  502  0.48679247352E+02  0.10470574378E+02 -0.46921379356E+00  0.49969937083E+02  0.41800000000E+01 0.  1.
        -11    1    1    2    0    0 -0.74049716731E+02  0.78450257022E+02  0.16882555594E+02  0.10919168493E+03  0.00000000000E+00 0.  1.
         11    1    1    2    0    0 -0.55397539000E+01  0.55142927594E+02 -0.51449339756E+02  0.75620538865E+02  0.00000000000E+00 0. -1.
</event>
<event>
 7    1  0.2619826E-009  0.1160129E+03  0.7561462E-02  0.1249823E+00
          3   -1    0    0  501    0  0.00000000000E+00  0.00000000000E+00  0.21131685135E+02  0.21131685135E+02  0.00000000000E+00 0. -1.
         -3   -1    0    0    0  501 -0.00000000000E+00 -0.00000000000E+00 -0.67552515891E+03  0.67552515891E+03  0.00000000000E+00 0.  1.
         25    2    1    2    0    0 -0.24750670604E+02 -0.41108554346E+02 -0.41680831506E+03  0.43781205641E+03  0.12509083217E+03 0.  0.
          5    1    3    3  502    0 -0.38942479940E+02 -0.80407202730E+02 -0.32054387064E+03  0.33278774076E+03  0.41800000000E+01 0. -1.
         -5    1    3    3    0  502  0.14191809336E+02  0.39298648383E+02 -0.96264444425E+02  0.10502431565E+03  0.41800000000E+01 0. -1.
        -11    1    1    2    0    0 -0.74397099911E+00 -0.27445000321E+02 -0.43545549585E+02  0.51478115972E+02  0.00000000000E+00 0. -1.
         11    1    1    2    0    0  0.25494641603E+02  0.68553554667E+02 -0.19403960912E+03  0.20736667166E+03  0.00000000000E+00 0.  1.
</event>
<event>
 7    1  0.2619826E-009  0.9277852E+02  0.7561462E-02  0.1296259E+00
         -2   -1    0    0    0  501 -0.00000000000E+00  0.00000000000E+00  0.18578982227E+03  0.18578982227E+03  0.00000000000E+00 0.  1.
          2   -1    0    0  501    0  0.00000000000E+00 -0.00000000000E+00 -0.92209484848E+02  0.92209484848E+02  0.00000000000E+00 0. -1.
         25    2    1    2    0    0  0.35461670636E+02 -0.66526405216E+02  0.42877414199E+02  0.15222896432E+03  0.12510752277E+03 0.  0.
          5    1    3    3  502    0 -0.93064921428E+01 -0.55113410316E+02  0.76572457774E+02  0.94894217327E+02  0.41800000000E+01 0.  1.
         -5    1    3    3    0  502  0.44768162778E+02 -0.11412994900E+02 -0.33695043574E+02  0.57334746992E+02  0.41800000000E+01 0.  1.
        -11    1    1    2    0    0 -0.27601646014E+02  0.15834891775E+02  0.65125641638E+02  0.72484093834E+02  0.00000000000E+00 0.  1.
         11    1    1    2    0    0 -0.78600246220E+01  0.50691513441E+02 -0.14422718418E+02  0.53286248963E+02  0.00000000000E+00 0. -1.
</event>
<event>
 7    1  0.2619826E-009  0.1388061E+03  0.7561462E-02  0.1214944E+00
         -2   -1    0    0    0  501 -0.00000000000E+00  0.00000000000E+00  0.35525591172E+02  0.35525591172E+02  0.00000000000E+00 0.  1.
          2   -1    0    0  501    0  0.00000000000E+00 -0.00000000000E+00 -0.62030252628E+03  0.62030252628E+03  0.00000000000E+00 0. -1.
         25    2    1    2    0    0 -0.77367296642E+02  0.59180884959E+02 -0.38230023740E+03  0.41387052256E+03  0.12508901706E+03 0.  0.
          5    1    3    3  502    0 -0.92142361495E+02  0.78592271204E+02 -0.36236530829E+03  0.38209036749E+03  0.41800000000E+01 0.  1.
         -5    1    3    3    0  502  0.14775064854E+02 -0.19411386245E+02 -0.19934929112E+02  0.31780155067E+02  0.41800000000E+01 0.  1.
        -11    1    1    2    0    0  0.53635069193E+02  0.13430770587E+02 -0.98158519066E+02  0.11265966941E+03  0.00000000000E+00 0.  1.
         11    1    1    2    0    0  0.23732227449E+02 -0.72611655546E+02 -0.10431817864E+03  0.12929792548E+03  0.00000000000E+00 0. -1.
</event>
<event>
 7    1  0.2619826E-009  0.1136092E+03  0.7561462E-02  0.1254028E+00
         -1   -1    0    0    0  501 -0.00000000000E+00  0.00000000000E+00  0.30488617243E+02  0.30488617243E+02  0.00000000000E+00 0.  1.
          1   -1    0    0  501    0  0.00000000000E+00 -0.00000000000E+00 -0.90602082224E+03  0.90602082224E+03  0.00000000000E+00 0. -1.
         25    2    1    2    0    0 -0.71813478813E+02  0.61372121192E+02 -0.63665951759E+03  0.65567177636E+03  0.12508566656E+03 0.  0.
          5    1    3    3  502    0 -0.89755588583E+02  0.62497491821E+02 -0.31481755897E+03  0.33330102010E+03  0.41800000000E+01 0. -1.
         -5    1    3    3    0  502  0.17942109770E+02 -0.11253706286E+01 -0.32184195862E+03  0.32237075626E+03  0.41800000000E+01 0. -1.
        -11    1    1    2    0    0  0.21144374329E+02 -0.19728410837E+01  0.73975466213E+01  0.22487782543E+02  0.00000000000E+00 0.  1.
         11    1    1    2    0    0  0.50669104484E+02 -0.59399280108E+02 -0.24627023403E+03  0.25834988058E+03  0.00000000000E+00 0. -1.
</event>
<event>
 7    1  0.2619826E-009  0.1410341E+03  0.7561462E-02  0.1211944E+00
         -3   -1    0    0    0  501 -0.00000000000E+00  0.00000000000E+00  0.18006357496E+02  0.18006357496E+02  0.00000000000E+00 0.  1.
          3   -1    0    0  501    0  0.00000000000E+00 -0.00000000000E+00 -0.12418073586E+04  0.12418073586E+04  0.00000000000E+00 0. -1.
         25    2    1    2    0    0 -0.24942989692E+02 -0.95795884087E+02 -0.55152892507E+03  0.57413463109E+03  0.12508962900E+03 0.  0.
          5    1    3    3  502    0  0.42633990110E+02 -0.51350120785E+02 -0.14584869329E+03  0.16044876363E+03  0.41800000000E+01 0.  1.
         -5    1    3    3    0  502 -0.67576979802E+02 -0.44445763302E+02 -0.40568023178E+03  0.41368586745E+03  0.41800000000E+01 0.  1.
        -11    1    1    2    0    0 -0.30756857111E+02  0.61582616778E+02 -0.38021990626E+03  0.38640080236E+03  0.00000000000E+00 0. -1.
         11    1    1    2    0    0  0.55699846802E+02  0.34213267309E+02 -0.29205216975E+03  0.29927828262E+03  0.00000000000E+00 0.  1.
</event>
<event>
 7    1  0.2619826E-009  0.1066457E+03  0.7561462E-02  0.1266911E+00
          2   -1    0    0  501    0  0.00000000000E+00  0.00000000000E+00  0.10652711311E+03  0.10652711311E+03  0.00000000000E+00 0. -1.
         -2   -1    0    0    0  501 -0.00000000000E+00 -0.00000000000E+00 -0.17734947329E+03  0.17734947329E+03  0.00000000000E+00 0.  1.
         25    2    1    2    0    0  0.56155448900E+02  0.40462417585E+02 -0.96901445999E+02  0.17270703828E+03  0.12508872514E+03 0.  0.
          5    1    3    3  502    0 -0.39595019093E+02  0.16916561334E+02 -0.20354099048E+02  0.47808967071E+02  0.41800000000E+01 0. -1.
         -5    1    3    3    0  502  0.95750467993E+02  0.23545856251E+02 -0.76547346950E+02  0.12489807121E+03  0.41800000000E+01 0. -1.
        -11    1    1    2    0    0 -0.45217548028E+02 -0.22990253207E+02 -0.24660067273E+02  0.56402990258E+02  0.00000000000E+00 0.  1.
         11    1    1    2    0    0 -0.10937900872E+02 -0.17472164378E+02  0.50739153092E+02  0.54766557862E+02  0.00000000000E+00 0. -1.
</event>
<event>
 7    1  0.2619826E-009  0.1416054E+03  0.7561462E-02  0.1211185E+00
         -2   -1    0    0    0  501 -0.00000000000E+00  0.00000000000E+00  0.26772524020E+02  0.26772524020E+02  0.00000000000E+00 0.  1.
          2   -1    0    0  501    0  0.00000000000E+00 -0.00000000000E+00 -0.14097573992E+04  0.14097573992E+04  0.00000000000E+00 0. -1.
         25    2    1    2    0    0  0.13913954631E+02 -0.12292796138E+03 -0.11051422546E+04  0.11190584964E+04  0.12509050111E+03 0.  0.
          5    1    3    3  502    0  0.10606886537E+02 -0.14049107091E+03 -0.10715352133E+04  0.10807661323E+04  0.41800000000E+01 0. -1.
         -5    1    3    3    0  502  0.33070680942E+01  0.17563109527E+02 -0.33607041337E+02  0.38292364031E+02  0.41800000000E+01 0. -1.
        -11    1    1    2    0    0 -0.42851257341E+01  0.68252590339E+02 -0.24179090351E+03  0.25127598256E+03  0.00000000000E+00 0. -1.
         11    1    1    2    0    0 -0.96288288968E+01  0.54675371043E+02 -0.36051717019E+02  0.66195444289E+02  0.00000000000E+00 0.  1.
</event>
<event>
 7    1  0.2619826E-009  0.1037084E+03  0.7561462E-02  0.1272685E+00
         -2   -1    0    0    0  501 -0.00000000000E+00  0.00000000000E+00  0.16776414090E+02  0.16776414090E+02  0.00000000000E+00 0.  1.
          2   -1    0    0  501    0  0.00000000000E+00 -0.00000000000E+00 -0.79885539556E+03  0.79885539556E+03  0.00000000000E+00 0. -1.
         25    2    1    2    0    0 -0.21298331253E+02 -0.73708202394E+00 -0.54800396944E+03  0.56250447035E+03  0.12509502967E+03 0.  0.
          5    1    3    3  502    0 -0.39286142751E+02 -0.49918073309E+02 -0.40861740771E+03  0.41354670032E+03  0.41800000000E+01 0. -1.
         -5    1    3    3    0  502  0.17987811498E+02  0.49180991285E+02 -0.13938656172E+03  0.14895777004E+03  0.41800000000E+01 0. -1.
        -11    1    1    2    0    0  0.20834610409E+02  0.43618203153E+02 -0.16396609137E+03  0.17094299563E+03  0.00000000000E+00 0. -1.
         11    1    1    2    0    0  0.46372084430E+00 -0.42881121129E+02 -0.70108920672E+02  0.82184343668E+02  0.00000000000E+00 0.  1.
</event>
<event>
 7    1  0.2619826E-009  0.1222133E+03  0.7561462E-02  0.1239490E+00
         -2   -1    0    0    0  501 -0.00000000000E+00  0.00000000000E+00  0.37863804319E+02  0.37863804319E+02  0.00000000000E+00 0.  1.
          2   -1    0    0  501    0  0.00000000000E+00 -0.00000000000E+00 -0.60097888680E+03  0.60097888680E+03  0.00000000000E+00 0. -1.
         25    2    1    2    0    0  0.48792874805E+02 -0.91404762589E+02 -0.27618140557E+03  0.32040514318E+03  0.12509081397E+03 0.  0.
          5    1    3    3  502    0  0.15860951869E+02 -0.72701821926E+02 -0.47073496728E+02  0.88150503116E+02  0.41800000000E+01 0. -1.
         -5    1    3    3    0  502  0.32931922937E+02 -0.18702940664E+02 -0.22910790884E+03  0.23225464007E+03  0.41800000000E+01 0. -1.
        -11    1    1    2    0    0 -0.69395752232E+02  0.85977682402E+02 -0.26819836455E+03  0.29006601842E+03  0.00000000000E+00 0. -1.
         11    1    1    2    0    0  0.20602877426E+02  0.54270801870E+01 -0.18735312368E+02  0.28371529517E+02  0.00000000000E+00 0.  1.
</event>
<event>
 7    1  0.3244020E-009  0.1550340E+03  0.7561462E-02  0.1194420E+00
         -1   -1    0    0    0  501 -0.00000000000E+00  0.00000000000E+00  0.61157808367E+02  0.61157808367E+02  0.00000000000E+00 0.  1.
          1   -1    0    0  501    0  0.00000000000E+00 -0.00000000000E+00 -0.49405010391E+03  0.49405010391E+03  0.00000000000E+00 0. -1.
         25    2    1    2    0    0 -0.12298011580E+03 -0.14994783448E+02 -0.14216936103E+03  0.22629099625E+03  0.12508611178E+03 0.  0.
          5    1    3    3  502    0 -0.35106761644E+02 -0.58186613400E+02 -0.96670761196E+02  0.11824075085E+03  0.41800000000E+01 0. -1.
         -5    1    3    3    0  502 -0.87873354152E+02  0.43191829952E+02 -0.45498599829E+02  0.10805024540E+03  0.41800000000E+01 0. -1.
        -11    1    1    2    0    0  0.12824144212E+02 -0.23928397664E+02 -0.18983578764E+02  0.33127075818E+02  0.00000000000E+00 0.  1.
         11    1    1    2    0    0  0.11015597158E+03  0.38923181113E+02 -0.27173935575E+03  0.29578984021E+03  0.00000000000E+00 0. -1.
</event>
<event>
 7    1  0.2619826E-009  0.7648786E+02  0.7561462E-02  0.1339325E+00
          2   -1    0    0  501    0  0.00000000000E+00  0.00000000000E+00  0.21218863345E+02  0.21218863345E+02  0.00000000000E+00 0. -1.
         -2   -1    0    0    0  501 -0.00000000000E+00 -0.00000000000E+00 -0.65029555462E+03  0.65029555462E+03  0.00000000000E+00 0.  1.
         25    2    1    2    0    0  0.17606376939E+02  0.40095813801E+02 -0.33387402923E+03  0.35921679407E+03  0.12508868437E+03 0.  0.
          5    1    3    3  502    0 -0.74501318974E+01  0.59762083223E+01  0.89643318204E+01  0.13749588219E+02  0.41800000000E+01 0. -1.
         -5    1    3    3    0  502  0.25056508837E+02  0.34119605478E+02 -0.34283836105E+03  0.34546720586E+03  0.41800000000E+01 0. -1.
        -11    1    1    2    0    0  0.29958112564E+02  0.93693718311E+01 -0.66772706087E+02  0.73782571892E+02  0.00000000000E+00 0. -1.
         11    1    1    2    0    0 -0.47564489503E+02 -0.49465185632E+02 -0.22842995596E+03  0.23851505200E+03  0.00000000000E+00 0.  1.
</event>
<event>
 7    1  0.2619826E-009  0.1415857E+03  0.7561462E-02  0.1211211E+00
         -1   -1    0    0    0  501 -0.00000000000E+00  0.00000000000E+00  0.32128435163E+03  0.32128435163E+03  0.00000000000E+00 0.  1.
          1   -1    0    0  501    0  0.00000000000E+00 -0.00000000000E+00 -0.80324959668E+02  0.80324959668E+02  0.00000000000E+00 0. -1.
         25    2    1    2    0    0 -0.81742232620E+02 -0.83680204191E+02  0.10203861178E+03  0.19935505558E+03  0.12508553363E+03 0.  0.
          5    1    3    3  502    0 -0.85155363530E+01 -0.91879579438E+02  0.80366183768E+02  0.12243597253E+03  0.41800000000E+01 0. -1.
         -5    1    3    3    0  502 -0.73226696267E+02  0.81993752474E+01  0.21672428011E+02  0.76919083045E+02  0.41800000000E+01 0. -1.
        -11    1    1    2    0    0  0.54262740884E+02  0.57048544692E+02  0.25826488512E+02  0.82861263619E+02  0.00000000000E+00 0. -1.
         11    1    1    2    0    0  0.27479491736E+02  0.26631659499E+02  0.11309429167E+03  0.11939299210E+03  0.00000000000E+00 0.  1.
</event>
<event>
 7    1  0.2619826E-009  0.1049112E+03  0.7561462E-02  0.1270295E+00
         -2   -1    0    0    0  501 -0.00000000000E+00  0.00000000000E+00  0.24179736378E+03  0.24179736378E+03  0.00000000000E+00 0. -1.
          2   -1    0    0  501    0  0.00000000000E+00 -0.00000000000E+00 -0.92977976090E+02  0.92977976090E+02  0.00000000000E+00 0.  1.
         25    2    1    2    0    0 -0.44134170349E+02  0.70334419916E+02  0.14758997540E+03  0.21053524679E+03  0.12509010227E+03 0.  0.
          5    1    3    3  502    0 -0.35686985293E+01  0.20423189625E+02 -0.21146566153E+02  0.29908058173E+02  0.41800000000E+01 0. -1.
         -5    1    3    3    0  502 -0.40565471820E+02  0.49911230291E+02  0.16873654155E+03  0.18062718862E+03  0.41800000000E+01 0. -1.
        -11    1    1    2    0    0 -0.14182260393E+02 -0.64009084373E+02 -0.28639083138E+00  0.65562042462E+02  0.00000000000E+00 0.  1.
         11    1    1    2    0    0  0.58316430742E+02 -0.63253355431E+01  0.15158031145E+01  0.58678050609E+02  0.00000000000E+00 0. -1.
</event>
<event>
 7    1  0.2619826E-009  0.9655636E+02  0.7561462E-02  0.1287709E+00
          1   -1    0    0  501    0  0.00000000000E+00  0.00000000000E+00  0.20627393656E+03  0.20627393656E+03  0.00000000000E+00 0. -1.
         -1   -1    0    0    0  501 -0.00000000000E+00 -0.00000000000E+00 -0.85332071353E+02  0.85332071353E+02  0.00000000000E+00 0.  1.
         25    2    1    2    0    0  0.71773865236E+02 -0.28455472041E+02  0.94791722333E+02  0.17491082151E+03  0.12508846165E+03 0.  0.
          5    1    3    3  502    0  0.34890763438E+02  0.23261609237E+02  0.10246325032E+03  0.11079105517E+03  0.41800000000E+01 0. -1.
         -5    1    3    3    0  502  0.36883101798E+02 -0.51717081278E+02 -0.76715279912E+01  0.64119766343E+02  0.41800000000E+01 0. -1.
        -11    1    1    2    0    0 -0.43385198817E+01  0.18673052863E+02  0.42496849471E+02  0.46620680743E+02  0.00000000000E+00 0. -1.
         11    1    1    2    0    0 -0.67435345354E+02  0.97824191779E+01 -0.16346706593E+02  0.70074505667E+02  0.00000000000E+00 0.  1.
</event>
<event>
 7    1  0.2619826E-009  0.1245789E+03  0.7561462E-02  0.1235729E+00
         -2   -1    0    0    0  501 -0.00000000000E+00  0.00000000000E+00  0.30491000013E+02  0.30491000013E+02  0.00000000000E+00 0.  1.
          2   -1    0    0  501    0  0.00000000000E+00 -0.00000000000E+00 -0.81422951086E+03  0.81422951086E+03  0.00000000000E+00 0. -1.
         25    2    1    2    0    0 -0.34381543293E+01  0.69495101152E+02 -0.18221924943E+03  0.23171832292E+03  0.12509251107E+03 0.  0.
          5    1    3    3  502    0 -0.28073529711E+02  0.93198034327E+02 -0.16851559942E+03  0.19465090886E+03  0.41800000000E+01 0. -1.
         -5    1    3    3    0  502  0.24635375382E+02 -0.23702933175E+02 -0.13703650004E+02  0.37067414055E+02  0.41800000000E+01 0. -1.
        -11    1    1    2    0    0  0.37059906437E+02 -0.74587605020E+02 -0.45782213734E+03  0.46533628370E+03  0.00000000000E+00 0. -1.
         11    1    1    2    0    0 -0.33621752108E+02  0.50925038683E+01 -0.14369712408E+03  0.14766590425E+03  0.00000000000E+00 0.  1.
</event>
<event>
 7    1  0.2619826E-009  0.7129312E+02  0.7561462E-02  0.1355750E+00
          2   -1    0    0  501    0  0.00000000000E+00  0.00000000000E+00  0.35740529511E+02  0.35740529511E+02  0.00000000000E+00 0.  1.
         -2   -1    0    0    0  501 -0.00000000000E+00 -0.00000000000E+00 -0.47461609741E+03  0.47461609741E+03  0.00000000000E+00 0. -1.
         25    2    1    2    0    0  0.51211049226E+02 -0.46281713010E+02 -0.20928759905E+03  0.25340336613E+03  0.12508956124E+03 0.  0.
          5    1    3    3  502    0  0.38611982328E+02 -0.42333745582E+02 -0.22513957256E+03  0.23235389113E+03  0.41800000000E+01 0.  1.
         -5    1    3    3    0  502  0.12599066898E+02 -0.39479674275E+01  0.15851973511E+02  0.21049474999E+02  0.41800000000E+01 0.  1.
        -11    1    1    2    0    0 -0.20534559765E+02  0.30555785179E+02 -0.21723793253E+03  0.22033529786E+03  0.00000000000E+00 0. -1.
         11    1    1    2    0    0 -0.30676489461E+02  0.15725927831E+02 -0.12350036321E+02  0.36617962927E+02  0.00000000000E+00 0.  1.
</event>
<event>
 7    1  0.2619826E-009  0.1344118E+03  0.7561462E-02  0.1221052E+00
         -2   -1    0    0    0  501 -0.00000000000E+00  0.00000000000E+00  0.45784196073E+02  0.45784196073E+02  0.00000000000E+00 0.  1.
          2   -1    0    0  501    0  0.00000000000E+00 -0.00000000000E+00 -0.63215040864E+03  0.63215040864E+03  0.00000000000E+00 0. -1.
         25    2    1    2    0    0  0.83185319901E+02 -0.37196927967E+02 -0.49892293229E+03  0.52237510504E+03  0.12509296188E+03 0.  0.
          5    1    3    3  502    0 -0.32016144573E+02 -0.12874069246E+02 -0.15440620139E+03  0.15827040974E+03  0.41800000000E+01 0.  1.
         -5    1    3    3    0  502  0.11520146447E+03 -0.24322858722E+02 -0.34451673090E+03  0.36410469530E+03  0.41800000000E+01 0.  1.
        -11    1    1    2    0    0 -0.96420681205E+02  0.29029739621E+02 -0.44881598085E+02  0.11024532368E+03  0.00000000000E+00 0.  1.
         11    1    1    2    0    0  0.13235361304E+02  0.81671883462E+01 -0.42561682194E+02  0.45314175989E+02  0.00000000000E+00 0. -1.
</event>
<event>
 7    1  0.2619826E-009  0.7493463E+02  0.7561462E-02  0.1344074E+00
          1   -1    0    0  501    0  0.00000000000E+00  0.00000000000E+00  0.74201182637E+03  0.74201182637E+03  0.00000000000E+00 0. -1.
         -1   -1    0    0    0  501 -0.00000000000E+00 -0.00000000000E+00 -0.30943537911E+02  0.30943537911E+02  0.00000000000E+00 0.  1.
         25    2    1    2    0    0 -0.11806382849E+02 -0.13308259373E+02  0.64685558668E+03  0.65908048522E+03  0.12509370701E+03 0.  0.
          5    1    3    3  502    0  0.45827297210E+02 -0.16392308163E+02  0.47991796254E+03  0.48239773228E+03  0.41800000000E+01 0. -1.
         -5    1    3    3    0  502 -0.57633680060E+02  0.30840487898E+01  0.16693762414E+03  0.17668275294E+03  0.41800000000E+01 0. -1.
        -11    1    1    2    0    0  0.22805744718E+02 -0.34917165624E+01  0.83138997581E+02  0.86280861119E+02  0.00000000000E+00 0. -1.
         11    1    1    2    0    0 -0.10999361869E+02  0.16799975936E+02 -0.18926295807E+02  0.27594017938E+02  0.00000000000E+00 0.  1.
</event>
<event>
 7    1  0.2619826E-009  0.1094691E+03  0.7561462E-02  0.1261556E+00
          1   -1    0    0  501    0  0.00000000000E+00  0.00000000000E+00  0.43170200645E+03  0.43170200645E+03  0.00000000000E+00 0. -1.
         -1   -1    0    0    0  501 -0.00000000000E+00 -0.00000000000E+00 -0.47070313704E+02  0.47070313704E+02  0.00000000000E+00 0.  1.
         25    2    1    2    0    0  0.45665499320E+02  0.45183872702E+02  0.32042646592E+03  0.34992589245E+03  0.12509232576E+03 0.  0.
          5    1    3    3  502    0  0.43592269235E+02 -0.36962037935E+02  0.11107463913E+03  0.12498610340E+03  0.41800000000E+01 0.  1.
         -5    1    3    3    0  502  0.20732300854E+01  0.82145910637E+02  0.20935182679E+03  0.22493978905E+03  0.41800000000E+01 0.  1.
        -11    1    1    2    0    0 -0.10936676038E+02  0.95585089700E+01 -0.18652447295E+02  0.23640849532E+02  0.00000000000E+00 0.  1.
         11    1    1    2    0    0 -0.34728823282E+02 -0.54742381672E+02  0.82857674122E+02  0.10520557817E+03  0.00000000000E+00 0. -1.
</event>
<event>
 7    1  0.2667592E-009  0.8551672E+02  0.7561462E-02  0.1314087E+00
          2   -1    0    0  501    0  0.00000000000E+00  0.00000000000E+00  0.47112796739E+03  0.47112796739E+03  0.00000000000E+00 0. -1.
         -2   -1    0    0    0  501 -0.00000000000E+00 -0.00000000000E+00 -0.44216649775E+02  0.44216649775E+02  0.00000000000E+00 0.  1.
         25    2    1    2    0    0  0.10776599431E+02  0.29993802354E+02  0.39187199471E+03  0.41258472916E+03  0.12508691068E+03 0.  0.
          5    1    3    3  502    0  0.47527312518E+02 -0.32946313910E+01  0.58693203186E+02  0.75710399097E+02  0.41800000000E+01 0. -1.
         -5    1    3    3    0  502 -0.36750713087E+02  0.33288433745E+02  0.33317879152E+03  0.33687433006E+03  0.41800000000E+01 0. -1.
        -11    1    1    2    0    0  0.23487033275E+02 -0.31331956075E+02  0.51522587852E+02  0.64714057688E+02  0.00000000000E+00 0. -1.
         11    1    1    2    0    0 -0.34263632706E+02  0.13381537209E+01 -0.16483264944E+02  0.38045830321E+02  0.00000000000E+00 0.  1.
</event>
<event>
 7    1  0.2619826E-009  0.1126278E+03  0.7561462E-02  0.1255780E+00
         -1   -1    0    0    0  501 -0.00000000000E+00  0.00000000000E+00  0.45990200628E+02  0.45990200628E+02  0.00000000000E+00 0.  1.
          1   -1    0    0  501    0  0.00000000000E+00 -0.00000000000E+00 -0.33587656363E+03  0.33587656363E+03  0.00000000000E+00 0. -1.
         25    2    1    2    0    0 -0.19787106140E+02 -0.29762453544E+02 -0.89549497358E+02  0.15793325854E+03  0.12508584438E+03 0.  0.
          5    1    3    3  502    0 -0.54925899872E+02  0.27383167234E+02 -0.31451397049E+02  0.69089471708E+02  0.41800000000E+01 0. -1.
         -5    1    3    3    0  502  0.35138793732E+02 -0.57145620778E+02 -0.58098100309E+02  0.88843786831E+02  0.41800000000E+01 0. -1.
        -11    1    1    2    0    0  0.44477678088E+02  0.48293127463E+02 -0.10611580004E+03  0.12478402553E+03  0.00000000000E+00 0.  1.
         11    1    1    2    0    0 -0.24690571948E+02 -0.18530673919E+02 -0.94221065604E+02  0.99149480193E+02  0.00000000000E+00 0. -1.
</event>
<event>
 7    1  0.2619826E-009  0.2095578E+03  0.7561462E-02  0.1141917E+00
         -1   -1    0    0    0  501 -0.00000000000E+00  0.00000000000E+00  0.39467857834E+03  0.39467857834E+03  0.00000000000E+00 0.  1.
          1   -1    0    0  501    0  0.00000000000E+00 -0.00000000000E+00 -0.12983058296E+03  0.12983058296E+03  0.00000000000E+00 0. -1.
         25    2    1    2    0    0 -0.38777087997E+01 -0.20482696410E+03  0.14127402949E+03  0.27852211830E+03  0.12508835727E+03 0.  0.
          5    1    3    3  502    0 -0.15781058778E+02 -0.12867862396E+03  0.15065779190E+02  0.13058208217E+03  0.41800000000E+01 0. -1.
         -5    1    3    3    0  502  0.11903349979E+02 -0.76148340146E+02  0.12620825030E+03  0.14794003613E+03  0.41800000000E+01 0. -1.
        -11    1    1    2    0    0 -0.25482983953E+02  0.11186240669E+03  0.74977890502E+02  0.13705569877E+03  0.00000000000E+00 0. -1.
         11    1    1    2    0    0  0.29360692752E+02  0.92964557419E+02  0.48596075393E+02  0.10893134424E+03  0.00000000000E+00 0.  1.
</event>
<event>
 7    1  0.3129088E-009  0.1334798E+03  0.7561462E-02  0.1222382E+00
         -2   -1    0    0    0  501 -0.00000000000E+00  0.00000000000E+00  0.38630859512E+02  0.38630859512E+02  0.00000000000E+00 0.  1.
          2   -1    0    0  501    0  0.00000000000E+00 -0.00000000000E+00 -0.61874711970E+03  0.61874711970E+03  0.00000000000E+00 0. -1.
         25    2    1    2    0    0  0.10721793823E+03 -0.20029320498E+01 -0.26155406341E+03  0.30912575509E+03  0.12509399011E+03 0.  0.
          5    1    3    3  502    0 -0.40001463512E+01  0.28274105151E+02 -0.70553332767E+01  0.29709869077E+02  0.41800000000E+01 0. -1.
         -5    1    3    3    0  502  0.11121808459E+03 -0.30277037201E+02 -0.25449873013E+03  0.27941588602E+03  0.41800000000E+01 0. -1.
        -11    1    1    2    0    0 -0.49163295426E+02  0.30737945722E+02 -0.23756473720E+03  0.24453804466E+03  0.00000000000E+00 0. -1.
         11    1    1    2    0    0 -0.58054642808E+02 -0.28735013672E+02 -0.80997459581E+02  0.10371417946E+03  0.00000000000E+00 0.  1.
</event>
<event>
 7    1  0.2619826E-009  0.1081967E+03  0.7561462E-02  0.1263946E+00
          2   -1    0    0  501    0  0.00000000000E+00  0.00000000000E+00  0.10181234896E+03  0.10181234896E+03  0.00000000000E+00 0. -1.
         -2   -1    0    0    0  501 -0.00000000000E+00 -0.00000000000E+00 -0.14111453653E+03  0.14111453653E+03  0.00000000000E+00 0.  1.
         25    2    1    2    0    0 -0.48305056461E+02 -0.21716657578E+01 -0.29767624241E+02  0.13737044271E+03  0.12508570048E+03 0.  0.
          5    1    3    3  502    0 -0.53927615354E+02  0.49875401972E+02 -0.40180888206E+02  0.83831495255E+02  0.41800000000E+01 0. -1.
         -5    1    3    3    0  502  0.56225588924E+01 -0.52047067730E+02  0.10413263965E+02  0.53538947451E+02  0.41800000000E+01 0. -1.
        -11    1    1    2    0    0  0.63527813809E+02 -0.17056627889E+02 -0.31227905869E+02  0.72814104315E+02  0.00000000000E+00 0.  1.
         11    1    1    2    0    0 -0.15222757347E+02  0.19228293647E+02  0.21693342537E+02  0.32742338467E+02  0.00000000000E+00 0. -1.
</event>
<event>
 7    1  0.2619826E-009  0.9249766E+02  0.7561462E-02  0.1296914E+00
         -2   -1    0    0    0  501 -0.00000000000E+00  0.00000000000E+00  0.14859010694E+03  0.14859010694E+03  0.00000000000E+00 0.  1.
          2   -1    0    0  501    0  0.00000000000E+00 -0.00000000000E+00 -0.92625713141E+02  0.92625713141E+02  0.00000000000E+00 0. -1.
         25    2    1    2    0    0  0.57073720583E+01 -0.23588164374E+02 -0.84908391448E+01  0.12768151272E+03  0.12506597757E+03 0.  0.
          5    1    3    3  502    0  0.54541210849E+02 -0.29581247607E+02  0.26048949377E+02  0.67422652385E+02  0.41800000000E+01 0. -1.
         -5    1    3    3    0  502 -0.48833838791E+02  0.59930832332E+01 -0.34539788522E+02  0.60258860335E+02  0.41800000000E+01 0. -1.
        -11    1    1    2    0    0 -0.25787502361E+02  0.39935333182E+02  0.39260363016E+01  0.47699474582E+02  0.00000000000E+00 0. -1.
         11    1    1    2    0    0  0.20080130303E+02 -0.16347168808E+02  0.60529196642E+02  0.65834832780E+02  0.00000000000E+00 0.  1.
</event>
<event>
 7    1  0.2619826E-009  0.7453666E+02  0.7561462E-02  0.1345312E+00
          2   -1    0    0  501    0  0.00000000000E+00  0.00000000000E+00  0.12108894882E+03  0.12108894882E+03  0.00000000000E+00 0. -1.
         -2   -1    0    0    0  501 -0.00000000000E+00 -0.00000000000E+00 -0.10360633678E+03  0.10360633678E+03  0.00000000000E+00 0.  1.
         25    2    1    2    0    0 -0.12189226563E+02  0.18327106901E+02 -0.91364737350E+01  0.12733408248E+03  0.12508410498E+03 0.  0.
          5    1    3    3  502    0  0.39735516832E+01  0.55443143736E+02  0.36157289326E+02  0.66442104660E+02  0.41800000000E+01 0. -1.
         -5    1    3    3    0  502 -0.16162778246E+02 -0.37116036835E+02 -0.45293763061E+02  0.60891977823E+02  0.41800000000E+01 0. -1.
        -11    1    1    2    0    0 -0.13575299873E+02 -0.22749409111E+02 -0.26927333063E+02  0.37774404660E+02  0.00000000000E+00 0.  1.
         11    1    1    2    0    0  0.25764526436E+02  0.44223022098E+01  0.53546418843E+02  0.59586798456E+02  0.00000000000E+00 0. -1.
</event>
<event>
 7    1  0.2619826E-009  0.1344919E+03  0.7561462E-02  0.1220939E+00
          2   -1    0    0  501    0  0.00000000000E+00  0.00000000000E+00  0.11089996416E+04  0.11089996416E+04  0.00000000000E+00 0. -1.
         -2   -1    0    0    0  501 -0.00000000000E+00 -0.00000000000E+00 -0.19274159186E+02  0.19274159186E+02  0.00000000000E+00 0.  1.
         25    2    1    2    0    0  0.39813795545E+02 -0.91763466275E+02  0.52686331249E+03  0.55067113780E+03  0.12509228554E+03 0.  0.
          5    1    3    3  502    0 -0.37132564248E+02 -0.42356578966E+02  0.31277426219E+03  0.31783347621E+03  0.41800000000E+01 0. -1.
         -5    1    3    3    0  502  0.76946359793E+02 -0.49406887309E+02  0.21408905030E+03  0.23283766159E+03  0.41800000000E+01 0. -1.
        -11    1    1    2    0    0 -0.39634452901E+02  0.12301043907E+02  0.10513227070E+03  0.11302654502E+03  0.00000000000E+00 0.  1.
         11    1    1    2    0    0 -0.17934264346E+00  0.79462422367E+02  0.45772989925E+03  0.46457611798E+03  0.00000000000E+00 0. -1.
</event>
<event>
 7    1  0.2619826E-009  0.1090770E+03  0.7561462E-02  0.1262289E+00
         -2   -1    0    0    0  501 -0.00000000000E+00  0.00000000000E+00  0.12610508407E+02  0.12610508407E+02  0.00000000000E+00 0.  1.
          2   -1    0    0  501    0  0.00000000000E+00 -0.00000000000E+00 -0.15557150948E+04  0.15557150948E+04  0.00000000000E+00 0. -1.
         25    2    1    2    0    0 -0.64100890298E+02  0.38059747548E+02 -0.11129736028E+04  0.11224593714E+04  0.12508929392E+03 0.  0.
          5    1    3    3  502    0 -0.89017888308E+02  0.68394343117E+01 -0.96506340131E+03  0.96919337763E+03  0.41800000000E+01 0.  1.
         -5    1    3    3    0  502  0.24916998010E+02  0.31220313236E+02 -0.14791020146E+03  0.15326599376E+03  0.41800000000E+01 0.  1.
        -11    1    1    2    0    0  0.62090740139E+02 -0.47994264779E+02 -0.42846709932E+03  0.43559472525E+03  0.00000000000E+00 0. -1.
         11    1    1    2    0    0  0.20101501591E+01  0.99345172309E+01 -0.16638843117E+01  0.10271506573E+02  0.00000000000E+00 0.  1.
</event>
<event>
 7    1  0.2619826E-009  0.9647206E+02  0.7561462E-02  0.1287895E+00
         -2   -1    0    0    0  501 -0.00000000000E+00  0.00000000000E+00  0.17462798766E+02  0.17462798766E+02  0.00000000000E+00 0.  1.
          2   -1    0    0  501    0  0.00000000000E+00 -0.00000000000E+00 -0.96815831193E+03  0.96815831193E+03  0.00000000000E+00 0. -1.
         25    2    1    2    0    0 -0.42634139975E+02  0.24245637332E+02 -0.71888919288E+03  0.73133757211E+03  0.12508977544E+03 0.  0.
          5    1    3    3  502    0 -0.49999244454E+02  0.66713690357E+02 -0.34528619175E+03  0.35523325794E+03  0.41800000000E+01 0.  1.
         -5    1    3    3    0  502  0.73651044791E+01 -0.42468053025E+02 -0.37360300113E+03  0.37610431418E+03  0.41800000000E+01 0.  1.
        -11    1    1    2    0    0 -0.85216091263E+01 -0.98446712662E+01  0.31464748342E+01  0.13395360328E+02  0.00000000000E+00 0.  1.
         11    1    1    2    0    0  0.51155749101E+02 -0.14400966066E+02 -0.23495279512E+03  0.24088817826E+03  0.00000000000E+00 0. -1.
</event>
<event>
 7    1  0.2619826E-009  0.2564483E+03  0.7561462E-02  0.1109296E+00
         -1   -1    0    0    0  501 -0.00000000000E+00  0.00000000000E+00  0.38784735883E+02  0.38784735883E+02  0.00000000000E+00 0.  1.
          1   -1    0    0  501    0  0.00000000000E+00 -0.00000000000E+00 -0.19415082063E+04  0.19415082063E+04  0.00000000000E+00 0. -1.
         25    2    1    2    0    0  0.23250396008E+03  0.84839295240E+02 -0.80934755233E+03  0.85553964106E+03  0.12509524169E+03 0.  0.
          5    1    3    3  502    0  0.17489728775E+03  0.50506939232E+02 -0.38481848246E+03  0.42572614321E+03  0.41800000000E+01 0. -1.
         -5    1    3    3    0  502  0.57606672331E+02  0.34332356008E+02 -0.42452906987E+03  0.42981349785E+03  0.41800000000E+01 0. -1.
        -11    1    1    2    0    0 -0.75876790530E+02  0.15713694777E+02 -0.34185306637E+03  0.35052492997E+03  0.00000000000E+00 0.  1.
         11    1    1    2    0    0 -0.15662716955E+03 -0.10055299002E+03 -0.75152285174E+03  0.77422837117E+03  0.00000000000E+00 0. -1.
</event>
<event>
 7    1  0.2619826E-009  0.1143118E+03  0.7561462E-02  0.1252787E+00
         -1   -1    0    0    0  501 -0.00000000000E+00  0.00000000000E+00  0.21938516076E+03  0.21938516076E+03  0.00000000000E+00 0.  1.
          1   -1    0    0  501    0  0.00000000000E+00 -0.00000000000E+00 -0.74572749253E+02  0.74572749253E+02  0.00000000000E+00 0. -1.
         25    2    1    2    0    0  0.43356915522E+02  0.13745243196E+02  0.23101411821E+02  0.13508936897E+03  0.12508680405E+03 0.  0.
          5    1    3    3  502    0 -0.41336077251E+02  0.13387644106E+02 -0.87297325954E+01  0.44514951740E+02  0.41800000000E+01 0. -1.
         -5    1    3    3    0  502  0.84692992773E+02  0.35759908927E+00  0.31831144416E+02  0.90574417231E+02  0.41800000000E+01 0. -1.
        -11    1    1    2    0    0 -0.59517751889E+02 -0.38303200465E+02  0.99103637488E+02  0.12178271191E+03  0.00000000000E+00 0.  1.
         11    1    1    2    0    0  0.16160836367E+02  0.24557957269E+02  0.22607362202E+02  0.37085829140E+02  0.00000000000E+00 0. -1.
</event>
<event>
 7    1  0.2619826E-009  0.1166678E+03  0.7561462E-02  0.1248698E+00
          2   -1    0    0  501    0  0.00000000000E+00  0.00000000000E+00  0.45797699136E+03  0.45797699136E+03  0.00000000000E+00 0.  1.
         -2   -1    0    0    0  501 -0.00000000000E+00 -0.00000000000E+00 -0.88343589388E+02  0.88343589388E+02  0.00000000000E+00 0. -1.
         25    2    1    2    0    0  0.12447739549E+02  0.46273846673E+02  0.41238963237E+03  0.43359842304E+03  0.12508464523E+03 0.  0.
          5    1    3    3  502    0  0.89180613943E+01  0.87378205166E+02  0.32784195854E+03  0.33942938107E+03  0.41800000000E+01 0. -1.
         -5    1    3    3    0  502  0.35296781544E+01 -0.41104358493E+02  0.84547673829E+02  0.94169041967E+02  0.41800000000E+01 0. -1.
        -11    1    1    2    0    0 -0.11406180719E+02  0.27699784550E+02 -0.81363899024E+01  0.31041582811E+02  0.00000000000E+00 0.  1.
         11    1    1    2    0    0 -0.10415588294E+01 -0.73973631223E+02 -0.34619840487E+02  0.81680574903E+02  0.00000000000E+00 0. -1.
</event>
<event>
 7    1  0.2619826E-009  0.2552897E+03  0.7561462E-02  0.1110007E+00
         -2   -1    0    0    0  501 -0.00000000000E+00  0.00000000000E+00  0.98004228791E+02  0.98004228791E+02  0.00000000000E+00 0. -1.
          2   -1    0    0  501    0  0.00000000000E+00 -0.00000000000E+00 -0.97578326659E+03  0.97578326659E+03  0.00000000000E+00 0.  1.
         25    2    1    2    0    0  0.13616113417E+03 -0.21354036617E+03 -0.20426171941E+03  0.34858666175E+03  0.12510183169E+03 0.  0.
          5    1    3    3  502    0  0.79489454193E+02 -0.97594003545E+02 -0.26200542874E+02  0.12863554603E+03  0.41800000000E+01 0.  1.
         -5    1    3    3    0  502  0.56671679979E+02 -0.11594636262E+03 -0.17806117654E+03  0.21995111572E+03  0.41800000000E+01 0.  1.
        -11    1    1    2    0    0 -0.10503403803E+03  0.13509568456E+03 -0.54680448360E+03  0.57295561470E+03  0.00000000000E+00 0.  1.
         11    1    1    2    0    0 -0.31127096140E+02  0.78444681608E+02 -0.12671283478E+03  0.15224521892E+03  0.00000000000E+00 0. -1.
</event>
<event>
 7    1  0.2619826E-009  0.6657948E+02  0.7561462E-02  0.1372127E+00
         -4   -1    0    0    0  501 -0.00000000000E+00  0.00000000000E+00  0.10491244667E+03  0.10491244667E+03  0.00000000000E+00 0.  1.
          4   -1    0    0  501    0  0.00000000000E+00 -0.00000000000E+00 -0.13836551615E+03  0.13836551615E+03  0.00000000000E+00 0. -1.
         25    2    1    2    0    0 -0.34234916258E+02 -0.88442694261E+01  0.18661086237E+02  0.13128652654E+03  0.12505065101E+03 0.  0.
          5    1    3    3  502    0 -0.39255129924E+02 -0.14498436439E+02 -0.48143682609E+02  0.63925397611E+02  0.41800000000E+01 0.  1.
         -5    1    3    3    0  502  0.50202136662E+01  0.56541670132E+01  0.66804768846E+02  0.67361128928E+02  0.41800000000E+01 0.  1.
        -11    1    1    2    0    0 -0.18026254817E+02  0.22127947692E+02  0.95308240057E+01  0.30090339613E+02  0.00000000000E+00 0.  1.
         11    1    1    2    0    0  0.52261171075E+02 -0.13283678266E+02 -0.61644979718E+02  0.81901096665E+02  0.00000000000E+00 0. -1.
</event>
<event>
 7    1  0.2619826E-009  0.1006672E+03  0.7561462E-02  0.1278899E+00
         -1   -1    0    0    0  501 -0.00000000000E+00  0.00000000000E+00  0.11890507110E+03  0.11890507110E+03  0.00000000000E+00 0.  1.
          1   -1    0    0  501    0  0.00000000000E+00 -0.00000000000E+00 -0.17083612514E+03  0.17083612514E+03  0.00000000000E+00 0. -1.
         25    2    1    2    0    0 -0.42460260272E+02  0.71369302731E+02  0.12081912918E+02  0.15063272759E+03  0.12509114648E+03 0.  0.
          5    1    3    3  502    0 -0.28065709998E+02  0.14218498640E+02 -0.53596811105E+02  0.62289167131E+02  0.41800000000E+01 0.  1.
         -5    1    3    3    0  502 -0.14394550273E+02  0.57150804091E+02  0.65678724023E+02  0.88343560461E+02  0.41800000000E+01 0.  1.
        -11    1    1    2    0    0  0.63404174522E+02 -0.52396403225E+02 -0.72455809845E+02  0.10961440051E+03  0.00000000000E+00 0. -1.
         11    1    1    2    0    0 -0.20943914251E+02 -0.18972899505E+02  0.84428428828E+01  0.29494068145E+02  0.00000000000E+00 0.  1.
</event>
<event>
 7    1  0.2619826E-009  0.1182663E+03  0.7561462E-02  0.1245985E+00
          2   -1    0    0  501    0  0.00000000000E+00  0.00000000000E+00  0.48299451305E+03  0.48299451305E+03  0.00000000000E+00 0. -1.
         -2   -1    0    0    0  501 -0.00000000000E+00 -0.00000000000E+00 -0.36160285103E+02  0.36160285103E+02  0.00000000000E+00 0.  1.
         25    2    1    2    0    0  0.93448762101E+01  0.55252687383E+02  0.14628732264E+03  0.20047200517E+03  0.12509539527E+03 0.  0.
          5    1    3    3  502    0  0.65158247245E+02  0.28565581081E+02  0.10133032609E+03  0.12388259358E+03  0.41800000000E+01 0.  1.
         -5    1    3    3    0  502 -0.55813371035E+02  0.26687106302E+02  0.44956996554E+02  0.76589411594E+02  0.41800000000E+01 0.  1.
        -11    1    1    2    0    0 -0.40817334839E+02 -0.58808767081E+02  0.23861681686E+03  0.24912348584E+03  0.00000000000E+00 0.  1.
         11    1    1    2    0    0  0.31472458629E+02  0.35560796978E+01  0.61930088444E+02  0.69559307139E+02  0.00000000000E+00 0. -1.
</event>
<event>
 6    1  0.2619826E-009  0.1665239E+03  0.7561462E-02  0.1181522E+00
         -2   -1    0    0    0  501 -0.00000000000E+00  0.00000000000E+00  0.47410879422E+03  0.47410879422E+03  0.00000000000E+00 0.  1.
          2   -1    0    0  501    0  0.00000000000E+00 -0.00000000000E+00 -0.70922401301E+02  0.70922401301E+02  0.00000000000E+00 0. -1.
          5    1    1    2  502    0 -0.43164806853E+00  0.60262873002E+02  0.78946356668E+02  0.99407242260E+02  0.41800000000E+01 0.  1.
         -5    1    1    2    0  502 -0.11525084883E+03  0.12254288771E+02  0.50115067996E+02  0.12634048516E+03  0.41800000000E+01 0.  1.
        -11    1    1    2    0    0  0.32808739049E+02 -0.65789371443E+02  0.17556759980E+03  0.19033821701E+03  0.00000000000E+00 0. -1.
         11    1    1    2    0    0  0.82873757854E+02 -0.67277903298E+01  0.98557368451E+02  0.12894525109E+03  0.00000000000E+00 0.  1.
</event>
<event>
 7    1  0.2619826E-009  0.8520166E+02  0.7561462E-02  0.1314906E+00
         -1   -1    0    0    0  501 -0.00000000000E+00  0.00000000000E+00  0.14786834288E+03  0.14786834288E+03  0.00000000000E+00 0.  1.
          1   -1    0    0  501    0  0.00000000000E+00 -0.00000000000E+00 -0.12587236484E+03  0.12587236484E+03  0.00000000000E+00 0. -1.
         25    2    1    2    0    0  0.13534012785E+02  0.48093451207E+02  0.77226250701E+02  0.15526556609E+03  0.12508937871E+03 0.  0.
          5    1    3    3  502    0  0.49464837386E+01 -0.14491996173E+02  0.89397893798E+02  0.90796153387E+02  0.41800000000E+01 0.  1.
         -5    1    3    3    0  502  0.85875290464E+01  0.62585447380E+02 -0.12171643097E+02  0.64469412706E+02  0.41800000000E+01 0.  1.
        -11    1    1    2    0    0 -0.45490217405E+02 -0.26393022682E+02 -0.19019458481E+01  0.52626694023E+02  0.00000000000E+00 0.  1.
         11    1    1    2    0    0  0.31956204619E+02 -0.21700428525E+02 -0.53328326811E+02  0.65848447608E+02  0.00000000000E+00 0. -1.
</event>
<event>
 7    1  0.2619826E-009  0.1475424E+03  0.7561462E-02  0.1203526E+00
          2   -1    0    0  501    0  0.00000000000E+00  0.00000000000E+00  0.24484969131E+03  0.24484969131E+03  0.00000000000E+00 0.  1.
         -2   -1    0    0    0  501 -0.00000000000E+00 -0.00000000000E+00 -0.11551866314E+03  0.11551866314E+03  0.00000000000E+00 0. -1.
         25    2    1    2    0    0 -0.80347488723E+02 -0.80389187744E+02  0.11530436928E+03  0.20459916940E+03  0.12509029576E+03 0.  0.
          5    1    3    3  502    0 -0.11254446054E+03 -0.63120332094E+02  0.72133742066E+02  0.14788908366E+03  0.41800000000E+01 0.  1.
         -5    1    3    3    0  502  0.32196971821E+02 -0.17268855651E+02  0.43170627213E+02  0.56710085733E+02  0.41800000000E+01 0.  1.
        -11    1    1    2    0    0  0.84929293323E+02  0.50167540130E+02  0.48312794420E+02  0.10983575489E+03  0.00000000000E+00 0.  1.
         11    1    1    2    0    0 -0.45818046001E+01  0.30221647614E+02 -0.34286135524E+02  0.45933430169E+02  0.00000000000E+00 0. -1.
</event>
<event>
 7    1  0.2619826E-009  0.8137495E+02  0.7561462E-02  0.1325194E+00
          1   -1    0    0  501    0  0.00000000000E+00  0.00000000000E+00  0.49019311601E+03  0.49019311601E+03  0.00000000000E+00 0. -1.
         -1   -1    0    0    0  501 -0.00000000000E+00 -0.00000000000E+00 -0.27645889957E+02  0.27645889957E+02  0.00000000000E+00 0.  1.
         25    2    1    2    0    0  0.24710402660E+02  0.26485341542E+02  0.20980694279E+03  0.24693842988E+03  0.12509019784E+03 0.  0.
          5    1    3    3  502    0  0.13541549190E+02 -0.26239366063E+02  0.18512844720E+03  0.18751504539E+03  0.41800000000E+01 0.  1.
         -5    1    3    3    0  502  0.11168853471E+02  0.52724707606E+02  0.24678495589E+02  0.59423384492E+02  0.41800000000E+01 0.  1.
        -11    1    1    2    0    0  0.68044753004E+01 -0.42832085394E+02  0.55219225927E+02  0.70214324288E+02  0.00000000000E+00 0.  1.
         11    1    1    2    0    0 -0.31514877961E+02  0.16346743851E+02  0.19752105733E+03  0.20068625179E+03  0.00000000000E+00 0. -1.
</event>
<event>
 7    1  0.2619826E-009  0.9948197E+02  0.7561462E-02  0.1281389E+00
         -1   -1    0    0    0  501 -0.00000000000E+00  0.00000000000E+00  0.51906321630E+02  0.51906321630E+02  0.00000000000E+00 0.  1.
          1   -1    0    0  501    0  0.00000000000E+00 -0.00000000000E+00 -0.22968604736E+03  0.22968604736E+03  0.00000000000E+00 0. -1.
         25    2    1    2    0    0  0.28795521590E+02 -0.21390358729E+02 -0.16213980058E+03  0.20789984436E+03  0.12508517435E+03 0.  0.
          5    1    3    3  502    0  0.60191398292E+02 -0.56596567660E+02 -0.10049677691E+03  0.13016624167E+03  0.41800000000E+01 0. -1.
         -5    1    3    3    0  502 -0.31395876703E+02  0.35206208931E+02 -0.61643023666E+02  0.77733602695E+02  0.41800000000E+01 0. -1.
        -11    1    1    2    0    0 -0.12175315810E+02 -0.20483777630E+02  0.46565418696E+01  0.24279762010E+02  0.00000000000E+00 0. -1.
         11    1    1    2    0    0 -0.16620205780E+02  0.41874136359E+02 -0.20296467014E+02  0.49412762615E+02  0.00000000000E+00 0.  1.
</event>
<event>
 7    1  0.2619826E-009  0.1198534E+03  0.7561462E-02  0.1243339E+00
          1   -1    0    0  501    0  0.00000000000E+00  0.00000000000E+00  0.23135623662E+02  0.23135623662E+02  0.00000000000E+00 0. -1.
         -1   -1    0    0    0  501 -0.00000000000E+00 -0.00000000000E+00 -0.93507071663E+03  0.93507071663E+03  0.00000000000E+00 0.  1.
         25    2    1    2    0    0 -0.94329502781E+02  0.31489298961E+02 -0.42606302096E+03  0.45504371973E+03  0.12508180520E+03 0.  0.
          5    1    3    3  502    0 -0.34804676731E+02  0.62355032695E+02 -0.10515720112E+03  0.12718107160E+03  0.41800000000E+01 0. -1.
         -5    1    3    3    0  502 -0.59524826050E+02 -0.30865733733E+02 -0.32090581984E+03  0.32786264813E+03  0.41800000000E+01 0. -1.
        -11    1    1    2    0    0  0.82815721979E+02 -0.21047163157E+02 -0.47829991740E+03  0.48587265602E+03  0.00000000000E+00 0.  1.
         11    1    1    2    0    0  0.11513780803E+02 -0.10442135804E+02 -0.75721546141E+01  0.17289964547E+02  0.00000000000E+00 0. -1.
</event>
<event>
 7    1  0.2619826E-009  0.7949815E+02  0.7561462E-02  0.1330482E+00
         -1   -1    0    0    0  501 -0.00000000000E+00  0.00000000000E+00  0.51044551954E+02  0.51044551954E+02  0.00000000000E+00 0. -1.
          1   -1    0    0  501    0  0.00000000000E+00 -0.00000000000E+00 -0.35141013554E+03  0.35141013554E+03  0.00000000000E+00 0.  1.
         25    2    1    2    0    0  0.34321901599E+02 -0.39134271912E+02 -0.26572966442E+03  0.29827615197E+03  0.12508766571E+03 0.  0.
          5    1    3    3  502    0  0.53706069266E+02 -0.22059989923E+02 -0.26580909847E+03  0.27210831347E+03  0.41800000000E+01 0.  1.
         -5    1    3    3    0  502 -0.19384167667E+02 -0.17074281989E+02  0.79434054064E-01  0.26167838492E+02  0.41800000000E+01 0.  1.
        -11    1    1    2    0    0 -0.71738480079E+01 -0.13560511873E+02 -0.41747019296E+02  0.44476569086E+02  0.00000000000E+00 0.  1.
         11    1    1    2    0    0 -0.27148053592E+02  0.52694783785E+02  0.71111001290E+01  0.59701966442E+02  0.00000000000E+00 0. -1.
</event>
<event>
 7    1  0.2619826E-009  0.7719566E+02  0.7561462E-02  0.1337204E+00
          2   -1    0    0  501    0  0.00000000000E+00  0.00000000000E+00  0.30528149498E+03  0.30528149498E+03  0.00000000000E+00 0. -1.
         -2   -1    0    0    0  501 -0.00000000000E+00 -0.00000000000E+00 -0.84027524233E+02  0.84027524233E+02  0.00000000000E+00 0.  1.
         25    2    1    2    0    0 -0.75153437828E+02  0.58917157761E+01  0.24325071772E+03  0.28372587077E+03  0.12508679603E+03 0.  0.
          5    1    3    3  502    0 -0.23815950444E+02  0.46710581652E+01  0.22892998887E+03  0.23025079910E+03  0.41800000000E+01 0. -1.
         -5    1    3    3    0  502 -0.51337487384E+02  0.12206576109E+01  0.14320728851E+02  0.53475071675E+02  0.41800000000E+01 0. -1.
        -11    1    1    2    0    0  0.51186644281E+02  0.59114753366E+01 -0.46444731178E+02  0.69369526073E+02  0.00000000000E+00 0.  1.
         11    1    1    2    0    0  0.23966793546E+02 -0.11803191113E+02  0.24447984200E+02  0.36213622365E+02  0.00000000000E+00 0. -1.
</event>
<event>
 7    1  0.2619826E-009  0.9369049E+02  0.7561462E-02  0.1294153E+00
          2   -1    0    0  501    0  0.00000000000E+00  0.00000000000E+00  0.22227212160E+03  0.22227212160E+03  0.00000000000E+00 0. -1.
         -2   -1    0    0    0  501 -0.00000000000E+00 -0.00000000000E+00 -0.80101339638E+02  0.80101339638E+02  0.00000000000E+00 0.  1.
         25    2    1    2    0    0  0.55950149037E+02 -0.45698500765E+02  0.47574266601E+02  0.15208447622E+03  0.12509038698E+03 0.  0.
          5    1    3    3  502    0  0.44816181749E+01 -0.17478131817E+02 -0.41432356264E+02  0.45383725485E+02  0.41800000000E+01 0. -1.
         -5    1    3    3    0  502  0.51468530862E+02 -0.28220368948E+02  0.89006622865E+02  0.10670075073E+03  0.41800000000E+01 0. -1.
        -11    1    1    2    0    0 -0.70134214288E+02  0.90498567533E+01  0.35002126379E+02  0.78904098576E+02  0.00000000000E+00 0.  1.
         11    1    1    2    0    0  0.14184065250E+02  0.36648644012E+02  0.59594388984E+02  0.71384886449E+02  0.00000000000E+00 0. -1.
</event>
<event>
 7    1  0.2619826E-009  0.6767562E+02  0.7561462E-02  0.1368180E+00
          1   -1    0    0  501    0  0.00000000000E+00  0.00000000000E+00  0.54989444932E+02  0.54989444932E+02  0.00000000000E+00 0. -1.
         -1   -1    0    0    0  501 -0.00000000000E+00 -0.00000000000E+00 -0.29748849288E+03  0.29748849288E+03  0.00000000000E+00 0.  1.
         25    2    1    2    0    0  0.24948357320E+01 -0.26410741344E+02 -0.22167090746E+03  0.25590844294E+03  0.12508952190E+03 0.  0.
          5    1    3    3  502    0  0.44990390152E+02  0.13913593264E+01 -0.19134598000E+03  0.19661339616E+03  0.41800000000E+01 0.  1.
         -5    1    3    3    0  502 -0.42495554420E+02 -0.27802100670E+02 -0.30324927457E+02  0.59295046778E+02  0.41800000000E+01 0.  1.
        -11    1    1    2    0    0  0.13222008478E+02  0.12745890842E+02 -0.54202906802E+02  0.57229663177E+02  0.00000000000E+00 0.  1.
         11    1    1    2    0    0 -0.15716844210E+02  0.13664850502E+02  0.33374766315E+02  0.39339831694E+02  0.00000000000E+00 0. -1.
</event>
<event>
 7    1  0.2619826E-009  0.1006470E+03  0.7561462E-02  0.1278941E+00
         -1   -1    0    0    0  501 -0.00000000000E+00  0.00000000000E+00  0.63536628569E+02  0.63536628569E+02  0.00000000000E+00 0.  1.
          1   -1    0    0  501    0  0.00000000000E+00 -0.00000000000E+00 -0.26379942431E+03  0.26379942431E+03  0.00000000000E+00 0. -1.
         25    2    1    2    0    0 -0.59237710255E+02  0.37973998955E+01 -0.60814982296E+02  0.15122504612E+03  0.12508807273E+03 0.  0.
          5    1    3    3  502    0 -0.28279681524E+02  0.38954615970E+02 -0.85425833162E+02  0.98144015936E+02  0.41800000000E+01 0. -1.
         -5    1    3    3    0  502 -0.30958028731E+02 -0.35157216075E+02  0.24610850866E+02  0.53081030184E+02  0.41800000000E+01 0. -1.
        -11    1    1    2    0    0  0.21646510642E+02 -0.45143125481E+02 -0.50824490306E+02  0.71341446692E+02  0.00000000000E+00 0.  1.
         11    1    1    2    0    0  0.37591199613E+02  0.41345725585E+02 -0.88623323135E+02  0.10476956006E+03  0.00000000000E+00 0. -1.
</event>
<event>
 7    1  0.2619826E-009  0.1190875E+03  0.7561462E-02  0.1244610E+00
          2   -1    0    0  501    0  0.00000000000E+00  0.00000000000E+00  0.74248122628E+03  0.74248122628E+03  0.00000000000E+00 0. -1.
         -2   -1    0    0    0  501 -0.00000000000E+00 -0.00000000000E+00 -0.28361322780E+02  0.28361322780E+02  0.00000000000E+00 0.  1.
         25    2    1    2    0    0  0.43949570345E+02  0.83768912585E+02  0.34598213918E+03  0.37986811040E+03  0.12508934894E+03 0.  0.
          5    1    3    3  502    0 -0.62522644379E+01  0.37088067420E+02  0.28656835637E+03  0.28905624163E+03  0.41800000000E+01 0. -1.
         -5    1    3    3    0  502  0.50201834783E+02  0.46680845165E+02  0.59413782814E+02  0.90811868768E+02  0.41800000000E+01 0. -1.
        -11    1    1    2    0    0  0.58701984392E+01 -0.81574036232E+02  0.23120764394E+03  0.24524631951E+03  0.00000000000E+00 0. -1.
         11    1    1    2    0    0 -0.49819768784E+02 -0.21948763529E+01  0.13693012038E+03  0.14572811915E+03  0.00000000000E+00 0.  1.
</event>
<event>
 7    1  0.2619826E-009  0.1790139E+03  0.7561462E-02  0.1168761E+00
         -2   -1    0    0    0  501 -0.00000000000E+00  0.00000000000E+00  0.42906385358E+02  0.42906385358E+02  0.00000000000E+00 0.  1.
          2   -1    0    0  501    0  0.00000000000E+00 -0.00000000000E+00 -0.12022042927E+04  0.12022042927E+04  0.00000000000E+00 0. -1.
         25    2    1    2    0    0  0.12968710876E+03 -0.97766999423E+02 -0.91479115104E+03  0.93747951375E+03  0.12509139189E+03 0.  0.
          5    1    3    3  502    0  0.20956369638E+02  0.21181185201E+02 -0.31391364943E+03  0.31535228512E+03  0.41800000000E+01 0. -1.
         -5    1    3    3    0  502  0.10873073912E+03 -0.11894818462E+03 -0.60087750161E+03  0.62212722862E+03  0.41800000000E+01 0. -1.
        -11    1    1    2    0    0 -0.18531204486E+02  0.33630682547E+02 -0.90156505473E+01  0.39442493622E+02  0.00000000000E+00 0.  1.
         11    1    1    2    0    0 -0.11115590427E+03  0.64136316875E+02 -0.23549110579E+03  0.26818867072E+03  0.00000000000E+00 0. -1.
</event>
<event>
 7    1  0.2619826E-009  0.8208698E+02  0.7561462E-02  0.1323231E+00
         -2   -1    0    0    0  501 -0.00000000000E+00  0.00000000000E+00  0.31230487961E+02  0.31230487961E+02  0.00000000000E+00 0.  1.
          2   -1    0    0  501    0  0.00000000000E+00 -0.00000000000E+00 -0.38791078553E+03  0.38791078553E+03  0.00000000000E+00 0. -1.
         25    2    1    2    0    0 -0.12285285130E+02  0.14155644507E+02 -0.19425389935E+03  0.23180457465E+03  0.12508985935E+03 0.  0.
          5    1    3    3  502    0 -0.33170532815E+02  0.41475469493E+02 -0.24650225882E+02  0.58699274723E+02  0.41800000000E+01 0.  1.
         -5    1    3    3    0  502  0.20885247685E+02 -0.27319824986E+02 -0.16960367347E+03  0.17310529993E+03  0.41800000000E+01 0.  1.
        -11    1    1    2    0    0  0.36618910290E+02 -0.29901315795E+02 -0.41250074903E+02  0.62742345801E+02  0.00000000000E+00 0.  1.
         11    1    1    2    0    0 -0.24333625160E+02  0.15745671288E+02 -0.12117632331E+03  0.12459435304E+03  0.00000000000E+00 0. -1.
</event>
<event>
 7    1  0.2619826E-009  0.8099632E+02  0.7561462E-02  0.1326248E+00
         -2   -1    0    0    0  501 -0.00000000000E+00  0.00000000000E+00  0.30454000549E+03  0.30454000549E+03  0.00000000000E+00 0. -1.
          2   -1    0    0  501    0  0.00000000000E+00 -0.00000000000E+00 -0.42353199937E+02  0.42353199937E+02  0.00000000000E+00 0.  1.
         25    2    1    2    0    0  0.13105670455E+02 -0.30593512774E+02  0.14484581509E+03  0.19425712516E+03  0.12509116238E+03 0.  0.
          5    1    3    3  502    0  0.49324683236E+02 -0.42255821702E+02  0.14159907544E+03  0.15584046140E+03  0.41800000000E+01 0.  1.
         -5    1    3    3    0  502 -0.36219012781E+02  0.11662308928E+02  0.32467396517E+01  0.38416663764E+02  0.41800000000E+01 0.  1.
        -11    1    1    2    0    0 -0.64119580179E+01  0.43564017055E+02  0.12747576496E+03  0.13486662834E+03  0.00000000000E+00 0. -1.
         11    1    1    2    0    0 -0.66937124374E+01 -0.12970504280E+02 -0.10134774499E+02  0.17769451922E+02  0.00000000000E+00 0.  1.
</event>
<event>
 7    1  0.2619826E-009  0.1197739E+03  0.7561462E-02  0.1243470E+00
          4   -1    0    0  501    0  0.00000000000E+00  0.00000000000E+00  0.58897468622E+02  0.58897468622E+02  0.00000000000E+00 0. -1.
         -4   -1    0    0    0  501 -0.00000000000E+00 -0.00000000000E+00 -0.27700779859E+03  0.27700779859E+03  0.00000000000E+00 0.  1.
         25    2    1    2    0    0 -0.77370420024E+01 -0.60918631154E+02 -0.81320190668E+02  0.16133774782E+03  0.12508378800E+03 0.  0.
          5    1    3    3  502    0  0.52843182697E+02 -0.13773276000E+02 -0.60672934315E+02  0.81736053536E+02  0.41800000000E+01 0. -1.
         -5    1    3    3    0  502 -0.60580224699E+02 -0.47145355154E+02 -0.20647256354E+02  0.79601694280E+02  0.41800000000E+01 0. -1.
        -11    1    1    2    0    0  0.47956838310E+02  0.25525259275E+02 -0.77660402572E+02  0.94776238211E+02  0.00000000000E+00 0. -1.
         11    1    1    2    0    0 -0.40219796308E+02  0.35393371879E+02 -0.59129736730E+02  0.79791281189E+02  0.00000000000E+00 0.  1.
</event>
<event>
 7    1  0.2619826E-009  0.1359903E+03  0.7561462E-02  0.1218828E+00
          2   -1    0    0  501    0  0.00000000000E+00  0.00000000000E+00  0.42483447898E+03  0.42483447898E+03  0.00000000000E+00 0.  1.
         -2   -1    0    0    0  501 -0.00000000000E+00 -0.00000000000E+00 -0.44189407764E+02  0.44189407764E+02  0.00000000000E+00 0. -1.
         25    2    1    2    0    0 -0.65229221443E+02  0.56897521132E+02  0.21397730081E+03  0.26255008280E+03  0.12511627183E+03 0.  0.
          5    1    3    3  502    0 -0.91864021433E+02  0.74364817608E+02  0.18323060210E+03  0.21808266891E+03  0.41800000000E+01 0.  1.
         -5    1    3    3    0  502  0.26634799991E+02 -0.17467296476E+02  0.30746698707E+02  0.44467413890E+02  0.41800000000E+01 0.  1.
        -11    1    1    2    0    0  0.79025900037E+02 -0.19024845797E+02  0.10466576628E+03  0.13252154642E+03  0.00000000000E+00 0. -1.
         11    1    1    2    0    0 -0.13796678595E+02 -0.37872675335E+02  0.62002004123E+02  0.73952257522E+02  0.00000000000E+00 0.  1.
</event>
<event>
 7    1  0.2619826E-009  0.1504777E+03  0.7561462E-02  0.1199887E+00
         -2   -1    0    0    0  501 -0.00000000000E+00  0.00000000000E+00  0.72588698388E+02  0.72588698388E+02  0.00000000000E+00 0.  1.
          2   -1    0    0  501    0  0.00000000000E+00 -0.00000000000E+00 -0.32229870833E+03  0.32229870833E+03  0.00000000000E+00 0. -1.
         25    2    1    2    0    0  0.79955067808E+02 -0.67726225948E+02 -0.10355585079E+03  0.19326341127E+03  0.12508907768E+03 0.  0.
          5    1    3    3  502    0  0.54133352680E+02  0.29749497830E+02 -0.33348216060E+02  0.70320895955E+02  0.41800000000E+01 0.  1.
         -5    1    3    3    0  502  0.25821715128E+02 -0.97475723778E+02 -0.70207634730E+02  0.12294251532E+03  0.41800000000E+01 0.  1.
        -11    1    1    2    0    0  0.16124627964E+02  0.31594592309E+02 -0.28636225510E+02  0.45587885470E+02  0.00000000000E+00 0.  1.
         11    1    1    2    0    0 -0.96079695772E+02  0.36131633639E+02 -0.11751793364E+03  0.15603610998E+03  0.00000000000E+00 0. -1.
</event>
<event>
 7    1  0.2619826E-009  0.1287738E+03  0.7561462E-02  0.1229287E+00
         -1   -1    0    0    0  501 -0.00000000000E+00  0.00000000000E+00  0.30423750397E+02  0.30423750397E+02  0.00000000000E+00 0. -1.
          1   -1    0    0  501    0  0.00000000000E+00 -0.00000000000E+00 -0.60620308922E+03  0.60620308922E+03  0.00000000000E+00 0.  1.
         25    2    1    2    0    0  0.72985766753E+02 -0.44485083600E+01 -0.22035235149E+03  0.26372011834E+03  0.12508569316E+03 0.  0.
          5    1    3    3  502    0  0.54312942733E+02  0.57997656557E+02 -0.12254348545E+03  0.14610955527E+03  0.41800000000E+01 0.  1.
         -5    1    3    3    0  502  0.18672824019E+02 -0.62446164917E+02 -0.97808866037E+02  0.11761056307E+03  0.41800000000E+01 0.  1.
        -11    1    1    2    0    0  0.19795379176E+02  0.10929447133E+01 -0.70557773681E+02  0.73290183461E+02  0.00000000000E+00 0.  1.
         11    1    1    2    0    0 -0.92781145928E+02  0.33555636466E+01 -0.28486921366E+03  0.29961653782E+03  0.00000000000E+00 0. -1.
</event>
<event>
 7    1  0.2619826E-009  0.1072926E+03  0.7561462E-02  0.1265667E+00
         -2   -1    0    0    0  501 -0.00000000000E+00  0.00000000000E+00  0.64274178825E+02  0.64274178825E+02  0.00000000000E+00 0.  1.
          2   -1    0    0  501    0  0.00000000000E+00 -0.00000000000E+00 -0.35931591489E+03  0.35931591489E+03  0.00000000000E+00 0. -1.
         25    2    1    2    0    0 -0.75606143821E+02  0.23705706828E+01 -0.26888160276E+03  0.30605057658E+03  0.12509088909E+03 0.  0.
          5    1    3    3  502    0 -0.40215081193E+02 -0.47757020516E+02 -0.54366489954E+02  0.82892541244E+02  0.41800000000E+01 0. -1.
         -5    1    3    3    0  502 -0.35391062628E+02  0.50127591199E+02 -0.21451511281E+03  0.22315803534E+03  0.41800000000E+01 0. -1.
        -11    1    1    2    0    0  0.32706697121E+02 -0.25771919397E+02  0.23544931879E+02  0.47836008227E+02  0.00000000000E+00 0.  1.
         11    1    1    2    0    0  0.42899446700E+02  0.23401348714E+02 -0.49705065181E+02  0.69703508904E+02  0.00000000000E+00 0. -1.
</event>
<event>
 7    1  0.2893198E-009  0.1610109E+03  0.7561462E-02  0.1187560E+00
         -2   -1    0    0    0  501 -0.00000000000E+00  0.00000000000E+00  0.40790992374E+02  0.40790992374E+02  0.00000000000E+00 0.  1.
          2   -1    0    0  501    0  0.00000000000E+00 -0.00000000000E+00 -0.74672066778E+03  0.74672066778E+03  0.00000000000E+00 0. -1.
         25    2    1    2    0    0 -0.66241610986E+02 -0.11905080715E+03 -0.37675582826E+03  0.41970589729E+03  0.12508813046E+03 0.  0.
          5    1    3    3  502    0 -0.40638593525E+02  0.74242438142E+00 -0.20298535069E+03  0.20705692809E+03  0.41800000000E+01 0.  1.
         -5    1    3    3    0  502 -0.25603017461E+02 -0.11979323153E+03 -0.17377047757E+03  0.21264896919E+03  0.41800000000E+01 0.  1.
        -11    1    1    2    0    0  0.69528502015E+02  0.41500874835E+02 -0.21503493041E+03  0.22977501279E+03  0.00000000000E+00 0. -1.
         11    1    1    2    0    0 -0.32868910290E+01  0.77549932312E+02 -0.11413891674E+03  0.13803075008E+03  0.00000000000E+00 0.  1.
</event>
<event>
 7    1  0.2619826E-009  0.1316207E+03  0.7561462E-02  0.1225071E+00
         -4   -1    0    0    0  501 -0.00000000000E+00  0.00000000000E+00  0.16891328232E+03  0.16891328232E+03  0.00000000000E+00 0.  1.
          4   -1    0    0  501    0  0.00000000000E+00 -0.00000000000E+00 -0.18746629210E+03  0.18746629210E+03  0.00000000000E+00 0. -1.
         25    2    1    2    0    0  0.27685927164E-01 -0.12637706491E+03 -0.79510539562E+02  0.19478381383E+03  0.12509054691E+03 0.  0.
          5    1    3    3  502    0  0.12995135238E+02 -0.24701442294E+02  0.32400991439E+02  0.42968958999E+02  0.41800000000E+01 0. -1.
         -5    1    3    3    0  502 -0.12967449311E+02 -0.10167562262E+03 -0.11191153100E+03  0.15181485483E+03  0.41800000000E+01 0. -1.
        -11    1    1    2    0    0  0.19737687752E+02  0.67644983330E+02 -0.55606985555E+01  0.70684803571E+02  0.00000000000E+00 0.  1.
         11    1    1    2    0    0 -0.19765373679E+02  0.58732081584E+02  0.66518228345E+02  0.90910957019E+02  0.00000000000E+00 0. -1.
</event>
<event>
 7    1  0.2619826E-009  0.1229031E+03  0.7561462E-02  0.1238383E+00
         -2   -1    0    0    0  501 -0.00000000000E+00  0.00000000000E+00  0.91471488850E+02  0.91471488850E+02  0.00000000000E+00 0.  1.
          2   -1    0    0  501    0  0.00000000000E+00 -0.00000000000E+00 -0.18605735726E+03  0.18605735726E+03  0.00000000000E+00 0. -1.
         25    2    1    2    0    0  0.39270144270E+02  0.53751507972E+02 -0.22296768826E+02  0.14344289558E+03  0.12508936626E+03 0.  0.
          5    1    3    3  502    0  0.50106012385E+02  0.85972575191E+02  0.48871936478E+01  0.99715862449E+02  0.41800000000E+01 0. -1.
         -5    1    3    3    0  502 -0.10835868115E+02 -0.32221067219E+02 -0.27183962474E+02  0.43727033130E+02  0.41800000000E+01 0. -1.
        -11    1    1    2    0    0 -0.40937769719E+02 -0.77768258878E+02 -0.63629822642E+02  0.10850141662E+03  0.00000000000E+00 0. -1.
         11    1    1    2    0    0  0.16676254490E+01  0.24016750905E+02 -0.86592769462E+01  0.25584533920E+02  0.00000000000E+00 0.  1.
</event>
<event>
 7    1  0.2619826E-009  0.1281304E+03  0.7561462E-02  0.1230256E+00
         -4   -1    0    0    0  501 -0.00000000000E+00  0.00000000000E+00  0.34786690403E+03  0.34786690403E+03  0.00000000000E+00 0.  1.
          4   -1    0    0  501    0  0.00000000000E+00 -0.00000000000E+00 -0.72574823817E+02  0.72574823817E+02  0.00000000000E+00 0. -1.
         25    2    1    2    0    0 -0.88259893768E+02  0.73296795601E+02  0.16107751673E+03  0.23399799557E+03  0.12508743519E+03 0.  0.
          5    1    3    3  502    0 -0.72085954120E+02  0.79614003016E+02  0.17893996079E+03  0.20873848764E+03  0.41800000000E+01 0. -1.
         -5    1    3    3    0  502 -0.16173939648E+02 -0.63172074148E+01 -0.17862444055E+02  0.25259507930E+02  0.41800000000E+01 0. -1.
        -11    1    1    2    0    0  0.54864471990E+02 -0.52441985854E+01  0.76136936802E+01  0.55637938827E+02  0.00000000000E+00 0. -1.
         11    1    1    2    0    0  0.33395421779E+02 -0.68052597016E+02  0.10660086980E+03  0.13080579345E+03  0.00000000000E+00 0.  1.
</event>
<event>
 7    1  0.2619826E-009  0.1148716E+03  0.7561462E-02  0.1251805E+00
         -1   -1    0    0    0  501 -0.00000000000E+00  0.00000000000E+00  0.14685693322E+02  0.14685693322E+02  0.00000000000E+00 0.  1.
          1   -1    0    0  501    0  0.00000000000E+00 -0.00000000000E+00 -0.10083459284E+04  0.10083459284E+04  0.00000000000E+00 0. -1.
         25    2    1    2    0    0 -0.43448681012E+02  0.33433600457E+02 -0.62581517245E+03  0.64054499912E+03  0.12509065635E+03 0.  0.
          5    1    3    3  502    0 -0.50678955254E+02  0.74026499093E+02 -0.33658436549E+03  0.34836013917E+03  0.41800000000E+01 0. -1.
         -5    1    3    3    0  502  0.72302742423E+01 -0.40592898636E+02 -0.28923080697E+03  0.29218485995E+03  0.41800000000E+01 0. -1.
        -11    1    1    2    0    0  0.76798106435E+01 -0.55785818944E+02 -0.27205144790E+03  0.27781833523E+03  0.00000000000E+00 0.  1.
         11    1    1    2    0    0  0.35768870368E+02  0.22352218487E+02 -0.95793614741E+02  0.10466828738E+03  0.00000000000E+00 0. -1.
</event>
<event>
 7    1  0.2619826E-009  0.1051490E+03  0.7561462E-02  0.1269826E+00
          1   -1    0    0  501    0  0.00000000000E+00  0.00000000000E+00  0.49929172897E+03  0.49929172897E+03  0.00000000000E+00 0. -1.
         -1   -1    0    0    0  501 -0.00000000000E+00 -0.00000000000E+00 -0.34190905391E+02  0.34190905391E+02  0.00000000000E+00 0.  1.
         25    2    1    2    0    0  0.65526979648E+02 -0.24708324947E+02  0.22830159923E+03  0.26957990245E+03  0.12508963671E+03 0.  0.
          5    1    3    3  502    0  0.82663212274E+02  0.15315474245E+02  0.84487433486E+02  0.11926176769E+03  0.41800000000E+01 0. -1.
         -5    1    3    3    0  502 -0.17136232626E+02 -0.40023799192E+02  0.14381416574E+03  0.15031813476E+03  0.41800000000E+01 0. -1.
        -11    1    1    2    0    0 -0.34761784715E+02 -0.98372225772E+01  0.18180696190E+02  0.40443668708E+02  0.00000000000E+00 0.  1.
         11    1    1    2    0    0 -0.30765194934E+02  0.34545547524E+02  0.21861852816E+03  0.22345906320E+03  0.00000000000E+00 0. -1.
</event>
<event>
 7    1  0.3169753E-009  0.2133613E+03  0.7561462E-02  0.1138932E+00
         -1   -1    0    0    0  501 -0.00000000000E+00  0.00000000000E+00  0.11857668226E+03  0.11857668226E+03  0.00000000000E+00 0.  1.
          1   -1    0    0  501    0  0.00000000000E+00 -0.00000000000E+00 -0.47679497836E+03  0.47679497836E+03  0.00000000000E+00 0. -1.
         25    2    1    2    0    0  0.48352665417E+02 -0.18246704076E+03 -0.30399609820E+03  0.37907020937E+03  0.12509354379E+03 0.  0.
          5    1    3    3  502    0  0.66423002913E+02 -0.19366570793E+03 -0.27428259523E+03  0.34229641568E+03  0.41800000000E+01 0. -1.
         -5    1    3    3    0  502 -0.18070337496E+02  0.11198667170E+02 -0.29713502968E+02  0.36773793688E+02  0.41800000000E+01 0. -1.
        -11    1    1    2    0    0  0.34785168403E+01  0.11568862971E+03  0.24377702435E+00  0.11574117051E+03  0.00000000000E+00 0.  1.
         11    1    1    2    0    0 -0.51831182257E+02  0.66778411050E+02 -0.54465974935E+02  0.10056028074E+03  0.00000000000E+00 0. -1.
</event>
<event>
 7    1  0.2619826E-009  0.1266680E+03  0.7561462E-02  0.1232485E+00
          2   -1    0    0  501    0  0.00000000000E+00  0.00000000000E+00  0.45807817139E+02  0.45807817139E+02  0.00000000000E+00 0.  1.
         -2   -1    0    0    0  501 -0.00000000000E+00 -0.00000000000E+00 -0.40077182484E+03  0.40077182484E+03  0.00000000000E+00 0. -1.
         25    2    1    2    0    0  0.75597528589E+02 -0.20435326177E+02 -0.16897550221E+03  0.22434956231E+03  0.12508963537E+03 0.  0.
          5    1    3    3  502    0  0.10430019736E+03 -0.27966694695E+02 -0.92626209383E+02  0.14232973775E+03  0.41800000000E+01 0. -1.
         -5    1    3    3    0  502 -0.28702668773E+02  0.75313685174E+01 -0.76349292827E+02  0.82019824565E+02  0.41800000000E+01 0. -1.
        -11    1    1    2    0    0 -0.28088442654E+02  0.51414126016E+02 -0.58976900906E+02  0.83130306178E+02  0.00000000000E+00 0.  1.
         11    1    1    2    0    0 -0.47509085936E+02 -0.30978799839E+02 -0.12701160459E+03  0.13909977350E+03  0.00000000000E+00 0. -1.
</event>
<event>
 7    1  0.2619826E-009  0.8881308E+02  0.7561462E-02  0.1305752E+00
          3   -1    0    0  501    0  0.00000000000E+00  0.00000000000E+00  0.10138214420E+03  0.10138214420E+03  0.00000000000E+00 0. -1.
         -3   -1    0    0    0  501 -0.00000000000E+00 -0.00000000000E+00 -0.12716468306E+03  0.12716468306E+03  0.00000000000E+00 0.  1.
         25    2    1    2    0    0  0.95215550551E+01  0.17232654406E+02 -0.42272888041E+02  0.13349922900E+03  0.12508965861E+03 0.  0.
          5    1    3    3  502    0  0.59677739609E+02  0.15717582936E+02  0.79719751692E+01  0.62365854490E+02  0.41800000000E+01 0. -1.
         -5    1    3    3    0  502 -0.50156184554E+02  0.15150714704E+01 -0.50244863210E+02  0.71133374512E+02  0.41800000000E+01 0. -1.
        -11    1    1    2    0    0  0.16807737313E+02 -0.31329633912E+02 -0.25332956800E+02  0.43655523074E+02  0.00000000000E+00 0.  1.
         11    1    1    2    0    0 -0.26329292368E+02  0.14096979506E+02  0.41823305982E+02  0.51392075177E+02  0.00000000000E+00 0. -1.
</event>
<event>
 7    1  0.2619826E-009  0.2841939E+03  0.7561462E-02  0.1093420E+00
          3   -1    0    0  501    0  0.00000000000E+00  0.00000000000E+00  0.30802491303E+03  0.30802491303E+03  0.00000000000E+00 0. -1.
         -3   -1    0    0    0  501 -0.00000000000E+00 -0.00000000000E+00 -0.32066104890E+03  0.32066104890E+03  0.00000000000E+00 0.  1.
         25    2    1    2    0    0 -0.55315267583E+02 -0.26705830357E+03  0.10542945752E+03  0.31802930684E+03  0.12508938068E+03 0.  0.
          5    1    3    3  502    0 -0.22873370239E+02 -0.26034163134E+03  0.72765858951E+02  0.27131770806E+03  0.41800000000E+01 0.  1.
         -5    1    3    3    0  502 -0.32441897344E+02 -0.67166722289E+01  0.32663598567E+02  0.46711598779E+02  0.41800000000E+01 0.  1.
        -11    1    1    2    0    0  0.19017202660E+02  0.14602777814E+03 -0.11043568155E+03  0.18407011095E+03  0.00000000000E+00 0.  1.
         11    1    1    2    0    0  0.36298064924E+02  0.12103052543E+03 -0.76299118415E+01  0.12658654414E+03  0.00000000000E+00 0. -1.
</event>
<event>
 7    1  0.2619826E-009  0.1048997E+03  0.7561462E-02  0.1270317E+00
         -1   -1    0    0    0  501 -0.00000000000E+00  0.00000000000E+00  0.20936754926E+03  0.20936754926E+03  0.00000000000E+00 0.  1.
          1   -1    0    0  501    0  0.00000000000E+00 -0.00000000000E+00 -0.96540559106E+02  0.96540559106E+02  0.00000000000E+00 0. -1.
         25    2    1    2    0    0  0.24033900288E+02  0.84116426397E+02  0.32622511173E+02  0.15609091526E+03  0.12508774536E+03 0.  0.
          5    1    3    3  502    0 -0.90998825099E+00 -0.19870334469E+01 -0.40227352843E+02  0.40502946773E+02  0.41800000000E+01 0. -1.
         -5    1    3    3    0  502  0.24943888539E+02  0.86103459844E+02  0.72849864016E+02  0.11558796849E+03  0.41800000000E+01 0. -1.
        -11    1    1    2    0    0 -0.32352377806E+02 -0.15842909565E+01  0.53741207654E+02  0.62747938035E+02  0.00000000000E+00 0.  1.
         11    1    1    2    0    0  0.83184775178E+01 -0.82532135441E+02  0.26463271325E+02  0.87069255067E+02  0.00000000000E+00 0. -1.
</event>
<event>
 7    1  0.2619826E-009  0.1288713E+03  0.7561462E-02  0.1229140E+00
         -1   -1    0    0    0  501 -0.00000000000E+00  0.00000000000E+00  0.51491312036E+02  0.51491312036E+02  0.00000000000E+00 0.  1.
          1   -1    0    0  501    0  0.00000000000E+00 -0.00000000000E+00 -0.43388194555E+03  0.43388194555E+03  0.00000000000E+00 0. -1.
         25    2    1    2    0    0 -0.79350469628E+02 -0.30545430673E+02 -0.12107677061E+03  0.19374428944E+03  0.12509094669E+03 0.  0.
          5    1    3    3  502    0 -0.19430488678E+02  0.35687178075E+02 -0.90425391866E+02  0.99223699102E+02  0.41800000000E+01 0. -1.
         -5    1    3    3    0  502 -0.59919980951E+02 -0.66232608748E+02 -0.30651378748E+02  0.94520590338E+02  0.41800000000E+01 0. -1.
        -11    1    1    2    0    0  0.74561332299E+02  0.61196011278E+02 -0.21764663591E+03  0.23806386159E+03  0.00000000000E+00 0. -1.
         11    1    1    2    0    0  0.47891373294E+01 -0.30650580605E+02 -0.43667226987E+02  0.53565106557E+02  0.00000000000E+00 0.  1.
</event>
<event>
 7    1  0.2619826E-009  0.1245253E+03  0.7561462E-02  0.1235813E+00
         -1   -1    0    0    0  501 -0.00000000000E+00  0.00000000000E+00  0.82899184500E+03  0.82899184500E+03  0.00000000000E+00 0.  1.
          1   -1    0    0  501    0  0.00000000000E+00 -0.00000000000E+00 -0.32137573318E+02  0.32137573318E+02  0.00000000000E+00 0. -1.
         25    2    1    2    0    0 -0.70321071223E+02  0.64789046396E+02  0.62498723869E+03  0.64451425706E+03  0.12508759106E+03 0.  0.
          5    1    3    3  502    0  0.14570628961E+02 -0.17143614835E+02  0.25784221079E+03  0.25885572202E+03  0.41800000000E+01 0.  1.
         -5    1    3    3    0  502 -0.84891700184E+02  0.81932661231E+02  0.36714502790E+03  0.38565853504E+03  0.41800000000E+01 0.  1.
        -11    1    1    2    0    0  0.20832409399E+02 -0.53413143376E+02  0.15135476678E+03  0.16184937008E+03  0.00000000000E+00 0.  1.
         11    1    1    2    0    0  0.49488661824E+02 -0.11375903020E+02  0.20512266210E+02  0.54765791182E+02  0.00000000000E+00 0. -1.
</event>
<event>
 7    1  0.2619826E-009  0.1007994E+03  0.7561462E-02  0.1278624E+00
          2   -1    0    0  501    0  0.00000000000E+00  0.00000000000E+00  0.43184846228E+03  0.43184846228E+03  0.00000000000E+00 0. -1.
         -2   -1    0    0    0  501 -0.00000000000E+00 -0.00000000000E+00 -0.48784745392E+02  0.48784745392E+02  0.00000000000E+00 0.  1.
         25    2    1    2    0    0  0.17145882326E+02 -0.35701578757E+02  0.62405675063E+02  0.14529772475E+03  0.12509347117E+03 0.  0.
          5    1    3    3  502    0  0.23587853330E+02 -0.69579147899E+02 -0.32863006730E+00  0.73588212676E+02  0.41800000000E+01 0. -1.
         -5    1    3    3    0  502 -0.64419710038E+01  0.33877569143E+02  0.62734305130E+02  0.71709512072E+02  0.41800000000E+01 0. -1.
        -11    1    1    2    0    0  0.34441602672E+02  0.16929572870E+02  0.83355311635E+02  0.91765692990E+02  0.00000000000E+00 0.  1.
         11    1    1    2    0    0 -0.51587484998E+02  0.18772005886E+02  0.23730273019E+03  0.24356978993E+03  0.00000000000E+00 0. -1.
</event>
<event>
 7    1  0.2619826E-009  0.2590266E+03  0.7561462E-02  0.1107729E+00
         -2   -1    0    0    0  501 -0.00000000000E+00  0.00000000000E+00  0.42104820578E+03  0.42104820578E+03  0.00000000000E+00 0.  1.
          2   -1    0    0  501    0  0.00000000000E+00 -0.00000000000E+00 -0.17784247606E+03  0.17784247606E+03  0.00000000000E+00 0. -1.
         25    2    1    2    0    0  0.14327385115E+03  0.19086450977E+03  0.39288607305E+02  0.27230017678E+03  0.12508850506E+03 0.  0.
          5    1    3    3  502    0  0.36205549555E+02  0.14061078601E+03 -0.64983681907E+01  0.14540266899E+03  0.41800000000E+01 0.  1.
         -5    1    3    3    0  502  0.10706830160E+03  0.50253723763E+02  0.45786975496E+02  0.12689750779E+03  0.41800000000E+01 0.  1.
        -11    1    1    2    0    0 -0.79656420107E+01 -0.77547774830E+02  0.51854450394E+02  0.93626881073E+02  0.00000000000E+00 0.  1.
         11    1    1    2    0    0 -0.13530820914E+03 -0.11331673494E+03  0.15206267201E+03  0.23296362398E+03  0.00000000000E+00 0. -1.
</event>
<event>
 7    1  0.2619826E-009  0.1879028E+03  0.7561462E-02  0.1160367E+00
          1   -1    0    0  501    0  0.00000000000E+00  0.00000000000E+00  0.70639567555E+03  0.70639567555E+03  0.00000000000E+00 0. -1.
         -1   -1    0    0    0  501 -0.00000000000E+00 -0.00000000000E+00 -0.10334785010E+03  0.10334785010E+03  0.00000000000E+00 0.  1.
         25    2    1    2    0    0 -0.14533467200E+03  0.86403771918E+02  0.58057484521E+03  0.61749696626E+03  0.12509026249E+03 0.  0.
          5    1    3    3  502    0 -0.13207456366E+03  0.10730468458E+03  0.55917619796E+03  0.58451131594E+03  0.41800000000E+01 0. -1.
         -5    1    3    3    0  502 -0.13260108336E+02 -0.20900912659E+02  0.21398647245E+02  0.32985650319E+02  0.41800000000E+01 0. -1.
        -11    1    1    2    0    0  0.87057261682E+02 -0.15042965199E+02 -0.20328950946E+02  0.90656074590E+02  0.00000000000E+00 0.  1.
         11    1    1    2    0    0  0.58277410313E+02 -0.71360806719E+02  0.42801931189E+02  0.10159048480E+03  0.00000000000E+00 0. -1.
</event>
<event>
 7    1  0.3120558E-009  0.1069388E+03  0.7561462E-02  0.1266346E+00
         -2   -1    0    0    0  501 -0.00000000000E+00  0.00000000000E+00  0.93584755014E+02  0.93584755014E+02  0.00000000000E+00 0.  1.
          2   -1    0    0  501    0  0.00000000000E+00 -0.00000000000E+00 -0.21282773272E+03  0.21282773272E+03  0.00000000000E+00 0. -1.
         25    2    1    2    0    0 -0.60016131799E+02  0.67040554210E+02 -0.58651740394E+02  0.16485879196E+03  0.12506807207E+03 0.  0.
          5    1    3    3  502    0 -0.11275323949E+02  0.35873337201E+02  0.37047586917E+02  0.52953048528E+02  0.41800000000E+01 0.  1.
         -5    1    3    3    0  502 -0.48740807850E+02  0.31167217009E+02 -0.95699327311E+02  0.11190574343E+03  0.41800000000E+01 0.  1.
        -11    1    1    2    0    0 -0.13190371126E+02 -0.36330153534E+02  0.44753051124E+01  0.38908794663E+02  0.00000000000E+00 0.  1.
         11    1    1    2    0    0  0.73206502925E+02 -0.30710400676E+02 -0.65066542420E+02  0.10264490110E+03  0.00000000000E+00 0. -1.
</event>
<event>
 7    1  0.2619826E-009  0.5537784E+02  0.7561462E-02  0.1418320E+00
         -2   -1    0    0    0  501 -0.00000000000E+00  0.00000000000E+00  0.33595740301E+02  0.33595740301E+02  0.00000000000E+00 0.  1.
          2   -1    0    0  501    0  0.00000000000E+00 -0.00000000000E+00 -0.46039188480E+03  0.46039188480E+03  0.00000000000E+00 0. -1.
         25    2    1    2    0    0 -0.23767859308E+02  0.22026085306E+02 -0.13651053171E+03  0.18796823795E+03  0.12508746395E+03 0.  0.
          5    1    3    3  502    0  0.87509746313E-02  0.34195515326E+01 -0.15314820267E+03  0.15324339395E+03  0.41800000000E+01 0.  1.
         -5    1    3    3    0  502 -0.23776610282E+02  0.18606533773E+02  0.16637670956E+02  0.34724843994E+02  0.41800000000E+01 0.  1.
        -11    1    1    2    0    0  0.28552265096E+02 -0.43964021763E+02 -0.27216049184E+03  0.27716312953E+03  0.00000000000E+00 0. -1.
         11    1    1    2    0    0 -0.47844057884E+01  0.21937936457E+02 -0.18125120944E+02  0.28856257622E+02  0.00000000000E+00 0.  1.
</event>
<event>
 7    1  0.2619826E-009  0.1403236E+03  0.7561462E-02  0.1212894E+00
         -1   -1    0    0    0  501 -0.00000000000E+00  0.00000000000E+00  0.57339349592E+03  0.57339349592E+03  0.00000000000E+00 0.  1.
          1   -1    0    0  501    0  0.00000000000E+00 -0.00000000000E+00 -0.54985817127E+02  0.54985817127E+02  0.00000000000E+00 0. -1.
         25    2    1    2    0    0  0.71413681206E+02  0.62751126908E+02  0.45600691432E+03  0.48231426038E+03  0.12508845698E+03 0.  0.
          5    1    3    3  502    0  0.10588748603E+03  0.47204011565E+02  0.29782867118E+03  0.31962441738E+03  0.41800000000E+01 0. -1.
         -5    1    3    3    0  502 -0.34473804828E+02  0.15547115343E+02  0.15817824313E+03  0.16268984300E+03  0.41800000000E+01 0. -1.
        -11    1    1    2    0    0 -0.31326432593E+02  0.18220548002E+02  0.37927069080E+02  0.52457566828E+02  0.00000000000E+00 0.  1.
         11    1    1    2    0    0 -0.40087248613E+02 -0.80971674910E+02  0.24473695399E+02  0.93607485842E+02  0.00000000000E+00 0. -1.
</event>
<event>
 7    1  0.2619826E-009  0.1589219E+03  0.7561462E-02  0.1189919E+00
          1   -1    0    0  501    0  0.00000000000E+00  0.00000000000E+00  0.65753002014E+03  0.65753002014E+03  0.00000000000E+00 0. -1.
         -1   -1    0    0    0  501 -0.00000000000E+00 -0.00000000000E+00 -0.57133493313E+02  0.57133493313E+02  0.00000000000E+00 0.  1.
         25    2    1    2    0    0 -0.53072862251E+02  0.13065655606E+03  0.45609513143E+03  0.49351626285E+03  0.12509064084E+03 0.  0.
          5    1    3    3  502    0  0.12727268732E+02  0.40168930958E+02  0.29083604678E+03  0.29390237306E+03  0.41800000000E+01 0.  1.
         -5    1    3    3    0  502 -0.65800130982E+02  0.90487625106E+02  0.16525908465E+03  0.19961388978E+03  0.41800000000E+01 0.  1.
        -11    1    1    2    0    0 -0.22437966932E+02 -0.36486968942E+02  0.60803924881E+02  0.74376599435E+02  0.00000000000E+00 0.  1.
         11    1    1    2    0    0  0.75510829182E+02 -0.94169587123E+02  0.83497470508E+02  0.14677065117E+03  0.00000000000E+00 0. -1.
</event>
<event>
 7    1  0.2619826E-009  0.1422593E+03  0.7561462E-02  0.1210321E+00
          1   -1    0    0  501    0  0.00000000000E+00  0.00000000000E+00  0.51985170071E+03  0.51985170071E+03  0.00000000000E+00 0. -1.
         -1   -1    0    0    0  501 -0.00000000000E+00 -0.00000000000E+00 -0.61007322747E+02  0.61007322747E+02  0.00000000000E+00 0.  1.
         25    2    1    2    0    0  0.99784060823E+02 -0.81904952250E+02  0.16323024046E+03  0.24280712891E+03  0.12508361384E+03 0.  0.
          5    1    3    3  502    0 -0.61431840218E+01 -0.15859672345E+02 -0.16418582657E+02  0.24006461074E+02  0.41800000000E+01 0.  1.
         -5    1    3    3    0  502  0.10592724484E+03 -0.66045279905E+02  0.17964882311E+03  0.21880066783E+03  0.41800000000E+01 0.  1.
        -11    1    1    2    0    0 -0.27043109472E+02 -0.63071541358E+01  0.15183593083E+03  0.15435433215E+03  0.00000000000E+00 0. -1.
         11    1    1    2    0    0 -0.72740951350E+02  0.88212106386E+02  0.14377820669E+03  0.18369756241E+03  0.00000000000E+00 0.  1.
</event>
<event>
 7    1  0.2619826E-009  0.1221264E+03  0.7561462E-02  0.1239630E+00
         -2   -1    0    0    0  501 -0.00000000000E+00  0.00000000000E+00  0.40997087189E+02  0.40997087189E+02  0.00000000000E+00 0.  1.
          2   -1    0    0  501    0  0.00000000000E+00 -0.00000000000E+00 -0.57283914207E+03  0.57283914207E+03  0.00000000000E+00 0. -1.
         25    2    1    2    0    0  0.30529556194E+01 -0.10386218308E+03 -0.34049375413E+03  0.37733152051E+03  0.12508559533E+03 0.  0.
          5    1    3    3  502    0  0.30012965805E+02  0.15744161703E+01 -0.18511235871E+03  0.18758282077E+03  0.41800000000E+01 0.  1.
         -5    1    3    3    0  502 -0.26960010185E+02 -0.10543659925E+03 -0.15538139542E+03  0.18974869974E+03  0.41800000000E+01 0.  1.
        -11    1    1    2    0    0 -0.91858183288E+01  0.56332736365E+02 -0.23116685321E+02  0.61580334401E+02  0.00000000000E+00 0.  1.
         11    1    1    2    0    0  0.61328627094E+01  0.47529446711E+02 -0.16823161544E+03  0.17492437435E+03  0.00000000000E+00 0. -1.
</event>
<event>
 7    1  0.2619826E-009  0.1134596E+03  0.7561462E-02  0.1254294E+00
          3   -1    0    0  501    0  0.00000000000E+00  0.00000000000E+00  0.26916112446E+02  0.26916112446E+02  0.00000000000E+00 0. -1.
         -3   -1    0    0    0  501 -0.00000000000E+00 -0.00000000000E+00 -0.50530585456E+03  0.50530585456E+03  0.00000000000E+00 0.  1.
         25    2    1    2    0    0  0.36806512260E+02 -0.68218780279E+01 -0.25402479936E+03  0.28561690504E+03  0.12508861013E+03 0.  0.
          5    1    3    3  502    0 -0.30057750979E+02 -0.39785907465E+02 -0.62569889161E+02  0.80117727479E+02  0.41800000000E+01 0. -1.
         -5    1    3    3    0  502  0.66864263239E+02  0.32964029437E+02 -0.19145491020E+03  0.20549917756E+03  0.41800000000E+01 0. -1.
        -11    1    1    2    0    0 -0.50868204523E+01  0.49098910272E+02 -0.10216262009E+03  0.11346267966E+03  0.00000000000E+00 0.  1.
         11    1    1    2    0    0 -0.31719691808E+02 -0.42277032244E+02 -0.12220232266E+03  0.13314238231E+03  0.00000000000E+00 0. -1.
</event>
<event>
 7    1  0.2619826E-009  0.1099282E+03  0.7561462E-02  0.1260703E+00
          2   -1    0    0  501    0  0.00000000000E+00  0.00000000000E+00  0.46158164961E+02  0.46158164961E+02  0.00000000000E+00 0. -1.
         -2   -1    0    0    0  501 -0.00000000000E+00 -0.00000000000E+00 -0.29082491230E+03  0.29082491230E+03  0.00000000000E+00 0.  1.
         25    2    1    2    0    0  0.30826020172E+02 -0.59658580983E+01 -0.18301468742E+03  0.22389225746E+03  0.12509009614E+03 0.  0.
          5    1    3    3  502    0  0.79034918359E+02 -0.76382528783E+01 -0.12715228548E+03  0.14996678742E+03  0.41800000000E+01 0. -1.
         -5    1    3    3    0  502 -0.48208898187E+02  0.16723947800E+01 -0.55862401944E+02  0.73925470034E+02  0.41800000000E+01 0. -1.
        -11    1    1    2    0    0 -0.28355859981E+02  0.44795801681E+02 -0.48958697979E+02  0.72164206857E+02  0.00000000000E+00 0.  1.
         11    1    1    2    0    0 -0.24701601904E+01 -0.38829943582E+02 -0.12693361934E+02  0.40926612945E+02  0.00000000000E+00 0. -1.
</event>
<event>
 7    1  0.2619826E-009  0.1089767E+03  0.7561462E-02  0.1262477E+00
          2   -1    0    0  501    0  0.00000000000E+00  0.00000000000E+00  0.11034204985E+04  0.11034204985E+04  0.00000000000E+00 0. -1.
         -2   -1    0    0    0  501 -0.00000000000E+00 -0.00000000000E+00 -0.20105884577E+02  0.20105884577E+02  0.00000000000E+00 0.  1.
         25    2    1    2    0    0  0.26586793745E+02  0.75298087966E+02  0.82037979256E+03  0.83369483527E+03  0.12508962655E+03 0.  0.
          5    1    3    3  502    0 -0.37424110235E+02  0.33840423918E+02  0.56164211880E+03  0.56391939169E+03  0.41800000000E+01 0.  1.
         -5    1    3    3    0  502  0.64010903981E+02  0.41457664048E+02  0.25873767376E+03  0.26977544358E+03  0.41800000000E+01 0.  1.
        -11    1    1    2    0    0 -0.37516059548E+02 -0.68429622027E+02  0.26544735049E+03  0.27668097834E+03  0.00000000000E+00 0. -1.
         11    1    1    2    0    0  0.10929265802E+02 -0.68684659387E+01 -0.25125291005E+01  0.13150569486E+02  0.00000000000E+00 0.  1.
</event>
<event>
 7    1  0.2619826E-009  0.9624446E+02  0.7561462E-02  0.1288398E+00
         -1   -1    0    0    0  501 -0.00000000000E+00  0.00000000000E+00  0.46756431679E+03  0.46756431679E+03  0.00000000000E+00 0.  1.
          1   -1    0    0  501    0  0.00000000000E+00 -0.00000000000E+00 -0.28365099412E+02  0.28365099412E+02  0.00000000000E+00 0. -1.
         25    2    1    2    0    0 -0.10811862732E+02 -0.25678484011E+02  0.29924284105E+03  0.32552868263E+03  0.12508542834E+03 0.  0.
          5    1    3    3  502    0  0.51970301885E+02  0.15439307369E+01  0.18576357340E+03  0.19294785202E+03  0.41800000000E+01 0.  1.
         -5    1    3    3    0  502 -0.62782164617E+02 -0.27222414748E+02  0.11347926765E+03  0.13258083061E+03  0.41800000000E+01 0.  1.
        -11    1    1    2    0    0 -0.22673095363E+02 -0.82248124244E+01  0.17179882724E+01  0.24179914732E+02  0.00000000000E+00 0. -1.
         11    1    1    2    0    0  0.33484958095E+02  0.33903296435E+02  0.13823838806E+03  0.14622081884E+03  0.00000000000E+00 0.  1.
</event>
<event>
 7    1  0.2619826E-009  0.1281841E+03  0.7561462E-02  0.1230175E+00
         -1   -1    0    0    0  501 -0.00000000000E+00  0.00000000000E+00  0.25516937823E+02  0.25516937823E+02  0.00000000000E+00 0.  1.
          1   -1    0    0  501    0  0.00000000000E+00 -0.00000000000E+00 -0.11527914265E+04  0.11527914265E+04  0.00000000000E+00 0. -1.
         25    2    1    2    0    0 -0.83800390977E+02 -0.48730584012E+02 -0.91709669372E+03  0.93065207394E+03  0.12509900782E+03 0.  0.
          5    1    3    3  502    0 -0.10406247348E+03 -0.11828329111E+00 -0.66198299308E+03  0.67012533746E+03  0.41800000000E+01 0.  1.
         -5    1    3    3    0  502  0.20262082505E+02 -0.48612300721E+02 -0.25511370064E+03  0.26052673648E+03  0.41800000000E+01 0.  1.
        -11    1    1    2    0    0  0.25129154358E+02  0.26841554641E+02 -0.10279160324E+02  0.38178588126E+02  0.00000000000E+00 0.  1.
         11    1    1    2    0    0  0.58671236619E+02  0.21889029371E+02 -0.19989863463E+03  0.20947770225E+03  0.00000000000E+00 0. -1.
</event>
<event>
 7    1  0.2619826E-009  0.1698099E+03  0.7561462E-02  0.1178046E+00
          2   -1    0    0  501    0  0.00000000000E+00  0.00000000000E+00  0.18602518390E+04  0.18602518390E+04  0.00000000000E+00 0. -1.
         -2   -1    0    0    0  501 -0.00000000000E+00 -0.00000000000E+00 -0.23619877924E+02  0.23619877924E+02  0.00000000000E+00 0.  1.
         25    2    1    2    0    0  0.96909305494E+02  0.91988169211E+02  0.14937077541E+04  0.15048798950E+04  0.12508959625E+03 0.  0.
          5    1    3    3  502    0  0.10373657204E+03  0.11719582161E+03  0.12846095154E+04  0.12941156117E+04  0.41800000000E+01 0. -1.
         -5    1    3    3    0  502 -0.68272665466E+01 -0.25207652404E+02  0.20909823868E+03  0.21076428333E+03  0.41800000000E+01 0. -1.
        -11    1    1    2    0    0 -0.10321676409E+02 -0.65134416064E+02  0.10083780340E+03  0.12048772450E+03  0.00000000000E+00 0.  1.
         11    1    1    2    0    0 -0.86587629086E+02 -0.26853753147E+02  0.24208640365E+03  0.25850409745E+03  0.00000000000E+00 0. -1.
</event>
<event>
 7    1  0.2619826E-009  0.1374511E+03  0.7561462E-02  0.1216800E+00
          1   -1    0    0  501    0  0.00000000000E+00  0.00000000000E+00  0.49897022533E+03  0.49897022533E+03  0.00000000000E+00 0. -1.
         -1   -1    0    0    0  501 -0.00000000000E+00 -0.00000000000E+00 -0.59054684216E+02  0.59054684216E+02  0.00000000000E+00 0.  1.
         25    2    1    2    0    0  0.39294550409E+02  0.94957624391E+02  0.95256246863E+02  0.18783376948E+03  0.12508701078E+03 0.  0.
          5    1    3    3  502    0 -0.20367626989E+02  0.73712312172E+02  0.40225032823E+01  0.76694185748E+02  0.41800000000E+01 0.  1.
         -5    1    3    3    0  502  0.59662177399E+02  0.21245312219E+02  0.91233743581E+02  0.11113958373E+03  0.41800000000E+01 0.  1.
        -11    1    1    2    0    0 -0.64195326180E+02 -0.43112021280E+02  0.18632991901E+03  0.20173875434E+03  0.00000000000E+00 0. -1.
         11    1    1    2    0    0  0.24900775771E+02 -0.51845603111E+02  0.15832937524E+03  0.16845238573E+03  0.00000000000E+00 0.  1.
</event>
<event>
 7    1  0.2619826E-009  0.1002810E+03  0.7561462E-02  0.1279706E+00
         -2   -1    0    0    0  501 -0.00000000000E+00  0.00000000000E+00  0.38600821237E+02  0.38600821237E+02  0.00000000000E+00 0.  1.
          2   -1    0    0  501    0  0.00000000000E+00 -0.00000000000E+00 -0.37550163959E+03  0.37550163959E+03  0.00000000000E+00 0. -1.
         25    2    1    2    0    0 -0.16528193735E+02 -0.36601154715E+02 -0.23614157411E+03  0.27022846248E+03  0.12509097967E+03 0.  0.
          5    1    3    3  502    0  0.44690458175E+02  0.14917749944E+02 -0.12133757062E+03  0.13023077501E+03  0.41800000000E+01 0. -1.
         -5    1    3    3    0  502 -0.61218651910E+02 -0.51518904659E+02 -0.11480400349E+03  0.13999768747E+03  0.41800000000E+01 0. -1.
        -11    1    1    2    0    0  0.25401391567E+02 -0.87990493727E+01 -0.93202249474E+02  0.97001614782E+02  0.00000000000E+00 0. -1.
         11    1    1    2    0    0 -0.88731978324E+01  0.45400204087E+02 -0.75569947612E+01  0.46872383562E+02  0.00000000000E+00 0.  1.
</event>
<event>
 6    1  0.2619826E-009  0.1156884E+03  0.7561462E-02  0.1250384E+00
         -2   -1    0    0    0  501 -0.00000000000E+00  0.00000000000E+00  0.49019071896E+02  0.49019071896E+02  0.00000000000E+00 0.  1.
          2   -1    0    0  501    0  0.00000000000E+00 -0.00000000000E+00 -0.48332949357E+03  0.48332949357E+03  0.00000000000E+00 0. -1.
          5    1    1    2  502    0  0.71769768687E+02  0.84488909165E+02 -0.15012207419E+03  0.18666382893E+03  0.41800000000E+01 0.  1.
         -5    1    1    2    0  502 -0.21367180555E+02 -0.14936685130E+01 -0.15964127717E+03  0.16112602902E+03  0.41800000000E+01 0.  1.
        -11    1    1    2    0    0 -0.19891802292E+02 -0.49297088644E+02 -0.12776206838E+01  0.53174421124E+02  0.00000000000E+00 0.  1.
         11    1    1    2    0    0 -0.30510785840E+02 -0.33698152007E+02 -0.12326944963E+03  0.13138428640E+03  0.00000000000E+00 0. -1.
</event>
<event>
 7    1  0.2652951E-009  0.9333643E+02  0.7561462E-02  0.1294967E+00
         -1   -1    0    0    0  501 -0.00000000000E+00  0.00000000000E+00  0.49756640706E+02  0.49756640706E+02  0.00000000000E+00 0.  1.
          1   -1    0    0  501    0  0.00000000000E+00 -0.00000000000E+00 -0.56898661918E+03  0.56898661918E+03  0.00000000000E+00 0. -1.
         25    2    1    2    0    0 -0.52915672362E+02  0.49027016955E+02 -0.47145313357E+03  0.49307027185E+03  0.12508604661E+03 0.  0.
          5    1    3    3  502    0 -0.40004738811E+02  0.28358063384E+02 -0.46489061863E+03  0.46748830849E+03  0.41800000000E+01 0.  1.
         -5    1    3    3    0  502 -0.12910933551E+02  0.20668953571E+02 -0.65625149396E+01  0.25581963357E+02  0.41800000000E+01 0.  1.
        -11    1    1    2    0    0 -0.11372444615E+02 -0.47059982213E+02 -0.55495997458E+01  0.48731637360E+02  0.00000000000E+00 0.  1.
         11    1    1    2    0    0  0.64288116977E+02 -0.19670347414E+01 -0.42227245157E+02  0.76941350675E+02  0.00000000000E+00 0. -1.
</event>
<event>
 7    1  0.2619826E-009  0.1001217E+03  0.7561462E-02  0.1280040E+00
          3   -1    0    0  501    0  0.00000000000E+00  0.00000000000E+00  0.23392587904E+02  0.23392587904E+02  0.00000000000E+00 0. -1.
         -3   -1    0    0    0  501 -0.00000000000E+00 -0.00000000000E+00 -0.72913494807E+03  0.72913494807E+03  0.00000000000E+00 0.  1.
         25    2    1    2    0    0  0.12484964010E+02 -0.33622715078E+02 -0.57491316140E+03  0.58945674189E+03  0.12509095137E+03 0.  0.
          5    1    3    3  502    0 -0.96621705178E+01 -0.64652482042E+02 -0.16164576638E+03  0.17441366679E+03  0.41800000000E+01 0. -1.
         -5    1    3    3    0  502  0.22147134528E+02  0.31029766964E+02 -0.41326739502E+03  0.41504307511E+03  0.41800000000E+01 0. -1.
        -11    1    1    2    0    0 -0.50353329058E+02  0.29341865601E+02 -0.67686266803E+02  0.89318718855E+02  0.00000000000E+00 0. -1.
         11    1    1    2    0    0  0.37868365048E+02  0.42808494772E+01 -0.63142931963E+02  0.73752075228E+02  0.00000000000E+00 0.  1.
</event>
<event>
 7    1  0.2957032E-009  0.1048014E+03  0.7561462E-02  0.1270511E+00
          1   -1    0    0  501    0  0.00000000000E+00  0.00000000000E+00  0.53058043876E+03  0.53058043876E+03  0.00000000000E+00 0. -1.
         -1   -1    0    0    0  501 -0.00000000000E+00 -0.00000000000E+00 -0.29819558940E+02  0.29819558940E+02  0.00000000000E+00 0.  1.
         25    2    1    2    0    0  0.10145715405E+02 -0.62595694736E+02  0.26906455674E+03  0.30341926044E+03  0.12508539232E+03 0.  0.
          5    1    3    3  502    0 -0.10721331880E+02 -0.93270463091E+02  0.13668055817E+03  0.16587155761E+03  0.41800000000E+01 0.  1.
         -5    1    3    3    0  502  0.20867047285E+02  0.30674768355E+02  0.13238399857E+03  0.13754770283E+03  0.41800000000E+01 0.  1.
        -11    1    1    2    0    0  0.17352461053E+02  0.36342978457E+02  0.26310101906E+02  0.48105524111E+02  0.00000000000E+00 0.  1.
         11    1    1    2    0    0 -0.27498176458E+02  0.26252716279E+02  0.20538622117E+03  0.20887521314E+03  0.00000000000E+00 0. -1.
</event>
<event>
 7    1  0.2619826E-009  0.1041842E+03  0.7561462E-02  0.1271735E+00
          1   -1    0    0  501    0  0.00000000000E+00  0.00000000000E+00  0.87014802368E+02  0.87014802368E+02  0.00000000000E+00 0. -1.
         -1   -1    0    0    0  501 -0.00000000000E+00 -0.00000000000E+00 -0.16125710244E+03  0.16125710244E+03  0.00000000000E+00 0.  1.
         25    2    1    2    0    0 -0.27046106658E+02 -0.89390349249E+01 -0.82792758597E+02  0.15268594056E+03  0.12508779852E+03 0.  0.
          5    1    3    3  502    0 -0.57365716361E+02 -0.41310588088E+02 -0.16330819801E+02  0.72674329561E+02  0.41800000000E+01 0. -1.
         -5    1    3    3    0  502  0.30319609703E+02  0.32371553163E+02 -0.66461938795E+02  0.80011611002E+02  0.41800000000E+01 0. -1.
        -11    1    1    2    0    0  0.29679716642E+02  0.46600705094E+02 -0.49974199325E+01  0.55475089015E+02  0.00000000000E+00 0. -1.
         11    1    1    2    0    0 -0.26336099849E+01 -0.37661670169E+02  0.13547878453E+02  0.40110875235E+02  0.00000000000E+00 0.  1.
</event>
<event>
 7    1  0.2619826E-009  0.1744130E+03  0.7561462E-02  0.1173322E+00
          1   -1    0    0  501    0  0.00000000000E+00  0.00000000000E+00  0.27818033011E+03  0.27818033011E+03  0.00000000000E+00 0. -1.
         -1   -1    0    0    0  501 -0.00000000000E+00 -0.00000000000E+00 -0.13112683208E+03  0.13112683208E+03  0.00000000000E+00 0.  1.
         25    2    1    2    0    0  0.73456639851E+02  0.13437167800E+03  0.11580122905E+03  0.22914425573E+03  0.12508213100E+03 0.  0.
          5    1    3    3  502    0  0.12177968146E+02  0.12866977396E+03  0.10488441160E+03  0.16650052804E+03  0.41800000000E+01 0.  1.
         -5    1    3    3    0  502  0.61278671705E+02  0.57019040375E+01  0.10916817446E+02  0.62643727689E+02  0.41800000000E+01 0.  1.
        -11    1    1    2    0    0 -0.60132949345E+02 -0.70868526431E+02 -0.22816547773E+02  0.95702217779E+02  0.00000000000E+00 0.  1.
         11    1    1    2    0    0 -0.13323690506E+02 -0.63503151567E+02  0.54068816756E+02  0.84460688684E+02  0.00000000000E+00 0. -1.
</event>
<event>
 7    1  0.2619826E-009  0.9862188E+02  0.7561462E-02  0.1283221E+00
         -1   -1    0    0    0  501 -0.00000000000E+00  0.00000000000E+00  0.10303158042E+03  0.10303158042E+03  0.00000000000E+00 0.  1.
          1   -1    0    0  501    0  0.00000000000E+00 -0.00000000000E+00 -0.11677702730E+03  0.11677702730E+03  0.00000000000E+00 0. -1.
         25    2    1    2    0    0 -0.30117745764E+02  0.74568002227E+00 -0.20585773243E+02  0.13030254326E+03  0.12508934436E+03 0.  0.
          5    1    3    3  502    0 -0.13155450066E+02 -0.61979343323E+02 -0.12084465083E+02  0.64637539879E+02  0.41800000000E+01 0. -1.
         -5    1    3    3    0  502 -0.16962295698E+02  0.62725023345E+02 -0.85013081602E+01  0.65665003384E+02  0.41800000000E+01 0. -1.
        -11    1    1    2    0    0  0.34073543404E+02  0.25205206008E+02 -0.24238641779E+02  0.48824384535E+02  0.00000000000E+00 0. -1.
         11    1    1    2    0    0 -0.39557976397E+01 -0.25950886030E+02  0.31078968137E+02  0.40681679920E+02  0.00000000000E+00 0.  1.
</event>
<event>
 7    1  0.2619826E-009  0.9085616E+02  0.7561462E-02  0.1300792E+00
          2   -1    0    0  501    0  0.00000000000E+00  0.00000000000E+00  0.54401022365E+03  0.54401022365E+03  0.00000000000E+00 0. -1.
         -2   -1    0    0    0  501 -0.00000000000E+00 -0.00000000000E+00 -0.23485995840E+02  0.23485995840E+02  0.00000000000E+00 0.  1.
         25    2    1    2    0    0 -0.15241421791E+02 -0.45090483384E+02  0.28716879441E+03  0.31682708879E+03  0.12509210638E+03 0.  0.
          5    1    3    3  502    0 -0.40428572815E+02 -0.14452867871E+01  0.20759475247E+02  0.45661653127E+02  0.41800000000E+01 0.  1.
         -5    1    3    3    0  502  0.25187151024E+02 -0.43645196597E+02  0.26640931916E+03  0.27116543566E+03  0.41800000000E+01 0.  1.
        -11    1    1    2    0    0 -0.30154831664E+02  0.30262289723E+02  0.91295074974E+02  0.10079638270E+03  0.00000000000E+00 0. -1.
         11    1    1    2    0    0  0.45396253455E+02  0.14828193661E+02  0.14206035843E+03  0.14987274800E+03  0.00000000000E+00 0.  1.
</event>
<event>
 7    1  0.2619826E-009  0.5768747E+02  0.7561462E-02  0.1407801E+00
          1   -1    0    0  501    0  0.00000000000E+00  0.00000000000E+00  0.36879696250E+02  0.36879696250E+02  0.00000000000E+00 0. -1.
         -1   -1    0    0    0  501 -0.00000000000E+00 -0.00000000000E+00 -0.36320836065E+03  0.36320836065E+03  0.00000000000E+00 0.  1.
         25    2    1    2    0    0  0.43803999825E+01  0.30496463562E+02 -0.24079624037E+03  0.27309215204E+03  0.12508905603E+03 0.  0.
          5    1    3    3  502    0 -0.15372508299E+01  0.40782575658E+02 -0.10360299853E+02  0.42312998363E+02  0.41800000000E+01 0. -1.
         -5    1    3    3    0  502  0.59176508124E+01 -0.10286112096E+02 -0.23043594051E+03  0.23077915368E+03  0.41800000000E+01 0. -1.
        -11    1    1    2    0    0  0.23701330117E+02 -0.22230469465E+02 -0.91519163702E+02  0.97116961169E+02  0.00000000000E+00 0.  1.
         11    1    1    2    0    0 -0.28081730100E+02 -0.82659940966E+01  0.59867396715E+01  0.29878943684E+02  0.00000000000E+00 0. -1.
</event>
<event>
 7    1  0.2619826E-009  0.8513397E+02  0.7561462E-02  0.1315083E+00
          1   -1    0    0  501    0  0.00000000000E+00  0.00000000000E+00  0.27746310486E+03  0.27746310486E+03  0.00000000000E+00 0. -1.
         -1   -1    0    0    0  501 -0.00000000000E+00 -0.00000000000E+00 -0.44229077478E+02  0.44229077478E+02  0.00000000000E+00 0.  1.
         25    2    1    2    0    0 -0.10370790169E+02 -0.55606332357E+01  0.17036261138E+03  0.21168272951E+03  0.12509070583E+03 0.  0.
          5    1    3    3  502    0  0.29974241261E+02  0.26176662542E+02  0.72929590694E+01  0.40673485872E+02  0.41800000000E+01 0.  1.
         -5    1    3    3    0  502 -0.40345031430E+02 -0.31737295778E+02  0.16306965231E+03  0.17100924363E+03  0.41800000000E+01 0.  1.
        -11    1    1    2    0    0 -0.27552538140E+02 -0.19090993681E+02  0.54539680456E+02  0.64017069145E+02  0.00000000000E+00 0. -1.
         11    1    1    2    0    0  0.37923328309E+02  0.24651626917E+02  0.83317355454E+01  0.45992383683E+02  0.00000000000E+00 0.  1.
</event>
<event>
 7    1  0.2619826E-009  0.8313202E+02  0.7561462E-02  0.1320391E+00
          2   -1    0    0  501    0  0.00000000000E+00  0.00000000000E+00  0.62719464034E+03  0.62719464034E+03  0.00000000000E+00 0. -1.
         -2   -1    0    0    0  501 -0.00000000000E+00 -0.00000000000E+00 -0.28076683345E+02  0.28076683345E+02  0.00000000000E+00 0.  1.
         25    2    1    2    0    0 -0.54421440261E+01 -0.63792549978E+02  0.43567929461E+03  0.45778043371E+03  0.12508945347E+03 0.  0.
          5    1    3    3  502    0 -0.14756362651E+02  0.15180569498E+02  0.29762857051E+03  0.29840984956E+03  0.41800000000E+01 0.  1.
         -5    1    3    3    0  502  0.93142186249E+01 -0.78973119476E+02  0.13805072410E+03  0.15937058415E+03  0.41800000000E+01 0.  1.
        -11    1    1    2    0    0  0.81990996781E+01  0.28547339583E+02  0.15912800670E+03  0.16187618216E+03  0.00000000000E+00 0. -1.
         11    1    1    2    0    0 -0.27569556519E+01  0.35245210395E+02  0.43106556780E+01  0.35614707814E+02  0.00000000000E+00 0.  1.
</event>
<event>
 7    1  0.2619826E-009  0.1413005E+03  0.7561462E-02  0.1211590E+00
          2   -1    0    0  501    0  0.00000000000E+00  0.00000000000E+00  0.24381596708E+03  0.24381596708E+03  0.00000000000E+00 0. -1.
         -2   -1    0    0    0  501 -0.00000000000E+00 -0.00000000000E+00 -0.11847029670E+03  0.11847029670E+03  0.00000000000E+00 0.  1.
         25    2    1    2    0    0 -0.87571799183E+02 -0.86509012861E+02  0.11143822450E+03  0.20789152400E+03  0.12509108103E+03 0.  0.
          5    1    3    3  502    0 -0.54047044273E+02 -0.10284173757E+03  0.32853352459E+02  0.12080695819E+03  0.41800000000E+01 0.  1.
         -5    1    3    3    0  502 -0.33524754909E+02  0.16332724705E+02  0.78584872037E+02  0.87084565803E+02  0.41800000000E+01 0.  1.
        -11    1    1    2    0    0  0.80271236283E+02  0.57069470610E+02  0.47320046870E+02  0.10926839747E+03  0.00000000000E+00 0. -1.
         11    1    1    2    0    0  0.73005628994E+01  0.29439542250E+02 -0.33412600979E+02  0.45126342315E+02  0.00000000000E+00 0.  1.
</event>
<event>
 7    1  0.2619826E-009  0.1198041E+03  0.7561462E-02  0.1243421E+00
         -2   -1    0    0    0  501 -0.00000000000E+00  0.00000000000E+00  0.15042528411E+03  0.15042528411E+03  0.00000000000E+00 0.  1.
          2   -1    0    0  501    0  0.00000000000E+00 -0.00000000000E+00 -0.23070681493E+03  0.23070681493E+03  0.00000000000E+00 0. -1.
         25    2    1    2    0    0  0.55279180442E+02  0.10015689749E+02 -0.18509545551E+03  0.23035526890E+03  0.12508845043E+03 0.  0.
          5    1    3    3  502    0  0.69112497509E+02  0.52193652451E+02 -0.88140546059E+02  0.12364037742E+03  0.41800000000E+01 0. -1.
         -5    1    3    3    0  502 -0.13833317067E+02 -0.42177962701E+02 -0.96954909450E+02  0.10671489149E+03  0.41800000000E+01 0. -1.
        -11    1    1    2    0    0 -0.80922284507E+02 -0.38326763584E+00  0.75900274552E+02  0.11094780170E+03  0.00000000000E+00 0.  1.
         11    1    1    2    0    0  0.25643104065E+02 -0.96324221135E+01  0.28913650140E+02  0.39829028438E+02  0.00000000000E+00 0. -1.
</event>
<event>
 7    1  0.2619826E-009  0.1475673E+03  0.7561462E-02  0.1203495E+00
         -2   -1    0    0    0  501 -0.00000000000E+00  0.00000000000E+00  0.63868412943E+02  0.63868412943E+02  0.00000000000E+00 0. -1.
          2   -1    0    0  501    0  0.00000000000E+00 -0.00000000000E+00 -0.45526883835E+03  0.45526883835E+03  0.00000000000E+00 0.  1.
         25    2    1    2    0    0  0.91600168836E+02  0.93678512500E+02 -0.21483519000E+03  0.28101430348E+03  0.12509446535E+03 0.  0.
          5    1    3    3  502    0  0.29953930325E+02  0.10293064836E+02 -0.16092362108E+03  0.16406422324E+03  0.41800000000E+01 0.  1.
         -5    1    3    3    0  502  0.61646238511E+02  0.83385447664E+02 -0.53911568924E+02  0.11695008024E+03  0.41800000000E+01 0.  1.
        -11    1    1    2    0    0 -0.15286543810E+02 -0.80527447922E+02 -0.82699903347E+02  0.11643720327E+03  0.00000000000E+00 0. -1.
         11    1    1    2    0    0 -0.76313625025E+02 -0.13151064578E+02 -0.93865332058E+02  0.12168574455E+03  0.00000000000E+00 0.  1.
</event>
<event>
 7    1  0.2619826E-009  0.1977964E+03  0.7561462E-02  0.1151612E+00
         -1   -1    0    0    0  501 -0.00000000000E+00  0.00000000000E+00  0.13927170023E+03  0.13927170023E+03  0.00000000000E+00 0.  1.
          1   -1    0    0  501    0  0.00000000000E+00 -0.00000000000E+00 -0.30373255006E+03  0.30373255006E+03  0.00000000000E+00 0. -1.
         25    2    1    2    0    0 -0.46778634914E+02 -0.16488870719E+03 -0.11590852135E+03  0.24178189614E+03  0.12508866270E+03 0.  0.
          5    1    3    3  502    0 -0.85504279181E+02 -0.86979601712E+02 -0.87485014887E+02  0.15015836008E+03  0.41800000000E+01 0.  1.
         -5    1    3    3    0  502  0.38725644267E+02 -0.77909105478E+02 -0.28423506458E+02  0.91623536057E+02  0.41800000000E+01 0.  1.
        -11    1    1    2    0    0 -0.54673707990E+01  0.11190533645E+03 -0.58090963505E+02  0.12620323494E+03  0.00000000000E+00 0.  1.
         11    1    1    2    0    0  0.52246005713E+02  0.52983370744E+02  0.95386350225E+01  0.75019119206E+02  0.00000000000E+00 0. -1.
</event>
<event>
 7    1  0.2619826E-009  0.1145773E+03  0.7561462E-02  0.1252321E+00
         -2   -1    0    0    0  501 -0.00000000000E+00  0.00000000000E+00  0.95670214980E+02  0.95670214980E+02  0.00000000000E+00 0.  1.
          2   -1    0    0  501    0  0.00000000000E+00 -0.00000000000E+00 -0.22950754445E+03  0.22950754445E+03  0.00000000000E+00 0. -1.
         25    2    1    2    0    0 -0.63204459598E+02  0.49381456464E+02 -0.13578298414E+03  0.20129187593E+03  0.12509224028E+03 0.  0.
          5    1    3    3  502    0  0.23747619780E+02  0.48157238836E+02 -0.22374573365E+02  0.58319491003E+02  0.41800000000E+01 0.  1.
         -5    1    3    3    0  502 -0.86952079378E+02  0.12242176281E+01 -0.11340841077E+03  0.14297238493E+03  0.41800000000E+01 0.  1.
        -11    1    1    2    0    0  0.56780095119E+02 -0.23298460619E+02 -0.40587010822E+02  0.73580587905E+02  0.00000000000E+00 0. -1.
         11    1    1    2    0    0  0.64243644789E+01 -0.26082995846E+02  0.42532665491E+02  0.50305295597E+02  0.00000000000E+00 0.  1.
</event>
<event>
 7    1  0.2619826E-009  0.9446549E+02  0.7561462E-02  0.1292384E+00
         -1   -1    0    0    0  501 -0.00000000000E+00  0.00000000000E+00  0.11805594925E+03  0.11805594925E+03  0.00000000000E+00 0.  1.
          1   -1    0    0  501    0  0.00000000000E+00 -0.00000000000E+00 -0.17401030413E+03  0.17401030413E+03  0.00000000000E+00 0. -1.
         25    2    1    2    0    0  0.60466116093E+02  0.19451704854E+02  0.37287927825E+02  0.14516209815E+03  0.12508846933E+03 0.  0.
          5    1    3    3  502    0  0.29735453333E+02 -0.43211831179E+02 -0.18433600757E+02  0.55755982420E+02  0.41800000000E+01 0. -1.
         -5    1    3    3    0  502  0.30730662760E+02  0.62663536033E+02  0.55721528581E+02  0.89406115726E+02  0.41800000000E+01 0. -1.
        -11    1    1    2    0    0 -0.16524851929E+02 -0.14838551173E+02 -0.99796478555E+02  0.10223791109E+03  0.00000000000E+00 0. -1.
         11    1    1    2    0    0 -0.43941264164E+02 -0.46131536812E+01  0.65541958467E+01  0.44666244149E+02  0.00000000000E+00 0.  1.
</event>
<event>
 7    1  0.2619826E-009  0.8262230E+02  0.7561462E-02  0.1321770E+00
          2   -1    0    0  501    0  0.00000000000E+00  0.00000000000E+00  0.32466457813E+03  0.32466457813E+03  0.00000000000E+00 0. -1.
         -2   -1    0    0    0  501 -0.00000000000E+00 -0.00000000000E+00 -0.37784159042E+02  0.37784159042E+02  0.00000000000E+00 0.  1.
         25    2    1    2    0    0 -0.16688574823E+02 -0.10371099857E+02  0.16424273051E+03  0.20736826018E+03  0.12505939613E+03 0.  0.
          5    1    3    3  502    0 -0.17589762303E+02  0.27123980831E+02 -0.58685004494E+01  0.33121318988E+02  0.41800000000E+01 0.  1.
         -5    1    3    3    0  502  0.90118748044E+00 -0.37495080688E+02  0.17011123096E+03  0.17424694119E+03  0.41800000000E+01 0.  1.
        -11    1    1    2    0    0 -0.37327455696E+02 -0.73823512414E+01  0.47984268895E+02  0.61239922599E+02  0.00000000000E+00 0.  1.
         11    1    1    2    0    0  0.54016030518E+02  0.17753451099E+02  0.74653419677E+02  0.93840554390E+02  0.00000000000E+00 0. -1.
</event>
<event>
 7    1  0.2619826E-009  0.1542929E+03  0.7561462E-02  0.1195295E+00
          2   -1    0    0  501    0  0.00000000000E+00  0.00000000000E+00  0.11025174012E+03  0.11025174012E+03  0.00000000000E+00 0. -1.
         -2   -1    0    0    0  501 -0.00000000000E+00 -0.00000000000E+00 -0.26115433654E+03  0.26115433654E+03  0.00000000000E+00 0.  1.
         25    2    1    2    0    0 -0.99229894539E+02  0.46102312961E+02 -0.15715649484E+03  0.22873118403E+03  0.12509114855E+03 0.  0.
          5    1    3    3  502    0  0.29065703749E+02  0.18649259313E+02 -0.29187760244E+02  0.45409335553E+02  0.41800000000E+01 0.  1.
         -5    1    3    3    0  502 -0.12829559829E+03  0.27453053648E+02 -0.12796873459E+03  0.18332184847E+03  0.41800000000E+01 0.  1.
        -11    1    1    2    0    0  0.57541164901E+02  0.22887328335E+02  0.21443436306E+01  0.61963002397E+02  0.00000000000E+00 0. -1.
         11    1    1    2    0    0  0.41688729638E+02 -0.68989641296E+02  0.41095547818E+01  0.80711890236E+02  0.00000000000E+00 0.  1.
</event>
<event>
 7    1  0.2619826E-009  0.9462304E+02  0.7561462E-02  0.1292027E+00
         -3   -1    0    0    0  501 -0.00000000000E+00  0.00000000000E+00  0.59967228601E+03  0.59967228601E+03  0.00000000000E+00 0.  1.
          3   -1    0    0  501    0  0.00000000000E+00 -0.00000000000E+00 -0.25021922341E+02  0.25021922341E+02  0.00000000000E+00 0. -1.
         25    2    1    2    0    0  0.33625584802E+02  0.29488597007E+02  0.41141966516E+03  0.43233573123E+03  0.12509111206E+03 0.  0.
          5    1    3    3  502    0  0.11629995685E+02  0.57287236026E+02  0.80913340840E+02  0.99907583982E+02  0.41800000000E+01 0. -1.
         -5    1    3    3    0  502  0.21995589117E+02 -0.27798639020E+02  0.33050632432E+03  0.33242814725E+03  0.41800000000E+01 0. -1.
        -11    1    1    2    0    0  0.28546782075E+01  0.27301129159E+02  0.19819654593E+02  0.33857341142E+02  0.00000000000E+00 0.  1.
         11    1    1    2    0    0 -0.36480263009E+02 -0.56789726166E+02  0.14341104392E+03  0.15850113597E+03  0.00000000000E+00 0. -1.
</event>
<event>
 7    1  0.2689960E-009  0.1641110E+03  0.7561462E-02  0.1184132E+00
         -2   -1    0    0    0  501 -0.00000000000E+00  0.00000000000E+00  0.59913072033E+02  0.59913072033E+02  0.00000000000E+00 0.  1.
          2   -1    0    0  501    0  0.00000000000E+00 -0.00000000000E+00 -0.63606721770E+03  0.63606721770E+03  0.00000000000E+00 0. -1.
         25    2    1    2    0    0 -0.12951483964E+03  0.71132723887E+02 -0.18382466088E+03  0.26697115271E+03  0.12509249513E+03 0.  0.
          5    1    3    3  502    0 -0.73747217791E+02  0.14256182060E+02 -0.10221315078E+02  0.75919948240E+02  0.41800000000E+01 0.  1.
         -5    1    3    3    0  502 -0.55767621846E+02  0.56876541827E+02 -0.17360334580E+03  0.19105120447E+03  0.41800000000E+01 0.  1.
        -11    1    1    2    0    0  0.53822462128E+02 -0.80628891618E+02 -0.20611609747E+03  0.22777559401E+03  0.00000000000E+00 0.  1.
         11    1    1    2    0    0  0.75692377510E+02  0.94961677309E+01 -0.18621338732E+03  0.20123354301E+03  0.00000000000E+00 0. -1.
</event>
<event>
 7    1  0.2619826E-009  0.1042422E+03  0.7561462E-02  0.1271620E+00
         -2   -1    0    0    0  501 -0.00000000000E+00  0.00000000000E+00  0.83346743376E+02  0.83346743376E+02  0.00000000000E+00 0.  1.
          2   -1    0    0  501    0  0.00000000000E+00 -0.00000000000E+00 -0.16997857867E+03  0.16997857867E+03  0.00000000000E+00 0. -1.
         25    2    1    2    0    0  0.16586793014E+02 -0.44671707438E+02 -0.34002098222E+02  0.13810925471E+03  0.12508932971E+03 0.  0.
          5    1    3    3  502    0 -0.12731769059E+02 -0.79910485935E+02 -0.24408572018E+00  0.81026635643E+02  0.41800000000E+01 0.  1.
         -5    1    3    3    0  502  0.29318562073E+02  0.35238778497E+02 -0.33758012502E+02  0.57082619071E+02  0.41800000000E+01 0.  1.
        -11    1    1    2    0    0  0.13469247868E+02  0.49219584313E+02 -0.64792809901E+02  0.82474822418E+02  0.00000000000E+00 0. -1.
         11    1    1    2    0    0 -0.30056040882E+02 -0.45478768749E+01  0.12163072833E+02  0.32741244911E+02  0.00000000000E+00 0.  1.
</event>
<event>
 7    1  0.2619826E-009  0.1117800E+03  0.7561462E-02  0.1257309E+00
          2   -1    0    0  501    0  0.00000000000E+00  0.00000000000E+00  0.37922623293E+03  0.37922623293E+03  0.00000000000E+00 0. -1.
         -2   -1    0    0    0  501 -0.00000000000E+00 -0.00000000000E+00 -0.50012337215E+02  0.50012337215E+02  0.00000000000E+00 0.  1.
         25    2    1    2    0    0 -0.73391353280E+02 -0.25103094112E+02  0.12518702380E+03  0.19322537725E+03  0.12509116441E+03 0.  0.
          5    1    3    3  502    0 -0.36408889208E+02  0.24449399841E+02 -0.94078652073E+01  0.45048426095E+02  0.41800000000E+01 0. -1.
         -5    1    3    3    0  502 -0.36982464072E+02 -0.49552493953E+02  0.13459488901E+03  0.14817695115E+03  0.41800000000E+01 0. -1.
        -11    1    1    2    0    0  0.84187572396E+02  0.44580593678E+02  0.15151307695E+03  0.17897259333E+03  0.00000000000E+00 0.  1.
         11    1    1    2    0    0 -0.10796219117E+02 -0.19477499566E+02  0.52513794969E+02  0.57040599564E+02  0.00000000000E+00 0. -1.
</event>
<event>
 7    1  0.2619826E-009  0.9460807E+02  0.7561462E-02  0.1292061E+00
          1   -1    0    0  501    0  0.00000000000E+00  0.00000000000E+00  0.22549287099E+03  0.22549287099E+03  0.00000000000E+00 0. -1.
         -1   -1    0    0    0  501 -0.00000000000E+00 -0.00000000000E+00 -0.17883821445E+03  0.17883821445E+03  0.00000000000E+00 0.  1.
         25    2    1    2    0    0 -0.29604272129E+01  0.49202648396E+02 -0.13708578387E+03  0.19201375391E+03  0.12508838799E+03 0.  0.
          5    1    3    3  502    0  0.27348331589E+02 -0.34322313574E+02 -0.32821651111E+02  0.54960764473E+02  0.41800000000E+01 0. -1.
         -5    1    3    3    0  502 -0.30308758802E+02  0.83524961970E+02 -0.10426413276E+03  0.13705298944E+03  0.41800000000E+01 0. -1.
        -11    1    1    2    0    0  0.11348920385E+02 -0.74110892695E+01 -0.81055263905E+01  0.15793093305E+02  0.00000000000E+00 0.  1.
         11    1    1    2    0    0 -0.83884931724E+01 -0.41791559127E+02  0.19184596680E+03  0.19652423823E+03  0.00000000000E+00 0. -1.
</event>
<event>
 7    1  0.2619826E-009  0.9682751E+02  0.7561462E-02  0.1287112E+00
         -1   -1    0    0    0  501 -0.00000000000E+00  0.00000000000E+00  0.63622543315E+02  0.63622543315E+02  0.00000000000E+00 0.  1.
          1   -1    0    0  501    0  0.00000000000E+00 -0.00000000000E+00 -0.20298147264E+03  0.20298147264E+03  0.00000000000E+00 0. -1.
         25    2    1    2    0    0 -0.48693175402E+01 -0.27357151206E+02 -0.59217823720E+02  0.14115713980E+03  0.12508582452E+03 0.  0.
          5    1    3    3  502    0  0.34240027378E+02 -0.43534846514E+02  0.13276430571E+02  0.57108653850E+02  0.41800000000E+01 0. -1.
         -5    1    3    3    0  502 -0.39109344919E+02  0.16177695308E+02 -0.72494254291E+02  0.84048485951E+02  0.41800000000E+01 0. -1.
        -11    1    1    2    0    0  0.15198497501E+02  0.59713217649E+02 -0.59758489331E+02  0.85835538883E+02  0.00000000000E+00 0.  1.
         11    1    1    2    0    0 -0.10329179961E+02 -0.32356066443E+02 -0.20382616276E+02  0.39611337273E+02  0.00000000000E+00 0. -1.
</event>
<event>
 7    1  0.2619826E-009  0.8851750E+02  0.7561462E-02  0.1306482E+00
         -3   -1    0    0    0  501 -0.00000000000E+00  0.00000000000E+00  0.42830379681E+03  0.42830379681E+03  0.00000000000E+00 0.  1.
          3   -1    0    0  501    0  0.00000000000E+00 -0.00000000000E+00 -0.33623461548E+02  0.33623461548E+02  0.00000000000E+00 0. -1.
         25    2    1    2    0    0 -0.42920351598E+02  0.62930019167E+00  0.28131676811E+03  0.31085284107E+03  0.12509121544E+03 0.  0.
          5    1    3    3  502    0 -0.23021903560E+02  0.61399002879E+02  0.17221407694E+03  0.18432310299E+03  0.41800000000E+01 0.  1.
         -5    1    3    3    0  502 -0.19898448038E+02 -0.60769702687E+02  0.10910269116E+03  0.12652973808E+03  0.41800000000E+01 0.  1.
        -11    1    1    2    0    0  0.21995838701E+02  0.95487521626E+01  0.12341840714E+03  0.12572628527E+03  0.00000000000E+00 0.  1.
         11    1    1    2    0    0  0.20924512897E+02 -0.10178052354E+02 -0.10054839982E+02  0.25348132018E+02  0.00000000000E+00 0. -1.
</event>
<event>
 7    1  0.2619826E-009  0.1220664E+03  0.7561462E-02  0.1239727E+00
         -1   -1    0    0    0  501 -0.00000000000E+00  0.00000000000E+00  0.59912354221E+03  0.59912354221E+03  0.00000000000E+00 0.  1.
          1   -1    0    0  501    0  0.00000000000E+00 -0.00000000000E+00 -0.32742495037E+02  0.32742495037E+02  0.00000000000E+00 0. -1.
         25    2    1    2    0    0 -0.66464455498E+02 -0.61351528544E+01  0.44238515168E+03  0.46454912414E+03  0.12508438099E+03 0.  0.
          5    1    3    3  502    0 -0.87441486282E+02  0.35518620927E+02  0.27725698679E+03  0.29291038746E+03  0.41800000000E+01 0.  1.
         -5    1    3    3    0  502  0.20977030784E+02 -0.41653773781E+02  0.16512816488E+03  0.17163873668E+03  0.41800000000E+01 0.  1.
        -11    1    1    2    0    0  0.37893245109E+02  0.42271056246E+02  0.10092667375E+03  0.11579695029E+03  0.00000000000E+00 0.  1.
         11    1    1    2    0    0  0.28571210389E+02 -0.36135903391E+02  0.23069221738E+02  0.51519962816E+02  0.00000000000E+00 0. -1.
</event>
<event>
 7    1  0.2619826E-009  0.7103889E+02  0.7561462E-02  0.1356595E+00
         -1   -1    0    0    0  501 -0.00000000000E+00  0.00000000000E+00  0.79334291321E+03  0.79334291321E+03  0.00000000000E+00 0.  1.
          1   -1    0    0  501    0  0.00000000000E+00 -0.00000000000E+00 -0.17497976811E+02  0.17497976811E+02  0.00000000000E+00 0. -1.
         25    2    1    2    0    0  0.59243351648E+01  0.29897915396E+02  0.54463789547E+03  0.55964841032E+03  0.12508766089E+03 0.  0.
          5    1    3    3  502    0  0.22345303320E+01  0.42273378211E+02  0.54441373322E+03  0.54607308755E+03  0.41800000000E+01 0. -1.
         -5    1    3    3    0  502  0.36898048328E+01 -0.12375462814E+02  0.22416224544E+00  0.13575322769E+02  0.41800000000E+01 0. -1.
        -11    1    1    2    0    0  0.30293530712E+02  0.10170113999E+02  0.15200293905E+03  0.15532553783E+03  0.00000000000E+00 0.  1.
         11    1    1    2    0    0 -0.36217865877E+02 -0.40068029395E+02  0.79204101883E+02  0.95866941869E+02  0.00000000000E+00 0. -1.
</event>
<event>
 7    1  0.2619826E-009  0.1468167E+03  0.7561462E-02  0.1204440E+00
          2   -1    0    0  501    0  0.00000000000E+00  0.00000000000E+00  0.15587201044E+04  0.15587201044E+04  0.00000000000E+00 0. -1.
         -2   -1    0    0    0  501 -0.00000000000E+00 -0.00000000000E+00 -0.17317954827E+02  0.17317954827E+02  0.00000000000E+00 0.  1.
         25    2    1    2    0    0 -0.12157324427E+03  0.10579429153E+01  0.78105222806E+03  0.80029454146E+03  0.12509035601E+03 0.  0.
          5    1    3    3  502    0  0.43802904257E+01  0.15904927610E+02  0.11951199924E+02  0.20795606414E+02  0.41800000000E+01 0. -1.
         -5    1    3    3    0  502 -0.12595353469E+03 -0.14846984694E+02  0.76910102813E+03  0.77949893504E+03  0.41800000000E+01 0. -1.
        -11    1    1    2    0    0  0.90623439681E+02 -0.40770362615E+02  0.58202154636E+03  0.59044382520E+03  0.00000000000E+00 0. -1.
         11    1    1    2    0    0  0.30949804585E+02  0.39712419699E+02  0.17832837518E+03  0.18529969260E+03  0.00000000000E+00 0.  1.
</event>
<event>
 7    1  0.2619826E-009  0.1195915E+03  0.7561462E-02  0.1243772E+00
          1   -1    0    0  501    0  0.00000000000E+00  0.00000000000E+00  0.64404460386E+03  0.64404460386E+03  0.00000000000E+00 0. -1.
         -1   -1    0    0    0  501 -0.00000000000E+00 -0.00000000000E+00 -0.23652081236E+02  0.23652081236E+02  0.00000000000E+00 0.  1.
         25    2    1    2    0    0 -0.50869190311E+02  0.29580993908E+02  0.37148837463E+03  0.39637696588E+03  0.12509347253E+03 0.  0.
          5    1    3    3  502    0  0.28251566490E+02 -0.25636781982E+02  0.14840328782E+03  0.15328536732E+03  0.41800000000E+01 0.  1.
         -5    1    3    3    0  502 -0.79120756801E+02  0.55217775889E+02  0.22308508681E+03  0.24309159856E+03  0.41800000000E+01 0.  1.
        -11    1    1    2    0    0  0.64188078730E+02  0.76942156685E+01  0.11783514216E+03  0.13440398482E+03  0.00000000000E+00 0.  1.
         11    1    1    2    0    0 -0.13318888419E+02 -0.37275209576E+02  0.13106900583E+03  0.13691573441E+03  0.00000000000E+00 0. -1.
</event>
<event>
 7    1  0.2619826E-009  0.1326732E+03  0.7561462E-02  0.1223542E+00
          2   -1    0    0  501    0  0.00000000000E+00  0.00000000000E+00  0.13024738443E+03  0.13024738443E+03  0.00000000000E+00 0.  1.
         -2   -1    0    0    0  501 -0.00000000000E+00 -0.00000000000E+00 -0.22190953542E+03  0.22190953542E+03  0.00000000000E+00 0. -1.
         25    2    1    2    0    0  0.38492384741E+02  0.55977391785E+02  0.35356749747E+02  0.14667022352E+03  0.12508765983E+03 0.  0.
          5    1    3    3  502    0 -0.13820283792E+02  0.50563994966E+02 -0.31658771973E+02  0.61379704088E+02  0.41800000000E+01 0. -1.
         -5    1    3    3    0  502  0.52312668534E+02  0.54133968184E+01  0.67015521720E+02  0.85290519436E+02  0.41800000000E+01 0. -1.
        -11    1    1    2    0    0 -0.94144086181E+02 -0.32400391732E+02 -0.65087923205E+02  0.11895096508E+03  0.00000000000E+00 0.  1.
         11    1    1    2    0    0  0.55651701439E+02 -0.23577000053E+02 -0.61930977525E+02  0.86535731243E+02  0.00000000000E+00 0. -1.
</event>
<event>
 7    1  0.2619826E-009  0.1322343E+03  0.7561462E-02  0.1224178E+00
         -1   -1    0    0    0  501 -0.00000000000E+00  0.00000000000E+00  0.21970304077E+02  0.21970304077E+02  0.00000000000E+00 0.  1.
          1   -1    0    0  501    0  0.00000000000E+00 -0.00000000000E+00 -0.99018559905E+03  0.99018559905E+03  0.00000000000E+00 0. -1.
         25    2    1    2    0    0  0.65751741619E+01 -0.11025478288E+03 -0.55927654156E+03  0.58364236946E+03  0.12509522540E+03 0.  0.
          5    1    3    3  502    0 -0.50143967210E+02 -0.45897848426E+02 -0.14034286928E+03  0.15599558742E+03  0.41800000000E+01 0.  1.
         -5    1    3    3    0  502  0.56719141372E+02 -0.64356934450E+02 -0.41893367228E+03  0.42764678203E+03  0.41800000000E+01 0.  1.
        -11    1    1    2    0    0 -0.23994656155E+01  0.23734020607E+02 -0.23590562160E+02  0.33549601971E+02  0.00000000000E+00 0.  1.
         11    1    1    2    0    0 -0.41757085464E+01  0.86520762269E+02 -0.38534819124E+03  0.39496393170E+03  0.00000000000E+00 0. -1.
</event>
<event>
 7    1  0.2619826E-009  0.3119952E+03  0.7561462E-02  0.1079393E+00
          2   -1    0    0  501    0  0.00000000000E+00  0.00000000000E+00  0.18281465217E+03  0.18281465217E+03  0.00000000000E+00 0. -1.
         -2   -1    0    0    0  501 -0.00000000000E+00 -0.00000000000E+00 -0.58556123591E+03  0.58556123591E+03  0.00000000000E+00 0.  1.
         25    2    1    2    0    0 -0.21645081445E+03  0.21016522639E+03 -0.13157993861E+03  0.35210954725E+03  0.12508986994E+03 0.  0.
          5    1    3    3  502    0 -0.19024089574E+03  0.11338040844E+03 -0.11758741242E+03  0.25078075562E+03  0.41800000000E+01 0. -1.
         -5    1    3    3    0  502 -0.26209918705E+02  0.96784817947E+02 -0.13992526196E+02  0.10132879163E+03  0.41800000000E+01 0. -1.
        -11    1    1    2    0    0  0.14413320740E+03 -0.15036420161E+03 -0.23909578468E+03  0.31709709688E+03  0.00000000000E+00 0. -1.
         11    1    1    2    0    0  0.72317607053E+02 -0.59801024779E+02 -0.32070860458E+02  0.99169243947E+02  0.00000000000E+00 0.  1.
</event>
<event>
 7    1  0.2619826E-009  0.9763650E+02  0.7561462E-02  0.1285346E+00
          2   -1    0    0  501    0  0.00000000000E+00  0.00000000000E+00  0.52233065343E+03  0.52233065343E+03  0.00000000000E+00 0. -1.
         -2   -1    0    0    0  501 -0.00000000000E+00 -0.00000000000E+00 -0.33588888150E+02  0.33588888150E+02  0.00000000000E+00 0.  1.
         25    2    1    2    0    0 -0.67461203714E+02  0.11096254837E+02  0.32343830228E+03  0.35346161079E+03  0.12509450045E+03 0.  0.
          5    1    3    3  502    0 -0.49629194957E+02  0.41486894121E+02  0.30803193799E+03  0.31477828165E+03  0.41800000000E+01 0.  1.
         -5    1    3    3    0  502 -0.17832008756E+02 -0.30390639284E+02  0.15406364282E+02  0.38683329132E+02  0.41800000000E+01 0.  1.
        -11    1    1    2    0    0  0.40105668710E+02 -0.38965822470E+02  0.15074286594E+03  0.16078001000E+03  0.00000000000E+00 0. -1.
         11    1    1    2    0    0  0.27355535003E+02  0.27869567632E+02  0.14560597068E+02  0.41677920801E+02  0.00000000000E+00 0.  1.
</event>
<event>
 7    1  0.2619826E-009  0.1869837E+03  0.7561462E-02  0.1161210E+00
         -4   -1    0    0    0  501 -0.00000000000E+00  0.00000000000E+00  0.83076298542E+03  0.83076298542E+03  0.00000000000E+00 0. -1.
          4   -1    0    0  501    0  0.00000000000E+00 -0.00000000000E+00 -0.48591316254E+02  0.48591316254E+02  0.00000000000E+00 0.  1.
         25    2    1    2    0    0 -0.11197669491E+03 -0.12566498261E+03  0.39236539056E+03  0.44488881118E+03  0.12507992063E+03 0.  0.
          5    1    3    3  502    0  0.57472789991E+01  0.16654547592E+02  0.11147777189E+02  0.21263830973E+02  0.41800000000E+01 0. -1.
         -5    1    3    3    0  502 -0.11772397390E+03 -0.14231953020E+03  0.38121761337E+03  0.42362498021E+03  0.41800000000E+01 0. -1.
        -11    1    1    2    0    0  0.26473052682E+02  0.12492618422E+02  0.13347724136E+02  0.32172189434E+02  0.00000000000E+00 0.  1.
         11    1    1    2    0    0  0.85503642223E+02  0.11317236418E+03  0.37645855446E+03  0.40229330106E+03  0.00000000000E+00 0. -1.
</event>
<event>
 7    1  0.2619826E-009  0.9051263E+02  0.7561462E-02  0.1301615E+00
         -1   -1    0    0    0  501 -0.00000000000E+00  0.00000000000E+00  0.10669081885E+03  0.10669081885E+03  0.00000000000E+00 0.  1.
          1   -1    0    0  501    0  0.00000000000E+00 -0.00000000000E+00 -0.16728164450E+03  0.16728164450E+03  0.00000000000E+00 0. -1.
         25    2    1    2    0    0  0.46846323359E+01 -0.37607941801E+02 -0.10123514377E+03  0.16533465180E+03  0.12510271654E+03 0.  0.
          5    1    3    3  502    0  0.33659103216E+02  0.23976263663E+02  0.20320537215E+01  0.41586032402E+02  0.41800000000E+01 0.  1.
         -5    1    3    3    0  502 -0.28974470881E+02 -0.61584205464E+02 -0.10326719749E+03  0.12374861940E+03  0.41800000000E+01 0.  1.
        -11    1    1    2    0    0  0.31426909812E+01  0.53496600088E+02  0.61304333453E+02  0.81424713863E+02  0.00000000000E+00 0.  1.
         11    1    1    2    0    0 -0.78273233171E+01 -0.15888658287E+02 -0.20660015332E+02  0.27213097692E+02  0.00000000000E+00 0. -1.
</event>
<event>
 7    1  0.2619826E-009  0.1176534E+03  0.7561462E-02  0.1247019E+00
          1   -1    0    0  501    0  0.00000000000E+00  0.00000000000E+00  0.90144008553E+03  0.90144008553E+03  0.00000000000E+00 0. -1.
         -1   -1    0    0    0  501 -0.00000000000E+00 -0.00000000000E+00 -0.15847097761E+02  0.15847097761E+02  0.00000000000E+00 0.  1.
         25    2    1    2    0    0 -0.23684542213E+02 -0.43949495311E+02  0.52748181671E+03  0.54440504165E+03  0.12508903524E+03 0.  0.
          5    1    3    3  502    0 -0.38033406389E+02 -0.83405961689E+02  0.38657190061E+03  0.39731398313E+03  0.41800000000E+01 0.  1.
         -5    1    3    3    0  502  0.14348864176E+02  0.39456466378E+02  0.14090991610E+03  0.14709105852E+03  0.41800000000E+01 0.  1.
        -11    1    1    2    0    0  0.27034057465E+02 -0.22282956236E+02  0.87256145131E+02  0.94026619979E+02  0.00000000000E+00 0.  1.
         11    1    1    2    0    0 -0.33495152522E+01  0.66232451547E+02  0.27085502593E+03  0.27885552166E+03  0.00000000000E+00 0. -1.
</event>
<event>
 7    1  0.2619826E-009  0.1082018E+03  0.7561462E-02  0.1263937E+00
          2   -1    0    0  501    0  0.00000000000E+00  0.00000000000E+00  0.17976803615E+03  0.17976803615E+03  0.00000000000E+00 0. -1.
         -2   -1    0    0    0  501 -0.00000000000E+00 -0.00000000000E+00 -0.10143537466E+03  0.10143537466E+03  0.00000000000E+00 0.  1.
         25    2    1    2    0    0 -0.54470888125E+02  0.82589776897E+01 -0.35571642681E+02  0.14123916493E+03  0.12509145287E+03 0.  0.
          5    1    3    3  502    0 -0.95023612700E+02  0.11256194183E+02 -0.26271997177E+02  0.99317063557E+02  0.41800000000E+01 0. -1.
         -5    1    3    3    0  502  0.40552724575E+02 -0.29972164930E+01 -0.92996455039E+01  0.41922101375E+02  0.41800000000E+01 0. -1.
        -11    1    1    2    0    0 -0.78583917421E+01  0.11880689361E+02  0.32457807352E+02  0.35445935713E+02  0.00000000000E+00 0. -1.
         11    1    1    2    0    0  0.62329279867E+02 -0.20139667050E+02  0.81446496817E+02  0.10451831017E+03  0.00000000000E+00 0.  1.
</event>
<event>
 7    1  0.2619826E-009  0.1260407E+03  0.7561462E-02  0.1233452E+00
         -1   -1    0    0    0  501 -0.00000000000E+00  0.00000000000E+00  0.49344818800E+03  0.49344818800E+03  0.00000000000E+00 0.  1.
          1   -1    0    0  501    0  0.00000000000E+00 -0.00000000000E+00 -0.46887964607E+02  0.46887964607E+02  0.00000000000E+00 0. -1.
         25    2    1    2    0    0  0.93350140967E+02  0.32427871698E+02  0.16744540984E+03  0.23119408091E+03  0.12508765763E+03 0.  0.
          5    1    3    3  502    0 -0.14737756893E+02 -0.51092965341E+01  0.93524264106E+02  0.94908201784E+02  0.41800000000E+01 0. -1.
         -5    1    3    3    0  502  0.10808789786E+03  0.37537168232E+02  0.73921145733E+02  0.13628587913E+03  0.41800000000E+01 0. -1.
        -11    1    1    2    0    0 -0.47090707101E+02 -0.52922359499E+02  0.22106136602E+03  0.23213452647E+03  0.00000000000E+00 0.  1.
         11    1    1    2    0    0 -0.46259433866E+02  0.20494487801E+02  0.58053447528E+02  0.77007545226E+02  0.00000000000E+00 0. -1.
</event>
<event>
 7    1  0.2619826E-009  0.8094701E+02  0.7561462E-02  0.1326385E+00
         -2   -1    0    0    0  501 -0.00000000000E+00  0.00000000000E+00  0.16929020885E+02  0.16929020885E+02  0.00000000000E+00 0. -1.
          2   -1    0    0  501    0  0.00000000000E+00 -0.00000000000E+00 -0.10255312898E+04  0.10255312898E+04  0.00000000000E+00 0.  1.
         25    2    1    2    0    0  0.24904468121E+02  0.39846716675E+02 -0.78845050141E+03  0.79969357359E+03  0.12509046769E+03 0.  0.
          5    1    3    3  502    0 -0.84015908126E+01  0.13611101302E+00 -0.67309715090E+03  0.67316257486E+03  0.41800000000E+01 0. -1.
         -5    1    3    3    0  502  0.33306058934E+02  0.39710605662E+02 -0.11535335052E+03  0.12653099873E+03  0.41800000000E+01 0. -1.
        -11    1    1    2    0    0 -0.58498340630E+02 -0.28343777756E+02 -0.16298655597E+03  0.17547091788E+03  0.00000000000E+00 0.  1.
         11    1    1    2    0    0  0.33593872509E+02 -0.11502938919E+02 -0.57165211517E+02  0.67295819199E+02  0.00000000000E+00 0. -1.
</event>
<event>
 7    1  0.2619826E-009  0.1121436E+03  0.7561462E-02  0.1256651E+00
         -1   -1    0    0    0  501 -0.00000000000E+00  0.00000000000E+00  0.25026584482E+03  0.25026584482E+03  0.00000000000E+00 0.  1.
          1   -1    0    0  501    0  0.00000000000E+00 -0.00000000000E+00 -0.59736291890E+02  0.59736291890E+02  0.00000000000E+00 0. -1.
         25    2    1    2    0    0 -0.54192850377E+02 -0.73538361346E+01  0.12916407522E+03  0.18794026911E+03  0.12508893831E+03 0.  0.
          5    1    3    3  502    0 -0.65904598401E+02 -0.53166791226E+02  0.10411314374E+03  0.13426519608E+03  0.41800000000E+01 0. -1.
         -5    1    3    3    0  502  0.11711748024E+02  0.45812955092E+02  0.25050931481E+02  0.53675073024E+02  0.41800000000E+01 0. -1.
        -11    1    1    2    0    0  0.14511680979E+02 -0.32625844024E+02  0.54722938612E+02  0.65342440982E+02  0.00000000000E+00 0. -1.
         11    1    1    2    0    0  0.39681169397E+02  0.39979680159E+02  0.66425390943E+01  0.56719426619E+02  0.00000000000E+00 0.  1.
</event>
<event>
 7    1  0.2619826E-009  0.1248957E+03  0.7561462E-02  0.1235232E+00
         -2   -1    0    0    0  501 -0.00000000000E+00  0.00000000000E+00  0.21070181060E+03  0.21070181060E+03  0.00000000000E+00 0.  1.
          2   -1    0    0  501    0  0.00000000000E+00 -0.00000000000E+00 -0.83393478745E+02  0.83393478745E+02  0.00000000000E+00 0. -1.
         25    2    1    2    0    0 -0.67337393586E+02  0.35525759775E+02  0.75221200083E+02  0.16462988010E+03  0.12509342228E+03 0.  0.
          5    1    3    3  502    0 -0.33059300246E+02 -0.44116683366E+02  0.49195433083E+02  0.74005824907E+02  0.41800000000E+01 0. -1.
         -5    1    3    3    0  502 -0.34278093340E+02  0.79642443141E+02  0.26025767000E+02  0.90624055197E+02  0.41800000000E+01 0. -1.
        -11    1    1    2    0    0 -0.13309345695E+02  0.85239642122E+01  0.31577111949E+02  0.35311621993E+02  0.00000000000E+00 0.  1.
         11    1    1    2    0    0  0.80646739282E+02 -0.44049723987E+02  0.20510019824E+02  0.94153787249E+02  0.00000000000E+00 0. -1.
</event>
<event>
 7    1  0.2619826E-009  0.2887732E+03  0.7561462E-02  0.1090991E+00
          2   -1    0    0  501    0  0.00000000000E+00  0.00000000000E+00  0.28351469177E+04  0.28351469177E+04  0.00000000000E+00 0. -1.
         -2   -1    0    0    0  501 -0.00000000000E+00 -0.00000000000E+00 -0.33215058295E+02  0.33215058295E+02  0.00000000000E+00 0.  1.
         25    2    1    2    0    0 -0.26978766438E+03  0.56373859921E+02  0.18118064427E+04  0.18369140821E+04  0.12508942156E+03 0.  0.
          5    1    3    3  502    0 -0.24512860359E+03  0.76062728808E+02  0.17332329908E+04  0.17521380208E+04  0.41800000000E+01 0.  1.
         -5    1    3    3    0  502 -0.24659060786E+02 -0.19688868887E+02  0.78573451871E+02  0.84776061337E+02  0.41800000000E+01 0.  1.
        -11    1    1    2    0    0  0.21486512810E+03 -0.67005077482E+01  0.73866158619E+03  0.76930673921E+03  0.00000000000E+00 0.  1.
         11    1    1    2    0    0  0.54922536278E+02 -0.49673352173E+02  0.25146383051E+03  0.26214115465E+03  0.00000000000E+00 0. -1.
</event>
<event>
 7    1  0.2619826E-009  0.9513779E+02  0.7561462E-02  0.1290866E+00
         -3   -1    0    0    0  501 -0.00000000000E+00  0.00000000000E+00  0.57487813659E+03  0.57487813659E+03  0.00000000000E+00 0.  1.
          3   -1    0    0  501    0  0.00000000000E+00 -0.00000000000E+00 -0.35263654316E+02  0.35263654316E+02  0.00000000000E+00 0. -1.
         25    2    1    2    0    0 -0.12607906454E+02 -0.23846490235E+02  0.48011217107E+03  0.49687260526E+03  0.12508826740E+03 0.  0.
          5    1    3    3  502    0 -0.68872961326E+02 -0.93850278368E+01  0.27040829010E+03  0.27923051285E+03  0.41800000000E+01 0.  1.
         -5    1    3    3    0  502  0.56265054871E+02 -0.14461462398E+02  0.20970388097E+03  0.21764209241E+03  0.41800000000E+01 0.  1.
        -11    1    1    2    0    0  0.22747067867E+02 -0.11596047273E+02  0.70351669310E+02  0.74841531141E+02  0.00000000000E+00 0.  1.
         11    1    1    2    0    0 -0.10139161412E+02  0.35442537508E+02 -0.10849358113E+02  0.38427654503E+02  0.00000000000E+00 0. -1.
</event>
<event>
 7    1  0.2619826E-009  0.1533809E+03  0.7561462E-02  0.1196379E+00
          2   -1    0    0  501    0  0.00000000000E+00  0.00000000000E+00  0.36477919531E+02  0.36477919531E+02  0.00000000000E+00 0. -1.
         -2   -1    0    0    0  501 -0.00000000000E+00 -0.00000000000E+00 -0.78184895313E+03  0.78184895313E+03  0.00000000000E+00 0.  1.
         25    2    1    2    0    0  0.40752381986E+02 -0.12002201501E+03 -0.42700377230E+03  0.46265191807E+03  0.12509410462E+03 0.  0.
          5    1    3    3  502    0 -0.36810230872E+02 -0.48737729454E+02 -0.24292445667E+03  0.25051970665E+03  0.41800000000E+01 0. -1.
         -5    1    3    3    0  502  0.77562612858E+02 -0.71284285554E+02 -0.18407931563E+03  0.21213221142E+03  0.41800000000E+01 0. -1.
        -11    1    1    2    0    0 -0.11317971432E+01  0.90988423666E+02 -0.27664936037E+03  0.29123022302E+03  0.00000000000E+00 0.  1.
         11    1    1    2    0    0 -0.39620584843E+02  0.29033591343E+02 -0.41717900923E+02  0.64444731568E+02  0.00000000000E+00 0. -1.
</event>
<event>
 7    1  0.2619826E-009  0.4365467E+03  0.7561462E-02  0.1031812E+00
         -1   -1    0    0    0  501 -0.00000000000E+00  0.00000000000E+00  0.53847102177E+03  0.53847102177E+03  0.00000000000E+00 0.  1.
          1   -1    0    0  501    0  0.00000000000E+00 -0.00000000000E+00 -0.45445832627E+03  0.45445832627E+03  0.00000000000E+00 0. -1.
         25    2    1    2    0    0 -0.42460641433E+03  0.40268030245E+02  0.26835564373E+03  0.51920548642E+03  0.12508982476E+03 0.  0.
          5    1    3    3  502    0 -0.17332884639E+03 -0.30340290677E+02  0.62573707646E+02  0.18680568385E+03  0.41800000000E+01 0.  1.
         -5    1    3    3    0  502 -0.25127756794E+03  0.70608320922E+02  0.20578193608E+03  0.33239980257E+03  0.41800000000E+01 0.  1.
        -11    1    1    2    0    0  0.18426780158E+03 -0.62724927099E+02 -0.91718859809E+02  0.21517757417E+03  0.00000000000E+00 0.  1.
         11    1    1    2    0    0  0.24033861275E+03  0.22456896854E+02 -0.92624088414E+02  0.25854628744E+03  0.00000000000E+00 0. -1.
</event>
<event>
 7    1  0.2619826E-009  0.1083107E+03  0.7561462E-02  0.1263731E+00
          1   -1    0    0  501    0  0.00000000000E+00  0.00000000000E+00  0.18218034248E+03  0.18218034248E+03  0.00000000000E+00 0. -1.
         -1   -1    0    0    0  501 -0.00000000000E+00 -0.00000000000E+00 -0.77715456977E+02  0.77715456977E+02  0.00000000000E+00 0.  1.
         25    2    1    2    0    0  0.35041332172E+02  0.24580342281E+01  0.98408066849E+02  0.16299031435E+03  0.12509099911E+03 0.  0.
          5    1    3    3  502    0  0.23235709434E+02  0.62786474540E+02  0.62460031030E+02  0.91655700610E+02  0.41800000000E+01 0. -1.
         -5    1    3    3    0  502  0.11805622738E+02 -0.60328440312E+02  0.35948035820E+02  0.71334613744E+02  0.41800000000E+01 0. -1.
        -11    1    1    2    0    0  0.21103563387E+02 -0.20032222617E+02 -0.17020826953E+02  0.33709922586E+02  0.00000000000E+00 0.  1.
         11    1    1    2    0    0 -0.56144895559E+02  0.17574188389E+02  0.23077645603E+02  0.63195562514E+02  0.00000000000E+00 0. -1.
</event>
<event>
 7    1  0.2619826E-009  0.1016266E+03  0.7561462E-02  0.1276912E+00
          1   -1    0    0  501    0  0.00000000000E+00  0.00000000000E+00  0.24745694718E+02  0.24745694718E+02  0.00000000000E+00 0. -1.
         -1   -1    0    0    0  501 -0.00000000000E+00 -0.00000000000E+00 -0.89891260298E+03  0.89891260298E+03  0.00000000000E+00 0.  1.
         25    2    1    2    0    0 -0.27789505906E+01 -0.80270216787E+02 -0.65059527918E+03  0.66736263214E+03  0.12509050808E+03 0.  0.
          5    1    3    3  502    0  0.59532259362E+01 -0.43780297870E+02 -0.61116189449E+03  0.61277115553E+03  0.41800000000E+01 0. -1.
         -5    1    3    3    0  502 -0.87321765268E+01 -0.36489918917E+02 -0.39433384696E+02  0.54591476607E+02  0.41800000000E+01 0. -1.
        -11    1    1    2    0    0 -0.39068534587E+02  0.11688496267E+02 -0.10886239869E+03  0.11624970188E+03  0.00000000000E+00 0.  1.
         11    1    1    2    0    0  0.41847485178E+02  0.68581720520E+02 -0.11470923040E+03  0.14004596368E+03  0.00000000000E+00 0. -1.
</event>
<event>
 7    1  0.2619826E-009  0.2446670E+03  0.7561462E-02  0.1116722E+00
          1   -1    0    0  501    0  0.00000000000E+00  0.00000000000E+00  0.19801857544E+03  0.19801857544E+03  0.00000000000E+00 0. -1.
         -1   -1    0    0    0  501 -0.00000000000E+00 -0.00000000000E+00 -0.64965352685E+03  0.64965352685E+03  0.00000000000E+00 0.  1.
         25    2    1    2    0    0  0.19003475644E+03  0.14322138341E+03 -0.50997379589E+03  0.57649446460E+03  0.12508805659E+03 0.  0.
          5    1    3    3  502    0  0.49386057990E+02  0.56089139751E+02 -0.29967253488E+03  0.30887873815E+03  0.41800000000E+01 0.  1.
         -5    1    3    3    0  502  0.14064869845E+03  0.87132243658E+02 -0.21030126101E+03  0.26761572645E+03  0.41800000000E+01 0.  1.
        -11    1    1    2    0    0 -0.12842653166E+03 -0.51235961651E+02  0.77972350270E+02  0.15873936250E+03  0.00000000000E+00 0. -1.
         11    1    1    2    0    0 -0.61608224779E+02 -0.91985421758E+02 -0.19633505786E+02  0.11243827518E+03  0.00000000000E+00 0.  1.
</event>
<event>
 7    1  0.2619826E-009  0.4217972E+03  0.7561462E-02  0.1036483E+00
          2   -1    0    0  501    0  0.00000000000E+00  0.00000000000E+00  0.36496476002E+04  0.36496476002E+04  0.00000000000E+00 0. -1.
         -2   -1    0    0    0  501 -0.00000000000E+00 -0.00000000000E+00 -0.60043164080E+02  0.60043164080E+02  0.00000000000E+00 0.  1.
         25    2    1    2    0    0  0.21359748787E+03  0.36116981251E+03  0.25027691721E+04  0.25407801823E+04  0.12507152260E+03 0.  0.
          5    1    3    3  502    0  0.68710454207E+02  0.88472880559E+02  0.10233487188E+04  0.10294700820E+04  0.41800000000E+01 0. -1.
         -5    1    3    3    0  502  0.14488703366E+03  0.27269693195E+03  0.14794204533E+04  0.15113101003E+04  0.41800000000E+01 0. -1.
        -11    1    1    2    0    0 -0.15269674127E+03 -0.29847040951E+03  0.76145160640E+03  0.83199124336E+03  0.00000000000E+00 0.  1.
         11    1    1    2    0    0 -0.60900746606E+02 -0.62699403003E+02  0.32538365763E+03  0.33691933861E+03  0.00000000000E+00 0. -1.
</event>
<event>
 7    1  0.2619826E-009  0.8835424E+02  0.7561462E-02  0.1306887E+00
         -1   -1    0    0    0  501 -0.00000000000E+00  0.00000000000E+00  0.29444532651E+03  0.29444532651E+03  0.00000000000E+00 0.  1.
          1   -1    0    0  501    0  0.00000000000E+00 -0.00000000000E+00 -0.40915062215E+02  0.40915062215E+02  0.00000000000E+00 0. -1.
         25    2    1    2    0    0  0.99937026183E+01  0.12961839223E+02  0.15046199094E+03  0.19634496830E+03  0.12507858526E+03 0.  0.
          5    1    3    3  502    0 -0.97189531008E+01 -0.50336239612E+02  0.10161169354E+03  0.11388855839E+03  0.41800000000E+01 0. -1.
         -5    1    3    3    0  502  0.19712655719E+02  0.63298078835E+02  0.48850297400E+02  0.82456409914E+02  0.41800000000E+01 0. -1.
        -11    1    1    2    0    0 -0.30060218528E+02  0.66484033755E+01  0.10639649684E+03  0.11076115088E+03  0.00000000000E+00 0.  1.
         11    1    1    2    0    0  0.20066515910E+02 -0.19610242599E+02 -0.33282234860E+01  0.28254269538E+02  0.00000000000E+00 0. -1.
</event>
<event>
 7    1  0.2619826E-009  0.1281093E+03  0.7561462E-02  0.1230288E+00
         -1   -1    0    0    0  501 -0.00000000000E+00  0.00000000000E+00  0.31498230693E+03  0.31498230693E+03  0.00000000000E+00 0.  1.
          1   -1    0    0  501    0  0.00000000000E+00 -0.00000000000E+00 -0.54419622227E+02  0.54419622227E+02  0.00000000000E+00 0. -1.
         25    2    1    2    0    0  0.33446141379E+02  0.63717816711E+02  0.12626448091E+03  0.19175119804E+03  0.12508876157E+03 0.  0.
          5    1    3    3  502    0  0.63400796785E+02 -0.89674229501E+01  0.70158243596E+02  0.95077480256E+02  0.41800000000E+01 0. -1.
         -5    1    3    3    0  502 -0.29954655406E+02  0.72685239661E+02  0.56106237315E+02  0.96673717787E+02  0.41800000000E+01 0. -1.
        -11    1    1    2    0    0  0.29760271559E+02 -0.13908118019E+02  0.58542944634E+02  0.67129619964E+02  0.00000000000E+00 0.  1.
         11    1    1    2    0    0 -0.63206412937E+02 -0.49809698692E+02  0.75755259162E+02  0.11052111115E+03  0.00000000000E+00 0. -1.
</event>
<event>
 7    1  0.2619826E-009  0.1786750E+03  0.7561462E-02  0.1169092E+00
          2   -1    0    0  501    0  0.00000000000E+00  0.00000000000E+00  0.14340691846E+04  0.14340691846E+04  0.00000000000E+00 0. -1.
         -2   -1    0    0    0  501 -0.00000000000E+00 -0.00000000000E+00 -0.25225268725E+02  0.25225268725E+02  0.00000000000E+00 0.  1.
         25    2    1    2    0    0 -0.11765422137E+03  0.80919111827E+02  0.97638125022E+03  0.99466500622E+03  0.12509080841E+03 0.  0.
          5    1    3    3  502    0 -0.14400057768E+03  0.72149393965E+02  0.80009944236E+03  0.81616070200E+03  0.41800000000E+01 0. -1.
         -5    1    3    3    0  502  0.26346356314E+02  0.87697178620E+01  0.17628180786E+03  0.17850430422E+03  0.41800000000E+01 0. -1.
        -11    1    1    2    0    0  0.53841636518E+01  0.17834163198E+02  0.72331311315E+02  0.74691801369E+02  0.00000000000E+00 0.  1.
         11    1    1    2    0    0  0.11227005772E+03 -0.98753275024E+02  0.36013135437E+03  0.38993764577E+03  0.00000000000E+00 0. -1.
</event>
<event>
 7    1  0.2619826E-009  0.9992326E+02  0.7561462E-02  0.1280457E+00
          1   -1    0    0  501    0  0.00000000000E+00  0.00000000000E+00  0.97857616061E+02  0.97857616061E+02  0.00000000000E+00 0. -1.
         -1   -1    0    0    0  501 -0.00000000000E+00 -0.00000000000E+00 -0.15485652841E+03  0.15485652841E+03  0.00000000000E+00 0.  1.
         25    2    1    2    0    0 -0.48851363193E+02  0.28213806475E+02 -0.38314576860E+02  0.14245783584E+03  0.12507499203E+03 0.  0.
          5    1    3    3  502    0 -0.44662643910E+02 -0.43579079450E+02 -0.31706812509E+02  0.70119057939E+02  0.41800000000E+01 0.  1.
         -5    1    3    3    0  502 -0.41887192830E+01  0.71792885925E+02 -0.66077643510E+01  0.72338777903E+02  0.41800000000E+01 0.  1.
        -11    1    1    2    0    0  0.30460879356E+02  0.13068038989E+01  0.34920047647E+02  0.46357120653E+02  0.00000000000E+00 0. -1.
         11    1    1    2    0    0  0.18390483836E+02 -0.29520610374E+02 -0.53604383142E+02  0.63899187981E+02  0.00000000000E+00 0.  1.
</event>
<event>
 7    1  0.2619826E-009  0.1270998E+03  0.7561462E-02  0.1231824E+00
         -2   -1    0    0    0  501 -0.00000000000E+00  0.00000000000E+00  0.13517055439E+03  0.13517055439E+03  0.00000000000E+00 0. -1.
          2   -1    0    0  501    0  0.00000000000E+00 -0.00000000000E+00 -0.14044653635E+03  0.14044653635E+03  0.00000000000E+00 0.  1.
         25    2    1    2    0    0 -0.78627000993E+02 -0.31195487475E+02 -0.24379038692E+02  0.15296286892E+03  0.12509171842E+03 0.  0.
          5    1    3    3  502    0  0.18679893962E+02 -0.44788742844E+02 -0.24720059674E+02  0.54621641080E+02  0.41800000000E+01 0. -1.
         -5    1    3    3    0  502 -0.97306894955E+02  0.13593255369E+02  0.34102098230E+00  0.98341227838E+02  0.41800000000E+01 0. -1.
        -11    1    1    2    0    0  0.63858350614E+02 -0.88505632167E+01 -0.17086459019E+02  0.66694591192E+02  0.00000000000E+00 0.  1.
         11    1    1    2    0    0  0.14768650378E+02  0.40046050692E+02  0.36189515749E+02  0.55959630629E+02  0.00000000000E+00 0. -1.
</event>
<event>
 7    1  0.2619826E-009  0.1099150E+03  0.7561462E-02  0.1260727E+00
         -1   -1    0    0    0  501 -0.00000000000E+00  0.00000000000E+00  0.47776416591E+03  0.47776416591E+03  0.00000000000E+00 0.  1.
          1   -1    0    0  501    0  0.00000000000E+00 -0.00000000000E+00 -0.30391504931E+02  0.30391504931E+02  0.00000000000E+00 0. -1.
         25    2    1    2    0    0  0.50896267162E+02 -0.52050605520E+01  0.22866540434E+03  0.26561744086E+03  0.12508890871E+03 0.  0.
          5    1    3    3  502    0 -0.36118721459E+02  0.10378442144E+02  0.30468638329E+02  0.48560111437E+02  0.41800000000E+01 0.  1.
         -5    1    3    3    0  502  0.87014988621E+02 -0.15583502696E+02  0.19819676601E+03  0.21705732942E+03  0.41800000000E+01 0.  1.
        -11    1    1    2    0    0  0.16349885173E+02 -0.16133046679E+02  0.11393167047E+03  0.11622400559E+03  0.00000000000E+00 0.  1.
         11    1    1    2    0    0 -0.67246152335E+02  0.21338107231E+02  0.10477558618E+03  0.12631422439E+03  0.00000000000E+00 0. -1.
</event>
<event>
 7    1  0.2619826E-009  0.4861237E+03  0.7561462E-02  0.1017466E+00
          1   -1    0    0  501    0  0.00000000000E+00  0.00000000000E+00  0.19765634162E+03  0.19765634162E+03  0.00000000000E+00 0. -1.
         -1   -1    0    0    0  501 -0.00000000000E+00 -0.00000000000E+00 -0.21696763877E+04  0.21696763877E+04  0.00000000000E+00 0.  1.
         25    2    1    2    0    0 -0.46994625292E+03 -0.12139244795E+03 -0.17595688467E+04  0.18295671216E+04  0.12509084353E+03 0.  0.
          5    1    3    3  502    0 -0.14044035028E+03 -0.32137875163E+02 -0.33556812424E+03  0.36521195683E+03  0.41800000000E+01 0. -1.
         -5    1    3    3    0  502 -0.32950590264E+03 -0.89254572792E+02 -0.14240007225E+04  0.14643551648E+04  0.41800000000E+01 0. -1.
        -11    1    1    2    0    0  0.32754913032E+03  0.67341373810E+02 -0.10195925086E+03  0.34959831555E+03  0.00000000000E+00 0.  1.
         11    1    1    2    0    0  0.14239712259E+03  0.54051074144E+02 -0.11049194846E+03  0.18816729209E+03  0.00000000000E+00 0. -1.
</event>
<event>
 7    1  0.2619826E-009  0.1049921E+03  0.7561462E-02  0.1270135E+00
          4   -1    0    0  501    0  0.00000000000E+00  0.00000000000E+00  0.93956557463E+02  0.93956557463E+02  0.00000000000E+00 0. -1.
         -4   -1    0    0    0  501 -0.00000000000E+00 -0.00000000000E+00 -0.14821756620E+03  0.14821756620E+03  0.00000000000E+00 0.  1.
         25    2    1    2    0    0 -0.28451450324E+02  0.24927537964E+02 -0.56043042807E+02  0.14219205772E+03  0.12508753518E+03 0.  0.
          5    1    3    3  502    0 -0.89637076400E+01 -0.47245608787E+02 -0.45943940659E+02  0.66639430426E+02  0.41800000000E+01 0.  1.
         -5    1    3    3    0  502 -0.19487742684E+02  0.72173146751E+02 -0.10099102148E+02  0.75552627294E+02  0.41800000000E+01 0.  1.
        -11    1    1    2    0    0 -0.27332726891E+02 -0.65507991943E+01 -0.22918472023E+02  0.36266338239E+02  0.00000000000E+00 0.  1.
         11    1    1    2    0    0  0.55784177215E+02 -0.18376738770E+02  0.24700506094E+02  0.63715727703E+02  0.00000000000E+00 0. -1.
</event>
<event>
 7    1  0.2619826E-009  0.1009666E+03  0.7561462E-02  0.1278276E+00
         -2   -1    0    0    0  501 -0.00000000000E+00  0.00000000000E+00  0.31881390087E+02  0.31881390087E+02  0.00000000000E+00 0.  1.
          2   -1    0    0  501    0  0.00000000000E+00 -0.00000000000E+00 -0.57477292937E+03  0.57477292937E+03  0.00000000000E+00 0. -1.
         25    2    1    2    0    0  0.15518980815E+02 -0.66271486449E+02 -0.39331414964E+03  0.41830145049E+03  0.12508930607E+03 0.  0.
          5    1    3    3  502    0 -0.23317038960E+02 -0.50339458409E+02 -0.36073777161E+03  0.36500268169E+03  0.41800000000E+01 0.  1.
         -5    1    3    3    0  502  0.38836019774E+02 -0.15932028040E+02 -0.32576378033E+02  0.53298768796E+02  0.41800000000E+01 0.  1.
        -11    1    1    2    0    0 -0.44916257863E+02  0.58411118299E+02 -0.64250528229E+02  0.97762259277E+02  0.00000000000E+00 0.  1.
         11    1    1    2    0    0  0.29397277048E+02  0.78603681500E+01 -0.85326861416E+02  0.90590609693E+02  0.00000000000E+00 0. -1.
</event>
<event>
 7    1  0.2619826E-009  0.1759006E+03  0.7561462E-02  0.1171830E+00
          2   -1    0    0  501    0  0.00000000000E+00  0.00000000000E+00  0.63891195123E+03  0.63891195123E+03  0.00000000000E+00 0. -1.
         -2   -1    0    0    0  501 -0.00000000000E+00 -0.00000000000E+00 -0.90932411119E+02  0.90932411119E+02  0.00000000000E+00 0.  1.
         25    2    1    2    0    0  0.74844037346E+02  0.12431544592E+03  0.52330545156E+03  0.55727141466E+03  0.12508746519E+03 0.  0.
          5    1    3    3  502    0  0.49418310146E+02 -0.13421655278E+02  0.14737621381E+03  0.15607540167E+03  0.41800000000E+01 0.  1.
         -5    1    3    3    0  502  0.25425727200E+02  0.13773710119E+03  0.37592923775E+03  0.40119601299E+03  0.41800000000E+01 0.  1.
        -11    1    1    2    0    0  0.11956506839E+02 -0.29062760882E+02 -0.18736962174E+02  0.36587919829E+02  0.00000000000E+00 0.  1.
         11    1    1    2    0    0 -0.86800544185E+02 -0.95252685034E+02  0.43411050729E+02  0.13598502786E+03  0.00000000000E+00 0. -1.
</event>
<event>
 7    1  0.2619826E-009  0.9463991E+02  0.7561462E-02  0.1291989E+00
         -2   -1    0    0    0  501 -0.00000000000E+00  0.00000000000E+00  0.13604741496E+03  0.13604741496E+03  0.00000000000E+00 0.  1.
          2   -1    0    0  501    0  0.00000000000E+00 -0.00000000000E+00 -0.11821266174E+03  0.11821266174E+03  0.00000000000E+00 0. -1.
         25    2    1    2    0    0 -0.49231423198E+01 -0.60191020932E+01 -0.55809173992E+02  0.13719779699E+03  0.12509238456E+03 0.  0.
          5    1    3    3  502    0 -0.30833875276E+02 -0.58037390955E+02 -0.39096666933E+02  0.76583865002E+02  0.41800000000E+01 0.  1.
         -5    1    3    3    0  502  0.25910732956E+02  0.52018288862E+02 -0.16712507059E+02  0.60613931985E+02  0.41800000000E+01 0.  1.
        -11    1    1    2    0    0 -0.25825408670E+02 -0.13097105870E+02  0.75445018887E+02  0.80811117985E+02  0.00000000000E+00 0.  1.
         11    1    1    2    0    0  0.30748550990E+02  0.19116207963E+02 -0.18010916774E+01  0.36251161721E+02  0.00000000000E+00 0. -1.
</event>
<event>
 7    1  0.2619826E-009  0.9141719E+02  0.7561462E-02  0.1299456E+00
          1   -1    0    0  501    0  0.00000000000E+00  0.00000000000E+00  0.18376457547E+02  0.18376457547E+02  0.00000000000E+00 0. -1.
         -1   -1    0    0    0  501 -0.00000000000E+00 -0.00000000000E+00 -0.97558563591E+03  0.97558563591E+03  0.00000000000E+00 0.  1.
         25    2    1    2    0    0 -0.12833896869E+02  0.41442803527E+02 -0.76426552547E+03  0.77564970526E+03  0.12509379274E+03 0.  0.
          5    1    3    3  502    0  0.13857599461E+02 -0.35183855059E+02 -0.42882344867E+03  0.43050779232E+03  0.41800000000E+01 0. -1.
         -5    1    3    3    0  502 -0.26691496330E+02  0.76626658586E+02 -0.33544207680E+03  0.34514191294E+03  0.41800000000E+01 0. -1.
        -11    1    1    2    0    0  0.31028611695E+01 -0.50291385827E+02 -0.19793263603E+03  0.20424539074E+03  0.00000000000E+00 0.  1.
         11    1    1    2    0    0  0.97310356998E+01  0.88485822994E+01  0.49889831345E+01  0.14066997449E+02  0.00000000000E+00 0. -1.
</event>
<event>
 7    1  0.2619826E-009  0.1263094E+03  0.7561462E-02  0.1233037E+00
         -2   -1    0    0    0  501 -0.00000000000E+00  0.00000000000E+00  0.18769616810E+03  0.18769616810E+03  0.00000000000E+00 0.  1.
          2   -1    0    0  501    0  0.00000000000E+00 -0.00000000000E+00 -0.31857268598E+03  0.31857268598E+03  0.00000000000E+00 0. -1.
         25    2    1    2    0    0  0.19288976634E+02 -0.12305960953E+03 -0.25367120564E+03  0.30904983055E+03  0.12508790937E+03 0.  0.
          5    1    3    3  502    0 -0.49723854312E+01 -0.52741126126E+02 -0.22169406413E+03  0.22797386138E+03  0.41800000000E+01 0. -1.
         -5    1    3    3    0  502  0.24261362065E+02 -0.70318483401E+02 -0.31977141515E+02  0.81075969168E+02  0.41800000000E+01 0. -1.
        -11    1    1    2    0    0 -0.10606425477E+02  0.37329853517E+02  0.10120045456E+03  0.10838609795E+03  0.00000000000E+00 0.  1.
         11    1    1    2    0    0 -0.86825511574E+01  0.85729756010E+02  0.21594233195E+02  0.88832925582E+02  0.00000000000E+00 0. -1.
</event>
<event>
 7    1  0.2619826E-009  0.2263387E+03  0.7561462E-02  0.1129244E+00
         -2   -1    0    0    0  501 -0.00000000000E+00  0.00000000000E+00  0.39275379731E+03  0.39275379731E+03  0.00000000000E+00 0.  1.
          2   -1    0    0  501    0  0.00000000000E+00 -0.00000000000E+00 -0.18677217291E+03  0.18677217291E+03  0.00000000000E+00 0. -1.
         25    2    1    2    0    0 -0.12493932098E+03  0.17393810077E+03  0.23911550758E+03  0.34451193863E+03  0.12509177860E+03 0.  0.
          5    1    3    3  502    0 -0.12240791480E+03  0.17883030204E+03  0.17110063444E+03  0.27614647208E+03  0.41800000000E+01 0. -1.
         -5    1    3    3    0  502 -0.25314061753E+01 -0.48922012694E+01  0.68014873132E+02  0.68365466557E+02  0.41800000000E+01 0. -1.
        -11    1    1    2    0    0  0.74717263349E+02 -0.37452946571E+02  0.77706142506E+01  0.83939115405E+02  0.00000000000E+00 0. -1.
         11    1    1    2    0    0  0.50222057627E+02 -0.13648515420E+03 -0.40904497419E+02  0.15107491618E+03  0.00000000000E+00 0.  1.
</event>
<event>
 7    1  0.2619826E-009  0.1397305E+03  0.7561462E-02  0.1213692E+00
          1   -1    0    0  501    0  0.00000000000E+00  0.00000000000E+00  0.11374715781E+03  0.11374715781E+03  0.00000000000E+00 0. -1.
         -1   -1    0    0    0  501 -0.00000000000E+00 -0.00000000000E+00 -0.21123911596E+03  0.21123911596E+03  0.00000000000E+00 0.  1.
         25    2    1    2    0    0 -0.41915403304E+02  0.10197995822E+03 -0.58857165587E+02  0.17682442297E+03  0.12508356289E+03 0.  0.
          5    1    3    3  502    0  0.24927618697E+02  0.91109101255E+02 -0.53802735959E+02  0.10878631027E+03  0.41800000000E+01 0. -1.
         -5    1    3    3    0  502 -0.66843022001E+02  0.10870856966E+02 -0.50544296272E+01  0.68038112704E+02  0.41800000000E+01 0. -1.
        -11    1    1    2    0    0  0.32262284300E+02 -0.28799921510E+02 -0.57525865114E+02  0.71968851765E+02  0.00000000000E+00 0.  1.
         11    1    1    2    0    0  0.96531190039E+01 -0.73180036711E+02  0.18891072542E+02  0.76192999031E+02  0.00000000000E+00 0. -1.
</event>
<event>
 7    1  0.2619826E-009  0.7339713E+02  0.7561462E-02  0.1348908E+00
          1   -1    0    0  501    0  0.00000000000E+00  0.00000000000E+00  0.18903109567E+03  0.18903109567E+03  0.00000000000E+00 0. -1.
         -1   -1    0    0    0  501 -0.00000000000E+00 -0.00000000000E+00 -0.13371050647E+03  0.13371050647E+03  0.00000000000E+00 0.  1.
         25    2    1    2    0    0 -0.21003061858E+02 -0.30909458179E+02  0.13723504375E+03  0.18941374755E+03  0.12509031664E+03 0.  0.
          5    1    3    3  502    0 -0.11609000553E+02 -0.57664372336E+02  0.11026880737E+02  0.59991776349E+02  0.41800000000E+01 0.  1.
         -5    1    3    3    0  502 -0.93940613056E+01  0.26754914157E+02  0.12620816301E+03  0.12942197120E+03  0.41800000000E+01 0.  1.
        -11    1    1    2    0    0  0.18504219229E+02 -0.80092066280E+01 -0.91064500766E+02  0.93270021013E+02  0.00000000000E+00 0.  1.
         11    1    1    2    0    0  0.24988426293E+01  0.38918664807E+02  0.91500462253E+01  0.40057833576E+02  0.00000000000E+00 0. -1.
</event>
<event>
 7    1  0.2619826E-009  0.1023642E+03  0.7561462E-02  0.1275402E+00
          4   -1    0    0  501    0  0.00000000000E+00  0.00000000000E+00  0.16962285395E+03  0.16962285395E+03  0.00000000000E+00 0. -1.
         -4   -1    0    0    0  501 -0.00000000000E+00 -0.00000000000E+00 -0.11213704547E+03  0.11213704547E+03  0.00000000000E+00 0.  1.
         25    2    1    2    0    0 -0.79297065327E+02  0.21988126053E+01 -0.24827511632E+01  0.14814182601E+03  0.12508787797E+03 0.  0.
          5    1    3    3  502    0 -0.42072798809E+02 -0.46788957798E+02  0.38697405369E+02  0.73988435270E+02  0.41800000000E+01 0. -1.
         -5    1    3    3    0  502 -0.37224266518E+02  0.48987770403E+02 -0.41180156532E+02  0.74153390744E+02  0.41800000000E+01 0. -1.
        -11    1    1    2    0    0  0.28530653945E+02  0.41720121189E+01  0.74950119171E+02  0.80305194498E+02  0.00000000000E+00 0. -1.
         11    1    1    2    0    0  0.50766411382E+02 -0.63708247242E+01 -0.14981559527E+02  0.53312878914E+02  0.00000000000E+00 0.  1.
</event>
<event>
 7    1  0.2619826E-009  0.1084959E+03  0.7561462E-02  0.1263381E+00
          2   -1    0    0  501    0  0.00000000000E+00  0.00000000000E+00  0.60045312315E+03  0.60045312315E+03  0.00000000000E+00 0. -1.
         -2   -1    0    0    0  501 -0.00000000000E+00 -0.00000000000E+00 -0.21722612977E+02  0.21722612977E+02  0.00000000000E+00 0.  1.
         25    2    1    2    0    0 -0.34708329050E+02  0.16621960538E+00  0.30493383819E+03  0.33141454953E+03  0.12508502002E+03 0.  0.
          5    1    3    3  502    0 -0.14425403539E+02 -0.58735592079E+02  0.20318273420E+03  0.21203456775E+03  0.41800000000E+01 0. -1.
         -5    1    3    3    0  502 -0.20282925511E+02  0.58901811685E+02  0.10175110398E+03  0.11937998178E+03  0.41800000000E+01 0. -1.
        -11    1    1    2    0    0  0.70865010091E+01 -0.42661794102E+02  0.86223535616E+02  0.96461107534E+02  0.00000000000E+00 0.  1.
         11    1    1    2    0    0  0.27621828041E+02  0.42495574497E+02  0.18757313637E+03  0.19430007906E+03  0.00000000000E+00 0. -1.
</event>
<event>
 7    1  0.2619826E-009  0.1347537E+03  0.7561462E-02  0.1220568E+00
         -1   -1    0    0    0  501 -0.00000000000E+00  0.00000000000E+00  0.78957670566E+02  0.78957670566E+02  0.00000000000E+00 0.  1.
          1   -1    0    0  501    0  0.00000000000E+00 -0.00000000000E+00 -0.30530291607E+03  0.30530291607E+03  0.00000000000E+00 0. -1.
         25    2    1    2    0    0 -0.34366041396E+02 -0.10711772558E+03 -0.73060042037E+02  0.18340877231E+03  0.12508307672E+03 0.  0.
          5    1    3    3  502    0 -0.73928461840E+01  0.13649013237E+02  0.22045940406E+02  0.27284530882E+02  0.41800000000E+01 0. -1.
         -5    1    3    3    0  502 -0.26973195212E+02 -0.12076673881E+03 -0.95105982443E+02  0.15612424142E+03  0.41800000000E+01 0. -1.
        -11    1    1    2    0    0  0.32425146183E+02  0.12142656892E+02 -0.45582215128E+02  0.57241353560E+02  0.00000000000E+00 0.  1.
         11    1    1    2    0    0  0.19408952129E+01  0.94975068685E+02 -0.10770298834E+03  0.14361046077E+03  0.00000000000E+00 0. -1.
</event>
<event>
 7    1  0.2619826E-009  0.2856248E+03  0.7561462E-02  0.1092656E+00
          2   -1    0    0  501    0  0.00000000000E+00  0.00000000000E+00  0.17108394467E+04  0.17108394467E+04  0.00000000000E+00 0. -1.
         -2   -1    0    0    0  501 -0.00000000000E+00 -0.00000000000E+00 -0.52691350796E+02  0.52691350796E+02  0.00000000000E+00 0.  1.
         25    2    1    2    0    0  0.25177154962E+03 -0.11916369166E+03  0.76792055976E+03  0.82640192571E+03  0.12509699473E+03 0.  0.
          5    1    3    3  502    0  0.78572450695E+02 -0.80169200978E+02  0.17934341346E+03  0.21161820136E+03  0.41800000000E+01 0.  1.
         -5    1    3    3    0  502  0.17319909893E+03 -0.38994490683E+02  0.58857714630E+03  0.61478372435E+03  0.41800000000E+01 0.  1.
        -11    1    1    2    0    0 -0.19933237534E+03  0.11132717347E+03  0.59744253995E+03  0.63958167887E+03  0.00000000000E+00 0.  1.
         11    1    1    2    0    0 -0.52439174286E+02  0.78365181894E+01  0.29278499620E+03  0.29754719293E+03  0.00000000000E+00 0. -1.
</event>
<event>
 7    1  0.2619826E-009  0.1100047E+03  0.7561462E-02  0.1260561E+00
          4   -1    0    0  501    0  0.00000000000E+00  0.00000000000E+00  0.14936510356E+03  0.14936510356E+03  0.00000000000E+00 0. -1.
         -4   -1    0    0    0  501 -0.00000000000E+00 -0.00000000000E+00 -0.10849180897E+03  0.10849180897E+03  0.00000000000E+00 0.  1.
         25    2    1    2    0    0 -0.33025110117E+02 -0.44948957647E+02  0.59870589890E+02  0.14946464419E+03  0.12507647915E+03 0.  0.
          5    1    3    3  502    0 -0.55259576730E+02  0.10348423639E+02  0.68916261029E+02  0.89037262572E+02  0.41800000000E+01 0.  1.
         -5    1    3    3    0  502  0.22234466612E+02 -0.55297381286E+02 -0.90456711394E+01  0.60427381616E+02  0.41800000000E+01 0.  1.
        -11    1    1    2    0    0  0.22303073125E+02  0.71688859766E+02 -0.23413842426E+01  0.75114590897E+02  0.00000000000E+00 0. -1.
         11    1    1    2    0    0  0.10722036992E+02 -0.26739902120E+02 -0.16655911061E+02  0.33277677442E+02  0.00000000000E+00 0.  1.
</event>
<event>
 7    1  0.2619826E-009  0.1082892E+03  0.7561462E-02  0.1263771E+00
          2   -1    0    0  501    0  0.00000000000E+00  0.00000000000E+00  0.22160328766E+03  0.22160328766E+03  0.00000000000E+00 0. -1.
         -2   -1    0    0    0  501 -0.00000000000E+00 -0.00000000000E+00 -0.69746219553E+02  0.69746219553E+02  0.00000000000E+00 0.  1.
         25    2    1    2    0    0 -0.46335000092E+02 -0.19487998279E+02  0.12535988914E+03  0.18409562322E+03  0.12509749147E+03 0.  0.
          5    1    3    3  502    0  0.51525354721E+01 -0.58507998647E+02  0.23489555183E+02  0.63395316311E+02  0.41800000000E+01 0. -1.
         -5    1    3    3    0  502 -0.51487535564E+02  0.39020000368E+02  0.10187033395E+03  0.12070030690E+03  0.41800000000E+01 0. -1.
        -11    1    1    2    0    0 -0.21391062193E+02  0.12736698488E+02  0.30142755193E+02  0.39094586847E+02  0.00000000000E+00 0. -1.
         11    1    1    2    0    0  0.67726062286E+02  0.67512997914E+01 -0.36455762244E+01  0.68159297147E+02  0.00000000000E+00 0.  1.
</event>
<event>
 7    1  0.2619826E-009  0.1074033E+03  0.7561462E-02  0.1265456E+00
          4   -1    0    0  501    0  0.00000000000E+00  0.00000000000E+00  0.23605318009E+03  0.23605318009E+03  0.00000000000E+00 0.  1.
         -4   -1    0    0    0  501 -0.00000000000E+00 -0.00000000000E+00 -0.74225072102E+02  0.74225072102E+02  0.00000000000E+00 0. -1.
         25    2    1    2    0    0 -0.31693333637E+02  0.64376928221E+02  0.11874270369E+03  0.18681072251E+03  0.12509820175E+03 0.  0.
          5    1    3    3  502    0 -0.10321843082E+02 -0.35121282548E+02  0.56476837544E+02  0.67432562694E+02  0.41800000000E+01 0.  1.
         -5    1    3    3    0  502 -0.21371490555E+02  0.99498210769E+02  0.62265866150E+02  0.11937815982E+03  0.41800000000E+01 0.  1.
        -11    1    1    2    0    0  0.23486075109E+02 -0.19612584418E+02  0.65827309606E+02  0.72591210773E+02  0.00000000000E+00 0.  1.
         11    1    1    2    0    0  0.82072585280E+01 -0.44764343803E+02 -0.22741905307E+02  0.50876318908E+02  0.00000000000E+00 0. -1.
</event>
<event>
 7    1  0.2619826E-009  0.1165742E+03  0.7561462E-02  0.1248858E+00
         -3   -1    0    0    0  501 -0.00000000000E+00  0.00000000000E+00  0.21729007947E+03  0.21729007947E+03  0.00000000000E+00 0.  1.
          3   -1    0    0  501    0  0.00000000000E+00 -0.00000000000E+00 -0.10585327086E+03  0.10585327086E+03  0.00000000000E+00 0. -1.
         25    2    1    2    0    0  0.23593460164E+02 -0.79361869318E+02 -0.98747322348E+01  0.15033194383E+03  0.12508886975E+03 0.  0.
          5    1    3    3  502    0  0.57530806898E+02  0.60199882729E+01 -0.54496644661E+01  0.58251225257E+02  0.41800000000E+01 0. -1.
         -5    1    3    3    0  502 -0.33937346734E+02 -0.85381857591E+02 -0.44250677687E+01  0.92080718578E+02  0.41800000000E+01 0. -1.
        -11    1    1    2    0    0 -0.12542697450E+02  0.28631058243E+02  0.11655487493E+03  0.12067350838E+03  0.00000000000E+00 0.  1.
         11    1    1    2    0    0 -0.11050762714E+02  0.50730811075E+02  0.47566659199E+01  0.52137898113E+02  0.00000000000E+00 0. -1.
</event>
<event>
 7    1  0.2619826E-009  0.1003714E+03  0.7561462E-02  0.1279517E+00
         -1   -1    0    0    0  501 -0.00000000000E+00  0.00000000000E+00  0.33753278361E+02  0.33753278361E+02  0.00000000000E+00 0.  1.
          1   -1    0    0  501    0  0.00000000000E+00 -0.00000000000E+00 -0.44028787665E+03  0.44028787665E+03  0.00000000000E+00 0. -1.
         25    2    1    2    0    0 -0.40869981595E+02 -0.36066144608E+02 -0.25654789547E+03  0.29058351905E+03  0.12510330407E+03 0.  0.
          5    1    3    3  502    0 -0.10058175783E+02 -0.69081462205E+02 -0.71331159295E+02  0.99895054967E+02  0.41800000000E+01 0.  1.
         -5    1    3    3    0  502 -0.30811805812E+02  0.33015317597E+02 -0.18521673618E+03  0.19068846408E+03  0.41800000000E+01 0.  1.
        -11    1    1    2    0    0  0.44428018903E+02 -0.45711705413E+01 -0.23319717907E+02  0.50384062034E+02  0.00000000000E+00 0.  1.
         11    1    1    2    0    0 -0.35580373083E+01  0.40637315149E+02 -0.12666698491E+03  0.13307357393E+03  0.00000000000E+00 0. -1.
</event>
<event>
 7    1  0.2619826E-009  0.1591849E+03  0.7561462E-02  0.1189620E+00
          2   -1    0    0  501    0  0.00000000000E+00  0.00000000000E+00  0.16639934983E+02  0.16639934983E+02  0.00000000000E+00 0. -1.
         -2   -1    0    0    0  501 -0.00000000000E+00 -0.00000000000E+00 -0.16381453364E+04  0.16381453364E+04  0.00000000000E+00 0.  1.
         25    2    1    2    0    0 -0.38942254634E+02  0.11776082856E+03 -0.91645480439E+03  0.93323151827E+03  0.12509015259E+03 0.  0.
          5    1    3    3  502    0  0.35289586516E+02  0.13606225662E+02 -0.10364020715E+03  0.11040493300E+03  0.41800000000E+01 0. -1.
         -5    1    3    3    0  502 -0.74231841150E+02  0.10415460289E+03 -0.81281459723E+03  0.82282658527E+03  0.41800000000E+01 0. -1.
        -11    1    1    2    0    0  0.11746258452E+02  0.13733591694E+02 -0.59410144880E+02  0.62097918186E+02  0.00000000000E+00 0. -1.
         11    1    1    2    0    0  0.27195996182E+02 -0.13149442025E+03 -0.64564045219E+03  0.65945583496E+03  0.00000000000E+00 0.  1.
</event>
<event>
 7    1  0.2619826E-009  0.1870406E+03  0.7561462E-02  0.1161158E+00
         -1   -1    0    0    0  501 -0.00000000000E+00  0.00000000000E+00  0.14072341766E+03  0.14072341766E+03  0.00000000000E+00 0.  1.
          1   -1    0    0  501    0  0.00000000000E+00 -0.00000000000E+00 -0.28054454148E+03  0.28054454148E+03  0.00000000000E+00 0. -1.
         25    2    1    2    0    0  0.11599358183E+03  0.10358444136E+03 -0.10537053853E+02  0.19985692774E+03  0.12509002575E+03 0.  0.
          5    1    3    3  502    0  0.10368038842E+03  0.14952529205E+02  0.16853041570E+02  0.10618238311E+03  0.41800000000E+01 0. -1.
         -5    1    3    3    0  502  0.12313193413E+02  0.88631912159E+02 -0.27390095423E+02  0.93674544633E+02  0.41800000000E+01 0. -1.
        -11    1    1    2    0    0 -0.36209366098E+01 -0.58456543402E+02 -0.39041844438E+02  0.70388523678E+02  0.00000000000E+00 0.  1.
         11    1    1    2    0    0 -0.11237264522E+03 -0.45127897962E+02 -0.90242225535E+02  0.15102250772E+03  0.00000000000E+00 0. -1.
</event>
<event>
 7    1  0.2619826E-009  0.9976288E+02  0.7561462E-02  0.1280795E+00
         -2   -1    0    0    0  501 -0.00000000000E+00  0.00000000000E+00  0.31462036284E+02  0.31462036284E+02  0.00000000000E+00 0.  1.
          2   -1    0    0  501    0  0.00000000000E+00 -0.00000000000E+00 -0.49745596334E+03  0.49745596334E+03  0.00000000000E+00 0. -1.
         25    2    1    2    0    0  0.39254528255E+02  0.17300788288E+01 -0.36318435594E+03  0.38612732379E+03  0.12509005802E+03 0.  0.
          5    1    3    3  502    0  0.68831605600E+02 -0.11741562366E+02 -0.33699737082E+03  0.34418070044E+03  0.41800000000E+01 0. -1.
         -5    1    3    3    0  502 -0.29577077345E+02  0.13471641195E+02 -0.26186985126E+02  0.41946623353E+02  0.41800000000E+01 0. -1.
        -11    1    1    2    0    0 -0.19619354823E+02  0.43378952688E+02 -0.35354608950E+02  0.59300935861E+02  0.00000000000E+00 0.  1.
         11    1    1    2    0    0 -0.19635173432E+02 -0.45109031517E+02 -0.67454962165E+02  0.83489739973E+02  0.00000000000E+00 0. -1.
</event>
<event>
 7    1  0.2619826E-009  0.2211130E+03  0.7561462E-02  0.1133056E+00
         -1   -1    0    0    0  501 -0.00000000000E+00  0.00000000000E+00  0.55012533989E+02  0.55012533989E+02  0.00000000000E+00 0.  1.
          1   -1    0    0  501    0  0.00000000000E+00 -0.00000000000E+00 -0.10578010530E+04  0.10578010530E+04  0.00000000000E+00 0. -1.
         25    2    1    2    0    0  0.17091135115E+03 -0.11973017136E+03 -0.38936646984E+03  0.45912909460E+03  0.12508906341E+03 0.  0.
          5    1    3    3  502    0  0.31666895998E+02  0.59885288181E+01 -0.15763154183E+03  0.16094666868E+03  0.41800000000E+01 0.  1.
         -5    1    3    3    0  502  0.13924445515E+03 -0.12571870018E+03 -0.23173492800E+03  0.29818242591E+03  0.41800000000E+01 0.  1.
        -11    1    1    2    0    0 -0.67519841368E+02  0.51021204439E+01 -0.13596126750E+03  0.15188952193E+03  0.00000000000E+00 0.  1.
         11    1    1    2    0    0 -0.10339150978E+03  0.11462805092E+03 -0.47746078172E+03  0.50179497051E+03  0.00000000000E+00 0. -1.
</event>
<event>
 7    1  0.2619826E-009  0.1261211E+03  0.7561462E-02  0.1233327E+00
         -1   -1    0    0    0  501 -0.00000000000E+00  0.00000000000E+00  0.14567118288E+02  0.14567118288E+02  0.00000000000E+00 0.  1.
          1   -1    0    0  501    0  0.00000000000E+00 -0.00000000000E+00 -0.12418355790E+04  0.12418355790E+04  0.00000000000E+00 0. -1.
         25    2    1    2    0    0 -0.15573680265E+02  0.77960772828E+02 -0.70993894247E+03  0.72524637184E+03  0.12509426929E+03 0.  0.
          5    1    3    3  502    0  0.37474033532E+02 -0.26806571639E+00 -0.82431086463E+02  0.90646188358E+02  0.41800000000E+01 0.  1.
         -5    1    3    3    0  502 -0.53047713796E+02  0.78228838545E+02 -0.62750785601E+03  0.63460018348E+03  0.41800000000E+01 0.  1.
        -11    1    1    2    0    0  0.53860407409E+01  0.20368234457E+02 -0.74126308426E+02  0.77062208705E+02  0.00000000000E+00 0.  1.
         11    1    1    2    0    0  0.10187639524E+02 -0.98329007285E+02 -0.44320320980E+03  0.45409411673E+03  0.00000000000E+00 0. -1.
</event>
<event>
 7    1  0.2729289E-009  0.9539245E+02  0.7561462E-02  0.1290295E+00
         -1   -1    0    0    0  501 -0.00000000000E+00  0.00000000000E+00  0.22091380300E+02  0.22091380300E+02  0.00000000000E+00 0.  1.
          1   -1    0    0  501    0  0.00000000000E+00 -0.00000000000E+00 -0.96282820976E+03  0.96282820976E+03  0.00000000000E+00 0. -1.
         25    2    1    2    0    0 -0.28884237986E+01 -0.68479995806E+02 -0.74403030459E+03  0.75757891270E+03  0.12508741742E+03 0.  0.
          5    1    3    3  502    0 -0.18274526651E+02 -0.22483634446E+02 -0.65861239296E+03  0.65926264016E+03  0.41800000000E+01 0. -1.
         -5    1    3    3    0  502  0.15386102852E+02 -0.45996361360E+02 -0.85417911630E+02  0.98316272542E+02  0.41800000000E+01 0. -1.
        -11    1    1    2    0    0 -0.42665075079E+02  0.43266254693E+02 -0.12180984908E+03  0.13612463686E+03  0.00000000000E+00 0.  1.
         11    1    1    2    0    0  0.45553498878E+02  0.25213741113E+02 -0.74896675779E+02  0.91216040496E+02  0.00000000000E+00 0. -1.
</event>
<event>
 7    1  0.2619826E-009  0.9332008E+02  0.7561462E-02  0.1295005E+00
         -1   -1    0    0    0  501 -0.00000000000E+00  0.00000000000E+00  0.17676814821E+03  0.17676814821E+03  0.00000000000E+00 0.  1.
          1   -1    0    0  501    0  0.00000000000E+00 -0.00000000000E+00 -0.11727764401E+03  0.11727764401E+03  0.00000000000E+00 0. -1.
         25    2    1    2    0    0  0.63883926608E+02 -0.16876371229E+02  0.99267300360E+02  0.17282444811E+03  0.12509326504E+03 0.  0.
          5    1    3    3  502    0 -0.22713900448E+02  0.79573666981E+01 -0.13909048744E+02  0.28110051499E+02  0.41800000000E+01 0. -1.
         -5    1    3    3    0  502  0.86597827057E+02 -0.24833737927E+02  0.11317634910E+03  0.14471439661E+03  0.41800000000E+01 0. -1.
        -11    1    1    2    0    0 -0.21649527117E+02 -0.79187836374E+01 -0.62951880260E+02  0.67039901454E+02  0.00000000000E+00 0. -1.
         11    1    1    2    0    0 -0.42234399491E+02  0.24795154866E+02  0.23175084105E+02  0.54181442658E+02  0.00000000000E+00 0.  1.
</event>
<event>
 7    1  0.2619826E-009  0.9684071E+02  0.7561462E-02  0.1287083E+00
         -1   -1    0    0    0  501 -0.00000000000E+00  0.00000000000E+00  0.57222271997E+02  0.57222271997E+02  0.00000000000E+00 0.  1.
          1   -1    0    0  501    0  0.00000000000E+00 -0.00000000000E+00 -0.36183896862E+03  0.36183896862E+03  0.00000000000E+00 0. -1.
         25    2    1    2    0    0 -0.54817233075E+02 -0.68564210355E+02 -0.21211630133E+03  0.26143232497E+03  0.12509018853E+03 0.  0.
          5    1    3    3  502    0 -0.48419800223E+02 -0.57514311376E+02 -0.22830098750E+03  0.24039797495E+03  0.41800000000E+01 0. -1.
         -5    1    3    3    0  502 -0.63974328526E+01 -0.11049898980E+02  0.16184686168E+02  0.21034350024E+02  0.41800000000E+01 0. -1.
        -11    1    1    2    0    0  0.16284739484E+02 -0.88063260335E+01 -0.63988860097E+02  0.66613199403E+02  0.00000000000E+00 0. -1.
         11    1    1    2    0    0  0.38532493591E+02  0.77370536389E+02 -0.28511535193E+02  0.91015716239E+02  0.00000000000E+00 0.  1.
</event>
<event>
 7    1  0.2619826E-009  0.8387724E+02  0.7561462E-02  0.1318395E+00
          1   -1    0    0  501    0  0.00000000000E+00  0.00000000000E+00  0.32962624601E+03  0.32962624601E+03  0.00000000000E+00 0.  1.
         -1   -1    0    0    0  501 -0.00000000000E+00 -0.00000000000E+00 -0.38903004952E+02  0.38903004952E+02  0.00000000000E+00 0. -1.
         25    2    1    2    0    0 -0.24389695344E+02  0.15460700544E+02  0.19664457270E+03  0.23484015078E+03  0.12508764105E+03 0.  0.
          5    1    3    3  502    0  0.79712537469E+01  0.37871771966E+02  0.19091468593E+03  0.19484276148E+03  0.41800000000E+01 0. -1.
         -5    1    3    3    0  502 -0.32360949091E+02 -0.22411071423E+02  0.57298867762E+01  0.39997389301E+02  0.41800000000E+01 0. -1.
        -11    1    1    2    0    0 -0.22277376675E+02  0.20541624307E+02  0.55536078190E+02  0.63265281327E+02  0.00000000000E+00 0.  1.
         11    1    1    2    0    0  0.46667072019E+02 -0.36002324850E+02  0.38542590163E+02  0.70423818853E+02  0.00000000000E+00 0. -1.
</event>
<event>
 7    1  0.2619826E-009  0.1665864E+03  0.7561462E-02  0.1181455E+00
          2   -1    0    0  501    0  0.00000000000E+00  0.00000000000E+00  0.19406609860E+03  0.19406609860E+03  0.00000000000E+00 0.  1.
         -2   -1    0    0    0  501 -0.00000000000E+00 -0.00000000000E+00 -0.17976055734E+03  0.17976055734E+03  0.00000000000E+00 0. -1.
         25    2    1    2    0    0  0.10418267136E+03 -0.89836439690E+02 -0.57971883606E+02  0.19476332031E+03  0.12508955489E+03 0.  0.
          5    1    3    3  502    0  0.12090953467E+02 -0.87446108431E+02 -0.52363651346E+01  0.88531943135E+02  0.41800000000E+01 0.  1.
         -5    1    3    3    0  502  0.92091717893E+02 -0.23903312595E+01 -0.52735518472E+02  0.10623137717E+03  0.41800000000E+01 0.  1.
        -11    1    1    2    0    0 -0.10152357373E+03  0.99742154183E+02  0.82564387202E+02  0.16453696052E+03  0.00000000000E+00 0.  1.
         11    1    1    2    0    0 -0.26590976302E+01 -0.99057144923E+01 -0.10286962332E+02  0.14526375110E+02  0.00000000000E+00 0. -1.
</event>
<event>
 7    1  0.2619826E-009  0.1322744E+03  0.7561462E-02  0.1224119E+00
          1   -1    0    0  501    0  0.00000000000E+00  0.00000000000E+00  0.12591304793E+04  0.12591304793E+04  0.00000000000E+00 0. -1.
         -1   -1    0    0    0  501 -0.00000000000E+00 -0.00000000000E+00 -0.20451549402E+02  0.20451549402E+02  0.00000000000E+00 0.  1.
         25    2    1    2    0    0 -0.62787620420E+02  0.97158060608E+02  0.75421122558E+03  0.77321624837E+03  0.12508724927E+03 0.  0.
          5    1    3    3  502    0 -0.18850548085E+02  0.70263642520E+02  0.14963091670E+03  0.16643078518E+03  0.41800000000E+01 0. -1.
         -5    1    3    3    0  502 -0.43937072335E+02  0.26894418088E+02  0.60458030888E+03  0.60678546319E+03  0.41800000000E+01 0. -1.
        -11    1    1    2    0    0  0.43706853341E+02 -0.28742578178E+01  0.86758573511E+02  0.97188479073E+02  0.00000000000E+00 0. -1.
         11    1    1    2    0    0  0.19080767079E+02 -0.94283802790E+02  0.39770913085E+03  0.40917730130E+03  0.00000000000E+00 0.  1.
</event>
<event>
 7    1  0.2619826E-009  0.9734819E+02  0.7561462E-02  0.1285973E+00
          2   -1    0    0  501    0  0.00000000000E+00  0.00000000000E+00  0.29763642485E+03  0.29763642485E+03  0.00000000000E+00 0. -1.
         -2   -1    0    0    0  501 -0.00000000000E+00 -0.00000000000E+00 -0.48127300500E+02  0.48127300500E+02  0.00000000000E+00 0.  1.
         25    2    1    2    0    0  0.36620563262E+02 -0.14880627726E+02  0.10603734140E+03  0.16868356404E+03  0.12509088005E+03 0.  0.
          5    1    3    3  502    0  0.61825238578E+02 -0.19882380933E+02  0.60454765016E+01  0.65358162329E+02  0.41800000000E+01 0. -1.
         -5    1    3    3    0  502 -0.25204675317E+02  0.50017532074E+01  0.99991864899E+02  0.10332540171E+03  0.41800000000E+01 0. -1.
        -11    1    1    2    0    0  0.25174621311E+02  0.30792465013E+02  0.60628737008E+02  0.72510559307E+02  0.00000000000E+00 0. -1.
         11    1    1    2    0    0 -0.61795184573E+02 -0.15911837287E+02  0.82843045945E+02  0.10456960201E+03  0.00000000000E+00 0.  1.
</event>
<event>
 7    1  0.2619826E-009  0.9851588E+02  0.7561462E-02  0.1283448E+00
         -2   -1    0    0    0  501 -0.00000000000E+00  0.00000000000E+00  0.41605454929E+02  0.41605454929E+02  0.00000000000E+00 0. -1.
          2   -1    0    0  501    0  0.00000000000E+00 -0.00000000000E+00 -0.31536023598E+03  0.31536023598E+03  0.00000000000E+00 0.  1.
         25    2    1    2    0    0  0.38756823918E+02  0.35672257092E+01 -0.18010481103E+03  0.22270640564E+03  0.12508230753E+03 0.  0.
          5    1    3    3  502    0  0.63661050474E+02  0.46001535663E+02 -0.13268078639E+03  0.15424180402E+03  0.41800000000E+01 0.  1.
         -5    1    3    3    0  502 -0.24904226556E+02 -0.42434309954E+02 -0.47424024639E+02  0.68464601617E+02  0.41800000000E+01 0.  1.
        -11    1    1    2    0    0 -0.53420507203E+02 -0.71682135800E+01 -0.10317588183E+03  0.11640617022E+03  0.00000000000E+00 0.  1.
         11    1    1    2    0    0  0.14663683285E+02  0.36009878708E+01  0.95259118046E+01  0.17853115046E+02  0.00000000000E+00 0. -1.
</event>
<event>
 7    1  0.2619826E-009  0.1044540E+03  0.7561462E-02  0.1271199E+00
         -2   -1    0    0    0  501 -0.00000000000E+00  0.00000000000E+00  0.52548515189E+03  0.52548515189E+03  0.00000000000E+00 0.  1.
          2   -1    0    0  501    0  0.00000000000E+00 -0.00000000000E+00 -0.22760843226E+02  0.22760843226E+02  0.00000000000E+00 0. -1.
         25    2    1    2    0    0  0.13265083126E+02 -0.13455713606E+01  0.29388073664E+03  0.31967560747E+03  0.12509529826E+03 0.  0.
          5    1    3    3  502    0  0.60848216497E+02  0.30527623951E+02  0.16790705337E+03  0.18123104659E+03  0.41800000000E+01 0.  1.
         -5    1    3    3    0  502 -0.47583133371E+02 -0.31873195312E+02  0.12597368327E+03  0.13844456088E+03  0.41800000000E+01 0.  1.
        -11    1    1    2    0    0  0.27544222127E+02 -0.22891571203E+02  0.42452983927E+02  0.55542452674E+02  0.00000000000E+00 0. -1.
         11    1    1    2    0    0 -0.40809305253E+02  0.24237142564E+02  0.16639058810E+03  0.17302793498E+03  0.00000000000E+00 0.  1.
</event>
<event>
 7    1  0.2619826E-009  0.1371844E+03  0.7561462E-02  0.1217168E+00
          1   -1    0    0  501    0  0.00000000000E+00  0.00000000000E+00  0.78846323582E+02  0.78846323582E+02  0.00000000000E+00 0. -1.
         -1   -1    0    0    0  501 -0.00000000000E+00 -0.00000000000E+00 -0.25766514958E+03  0.25766514958E+03  0.00000000000E+00 0.  1.
         25    2    1    2    0    0 -0.12000193002E+02 -0.82808593330E+02 -0.14263220677E+03  0.20734461037E+03  0.12508626336E+03 0.  0.
          5    1    3    3  502    0 -0.67167809444E+02 -0.61579131168E+02 -0.87823091954E+02  0.12662492607E+03  0.41800000000E+01 0.  1.
         -5    1    3    3    0  502  0.55167616442E+02 -0.21229462162E+02 -0.54809114814E+02  0.80719684305E+02  0.41800000000E+01 0.  1.
        -11    1    1    2    0    0  0.51179137803E+02  0.34638710193E+02 -0.15407731317E+02  0.63690992883E+02  0.00000000000E+00 0. -1.
         11    1    1    2    0    0 -0.39178944802E+02  0.48169883137E+02 -0.20778887912E+02  0.65475869907E+02  0.00000000000E+00 0.  1.
</event>
<event>
 7    1  0.2619826E-009  0.9830399E+02  0.7561462E-02  0.1283903E+00
          2   -1    0    0  501    0  0.00000000000E+00  0.00000000000E+00  0.78868102033E+03  0.78868102033E+03  0.00000000000E+00 0. -1.
         -2   -1    0    0    0  501 -0.00000000000E+00 -0.00000000000E+00 -0.22068472542E+02  0.22068472542E+02  0.00000000000E+00 0.  1.
         25    2    1    2    0    0 -0.32128131883E+02 -0.17922646343E+02  0.62136570729E+03  0.63489844779E+03  0.12508900311E+03 0.  0.
          5    1    3    3  502    0 -0.22530521901E+02  0.36509302374E+02  0.81520629603E+02  0.92215177860E+02  0.41800000000E+01 0.  1.
         -5    1    3    3    0  502 -0.95976099813E+01 -0.54431948716E+02  0.53984507769E+03  0.54268326993E+03  0.41800000000E+01 0.  1.
        -11    1    1    2    0    0 -0.26048157047E+01  0.50432596278E+02  0.87545665998E+02  0.10106668822E+03  0.00000000000E+00 0.  1.
         11    1    1    2    0    0  0.34732947587E+02 -0.32509949935E+02  0.57701174499E+02  0.74784356863E+02  0.00000000000E+00 0. -1.
</event>
<event>
 7    1  0.2619826E-009  0.1272325E+03  0.7561462E-02  0.1231621E+00
          2   -1    0    0  501    0  0.00000000000E+00  0.00000000000E+00  0.21175977015E+03  0.21175977015E+03  0.00000000000E+00 0. -1.
         -2   -1    0    0    0  501 -0.00000000000E+00 -0.00000000000E+00 -0.93566600273E+02  0.93566600273E+02  0.00000000000E+00 0.  1.
         25    2    1    2    0    0  0.77354932207E+02  0.46972178279E+02  0.59005610931E+02  0.16528492763E+03  0.12508906471E+03 0.  0.
          5    1    3    3  502    0 -0.21095203503E+02 -0.24365690014E+02  0.16285338966E+02  0.36350778891E+02  0.41800000000E+01 0.  1.
         -5    1    3    3    0  502  0.98450135710E+02  0.71337868294E+02  0.42720271965E+02  0.12893414874E+03  0.41800000000E+01 0.  1.
        -11    1    1    2    0    0 -0.71141271794E+02 -0.55171270959E+02  0.10917233624E+02  0.90687020470E+02  0.00000000000E+00 0.  1.
         11    1    1    2    0    0 -0.62136604131E+01  0.81990926797E+01  0.48270325325E+02  0.49354422330E+02  0.00000000000E+00 0. -1.
</event>
<event>
 7    1  0.2619826E-009  0.1035373E+03  0.7561462E-02  0.1273029E+00
         -1   -1    0    0    0  501 -0.00000000000E+00  0.00000000000E+00  0.10620310231E+03  0.10620310231E+03  0.00000000000E+00 0.  1.
          1   -1    0    0  501    0  0.00000000000E+00 -0.00000000000E+00 -0.13170747557E+03  0.13170747557E+03  0.00000000000E+00 0. -1.
         25    2    1    2    0    0 -0.44434133475E+02  0.75750331474E+01 -0.39952610525E+02  0.13883552549E+03  0.12508924297E+03 0.  0.
          5    1    3    3  502    0 -0.28779220187E+02 -0.58209493008E+02 -0.16362497945E+02  0.67095397233E+02  0.41800000000E+01 0.  1.
         -5    1    3    3    0  502 -0.15654913288E+02  0.65784526155E+02 -0.23590112580E+02  0.71740128262E+02  0.41800000000E+01 0.  1.
        -11    1    1    2    0    0  0.59110346287E+02 -0.74457210250E+01  0.38474411559E+02  0.70920745516E+02  0.00000000000E+00 0.  1.
         11    1    1    2    0    0 -0.14676212812E+02 -0.12931212233E+00 -0.24026174299E+02  0.28154306874E+02  0.00000000000E+00 0. -1.
</event>
<event>
 7    1  0.2619826E-009  0.1284284E+03  0.7561462E-02  0.1229806E+00
         -2   -1    0    0    0  501 -0.00000000000E+00  0.00000000000E+00  0.24869438955E+02  0.24869438955E+02  0.00000000000E+00 0.  1.
          2   -1    0    0  501    0  0.00000000000E+00 -0.00000000000E+00 -0.76349483917E+03  0.76349483917E+03  0.00000000000E+00 0. -1.
         25    2    1    2    0    0 -0.59744830919E+02  0.35534188497E+02 -0.47985472516E+03  0.50073936181E+03  0.12508887975E+03 0.  0.
          5    1    3    3  502    0  0.37914578607E+02  0.15474625483E+02 -0.18262570357E+03  0.18720736981E+03  0.41800000000E+01 0.  1.
         -5    1    3    3    0  502 -0.97659409526E+02  0.20059563014E+02 -0.29722902158E+03  0.31353199200E+03  0.41800000000E+01 0.  1.
        -11    1    1    2    0    0 -0.20753348442E+02 -0.28286970734E+02 -0.34374524238E+02  0.49116820962E+02  0.00000000000E+00 0.  1.
         11    1    1    2    0    0  0.80498179361E+02 -0.72472177627E+01 -0.22439615082E+03  0.23850809535E+03  0.00000000000E+00 0. -1.
</event>
<event>
 7    1  0.2619826E-009  0.1971564E+03  0.7561462E-02  0.1152161E+00
          1   -1    0    0  501    0  0.00000000000E+00  0.00000000000E+00  0.67200565486E+02  0.67200565486E+02  0.00000000000E+00 0. -1.
         -1   -1    0    0    0  501 -0.00000000000E+00 -0.00000000000E+00 -0.72167828969E+03  0.72167828969E+03  0.00000000000E+00 0.  1.
         25    2    1    2    0    0  0.16114223981E+03  0.79558342522E+02 -0.45695530365E+03  0.50670797084E+03  0.12509383224E+03 0.  0.
          5    1    3    3  502    0  0.10208635266E+03  0.10018864410E+03 -0.22683056393E+03  0.26819575861E+03  0.41800000000E+01 0. -1.
         -5    1    3    3    0  502  0.59055887147E+02 -0.20630301573E+02 -0.23012473972E+03  0.23851221223E+03  0.41800000000E+01 0. -1.
        -11    1    1    2    0    0 -0.11980541855E+03 -0.84902858277E+02 -0.10447182831E+03  0.18021153284E+03  0.00000000000E+00 0. -1.
         11    1    1    2    0    0 -0.41336821262E+02  0.53445157547E+01 -0.93050592241E+02  0.10195935149E+03  0.00000000000E+00 0.  1.
</event>
<event>
 7    1  0.2619826E-009  0.1366953E+03  0.7561462E-02  0.1217846E+00
          3   -1    0    0  501    0  0.00000000000E+00  0.00000000000E+00  0.80159639992E+02  0.80159639992E+02  0.00000000000E+00 0. -1.
         -3   -1    0    0    0  501 -0.00000000000E+00 -0.00000000000E+00 -0.28440583677E+03  0.28440583677E+03  0.00000000000E+00 0.  1.
         25    2    1    2    0    0 -0.57818561153E+01 -0.10532392687E+03 -0.10428173881E+03  0.19403393269E+03  0.12509167261E+03 0.  0.
          5    1    3    3  502    0  0.40763942411E+02 -0.30273570672E+02 -0.91466845119E+02  0.10469882635E+03  0.41800000000E+01 0.  1.
         -5    1    3    3    0  502 -0.46545798526E+02 -0.75050356197E+02 -0.12814893689E+02  0.89335106347E+02  0.41800000000E+01 0.  1.
        -11    1    1    2    0    0 -0.32572722404E+02  0.84120157375E+02 -0.46773746978E+02  0.10161184246E+03  0.00000000000E+00 0. -1.
         11    1    1    2    0    0  0.38354578520E+02  0.21203769493E+02 -0.53190710989E+02  0.68919701608E+02  0.00000000000E+00 0.  1.
</event>
<event>
 7    1  0.2619826E-009  0.7694030E+02  0.7561462E-02  0.1337966E+00
         -1   -1    0    0    0  501 -0.00000000000E+00  0.00000000000E+00  0.13051908767E+03  0.13051908767E+03  0.00000000000E+00 0.  1.
          1   -1    0    0  501    0  0.00000000000E+00 -0.00000000000E+00 -0.95127280314E+02  0.95127280314E+02  0.00000000000E+00 0. -1.
         25    2    1    2    0    0  0.20627167112E+02 -0.61404020792E+01  0.87967634974E+01  0.12723169671E+03  0.12508931625E+03 0.  0.
          5    1    3    3  502    0  0.64394037405E+02  0.13866359242E+02  0.32335276688E+02  0.73497690375E+02  0.41800000000E+01 0. -1.
         -5    1    3    3    0  502 -0.43766870294E+02 -0.20006761321E+02 -0.23538513191E+02  0.53734006338E+02  0.41800000000E+01 0. -1.
        -11    1    1    2    0    0 -0.16535315650E+02  0.19520284446E+02  0.58351215826E+02  0.63712813130E+02  0.00000000000E+00 0.  1.
         11    1    1    2    0    0 -0.40918514619E+01 -0.13379882367E+02 -0.31756171967E+02  0.34701858142E+02  0.00000000000E+00 0. -1.
</event>
<event>
 7    1  0.2619826E-009  0.8367716E+02  0.7561462E-02  0.1318929E+00
          1   -1    0    0  501    0  0.00000000000E+00  0.00000000000E+00  0.35969911325E+03  0.35969911325E+03  0.00000000000E+00 0. -1.
         -1   -1    0    0    0  501 -0.00000000000E+00 -0.00000000000E+00 -0.45803159819E+02  0.45803159819E+02  0.00000000000E+00 0.  1.
         25    2    1    2    0    0  0.50690157203E+02  0.21021776107E+02  0.24262884232E+03  0.27843697118E+03  0.12508790783E+03 0.  0.
          5    1    3    3  502    0  0.36922321563E+02 -0.29686471847E+02  0.23484760827E+02  0.53042914997E+02  0.41800000000E+01 0. -1.
         -5    1    3    3    0  502  0.13767835640E+02  0.50708247954E+02  0.21914408149E+03  0.22539405618E+03  0.41800000000E+01 0. -1.
        -11    1    1    2    0    0 -0.40976338524E+02  0.30859806576E+01 -0.95364600980E+01  0.42184448161E+02  0.00000000000E+00 0.  1.
         11    1    1    2    0    0 -0.97138186793E+01 -0.24107756764E+02  0.80803571216E+02  0.84880853735E+02  0.00000000000E+00 0. -1.
</event>
<event>
 7    1  0.2619826E-009  0.8917192E+02  0.7561462E-02  0.1304869E+00
          1   -1    0    0  501    0  0.00000000000E+00  0.00000000000E+00  0.33875918429E+03  0.33875918429E+03  0.00000000000E+00 0. -1.
         -1   -1    0    0    0  501 -0.00000000000E+00 -0.00000000000E+00 -0.66989951189E+02  0.66989951189E+02  0.00000000000E+00 0.  1.
         25    2    1    2    0    0 -0.43305736732E+02 -0.45643808331E+01  0.28905774115E+02  0.13556792958E+03  0.12508756671E+03 0.  0.
          5    1    3    3  502    0 -0.55091771473E+02 -0.15265670972E+02 -0.36611530483E+02  0.68014855426E+02  0.41800000000E+01 0.  1.
         -5    1    3    3    0  502  0.11786034741E+02  0.10701290139E+02  0.65517304598E+02  0.67553074152E+02  0.41800000000E+01 0.  1.
        -11    1    1    2    0    0  0.28247171752E+02  0.49599201232E+02  0.66987037870E+02  0.88007083337E+02  0.00000000000E+00 0.  1.
         11    1    1    2    0    0  0.15058564979E+02 -0.45034820399E+02  0.17587642112E+03  0.18217412256E+03  0.00000000000E+00 0. -1.
</event>
<event>
 7    1  0.2619826E-009  0.9272576E+02  0.7561462E-02  0.1296382E+00
         -1   -1    0    0    0  501 -0.00000000000E+00  0.00000000000E+00  0.21593002410E+02  0.21593002410E+02  0.00000000000E+00 0.  1.
          1   -1    0    0  501    0  0.00000000000E+00 -0.00000000000E+00 -0.13280966108E+04  0.13280966108E+04  0.00000000000E+00 0. -1.
         25    2    1    2    0    0 -0.42374565883E+02 -0.41423172228E+02 -0.11568240596E+04  0.11650753322E+04  0.12508853593E+03 0.  0.
          5    1    3    3  502    0  0.49683629779E+01  0.70655012209E+01 -0.42359519494E+01  0.10489119463E+02  0.41800000000E+01 0. -1.
         -5    1    3    3    0  502 -0.47342928861E+02 -0.48488673449E+02 -0.11525881077E+04  0.11545862128E+04  0.41800000000E+01 0. -1.
        -11    1    1    2    0    0  0.48709635858E+02  0.66310349144E+02 -0.11751063102E+03  0.14345187148E+03  0.00000000000E+00 0.  1.
         11    1    1    2    0    0 -0.63350699756E+01 -0.24887176915E+02 -0.32168917744E+02  0.41162409493E+02  0.00000000000E+00 0. -1.
</event>
<event>
 7    1  0.2619826E-009  0.1065224E+03  0.7561462E-02  0.1267149E+00
          3   -1    0    0  501    0  0.00000000000E+00  0.00000000000E+00  0.25589686109E+02  0.25589686109E+02  0.00000000000E+00 0. -1.
         -3   -1    0    0    0  501 -0.00000000000E+00 -0.00000000000E+00 -0.56958964562E+03  0.56958964562E+03  0.00000000000E+00 0.  1.
         25    2    1    2    0    0 -0.40463620293E+02  0.31907303547E+02 -0.33046766202E+03  0.35708729342E+03  0.12508828439E+03 0.  0.
          5    1    3    3  502    0  0.26394166045E+02 -0.22199532995E+02 -0.18342646979E+03  0.18668747544E+03  0.41800000000E+01 0. -1.
         -5    1    3    3    0  502 -0.66857786338E+02  0.54106836542E+02 -0.14704119223E+03  0.17039981798E+03  0.41800000000E+01 0. -1.
        -11    1    1    2    0    0  0.63474752460E+02 -0.24034187218E+02 -0.19781400414E+03  0.20913408758E+03  0.00000000000E+00 0.  1.
         11    1    1    2    0    0 -0.23011132168E+02 -0.78731163291E+01 -0.15718293344E+02  0.28957950722E+02  0.00000000000E+00 0. -1.
</event>
<event>
 7    1  0.2619826E-009  0.1663453E+03  0.7561462E-02  0.1181714E+00
          2   -1    0    0  501    0  0.00000000000E+00  0.00000000000E+00  0.67112762951E+02  0.67112762951E+02  0.00000000000E+00 0. -1.
         -2   -1    0    0    0  501 -0.00000000000E+00 -0.00000000000E+00 -0.89893617123E+03  0.89893617123E+03  0.00000000000E+00 0.  1.
         25    2    1    2    0    0  0.14438181314E+03 -0.28910576907E+02 -0.74837534251E+03  0.77291389946E+03  0.12509321841E+03 0.  0.
          5    1    3    3  502    0 -0.44876783239E+01 -0.11197362757E+02 -0.37090018912E+01  0.13294708890E+02  0.41800000000E+01 0. -1.
         -5    1    3    3    0  502  0.14886949146E+03 -0.17713214150E+02 -0.74466634061E+03  0.75961919057E+03  0.41800000000E+01 0. -1.
        -11    1    1    2    0    0 -0.48940264226E+01 -0.21179098560E+02 -0.26709507329E+02  0.34436949519E+02  0.00000000000E+00 0.  1.
         11    1    1    2    0    0 -0.13948778672E+03  0.50089675467E+02 -0.56738558446E+02  0.15869808520E+03  0.00000000000E+00 0. -1.
</event>
<event>
 7    1  0.2619826E-009  0.1040177E+03  0.7561462E-02  0.1272067E+00
         -1   -1    0    0    0  501 -0.00000000000E+00  0.00000000000E+00  0.12276116446E+02  0.12276116446E+02  0.00000000000E+00 0.  1.
          1   -1    0    0  501    0  0.00000000000E+00 -0.00000000000E+00 -0.11290395952E+04  0.11290395952E+04  0.00000000000E+00 0. -1.
         25    2    1    2    0    0 -0.33300191701E+02  0.52194524870E+01 -0.76910130479E+03  0.77993241921E+03  0.12506644656E+03 0.  0.
          5    1    3    3  502    0 -0.63085335005E+02  0.30578827891E+02 -0.66409722878E+03  0.66780043867E+03  0.41800000000E+01 0.  1.
         -5    1    3    3    0  502  0.29785143304E+02 -0.25359375404E+02 -0.10500407601E+03  0.11213198055E+03  0.41800000000E+01 0.  1.
        -11    1    1    2    0    0  0.64590065567E+02  0.67957266101E+01 -0.23920893517E+03  0.24786886278E+03  0.00000000000E+00 0.  1.
         11    1    1    2    0    0 -0.31289873866E+02 -0.12015179097E+02 -0.10845323880E+03  0.11351442966E+03  0.00000000000E+00 0. -1.
</event>
<event>
 7    1  0.2619826E-009  0.2998101E+03  0.7561462E-02  0.1085336E+00
          1   -1    0    0  501    0  0.00000000000E+00  0.00000000000E+00  0.96814642950E+03  0.96814642950E+03  0.00000000000E+00 0. -1.
         -1   -1    0    0    0  501 -0.00000000000E+00 -0.00000000000E+00 -0.10446137276E+03  0.10446137276E+03  0.00000000000E+00 0.  1.
         25    2    1    2    0    0 -0.14597447016E+03  0.25791727302E+03  0.49977266757E+03  0.59434813224E+03  0.12508843829E+03 0.  0.
          5    1    3    3  502    0 -0.99413920361E+02  0.14746327558E+03  0.18112178740E+03  0.25387225031E+03  0.41800000000E+01 0. -1.
         -5    1    3    3    0  502 -0.46560549802E+02  0.11045399744E+03  0.31865088017E+03  0.34047588194E+03  0.41800000000E+01 0. -1.
        -11    1    1    2    0    0  0.62065028141E+01 -0.55255713908E+02  0.29326945538E+02  0.62863219225E+02  0.00000000000E+00 0.  1.
         11    1    1    2    0    0  0.13976796735E+03 -0.20266155911E+03  0.33458544363E+03  0.41539645079E+03  0.00000000000E+00 0. -1.
</event>
<event>
 6    1  0.2619826E-009  0.1349992E+03  0.7561462E-02  0.1220221E+00
          1   -1    0    0  501    0  0.00000000000E+00  0.00000000000E+00  0.12522061626E+03  0.12522061626E+03  0.00000000000E+00 0. -1.
         -1   -1    0    0    0  501 -0.00000000000E+00 -0.00000000000E+00 -0.21592645433E+03  0.21592645433E+03  0.00000000000E+00 0.  1.
          5    1    1    2  502    0  0.64524629577E+02  0.28998481056E+02 -0.10271164923E+03  0.12478579652E+03  0.41800000000E+01 0. -1.
         -5    1    1    2    0  502  0.13038520406E+02  0.60016320316E+02  0.21617870944E+02  0.65243899813E+02  0.41800000000E+01 0. -1.
        -11    1    1    2    0    0 -0.56455351274E+02 -0.11995236486E+02 -0.34780947265E+02  0.67385507927E+02  0.00000000000E+00 0.  1.
         11    1    1    2    0    0 -0.21107798709E+02 -0.77019564885E+02  0.25168887479E+02  0.83731866326E+02  0.00000000000E+00 0. -1.
</event>
<event>
 7    1  0.2619826E-009  0.1379114E+03  0.7561462E-02  0.1216167E+00
         -1   -1    0    0    0  501 -0.00000000000E+00  0.00000000000E+00  0.54906869802E+02  0.54906869802E+02  0.00000000000E+00 0.  1.
          1   -1    0    0  501    0  0.00000000000E+00 -0.00000000000E+00 -0.44290995566E+03  0.44290995566E+03  0.00000000000E+00 0. -1.
         25    2    1    2    0    0  0.91055776875E+02  0.77110396116E+01 -0.10686478238E+03  0.18819660845E+03  0.12508903662E+03 0.  0.
          5    1    3    3  502    0  0.78028999580E+02 -0.48449494617E+02 -0.88323693131E+02  0.12749284479E+03  0.41800000000E+01 0.  1.
         -5    1    3    3    0  502  0.13026777295E+02  0.56160534229E+02 -0.18541089248E+02  0.60703763656E+02  0.41800000000E+01 0.  1.
        -11    1    1    2    0    0 -0.93839044274E+02 -0.33875078947E+02 -0.24794137871E+03  0.26726057413E+03  0.00000000000E+00 0.  1.
         11    1    1    2    0    0  0.27832673991E+01  0.26164039335E+02 -0.33196924762E+02  0.42359642886E+02  0.00000000000E+00 0. -1.
</event>
<event>
 7    1  0.2619826E-009  0.1124188E+03  0.7561462E-02  0.1256155E+00
         -1   -1    0    0    0  501 -0.00000000000E+00  0.00000000000E+00  0.10982710146E+03  0.10982710146E+03  0.00000000000E+00 0.  1.
          1   -1    0    0  501    0  0.00000000000E+00 -0.00000000000E+00 -0.15832036632E+03  0.15832036632E+03  0.00000000000E+00 0. -1.
         25    2    1    2    0    0 -0.18479302932E+01 -0.69800567118E+02 -0.50354459982E+02  0.15182739430E+03  0.12506179274E+03 0.  0.
          5    1    3    3  502    0 -0.52182681996E+02 -0.70076274652E+02 -0.11753507052E+02  0.88257203090E+02  0.41800000000E+01 0.  1.
         -5    1    3    3    0  502  0.50334751702E+02  0.27570753360E+00 -0.38600952929E+02  0.63570191211E+02  0.41800000000E+01 0.  1.
        -11    1    1    2    0    0  0.10063521263E+02  0.75938605930E+02  0.33094846982E+02  0.83445882029E+02  0.00000000000E+00 0.  1.
         11    1    1    2    0    0 -0.82155909695E+01 -0.61380388124E+01 -0.31233651852E+02  0.32874191450E+02  0.00000000000E+00 0. -1.
</event>
<event>
 7    1  0.2619826E-009  0.8799661E+02  0.7561462E-02  0.1307777E+00
          2   -1    0    0  501    0  0.00000000000E+00  0.00000000000E+00  0.74054925711E+02  0.74054925711E+02  0.00000000000E+00 0. -1.
         -2   -1    0    0    0  501 -0.00000000000E+00 -0.00000000000E+00 -0.20158957474E+03  0.20158957474E+03  0.00000000000E+00 0.  1.
         25    2    1    2    0    0 -0.22557489901E+02  0.48653361058E+02 -0.93671143523E+02  0.16522439058E+03  0.12509526858E+03 0.  0.
          5    1    3    3  502    0  0.58987773021E+01 -0.91333501947E+01  0.26426200155E+02  0.28879579534E+02  0.41800000000E+01 0. -1.
         -5    1    3    3    0  502 -0.28456267203E+02  0.57786711253E+02 -0.12009734368E+03  0.13634481105E+03  0.41800000000E+01 0. -1.
        -11    1    1    2    0    0 -0.14939513150E+02 -0.59028907253E+02 -0.37227941307E+02  0.71368904704E+02  0.00000000000E+00 0. -1.
         11    1    1    2    0    0  0.37497003051E+02  0.10375546195E+02  0.33644358017E+01  0.39051205166E+02  0.00000000000E+00 0.  1.
</event>
<event>
 7    1  0.2619826E-009  0.1505928E+03  0.7561462E-02  0.1199746E+00
         -2   -1    0    0    0  501 -0.00000000000E+00  0.00000000000E+00  0.23206361926E+02  0.23206361926E+02  0.00000000000E+00 0.  1.
          2   -1    0    0  501    0  0.00000000000E+00 -0.00000000000E+00 -0.11231417590E+04  0.11231417590E+04  0.00000000000E+00 0. -1.
         25    2    1    2    0    0  0.69256840063E+02  0.18747622876E+01 -0.46331080634E+03  0.48487608394E+03  0.12509152203E+03 0.  0.
          5    1    3    3  502    0 -0.31089023496E+02  0.15994376884E+02 -0.65774129796E+02  0.74606005282E+02  0.41800000000E+01 0. -1.
         -5    1    3    3    0  502  0.10034586356E+03 -0.14119614596E+02 -0.39753667654E+03  0.41027007866E+03  0.41800000000E+01 0. -1.
        -11    1    1    2    0    0  0.39312814998E+02 -0.33307644028E+02 -0.93951190858E+02  0.10715280135E+03  0.00000000000E+00 0.  1.
         11    1    1    2    0    0 -0.10856965506E+03  0.31432881740E+02 -0.54267339990E+03  0.55431923566E+03  0.00000000000E+00 0. -1.
</event>
<event>
 7    1  0.2698884E-009  0.2180392E+03  0.7561462E-02  0.1135353E+00
         -4   -1    0    0    0  501 -0.00000000000E+00  0.00000000000E+00  0.37491583108E+02  0.37491583108E+02  0.00000000000E+00 0.  1.
          4   -1    0    0  501    0  0.00000000000E+00 -0.00000000000E+00 -0.13829076874E+04  0.13829076874E+04  0.00000000000E+00 0. -1.
         25    2    1    2    0    0  0.19293028757E+03  0.51330816984E+02 -0.71793809021E+03  0.75560488198E+03  0.12508672058E+03 0.  0.
          5    1    3    3  502    0  0.66360289897E+02  0.76057050448E+02 -0.39815504435E+03  0.41077156029E+03  0.41800000000E+01 0.  1.
         -5    1    3    3    0  502  0.12656999767E+03 -0.24726233464E+02 -0.31978304585E+03  0.34483332169E+03  0.41800000000E+01 0.  1.
        -11    1    1    2    0    0 -0.78303416555E+02  0.46830661453E+01 -0.13574416612E+03  0.15677957389E+03  0.00000000000E+00 0. -1.
         11    1    1    2    0    0 -0.11462687101E+03 -0.56013883129E+02 -0.49173384795E+03  0.50801481463E+03  0.00000000000E+00 0.  1.
</event>
<event>
 7    1  0.2619826E-009  0.1066274E+03  0.7561462E-02  0.1266946E+00
         -1   -1    0    0    0  501 -0.00000000000E+00  0.00000000000E+00  0.13676778935E+03  0.13676778935E+03  0.00000000000E+00 0.  1.
          1   -1    0    0  501    0  0.00000000000E+00 -0.00000000000E+00 -0.10480996950E+03  0.10480996950E+03  0.00000000000E+00 0. -1.
         25    2    1    2    0    0  0.44746153246E+02 -0.16344946429E+02  0.59373115646E+01  0.13400194177E+03  0.12510752666E+03 0.  0.
          5    1    3    3  502    0 -0.26552320969E+02 -0.48572965679E+02  0.22704865552E+01  0.55560653820E+02  0.41800000000E+01 0. -1.
         -5    1    3    3    0  502  0.71298474215E+02  0.32228019250E+02  0.36668250093E+01  0.78441287953E+02  0.41800000000E+01 0. -1.
        -11    1    1    2    0    0 -0.57530023879E+02  0.26227643474E+02 -0.13700581557E+02  0.64693885837E+02  0.00000000000E+00 0. -1.
         11    1    1    2    0    0  0.12783870633E+02 -0.98826970454E+01  0.39721089834E+02  0.42881931240E+02  0.00000000000E+00 0.  1.
</event>
<event>
 7    1  0.2619826E-009  0.1268889E+03  0.7561462E-02  0.1232146E+00
          1   -1    0    0  501    0  0.00000000000E+00  0.00000000000E+00  0.30551654609E+03  0.30551654609E+03  0.00000000000E+00 0. -1.
         -1   -1    0    0    0  501 -0.00000000000E+00 -0.00000000000E+00 -0.95469529028E+02  0.95469529028E+02  0.00000000000E+00 0.  1.
         25    2    1    2    0    0 -0.67079282007E+02 -0.65891068800E+02  0.10830461578E+02  0.15686754286E+03  0.12509541991E+03 0.  0.
          5    1    3    3  502    0 -0.56134113196E+02  0.58310170096E+01 -0.39021083811E+02  0.68739776006E+02  0.41800000000E+01 0.  1.
         -5    1    3    3    0  502 -0.10945168811E+02 -0.71722085810E+02  0.49851545389E+02  0.88127766855E+02  0.41800000000E+01 0.  1.
        -11    1    1    2    0    0  0.63356249577E+02  0.50475526283E+01  0.43834442177E+02  0.77207191822E+02  0.00000000000E+00 0.  1.
         11    1    1    2    0    0  0.37230324300E+01  0.60843516172E+02  0.15538211331E+03  0.16691134044E+03  0.00000000000E+00 0. -1.
</event>
<event>
 7    1  0.2619826E-009  0.1000071E+03  0.7561462E-02  0.1280281E+00
         -1   -1    0    0    0  501 -0.00000000000E+00  0.00000000000E+00  0.30633152119E+02  0.30633152119E+02  0.00000000000E+00 0.  1.
          1   -1    0    0  501    0  0.00000000000E+00 -0.00000000000E+00 -0.67060517865E+03  0.67060517865E+03  0.00000000000E+00 0. -1.
         25    2    1    2    0    0  0.34298358352E+02  0.40005179728E+02 -0.53601110736E+03  0.55293011269E+03  0.12508801111E+03 0.  0.
          5    1    3    3  502    0  0.17087108148E+02 -0.37305995545E+02 -0.32316784909E+03  0.32578925343E+03  0.41800000000E+01 0. -1.
         -5    1    3    3    0  502  0.17211250203E+02  0.77311175274E+02 -0.21284325827E+03  0.22714085926E+03  0.41800000000E+01 0. -1.
        -11    1    1    2    0    0 -0.45444919508E+02 -0.47721305418E+02 -0.28769454413E+02  0.71904417160E+02  0.00000000000E+00 0.  1.
         11    1    1    2    0    0  0.11146561156E+02  0.77161256893E+01 -0.75191464763E+02  0.76403800917E+02  0.00000000000E+00 0. -1.
</event>
<event>
 7    1  0.2619826E-009  0.8711745E+02  0.7561462E-02  0.1309986E+00
         -2   -1    0    0    0  501 -0.00000000000E+00  0.00000000000E+00  0.48805998274E+03  0.48805998274E+03  0.00000000000E+00 0.  1.
          2   -1    0    0  501    0  0.00000000000E+00 -0.00000000000E+00 -0.30199440519E+02  0.30199440519E+02  0.00000000000E+00 0. -1.
         25    2    1    2    0    0 -0.42353090174E+02  0.13817616786E+02  0.22836082571E+03  0.26416125883E+03  0.12509113944E+03 0.  0.
          5    1    3    3  502    0  0.19763071181E+02  0.13200443497E+02  0.18893154649E+03  0.19046635491E+03  0.41800000000E+01 0. -1.
         -5    1    3    3    0  502 -0.62116161355E+02  0.61717328929E+00  0.39429279216E+02  0.73694903921E+02  0.41800000000E+01 0. -1.
        -11    1    1    2    0    0 -0.51128652697E+01  0.25624490085E+02  0.13412712490E+02  0.29371018704E+02  0.00000000000E+00 0. -1.
         11    1    1    2    0    0  0.47465955444E+02 -0.39442106871E+02  0.21608700402E+03  0.22472714573E+03  0.00000000000E+00 0.  1.
</event>
<event>
 7    1  0.2619826E-009  0.1671548E+03  0.7561462E-02  0.1180848E+00
          2   -1    0    0  501    0  0.00000000000E+00  0.00000000000E+00  0.88380345203E+03  0.88380345203E+03  0.00000000000E+00 0. -1.
         -2   -1    0    0    0  501 -0.00000000000E+00 -0.00000000000E+00 -0.32310915960E+02  0.32310915960E+02  0.00000000000E+00 0.  1.
         25    2    1    2    0    0 -0.10134825954E+03  0.83798933947E+02  0.44391049612E+03  0.47957859812E+03  0.12508146212E+03 0.  0.
          5    1    3    3  502    0  0.21149891580E+02 -0.10867496453E+02  0.36875412864E+02  0.44075944311E+02  0.41800000000E+01 0.  1.
         -5    1    3    3    0  502 -0.12249815112E+03  0.94666430400E+02  0.40703508325E+03  0.43550265381E+03  0.41800000000E+01 0.  1.
        -11    1    1    2    0    0  0.10035838056E+03 -0.98465188763E+02  0.38170573625E+03  0.40677569621E+03  0.00000000000E+00 0.  1.
         11    1    1    2    0    0  0.98987898975E+00  0.14666254817E+02  0.25876303710E+02  0.29760073663E+02  0.00000000000E+00 0. -1.
</event>
<event>
 7    1  0.2619826E-009  0.2259531E+03  0.7561462E-02  0.1129521E+00
         -1   -1    0    0    0  501 -0.00000000000E+00  0.00000000000E+00  0.33300533165E+03  0.33300533165E+03  0.00000000000E+00 0.  1.
          1   -1    0    0  501    0  0.00000000000E+00 -0.00000000000E+00 -0.20109464925E+03  0.20109464925E+03  0.00000000000E+00 0. -1.
         25    2    1    2    0    0 -0.20554347332E+03 -0.31715820419E+02 -0.44395801208E+02  0.24672260359E+03  0.12508814201E+03 0.  0.
          5    1    3    3  502    0  0.57635224817E+01 -0.30255180960E+02 -0.95522512952E+01  0.32516335450E+02  0.41800000000E+01 0. -1.
         -5    1    3    3    0  502 -0.21130699580E+03 -0.14606394591E+01 -0.34843549913E+02  0.21420626814E+03  0.41800000000E+01 0. -1.
        -11    1    1    2    0    0  0.66310195880E+02 -0.15140445389E+01  0.11263102401E+03  0.13070991538E+03  0.00000000000E+00 0.  1.
         11    1    1    2    0    0  0.13923327744E+03  0.33229864958E+02  0.63675459596E+02  0.15666746193E+03  0.00000000000E+00 0. -1.
</event>
<event>
 7    1  0.2619826E-009  0.1450755E+03  0.7561462E-02  0.1206658E+00
          4   -1    0    0  501    0  0.00000000000E+00  0.00000000000E+00  0.27766389220E+03  0.27766389220E+03  0.00000000000E+00 0.  1.
         -4   -1    0    0    0  501 -0.00000000000E+00 -0.00000000000E+00 -0.83530089067E+02  0.83530089067E+02  0.00000000000E+00 0. -1.
         25    2    1    2    0    0 -0.10060702580E+03 -0.33848023982E+01  0.66102846671E+02  0.17363643899E+03  0.12508715393E+03 0.  0.
          5    1    3    3  502    0  0.17548388944E+02  0.31701386924E+02  0.22360597910E+02  0.42783088088E+02  0.41800000000E+01 0. -1.
         -5    1    3    3    0  502 -0.11815541475E+03 -0.35086189322E+02  0.43742248761E+02  0.13085335090E+03  0.41800000000E+01 0. -1.
        -11    1    1    2    0    0  0.78068207211E+02 -0.35222366791E+02  0.10986247482E+03  0.13930191482E+03  0.00000000000E+00 0.  1.
         11    1    1    2    0    0  0.22538818591E+02  0.38607169189E+02  0.18168481643E+02  0.48255627459E+02  0.00000000000E+00 0. -1.
</event>
<event>
 7    1  0.2619826E-009  0.1327643E+03  0.7561462E-02  0.1223411E+00
          2   -1    0    0  501    0  0.00000000000E+00  0.00000000000E+00  0.29132772634E+03  0.29132772634E+03  0.00000000000E+00 0.  1.
         -2   -1    0    0    0  501 -0.00000000000E+00 -0.00000000000E+00 -0.10035988937E+03  0.10035988937E+03  0.00000000000E+00 0. -1.
         25    2    1    2    0    0  0.10876669787E+03 -0.18745569045E+01  0.15475160925E+02  0.16647275185E+03  0.12505993753E+03 0.  0.
          5    1    3    3  502    0 -0.19591121988E+02 -0.18124208355E+02  0.24821181071E+02  0.36685997588E+02  0.41800000000E+01 0. -1.
         -5    1    3    3    0  502  0.12835781985E+03  0.16249651451E+02 -0.93460201462E+01  0.12978675426E+03  0.41800000000E+01 0. -1.
        -11    1    1    2    0    0 -0.21832236681E+02  0.35217642355E+01 -0.68925325469E+01  0.23163686813E+02  0.00000000000E+00 0. -1.
         11    1    1    2    0    0 -0.86934461184E+02 -0.16472073309E+01  0.18238520859E+03  0.20205117705E+03  0.00000000000E+00 0.  1.
</event>
<event>
 7    1  0.2619826E-009  0.1478403E+03  0.7561462E-02  0.1203152E+00
         -1   -1    0    0    0  501 -0.00000000000E+00  0.00000000000E+00  0.37648467696E+03  0.37648467696E+03  0.00000000000E+00 0.  1.
          1   -1    0    0  501    0  0.00000000000E+00 -0.00000000000E+00 -0.71751716837E+02  0.71751716837E+02  0.00000000000E+00 0. -1.
         25    2    1    2    0    0  0.78046617024E+02  0.95754052637E+02  0.11797715252E+03  0.21172479269E+03  0.12509462937E+03 0.  0.
          5    1    3    3  502    0  0.32294959876E+02 -0.25168851583E+02  0.52593840763E+02  0.66783381239E+02  0.41800000000E+01 0. -1.
         -5    1    3    3    0  502  0.45751657148E+02  0.12092290422E+03  0.65383311757E+02  0.14494141145E+03  0.41800000000E+01 0. -1.
        -11    1    1    2    0    0 -0.42470434625E+02 -0.36241462464E+02  0.26299978620E+02  0.61716045678E+02  0.00000000000E+00 0. -1.
         11    1    1    2    0    0 -0.35576182400E+02 -0.59512590173E+02  0.16045582898E+03  0.17479555543E+03  0.00000000000E+00 0.  1.
</event>
<event>
 7    1  0.2619826E-009  0.2091425E+03  0.7561462E-02  0.1142247E+00
         -1   -1    0    0    0  501 -0.00000000000E+00  0.00000000000E+00  0.34700487072E+03  0.34700487072E+03  0.00000000000E+00 0.  1.
          1   -1    0    0  501    0  0.00000000000E+00 -0.00000000000E+00 -0.13522523574E+03  0.13522523574E+03  0.00000000000E+00 0. -1.
         25    2    1    2    0    0 -0.16265463164E+03 -0.77544418169E+02  0.16684195751E+03  0.27559625440E+03  0.12508953061E+03 0.  0.
          5    1    3    3  502    0 -0.15046995191E+03 -0.11918981783E+02  0.12995040959E+03  0.19921809634E+03  0.41800000000E+01 0.  1.
         -5    1    3    3    0  502 -0.12184679728E+02 -0.65625436386E+02  0.36891547925E+02  0.76378158064E+02  0.41800000000E+01 0.  1.
        -11    1    1    2    0    0  0.17295882332E+03  0.66497971709E+02  0.47545200166E+02  0.19130415799E+03  0.00000000000E+00 0. -1.
         11    1    1    2    0    0 -0.10304191678E+02  0.11046446460E+02 -0.26075227015E+01  0.15329694066E+02  0.00000000000E+00 0.  1.
</event>
<event>
 7    1  0.2619826E-009  0.1136286E+03  0.7561462E-02  0.1253994E+00
          1   -1    0    0  501    0  0.00000000000E+00  0.00000000000E+00  0.47322183739E+03  0.47322183739E+03  0.00000000000E+00 0. -1.
         -1   -1    0    0    0  501 -0.00000000000E+00 -0.00000000000E+00 -0.32210959507E+02  0.32210959507E+02  0.00000000000E+00 0.  1.
         25    2    1    2    0    0 -0.45713233942E+01 -0.52728107821E+02  0.22072369185E+03  0.25917224736E+03  0.12510058076E+03 0.  0.
          5    1    3    3  502    0  0.50543531850E+01 -0.83976760891E+02  0.20697061618E+03  0.22345458424E+03  0.41800000000E+01 0. -1.
         -5    1    3    3    0  502 -0.96256765792E+01  0.31248653070E+02  0.13753075666E+02  0.35717663117E+02  0.41800000000E+01 0. -1.
        -11    1    1    2    0    0  0.18177000914E+02  0.78683511941E+02  0.16368389196E+03  0.18252099852E+03  0.00000000000E+00 0.  1.
         11    1    1    2    0    0 -0.13605677520E+02 -0.25955404119E+02  0.56603294076E+02  0.63739551019E+02  0.00000000000E+00 0. -1.
</event>
<event>
 7    1  0.2619826E-009  0.2139838E+03  0.7561462E-02  0.1138450E+00
         -4   -1    0    0    0  501 -0.00000000000E+00  0.00000000000E+00  0.11987247440E+03  0.11987247440E+03  0.00000000000E+00 0.  1.
          4   -1    0    0  501    0  0.00000000000E+00 -0.00000000000E+00 -0.43230045901E+03  0.43230045901E+03  0.00000000000E+00 0. -1.
         25    2    1    2    0    0  0.11529298079E+03 -0.15297206390E+03 -0.90877783854E+02  0.24616790220E+03  0.12508773210E+03 0.  0.
          5    1    3    3  502    0 -0.19823897244E+02 -0.41686648519E+01  0.79398904129E+01  0.22155787694E+02  0.41800000000E+01 0. -1.
         -5    1    3    3    0  502  0.13511687803E+03 -0.14880339905E+03 -0.98817674267E+02  0.22401211451E+03  0.41800000000E+01 0. -1.
        -11    1    1    2    0    0  0.12573750858E+01  0.52069780346E+02 -0.29933712860E+02  0.60073872715E+02  0.00000000000E+00 0.  1.
         11    1    1    2    0    0 -0.11655035587E+03  0.10090228356E+03 -0.19161648790E+03  0.24593115849E+03  0.00000000000E+00 0. -1.
</event>
<event>
 7    1  0.2619826E-009  0.1197500E+03  0.7561462E-02  0.1243510E+00
         -2   -1    0    0    0  501 -0.00000000000E+00  0.00000000000E+00  0.17752078467E+02  0.17752078467E+02  0.00000000000E+00 0.  1.
          2   -1    0    0  501    0  0.00000000000E+00 -0.00000000000E+00 -0.13944326352E+04  0.13944326352E+04  0.00000000000E+00 0. -1.
         25    2    1    2    0    0  0.20652638739E+02  0.52960930769E+02 -0.11773590752E+04  0.11853490523E+04  0.12508633846E+03 0.  0.
          5    1    3    3  502    0  0.49138390682E+02 -0.21838782726E+02 -0.35208545025E+03  0.35619257509E+03  0.41800000000E+01 0. -1.
         -5    1    3    3    0  502 -0.28485751942E+02  0.74799713496E+02 -0.82527362500E+03  0.82915647722E+03  0.41800000000E+01 0. -1.
        -11    1    1    2    0    0  0.38158847410E+01 -0.73421018680E+02 -0.11301748374E+03  0.13482640169E+03  0.00000000000E+00 0.  1.
         11    1    1    2    0    0 -0.24468523480E+02  0.20460087911E+02 -0.86303997727E+02  0.92009259655E+02  0.00000000000E+00 0. -1.
</event>
<event>
 7    1  0.2619826E-009  0.4332045E+03  0.7561462E-02  0.1032852E+00
          2   -1    0    0  501    0  0.00000000000E+00  0.00000000000E+00  0.31091429933E+03  0.31091429933E+03  0.00000000000E+00 0. -1.
         -2   -1    0    0    0  501 -0.00000000000E+00 -0.00000000000E+00 -0.65332759046E+03  0.65332759046E+03  0.00000000000E+00 0.  1.
         25    2    1    2    0    0 -0.43048717866E+03 -0.18259380379E+02 -0.25047015778E+03  0.51384402026E+03  0.12509101190E+03 0.  0.
          5    1    3    3  502    0 -0.13198453763E+03 -0.10413816995E+02 -0.14679785710E+03  0.19772569132E+03  0.41800000000E+01 0.  1.
         -5    1    3    3    0  502 -0.29850264103E+03 -0.78455633837E+01 -0.10367230068E+03  0.31611832894E+03  0.41800000000E+01 0.  1.
        -11    1    1    2    0    0  0.25567033225E+03  0.41300271822E+02 -0.89624318821E+02  0.27405391763E+03  0.00000000000E+00 0.  1.
         11    1    1    2    0    0  0.17481684641E+03 -0.23040891443E+02 -0.23188145272E+01  0.17634395189E+03  0.00000000000E+00 0. -1.
</event>
<event>
 7    1  0.2619826E-009  0.1409079E+03  0.7561462E-02  0.1212113E+00
          1   -1    0    0  501    0  0.00000000000E+00  0.00000000000E+00  0.17092979235E+03  0.17092979235E+03  0.00000000000E+00 0. -1.
         -1   -1    0    0    0  501 -0.00000000000E+00 -0.00000000000E+00 -0.15541018600E+03  0.15541018600E+03  0.00000000000E+00 0.  1.
         25    2    1    2    0    0 -0.76140541833E+02  0.80425553186E+02 -0.39571923442E+02  0.17170025111E+03  0.12509751152E+03 0.  0.
          5    1    3    3  502    0  0.18694412652E+02 -0.50550208405E+01 -0.39239847806E+02  0.43957619999E+02  0.41800000000E+01 0. -1.
         -5    1    3    3    0  502 -0.94834954485E+02  0.85480574027E+02 -0.33207563596E+00  0.12774263111E+03  0.41800000000E+01 0. -1.
        -11    1    1    2    0    0  0.17753263246E+02  0.14429098966E+02  0.34456994634E+02  0.41360146664E+02  0.00000000000E+00 0. -1.
         11    1    1    2    0    0  0.58387278587E+02 -0.94854652152E+02  0.20634535151E+02  0.11327958058E+03  0.00000000000E+00 0.  1.
</event>
<event>
 7    1  0.3866429E-009  0.1569357E+03  0.7561462E-02  0.1192200E+00
          1   -1    0    0  501    0  0.00000000000E+00  0.00000000000E+00  0.60752359090E+03  0.60752359090E+03  0.00000000000E+00 0. -1.
         -1   -1    0    0    0  501 -0.00000000000E+00 -0.00000000000E+00 -0.56361250367E+02  0.56361250367E+02  0.00000000000E+00 0.  1.
         25    2    1    2    0    0 -0.23555594848E+02  0.11669405695E+03  0.12779281548E+03  0.21482635278E+03  0.12508792581E+03 0.  0.
          5    1    3    3  502    0  0.44118493739E+02  0.14743794915E+02  0.17001121975E+02  0.49702429786E+02  0.41800000000E+01 0.  1.
         -5    1    3    3    0  502 -0.67674088587E+02  0.10195026204E+03  0.11079169350E+03  0.16512392299E+03  0.41800000000E+01 0.  1.
        -11    1    1    2    0    0 -0.15481146618E+02 -0.10176340498E+03  0.24285681941E+03  0.26377052760E+03  0.00000000000E+00 0.  1.
         11    1    1    2    0    0  0.39036741466E+02 -0.14930651969E+02  0.18051270565E+03  0.18528796090E+03  0.00000000000E+00 0. -1.
</event>
<event>
 7    1  0.2619826E-009  0.1642316E+03  0.7561462E-02  0.1184000E+00
         -2   -1    0    0    0  501 -0.00000000000E+00  0.00000000000E+00  0.38794029784E+02  0.38794029784E+02  0.00000000000E+00 0.  1.
          2   -1    0    0  501    0  0.00000000000E+00 -0.00000000000E+00 -0.86271234721E+03  0.86271234721E+03  0.00000000000E+00 0. -1.
         25    2    1    2    0    0  0.55134614955E+02  0.13549840237E+03 -0.41986789448E+03  0.46188351107E+03  0.12509071175E+03 0.  0.
          5    1    3    3  502    0 -0.26830182957E+02  0.36369848455E+02 -0.21657328566E+03  0.22127829775E+03  0.41800000000E+01 0. -1.
         -5    1    3    3    0  502  0.81964797912E+02  0.99128553918E+02 -0.20329460882E+03  0.24060521332E+03  0.41800000000E+01 0. -1.
        -11    1    1    2    0    0 -0.56241464663E+02 -0.74365812735E+02 -0.13737500270E+03  0.16602791276E+03  0.00000000000E+00 0.  1.
         11    1    1    2    0    0  0.11068497080E+01 -0.61132589638E+02 -0.26667542024E+03  0.27359495316E+03  0.00000000000E+00 0. -1.
</event>
<event>
 7    1  0.2619826E-009  0.1928610E+03  0.7561462E-02  0.1155906E+00
          2   -1    0    0  501    0  0.00000000000E+00  0.00000000000E+00  0.52791759732E+03  0.52791759732E+03  0.00000000000E+00 0. -1.
         -2   -1    0    0    0  501 -0.00000000000E+00 -0.00000000000E+00 -0.73619538543E+02  0.73619538543E+02  0.00000000000E+00 0.  1.
         25    2    1    2    0    0  0.10524330686E+01 -0.16119407641E+03  0.28784994167E+03  0.35283080224E+03  0.12508936089E+03 0.  0.
          5    1    3    3  502    0  0.62544700000E+01  0.20698982204E+02  0.31202996194E+02  0.38192481338E+02  0.41800000000E+01 0.  1.
         -5    1    3    3    0  502 -0.52020369314E+01 -0.18189305861E+03  0.25664694547E+03  0.31463832090E+03  0.41800000000E+01 0.  1.
        -11    1    1    2    0    0  0.39390917235E+02  0.51967531392E+02  0.38686499714E+02  0.75821592833E+02  0.00000000000E+00 0.  1.
         11    1    1    2    0    0 -0.40443350304E+02  0.10922654501E+03  0.12776161740E+03  0.17288474080E+03  0.00000000000E+00 0. -1.
</event>
<event>
 7    1  0.2619826E-009  0.9553506E+02  0.7561462E-02  0.1289976E+00
          2   -1    0    0  501    0  0.00000000000E+00  0.00000000000E+00  0.11648274684E+03  0.11648274684E+03  0.00000000000E+00 0. -1.
         -2   -1    0    0    0  501 -0.00000000000E+00 -0.00000000000E+00 -0.10736217618E+03  0.10736217618E+03  0.00000000000E+00 0.  1.
         25    2    1    2    0    0 -0.11537117036E+02 -0.11682857457E+02 -0.14632575726E+02  0.12700519699E+03  0.12508642437E+03 0.  0.
          5    1    3    3  502    0  0.42110447312E+02 -0.11172267888E+02 -0.46988325296E+02  0.64214363320E+02  0.41800000000E+01 0.  1.
         -5    1    3    3    0  502 -0.53647564348E+02 -0.51058956990E+00  0.32355749570E+02  0.62790833666E+02  0.41800000000E+01 0.  1.
        -11    1    1    2    0    0  0.28621919526E+01  0.52086831474E+02  0.17628667552E+02  0.55063600277E+02  0.00000000000E+00 0. -1.
         11    1    1    2    0    0  0.86749250833E+01 -0.40403974017E+02  0.61244788339E+01  0.41776125748E+02  0.00000000000E+00 0.  1.
</event>
<event>
 7    1  0.2619826E-009  0.2450747E+03  0.7561462E-02  0.1116458E+00
          2   -1    0    0  501    0  0.00000000000E+00  0.00000000000E+00  0.12207285907E+04  0.12207285907E+04  0.00000000000E+00 0. -1.
         -2   -1    0    0    0  501 -0.00000000000E+00 -0.00000000000E+00 -0.68670699625E+02  0.68670699625E+02  0.00000000000E+00 0.  1.
         25    2    1    2    0    0  0.18850369330E+03  0.13518283989E+03  0.28947674142E+03  0.39147311143E+03  0.12508545302E+03 0.  0.
          5    1    3    3  502    0  0.16497553319E+03  0.14709601699E+03  0.20005655501E+03  0.29815140846E+03  0.41800000000E+01 0.  1.
         -5    1    3    3    0  502  0.23528160117E+02 -0.11913177097E+02  0.89420186409E+02  0.93321702966E+02  0.41800000000E+01 0.  1.
        -11    1    1    2    0    0 -0.61711439875E+02 -0.70432841680E+01  0.13931779721E+03  0.15253641625E+03  0.00000000000E+00 0. -1.
         11    1    1    2    0    0 -0.12679225343E+03 -0.12813955572E+03  0.72326335245E+03  0.74538976266E+03  0.00000000000E+00 0.  1.
</event>
<event>
 7    1  0.2619826E-009  0.1196697E+03  0.7561462E-02  0.1243643E+00
         -2   -1    0    0    0  501 -0.00000000000E+00  0.00000000000E+00  0.85621231394E+02  0.85621231394E+02  0.00000000000E+00 0.  1.
          2   -1    0    0  501    0  0.00000000000E+00 -0.00000000000E+00 -0.21385909423E+03  0.21385909423E+03  0.00000000000E+00 0. -1.
         25    2    1    2    0    0 -0.78961059041E+02  0.57350725535E+01 -0.82587268940E+02  0.16951661418E+03  0.12508991003E+03 0.  0.
          5    1    3    3  502    0 -0.72693918333E+02  0.52243081510E+02 -0.83364108881E+02  0.12239604723E+03  0.41800000000E+01 0.  1.
         -5    1    3    3    0  502 -0.62671407087E+01 -0.46508008956E+02  0.77683994086E+00  0.47120566954E+02  0.41800000000E+01 0.  1.
        -11    1    1    2    0    0  0.88737480043E+02  0.39784949047E+01 -0.72000517788E+01  0.89117952915E+02  0.00000000000E+00 0.  1.
         11    1    1    2    0    0 -0.97764210019E+01 -0.97135674582E+01 -0.38450542113E+02  0.40845758521E+02  0.00000000000E+00 0. -1.
</event>
<event>
 7    1  0.2619826E-009  0.9339510E+02  0.7561462E-02  0.1294832E+00
         -3   -1    0    0    0  501 -0.00000000000E+00  0.00000000000E+00  0.10239136852E+03  0.10239136852E+03  0.00000000000E+00 0.  1.
          3   -1    0    0  501    0  0.00000000000E+00 -0.00000000000E+00 -0.13431139079E+03  0.13431139079E+03  0.00000000000E+00 0. -1.
         25    2    1    2    0    0  0.40738370573E+02 -0.10064935169E+02 -0.33552706194E+02  0.13614456464E+03  0.12509452678E+03 0.  0.
          5    1    3    3  502    0  0.56514927015E+02  0.21586755928E+02  0.26617184684E+02  0.66225915830E+02  0.41800000000E+01 0.  1.
         -5    1    3    3    0  502 -0.15776556442E+02 -0.31651691097E+02 -0.60169890878E+02  0.69918648805E+02  0.41800000000E+01 0.  1.
        -11    1    1    2    0    0 -0.37110436615E+02 -0.31583356865E+02 -0.20949299848E+02  0.53043058930E+02  0.00000000000E+00 0. -1.
         11    1    1    2    0    0 -0.36279339584E+01  0.41648292034E+02  0.22581983775E+02  0.47515135750E+02  0.00000000000E+00 0.  1.
</event>
<event>
 7    1  0.2619826E-009  0.1030434E+03  0.7561462E-02  0.1274023E+00
          2   -1    0    0  501    0  0.00000000000E+00  0.00000000000E+00  0.46421504984E+03  0.46421504984E+03  0.00000000000E+00 0. -1.
         -2   -1    0    0    0  501 -0.00000000000E+00 -0.00000000000E+00 -0.58372187126E+02  0.58372187126E+02  0.00000000000E+00 0.  1.
         25    2    1    2    0    0 -0.22546295200E+02  0.48876208964E+01  0.24023417492E+02  0.12945090051E+03  0.12509271277E+03 0.  0.
          5    1    3    3  502    0 -0.13747444198E+02 -0.54297678818E+02  0.38061820748E+02  0.67848395306E+02  0.41800000000E+01 0. -1.
         -5    1    3    3    0  502 -0.87988510015E+01  0.59185299714E+02 -0.14038403255E+02  0.61602505202E+02  0.41800000000E+01 0. -1.
        -11    1    1    2    0    0 -0.19718762991E+02  0.29478030907E+02  0.20733720293E+03  0.21034851946E+03  0.00000000000E+00 0.  1.
         11    1    1    2    0    0  0.42265058191E+02 -0.34365651803E+02  0.17448224229E+03  0.18278781700E+03  0.00000000000E+00 0. -1.
</event>
<event>
 7    1  0.2619826E-009  0.7885509E+02  0.7561462E-02  0.1332332E+00
         -2   -1    0    0    0  501 -0.00000000000E+00  0.00000000000E+00  0.11147873716E+03  0.11147873716E+03  0.00000000000E+00 0. -1.
          2   -1    0    0  501    0  0.00000000000E+00 -0.00000000000E+00 -0.16662303575E+03  0.16662303575E+03  0.00000000000E+00 0.  1.
         25    2    1    2    0    0 -0.13389477804E+02 -0.22220872605E+01  0.51511139492E+02  0.13596143810E+03  0.12509156394E+03 0.  0.
          5    1    3    3  502    0  0.25627076581E+02  0.31671805902E+02  0.69842746226E+02  0.80965004438E+02  0.41800000000E+01 0. -1.
         -5    1    3    3    0  502 -0.39016554386E+02 -0.33893893163E+02 -0.18331606734E+02  0.54996433660E+02  0.41800000000E+01 0. -1.
        -11    1    1    2    0    0 -0.19057191371E+02  0.20231805783E+02 -0.10081207874E+03  0.10457331270E+03  0.00000000000E+00 0.  1.
         11    1    1    2    0    0  0.32446669175E+02 -0.18009718523E+02 -0.58433593350E+01  0.37567022109E+02  0.00000000000E+00 0. -1.
</event>
<event>
 7    1  0.2619826E-009  0.2578319E+03  0.7561462E-02  0.1108453E+00
         -2   -1    0    0    0  501 -0.00000000000E+00  0.00000000000E+00  0.56666176979E+02  0.56666176979E+02  0.00000000000E+00 0. -1.
          2   -1    0    0  501    0  0.00000000000E+00 -0.00000000000E+00 -0.13804235485E+04  0.13804235485E+04  0.00000000000E+00 0.  1.
         25    2    1    2    0    0 -0.12737357590E+03 -0.22161482341E+03 -0.73159093464E+03  0.78499054798E+03  0.12509079488E+03 0.  0.
          5    1    3    3  502    0 -0.77535755457E+02 -0.11022561590E+03 -0.21197784936E+03  0.25122412462E+03  0.41800000000E+01 0. -1.
         -5    1    3    3    0  502 -0.49837820441E+02 -0.11138920751E+03 -0.51961308529E+03  0.53376642335E+03  0.41800000000E+01 0. -1.
        -11    1    1    2    0    0  0.81568200477E+02  0.10171592082E+03 -0.19388214062E+03  0.23364456837E+03  0.00000000000E+00 0. -1.
         11    1    1    2    0    0  0.45805375421E+02  0.11989890259E+03 -0.39828429625E+03  0.41845460913E+03  0.00000000000E+00 0.  1.
</event>
<event>
 7    1  0.2619826E-009  0.1172555E+03  0.7561462E-02  0.1247694E+00
          1   -1    0    0  501    0  0.00000000000E+00  0.00000000000E+00  0.75772857651E+02  0.75772857651E+02  0.00000000000E+00 0. -1.
         -1   -1    0    0    0  501 -0.00000000000E+00 -0.00000000000E+00 -0.26518707776E+03  0.26518707776E+03  0.00000000000E+00 0.  1.
         25    2    1    2    0    0  0.64047245531E+02 -0.10782173662E+02 -0.17744361741E+03  0.22661199104E+03  0.12509377361E+03 0.  0.
          5    1    3    3  502    0  0.29136600637E+01 -0.50320560222E+02 -0.13030876247E+03  0.13978016373E+03  0.41800000000E+01 0.  1.
         -5    1    3    3    0  502  0.61133585467E+02  0.39538386560E+02 -0.47134854934E+02  0.86831827307E+02  0.41800000000E+01 0.  1.
        -11    1    1    2    0    0 -0.41378970935E+02 -0.38652662331E+02 -0.18508849728E+02  0.59572015738E+02  0.00000000000E+00 0. -1.
         11    1    1    2    0    0 -0.22668274596E+02  0.49434835993E+02  0.65382470303E+01  0.54775928628E+02  0.00000000000E+00 0.  1.
</event>
<event>
 7    1  0.2619826E-009  0.1331313E+03  0.7561462E-02  0.1222882E+00
         -2   -1    0    0    0  501 -0.00000000000E+00  0.00000000000E+00  0.28862357599E+02  0.28862357599E+02  0.00000000000E+00 0.  1.
          2   -1    0    0  501    0  0.00000000000E+00 -0.00000000000E+00 -0.68585544469E+03  0.68585544469E+03  0.00000000000E+00 0. -1.
         25    2    1    2    0    0 -0.59007616572E+02  0.59552038239E+02 -0.42430349820E+03  0.45023156149E+03  0.12508659522E+03 0.  0.
          5    1    3    3  502    0  0.24327458471E+02 -0.16319132569E+02 -0.40215793383E+02  0.49929167437E+02  0.41800000000E+01 0. -1.
         -5    1    3    3    0  502 -0.83335075043E+02  0.75871170809E+02 -0.38408770481E+03  0.40030239405E+03  0.41800000000E+01 0. -1.
        -11    1    1    2    0    0 -0.10463948907E+02  0.17349128854E+02 -0.23463311294E+02  0.31000217348E+02  0.00000000000E+00 0.  1.
         11    1    1    2    0    0  0.69471565478E+02 -0.76901167094E+02 -0.20922627760E+03  0.23348602346E+03  0.00000000000E+00 0. -1.
</event>
<event>
 7    1  0.2619826E-009  0.6579541E+02  0.7561462E-02  0.1375004E+00
         -3   -1    0    0    0  501 -0.00000000000E+00  0.00000000000E+00  0.12159104436E+03  0.12159104436E+03  0.00000000000E+00 0.  1.
          3   -1    0    0  501    0  0.00000000000E+00 -0.00000000000E+00 -0.15219345177E+03  0.15219345177E+03  0.00000000000E+00 0. -1.
         25    2    1    2    0    0  0.39938845367E+02 -0.20518614466E+02 -0.85963309798E+02  0.15828212303E+03  0.12508962759E+03 0.  0.
          5    1    3    3  502    0  0.95581926837E+00  0.26241666084E+01 -0.10771026616E+03  0.10782751818E+03  0.41800000000E+01 0. -1.
         -5    1    3    3    0  502  0.38983026099E+02 -0.23142781075E+02  0.21746956359E+02  0.50454604850E+02  0.41800000000E+01 0. -1.
        -11    1    1    2    0    0 -0.14159971482E+02  0.43965461860E+02 -0.43219707642E+01  0.46391228268E+02  0.00000000000E+00 0. -1.
         11    1    1    2    0    0 -0.25778873885E+02 -0.23446847394E+02  0.59682873156E+02  0.69111144830E+02  0.00000000000E+00 0.  1.
</event>
<event>
 7    1  0.2619826E-009  0.2991002E+03  0.7561462E-02  0.1085691E+00
          2   -1    0    0  501    0  0.00000000000E+00  0.00000000000E+00  0.24354540784E+04  0.24354540784E+04  0.00000000000E+00 0. -1.
         -2   -1    0    0    0  501 -0.00000000000E+00 -0.00000000000E+00 -0.40359038609E+02  0.40359038609E+02  0.00000000000E+00 0.  1.
         25    2    1    2    0    0  0.60822586241E+02  0.28670111108E+03  0.11232842809E+04  0.11676096154E+04  0.12509086324E+03 0.  0.
          5    1    3    3  502    0  0.33297349740E+02  0.10768567549E+03  0.67058685886E+03  0.68000671017E+03  0.41800000000E+01 0.  1.
         -5    1    3    3    0  502  0.27525236501E+02  0.17901543559E+03  0.45269742208E+03  0.48760290522E+03  0.41800000000E+01 0.  1.
        -11    1    1    2    0    0 -0.57019539970E+02 -0.84127639585E+02  0.50140090870E+03  0.51159706696E+03  0.00000000000E+00 0. -1.
         11    1    1    2    0    0 -0.38030462710E+01 -0.20257347150E+03  0.77040985017E+03  0.79660643467E+03  0.00000000000E+00 0.  1.
</event>
<event>
 7    1  0.2619826E-009  0.8704449E+02  0.7561462E-02  0.1310171E+00
          1   -1    0    0  501    0  0.00000000000E+00  0.00000000000E+00  0.52160073850E+03  0.52160073850E+03  0.00000000000E+00 0. -1.
         -1   -1    0    0    0  501 -0.00000000000E+00 -0.00000000000E+00 -0.27181535209E+02  0.27181535209E+02  0.00000000000E+00 0.  1.
         25    2    1    2    0    0 -0.20969466334E+02 -0.11707125452E+02  0.24245702750E+03  0.27388708133E+03  0.12510774490E+03 0.  0.
          5    1    3    3  502    0 -0.18381322572E+01 -0.37493736109E+02  0.98456546530E+01  0.39032912947E+02  0.41800000000E+01 0. -1.
         -5    1    3    3    0  502 -0.19131334077E+02  0.25786610657E+02  0.23261137284E+03  0.23485416839E+03  0.41800000000E+01 0. -1.
        -11    1    1    2    0    0  0.50714175569E+02 -0.25124227242E+02  0.18057364340E+03  0.18923529028E+03  0.00000000000E+00 0. -1.
         11    1    1    2    0    0 -0.29744709235E+02  0.36831352694E+02  0.71388532397E+02  0.85659902093E+02  0.00000000000E+00 0.  1.
</event>
<event>
 7    1  0.2619826E-009  0.9805296E+02  0.7561462E-02  0.1284444E+00
          1   -1    0    0  501    0  0.00000000000E+00  0.00000000000E+00  0.34920191677E+02  0.34920191677E+02  0.00000000000E+00 0. -1.
         -1   -1    0    0    0  501 -0.00000000000E+00 -0.00000000000E+00 -0.51870363374E+03  0.51870363374E+03  0.00000000000E+00 0.  1.
         25    2    1    2    0    0  0.46638853458E+02 -0.62501505231E+02 -0.28722033258E+03  0.32284088504E+03  0.12509635006E+03 0.  0.
          5    1    3    3  502    0  0.33116505255E+02  0.70355004594E+01 -0.83997656992E+01  0.35131604729E+02  0.41800000000E+01 0.  1.
         -5    1    3    3    0  502  0.13522348203E+02 -0.69537005690E+02 -0.27882056688E+03  0.28770928031E+03  0.41800000000E+01 0.  1.
        -11    1    1    2    0    0 -0.32039807803E+02  0.59025413288E+01 -0.15665549340E+03  0.16000729012E+03  0.00000000000E+00 0.  1.
         11    1    1    2    0    0 -0.14599045655E+02  0.56598963902E+02 -0.39907616088E+02  0.70775650266E+02  0.00000000000E+00 0. -1.
</event>
<event>
 7    1  0.2619826E-009  0.1030080E+03  0.7561462E-02  0.1274095E+00
          1   -1    0    0  501    0  0.00000000000E+00  0.00000000000E+00  0.39714599696E+03  0.39714599696E+03  0.00000000000E+00 0. -1.
         -1   -1    0    0    0  501 -0.00000000000E+00 -0.00000000000E+00 -0.38840711855E+02  0.38840711855E+02  0.00000000000E+00 0.  1.
         25    2    1    2    0    0 -0.78905039166E+00  0.60776022963E+02  0.21677549162E+03  0.25755286355E+03  0.12509003232E+03 0.  0.
          5    1    3    3  502    0 -0.39855432559E+02  0.77626319732E+02  0.18399607807E+03  0.20368193382E+03  0.41800000000E+01 0.  1.
         -5    1    3    3    0  502  0.39066382167E+02 -0.16850296769E+02  0.32779413549E+02  0.53870929725E+02  0.41800000000E+01 0.  1.
        -11    1    1    2    0    0  0.22671762024E+02 -0.23309882940E+02  0.12934086548E+03  0.13336573367E+03  0.00000000000E+00 0. -1.
         11    1    1    2    0    0 -0.21882711632E+02 -0.37466140023E+02  0.12188928006E+02  0.45068111593E+02  0.00000000000E+00 0.  1.
</event>
<event>
 7    1  0.2619826E-009  0.9467480E+02  0.7561462E-02  0.1291910E+00
         -1   -1    0    0    0  501 -0.00000000000E+00  0.00000000000E+00  0.45912351690E+03  0.45912351690E+03  0.00000000000E+00 0.  1.
          1   -1    0    0  501    0  0.00000000000E+00 -0.00000000000E+00 -0.34584981869E+02  0.34584981869E+02  0.00000000000E+00 0. -1.
         25    2    1    2    0    0  0.57071323632E+02  0.27877242548E+02  0.21796041885E+03  0.25919973331E+03  0.12507390187E+03 0.  0.
          5    1    3    3  502    0  0.82746179831E+02  0.22019650362E+02  0.75403983341E+02  0.11417104879E+03  0.41800000000E+01 0.  1.
         -5    1    3    3    0  502 -0.25674856199E+02  0.58575921864E+01  0.14255643551E+03  0.14502868452E+03  0.41800000000E+01 0.  1.
        -11    1    1    2    0    0 -0.30708024636E+02 -0.37877230776E+02  0.19958930127E+03  0.20545937936E+03  0.00000000000E+00 0.  1.
         11    1    1    2    0    0 -0.26363298996E+02  0.99999882276E+01  0.69888149094E+01  0.29049386093E+02  0.00000000000E+00 0. -1.
</event>
<event>
 7    1  0.2619826E-009  0.9020655E+02  0.7561462E-02  0.1302352E+00
          2   -1    0    0  501    0  0.00000000000E+00  0.00000000000E+00  0.15514790244E+03  0.15514790244E+03  0.00000000000E+00 0. -1.
         -2   -1    0    0    0  501 -0.00000000000E+00 -0.00000000000E+00 -0.11900071213E+03  0.11900071213E+03  0.00000000000E+00 0.  1.
         25    2    1    2    0    0  0.21287167678E+02 -0.79635041218E+02  0.22639042195E+02  0.15151254022E+03  0.12509452552E+03 0.  0.
          5    1    3    3  502    0 -0.15386378548E+02 -0.21307850482E+02  0.65198876263E+02  0.70421097711E+02  0.41800000000E+01 0. -1.
         -5    1    3    3    0  502  0.36673546226E+02 -0.58327190736E+02 -0.42559834067E+02  0.81091442507E+02  0.41800000000E+01 0. -1.
        -11    1    1    2    0    0 -0.46511558568E+01  0.54096400972E+02 -0.35537047332E+02  0.64891721984E+02  0.00000000000E+00 0.  1.
         11    1    1    2    0    0 -0.16636011821E+02  0.25538640247E+02  0.49045195443E+02  0.57744352374E+02  0.00000000000E+00 0. -1.
</event>
<event>
 7    1  0.2619826E-009  0.1698222E+03  0.7561462E-02  0.1178033E+00
         -1   -1    0    0    0  501 -0.00000000000E+00  0.00000000000E+00  0.30329364908E+03  0.30329364908E+03  0.00000000000E+00 0.  1.
          1   -1    0    0  501    0  0.00000000000E+00 -0.00000000000E+00 -0.11767228982E+03  0.11767228982E+03  0.00000000000E+00 0. -1.
         25    2    1    2    0    0  0.11522854227E+03  0.98909344767E+02  0.11564056125E+03  0.22821260076E+03  0.12509027262E+03 0.  0.
          5    1    3    3  502    0 -0.15084343562E+02  0.31229872471E+02  0.63240321975E+02  0.72247166579E+02  0.41800000000E+01 0.  1.
         -5    1    3    3    0  502  0.13031288583E+03  0.67679472296E+02  0.52400239277E+02  0.15596543418E+03  0.41800000000E+01 0.  1.
        -11    1    1    2    0    0 -0.55232193855E+02 -0.75192709200E+02 -0.54985076578E+01  0.93460003966E+02  0.00000000000E+00 0. -1.
         11    1    1    2    0    0 -0.59996348413E+02 -0.23716635567E+02  0.75479305671E+02  0.99293334168E+02  0.00000000000E+00 0.  1.
</event>
<event>
 7    1  0.2619826E-009  0.9494963E+02  0.7561462E-02  0.1291290E+00
          1   -1    0    0  501    0  0.00000000000E+00  0.00000000000E+00  0.77726078449E+02  0.77726078449E+02  0.00000000000E+00 0. -1.
         -1   -1    0    0    0  501 -0.00000000000E+00 -0.00000000000E+00 -0.25681226042E+03  0.25681226042E+03  0.00000000000E+00 0.  1.
         25    2    1    2    0    0  0.38515947395E+02 -0.28329794603E+02 -0.18958444539E+03  0.23211242501E+03  0.12509140836E+03 0.  0.
          5    1    3    3  502    0 -0.23492215093E+02  0.10770182983E+02 -0.14250544886E+03  0.14489015276E+03  0.41800000000E+01 0. -1.
         -5    1    3    3    0  502  0.62008162488E+02 -0.39099977586E+02 -0.47078996526E+02  0.87222272249E+02  0.41800000000E+01 0. -1.
        -11    1    1    2    0    0 -0.59033982178E+02  0.35109527690E+02  0.28438690495E+02  0.74340090822E+02  0.00000000000E+00 0. -1.
         11    1    1    2    0    0  0.20518034783E+02 -0.67797330870E+01 -0.17940427084E+02  0.28085823044E+02  0.00000000000E+00 0.  1.
</event>
<event>
 7    1  0.2619826E-009  0.7812673E+02  0.7561462E-02  0.1334453E+00
         -2   -1    0    0    0  501 -0.00000000000E+00  0.00000000000E+00  0.40260523847E+03  0.40260523847E+03  0.00000000000E+00 0.  1.
          2   -1    0    0  501    0  0.00000000000E+00 -0.00000000000E+00 -0.34508981898E+02  0.34508981898E+02  0.00000000000E+00 0. -1.
         25    2    1    2    0    0  0.40661693357E+01  0.53213564395E+01  0.29572865301E+03  0.32116642828E+03  0.12509031888E+03 0.  0.
          5    1    3    3  502    0  0.63039115380E+02  0.15291576589E+02  0.16512237716E+03  0.17745600644E+03  0.41800000000E+01 0.  1.
         -5    1    3    3    0  502 -0.58972946044E+02 -0.99702201500E+01  0.13060627585E+03  0.14371042184E+03  0.41800000000E+01 0.  1.
        -11    1    1    2    0    0 -0.42652005563E+00 -0.18051087370E+02  0.91176023641E+02  0.92946710332E+02  0.00000000000E+00 0.  1.
         11    1    1    2    0    0 -0.36396492801E+01  0.12729730931E+02 -0.18808420073E+02  0.23001081759E+02  0.00000000000E+00 0. -1.
</event>
<event>
 7    1  0.2619826E-009  0.1261167E+03  0.7561462E-02  0.1233334E+00
          2   -1    0    0  501    0  0.00000000000E+00  0.00000000000E+00  0.15796155016E+03  0.15796155016E+03  0.00000000000E+00 0. -1.
         -2   -1    0    0    0  501 -0.00000000000E+00 -0.00000000000E+00 -0.11633379129E+03  0.11633379129E+03  0.00000000000E+00 0.  1.
         25    2    1    2    0    0 -0.67843107557E+02 -0.45175083978E+02  0.20676780239E+02  0.15072413597E+03  0.12508701158E+03 0.  0.
          5    1    3    3  502    0  0.26656324826E+02 -0.35944240907E+01  0.37187992039E+02  0.46085775350E+02  0.41800000000E+01 0. -1.
         -5    1    3    3    0  502 -0.94499432382E+02 -0.41580659887E+02 -0.16511211800E+02  0.10463836062E+03  0.41800000000E+01 0. -1.
        -11    1    1    2    0    0  0.52435012797E+02  0.72999496022E+02  0.13302875385E+02  0.90858810690E+02  0.00000000000E+00 0. -1.
         11    1    1    2    0    0  0.15408094760E+02 -0.27824412044E+02  0.76481032425E+01  0.32712394791E+02  0.00000000000E+00 0.  1.
</event>
<event>
 7    1  0.2619826E-009  0.1234474E+03  0.7561462E-02  0.1237516E+00
          2   -1    0    0  501    0  0.00000000000E+00  0.00000000000E+00  0.29598821643E+03  0.29598821643E+03  0.00000000000E+00 0.  1.
         -2   -1    0    0    0  501 -0.00000000000E+00 -0.00000000000E+00 -0.10531551406E+03  0.10531551406E+03  0.00000000000E+00 0. -1.
         25    2    1    2    0    0  0.83845171722E+02  0.12879842617E+01  0.22595786481E+03  0.27154414992E+03  0.12509035521E+03 0.  0.
          5    1    3    3  502    0  0.33811644702E-01 -0.41820968748E+02  0.13145897014E+03  0.13801423043E+03  0.41800000000E+01 0. -1.
         -5    1    3    3    0  502  0.83811360077E+02  0.43108953009E+02  0.94498894667E+02  0.13352991950E+03  0.41800000000E+01 0. -1.
        -11    1    1    2    0    0 -0.95231200348E+01 -0.29522289392E+02 -0.39403422723E+02  0.50148630175E+02  0.00000000000E+00 0. -1.
         11    1    1    2    0    0 -0.74322051687E+02  0.28234305130E+02  0.41182602860E+01  0.79610950383E+02  0.00000000000E+00 0.  1.
</event>
<event>
 7    1  0.2619826E-009  0.7080954E+02  0.7561462E-02  0.1357362E+00
         -2   -1    0    0    0  501 -0.00000000000E+00  0.00000000000E+00  0.53682736391E+02  0.53682736391E+02  0.00000000000E+00 0.  1.
          2   -1    0    0  501    0  0.00000000000E+00 -0.00000000000E+00 -0.31138024282E+03  0.31138024282E+03  0.00000000000E+00 0. -1.
         25    2    1    2    0    0  0.10628005257E+02 -0.43786796027E+02 -0.21958325920E+03  0.25671062123E+03  0.12511313812E+03 0.  0.
          5    1    3    3  502    0 -0.10725514298E+02 -0.38238469182E+02 -0.22893084926E+03  0.23238765743E+03  0.41800000000E+01 0. -1.
         -5    1    3    3    0  502  0.21353519555E+02 -0.55483268454E+01  0.93475900593E+01  0.24322963801E+02  0.41800000000E+01 0. -1.
        -11    1    1    2    0    0  0.21889684069E+02  0.41145211390E+02 -0.54610516641E+02  0.71794116867E+02  0.00000000000E+00 0. -1.
         11    1    1    2    0    0 -0.32517689325E+02  0.26415846372E+01  0.16496269416E+02  0.36558241111E+02  0.00000000000E+00 0.  1.
</event>
<event>
 7    1  0.2619826E-009  0.9861359E+02  0.7561462E-02  0.1283239E+00
         -2   -1    0    0    0  501 -0.00000000000E+00  0.00000000000E+00  0.11910680184E+03  0.11910680184E+03  0.00000000000E+00 0.  1.
          2   -1    0    0  501    0  0.00000000000E+00 -0.00000000000E+00 -0.11841340416E+03  0.11841340416E+03  0.00000000000E+00 0. -1.
         25    2    1    2    0    0 -0.11499357332E+02 -0.46261203080E+02  0.84541387328E+01  0.13412864089E+03  0.12508671279E+03 0.  0.
          5    1    3    3  502    0 -0.50003241190E+02 -0.59520598995E+02  0.34982158714E+02  0.85347815804E+02  0.41800000000E+01 0. -1.
         -5    1    3    3    0  502  0.38503883857E+02  0.13259395915E+02 -0.26528019982E+02  0.48780825088E+02  0.41800000000E+01 0. -1.
        -11    1    1    2    0    0  0.37019873046E+01 -0.15629064068E+02  0.27418155456E+02  0.31776211264E+02  0.00000000000E+00 0.  1.
         11    1    1    2    0    0  0.77973700275E+01  0.61890267148E+02 -0.35178896506E+02  0.71615353845E+02  0.00000000000E+00 0. -1.
</event>
<event>
 7    1  0.2619826E-009  0.9745750E+02  0.7561462E-02  0.1285735E+00
          1   -1    0    0  501    0  0.00000000000E+00  0.00000000000E+00  0.39850831598E+03  0.39850831598E+03  0.00000000000E+00 0. -1.
         -1   -1    0    0    0  501 -0.00000000000E+00 -0.00000000000E+00 -0.34128518603E+02  0.34128518603E+02  0.00000000000E+00 0.  1.
         25    2    1    2    0    0  0.29316373292E+02 -0.28166906945E+02  0.22029164847E+03  0.25657123995E+03  0.12509023300E+03 0.  0.
          5    1    3    3  502    0  0.65071664380E+02  0.22595740525E+02  0.10731291725E+03  0.12758692568E+03  0.41800000000E+01 0.  1.
         -5    1    3    3    0  502 -0.35755291088E+02 -0.50762647470E+02  0.11297873122E+03  0.12898431427E+03  0.41800000000E+01 0.  1.
        -11    1    1    2    0    0 -0.43065937113E+02  0.18530410819E+02  0.15084794060E+03  0.15796566794E+03  0.00000000000E+00 0. -1.
         11    1    1    2    0    0  0.13749563821E+02  0.96364961261E+01 -0.67597916910E+01  0.18099926700E+02  0.00000000000E+00 0.  1.
</event>
<event>
 7    1  0.2619826E-009  0.1386832E+03  0.7561462E-02  0.1215112E+00
         -2   -1    0    0    0  501 -0.00000000000E+00  0.00000000000E+00  0.21729083903E+02  0.21729083903E+02  0.00000000000E+00 0.  1.
          2   -1    0    0  501    0  0.00000000000E+00 -0.00000000000E+00 -0.14405076386E+04  0.14405076386E+04  0.00000000000E+00 0. -1.
         25    2    1    2    0    0  0.78512442456E+02  0.94980807165E+02 -0.10209510986E+04  0.10359412096E+04  0.12508991429E+03 0.  0.
          5    1    3    3  502    0  0.65245465485E+02  0.84670218126E+02 -0.38037511209E+03  0.39513126287E+03  0.41800000000E+01 0. -1.
         -5    1    3    3    0  502  0.13266976971E+02  0.10310589040E+02 -0.64057598650E+03  0.64080994671E+03  0.41800000000E+01 0. -1.
        -11    1    1    2    0    0  0.17346857575E+02  0.10657088361E+01 -0.40639914081E+02  0.44200133705E+02  0.00000000000E+00 0.  1.
         11    1    1    2    0    0 -0.95859300031E+02 -0.96046516001E+02 -0.35718754208E+03  0.38209537926E+03  0.00000000000E+00 0. -1.
</event>
<event>
 7    1  0.2619826E-009  0.1053645E+03  0.7561462E-02  0.1269403E+00
         -2   -1    0    0    0  501 -0.00000000000E+00  0.00000000000E+00  0.12012968204E+03  0.12012968204E+03  0.00000000000E+00 0.  1.
          2   -1    0    0  501    0  0.00000000000E+00 -0.00000000000E+00 -0.10336023845E+03  0.10336023845E+03  0.00000000000E+00 0. -1.
         25    2    1    2    0    0 -0.14900412768E+01  0.69754467423E+01  0.33172408698E+02  0.12960439338E+03  0.12508402377E+03 0.  0.
          5    1    3    3  502    0 -0.50062693765E+02  0.39622806856E+02  0.40749930199E+01  0.64111762558E+02  0.41800000000E+01 0.  1.
         -5    1    3    3    0  502  0.48572652488E+02 -0.32647360114E+02  0.29097415678E+02  0.65492630817E+02  0.41800000000E+01 0.  1.
        -11    1    1    2    0    0 -0.22381144824E+02  0.33968291700E+02  0.65885356825E+01  0.41208849621E+02  0.00000000000E+00 0.  1.
         11    1    1    2    0    0  0.23871186101E+02 -0.40943738443E+02 -0.22991500785E+02  0.52676677494E+02  0.00000000000E+00 0. -1.
</event>
<event>
 7    1  0.2619826E-009  0.1367703E+03  0.7561462E-02  0.1217742E+00
          2   -1    0    0  501    0  0.00000000000E+00  0.00000000000E+00  0.16789637207E+03  0.16789637207E+03  0.00000000000E+00 0. -1.
         -2   -1    0    0    0  501 -0.00000000000E+00 -0.00000000000E+00 -0.16878077949E+03  0.16878077949E+03  0.00000000000E+00 0.  1.
         25    2    1    2    0    0  0.10006680251E+03 -0.38199455196E+02 -0.70578772839E+02  0.17916929095E+03  0.12509080023E+03 0.  0.
          5    1    3    3  502    0 -0.29434818098E+02 -0.90132763810E+01 -0.66553998700E+01  0.31771282867E+02  0.41800000000E+01 0.  1.
         -5    1    3    3    0  502  0.12950162061E+03 -0.29186178815E+02 -0.63923372969E+02  0.14739800808E+03  0.41800000000E+01 0.  1.
        -11    1    1    2    0    0 -0.62709026939E+02  0.35835921063E+02  0.89620659471E+02  0.11510211945E+03  0.00000000000E+00 0. -1.
         11    1    1    2    0    0 -0.37357775574E+02  0.23635341327E+01 -0.19926294050E+02  0.42405741168E+02  0.00000000000E+00 0.  1.
</event>
<event>
 7    1  0.2619826E-009  0.1930879E+03  0.7561462E-02  0.1155705E+00
          2   -1    0    0  501    0  0.00000000000E+00  0.00000000000E+00  0.14962489901E+03  0.14962489901E+03  0.00000000000E+00 0. -1.
         -2   -1    0    0    0  501 -0.00000000000E+00 -0.00000000000E+00 -0.26375481939E+03  0.26375481939E+03  0.00000000000E+00 0.  1.
         25    2    1    2    0    0  0.43986694916E+02 -0.15971328784E+03 -0.66574238717E+02  0.21799679790E+03  0.12508921213E+03 0.  0.
          5    1    3    3  502    0  0.64808516862E+02 -0.16322069760E+03 -0.79576326525E+02  0.19284969310E+03  0.41800000000E+01 0. -1.
         -5    1    3    3    0  502 -0.20821821945E+02  0.35074097666E+01  0.13002087808E+02  0.25147104799E+02  0.41800000000E+01 0. -1.
        -11    1    1    2    0    0 -0.69753016101E+02  0.85020748505E+02 -0.20500254601E+02  0.11186720418E+03  0.00000000000E+00 0.  1.
         11    1    1    2    0    0  0.25766321185E+02  0.74692539333E+02 -0.27055427064E+02  0.83515716323E+02  0.00000000000E+00 0. -1.
</event>
<event>
 7    1  0.2619826E-009  0.7494589E+02  0.7561462E-02  0.1344039E+00
         -1   -1    0    0    0  501 -0.00000000000E+00  0.00000000000E+00  0.25215909613E+02  0.25215909613E+02  0.00000000000E+00 0.  1.
          1   -1    0    0  501    0  0.00000000000E+00 -0.00000000000E+00 -0.59197782353E+03  0.59197782353E+03  0.00000000000E+00 0. -1.
         25    2    1    2    0    0 -0.30872217820E+02  0.29424988120E+02 -0.39160006820E+03  0.41329955475E+03  0.12508790822E+03 0.  0.
          5    1    3    3  502    0  0.11641680896E+02 -0.83461992954E+01 -0.32615982780E+03  0.32650098537E+03  0.41800000000E+01 0. -1.
         -5    1    3    3    0  502 -0.42513898716E+02  0.37771187415E+02 -0.65440240403E+02  0.86798569382E+02  0.41800000000E+01 0. -1.
        -11    1    1    2    0    0 -0.83161818247E+01  0.15952745231E+02  0.78974153475E+00  0.18007572080E+02  0.00000000000E+00 0.  1.
         11    1    1    2    0    0  0.39188399644E+02 -0.45377733350E+02 -0.17595158725E+03  0.18588660631E+03  0.00000000000E+00 0. -1.
</event>
<event>
 7    1  0.2619826E-009  0.1269751E+03  0.7561462E-02  0.1232014E+00
          2   -1    0    0  501    0  0.00000000000E+00  0.00000000000E+00  0.12175898228E+03  0.12175898228E+03  0.00000000000E+00 0. -1.
         -2   -1    0    0    0  501 -0.00000000000E+00 -0.00000000000E+00 -0.31793536902E+03  0.31793536902E+03  0.00000000000E+00 0.  1.
         25    2    1    2    0    0  0.74060343570E+02 -0.59149780628E+02 -0.25172677193E+03  0.29664298906E+03  0.12508822572E+03 0.  0.
          5    1    3    3  502    0  0.74145409937E+02 -0.86937401140E+02 -0.13660135901E+03  0.17813774786E+03  0.41800000000E+01 0.  1.
         -5    1    3    3    0  502 -0.85066366730E-01  0.27787620513E+02 -0.11512541293E+03  0.11850524120E+03  0.41800000000E+01 0.  1.
        -11    1    1    2    0    0 -0.15795417446E+02  0.50121757733E+02  0.64734541409E+02  0.83380133497E+02  0.00000000000E+00 0. -1.
         11    1    1    2    0    0 -0.58264926124E+02  0.90280228944E+01 -0.91841562169E+01  0.59671228737E+02  0.00000000000E+00 0.  1.
</event>
<event>
 7    1  0.2619826E-009  0.1435837E+03  0.7561462E-02  0.1208587E+00
         -2   -1    0    0    0  501 -0.00000000000E+00  0.00000000000E+00  0.10714897759E+03  0.10714897759E+03  0.00000000000E+00 0.  1.
          2   -1    0    0  501    0  0.00000000000E+00 -0.00000000000E+00 -0.23352864266E+03  0.23352864266E+03  0.00000000000E+00 0. -1.
         25    2    1    2    0    0 -0.82446012739E+02  0.81024496867E+02 -0.59925946385E+02  0.18056033676E+03  0.12509437258E+03 0.  0.
          5    1    3    3  502    0  0.15074757890E+02  0.69638768657E+02 -0.17294537234E+02  0.73439634010E+02  0.41800000000E+01 0.  1.
         -5    1    3    3    0  502 -0.97520770629E+02  0.11385728211E+02 -0.42631409151E+02  0.10712070275E+03  0.41800000000E+01 0.  1.
        -11    1    1    2    0    0  0.50581874957E+02 -0.63407373628E+02 -0.86478019632E+02  0.11856419773E+03  0.00000000000E+00 0. -1.
         11    1    1    2    0    0  0.31864137781E+02 -0.17617123239E+02  0.20024300944E+02  0.41553085759E+02  0.00000000000E+00 0.  1.
</event>
<event>
 7    1  0.2619826E-009  0.1162335E+03  0.7561462E-02  0.1249443E+00
         -2   -1    0    0    0  501 -0.00000000000E+00  0.00000000000E+00  0.18995940184E+03  0.18995940184E+03  0.00000000000E+00 0. -1.
          2   -1    0    0  501    0  0.00000000000E+00 -0.00000000000E+00 -0.97584895715E+02  0.97584895715E+02  0.00000000000E+00 0.  1.
         25    2    1    2    0    0 -0.20643621473E+01 -0.77136262231E+02  0.79716866159E+02  0.16720479848E+03  0.12509357035E+03 0.  0.
          5    1    3    3  502    0 -0.48797024452E+02 -0.44263539812E+02  0.87264123988E+02  0.10942079458E+03  0.41800000000E+01 0. -1.
         -5    1    3    3    0  502  0.46732662305E+02 -0.32872722419E+02 -0.75472578281E+01  0.57784003894E+02  0.41800000000E+01 0. -1.
        -11    1    1    2    0    0 -0.28629721999E+02  0.28321812305E+01  0.26081819572E+02  0.38832248769E+02  0.00000000000E+00 0. -1.
         11    1    1    2    0    0  0.30694084146E+02  0.74304081001E+02 -0.13424179604E+02  0.81507250309E+02  0.00000000000E+00 0.  1.
</event>
<event>
 7    1  0.2619826E-009  0.1004045E+03  0.7561462E-02  0.1279448E+00
         -3   -1    0    0    0  501 -0.00000000000E+00  0.00000000000E+00  0.15750621029E+03  0.15750621029E+03  0.00000000000E+00 0.  1.
          3   -1    0    0  501    0  0.00000000000E+00 -0.00000000000E+00 -0.11457819556E+03  0.11457819556E+03  0.00000000000E+00 0. -1.
         25    2    1    2    0    0  0.29618769834E+02 -0.48195290893E+02  0.80370332123E+02  0.15908248287E+03  0.12509112071E+03 0.  0.
          5    1    3    3  502    0  0.54187522396E+02 -0.53061494588E+02  0.12272797098E+01  0.75965705465E+02  0.41800000000E+01 0. -1.
         -5    1    3    3    0  502 -0.24568752562E+02  0.48662036946E+01  0.79143052413E+02  0.83116777404E+02  0.41800000000E+01 0. -1.
        -11    1    1    2    0    0  0.23067597104E+02  0.39952166184E+02 -0.37849489823E+02  0.59673055048E+02  0.00000000000E+00 0. -1.
         11    1    1    2    0    0 -0.52686366938E+02  0.82431247094E+01  0.40717242975E+00  0.53328867937E+02  0.00000000000E+00 0.  1.
</event>
<event>
 7    1  0.2619826E-009  0.1000479E+03  0.7561462E-02  0.1280195E+00
          1   -1    0    0  501    0  0.00000000000E+00  0.00000000000E+00  0.54721832465E+03  0.54721832465E+03  0.00000000000E+00 0. -1.
         -1   -1    0    0    0  501 -0.00000000000E+00 -0.00000000000E+00 -0.25428591440E+02  0.25428591440E+02  0.00000000000E+00 0.  1.
         25    2    1    2    0    0  0.17412851861E+02 -0.40033969136E+02  0.35571404738E+03  0.37958724783E+03  0.12509224242E+03 0.  0.
          5    1    3    3  502    0  0.52277163036E+02 -0.69053231294E+02  0.24358019519E+03  0.25855373603E+03  0.41800000000E+01 0. -1.
         -5    1    3    3    0  502 -0.34864311175E+02  0.29019262158E+02  0.11213385220E+03  0.12103351180E+03  0.41800000000E+01 0. -1.
        -11    1    1    2    0    0  0.67292475361E+01  0.42986310687E+02  0.25575650345E+02  0.50469986818E+02  0.00000000000E+00 0.  1.
         11    1    1    2    0    0 -0.24142099397E+02 -0.29523415507E+01  0.14050003548E+03  0.14258968144E+03  0.00000000000E+00 0. -1.
</event>
<event>
 7    1  0.2619826E-009  0.2051893E+03  0.7561462E-02  0.1145433E+00
          2   -1    0    0  501    0  0.00000000000E+00  0.00000000000E+00  0.10550557270E+03  0.10550557270E+03  0.00000000000E+00 0. -1.
         -2   -1    0    0    0  501 -0.00000000000E+00 -0.00000000000E+00 -0.45303691248E+03  0.45303691248E+03  0.00000000000E+00 0.  1.
         25    2    1    2    0    0  0.10396825789E+03 -0.14009311270E+03 -0.27347184179E+03  0.34766357953E+03  0.12509051684E+03 0.  0.
          5    1    3    3  502    0  0.61598628519E+02 -0.15578488615E+03 -0.23201081430E+03  0.28619890310E+03  0.41800000000E+01 0.  1.
         -5    1    3    3    0  502  0.42369629370E+02  0.15691773451E+02 -0.41461027492E+02  0.61464676422E+02  0.41800000000E+01 0.  1.
        -11    1    1    2    0    0 -0.12150586820E+03  0.12445720693E+03 -0.66111954358E+02  0.18607542254E+03  0.00000000000E+00 0.  1.
         11    1    1    2    0    0  0.17537610311E+02  0.15635905771E+02 -0.79475436314E+01  0.24803483111E+02  0.00000000000E+00 0. -1.
</event>
<event>
 7    1  0.2619826E-009  0.8919965E+02  0.7561462E-02  0.1304802E+00
         -1   -1    0    0    0  501 -0.00000000000E+00  0.00000000000E+00  0.12105908963E+03  0.12105908963E+03  0.00000000000E+00 0.  1.
          1   -1    0    0  501    0  0.00000000000E+00 -0.00000000000E+00 -0.12205265114E+03  0.12205265114E+03  0.00000000000E+00 0. -1.
         25    2    1    2    0    0  0.16343556105E+01  0.34386365077E+02 -0.42982760447E+02  0.13667514233E+03  0.12508990212E+03 0.  0.
          5    1    3    3  502    0 -0.48009608032E+02  0.21310049611E+02  0.19064035198E+02  0.56035261361E+02  0.41800000000E+01 0.  1.
         -5    1    3    3    0  502  0.49643963642E+02  0.13076315466E+02 -0.62046795645E+02  0.80639880966E+02  0.41800000000E+01 0.  1.
        -11    1    1    2    0    0  0.23808154770E+02 -0.41444464859E+02 -0.93533721585E+01  0.48702746039E+02  0.00000000000E+00 0. -1.
         11    1    1    2    0    0 -0.25442510381E+02  0.70580997817E+01  0.51342571091E+02  0.57733852403E+02  0.00000000000E+00 0.  1.
</event>
<event>
 7    1  0.2619826E-009  0.1587229E+03  0.7561462E-02  0.1190146E+00
          1   -1    0    0  501    0  0.00000000000E+00  0.00000000000E+00  0.10857739705E+04  0.10857739705E+04  0.00000000000E+00 0. -1.
         -1   -1    0    0    0  501 -0.00000000000E+00 -0.00000000000E+00 -0.25437189902E+02  0.25437189902E+02  0.00000000000E+00 0.  1.
         25    2    1    2    0    0 -0.12204776037E+03 -0.23148477612E+01  0.49601166557E+03  0.52590445585E+03  0.12508760917E+03 0.  0.
          5    1    3    3  502    0 -0.69004229591E+02 -0.56226054689E+02  0.35298035975E+03  0.36405433619E+03  0.41800000000E+01 0. -1.
         -5    1    3    3    0  502 -0.53043530782E+02  0.53911206928E+02  0.14303130582E+03  0.16185011967E+03  0.41800000000E+01 0. -1.
        -11    1    1    2    0    0  0.83445538501E+02 -0.42332390638E+02  0.29067149269E+03  0.30536061609E+03  0.00000000000E+00 0.  1.
         11    1    1    2    0    0  0.38602221872E+02  0.44647238400E+02  0.27365362232E+03  0.27994608845E+03  0.00000000000E+00 0. -1.
</event>
<event>
 7    1  0.2619826E-009  0.1079097E+03  0.7561462E-02  0.1264490E+00
          2   -1    0    0  501    0  0.00000000000E+00  0.00000000000E+00  0.21831257690E+03  0.21831257690E+03  0.00000000000E+00 0. -1.
         -2   -1    0    0    0  501 -0.00000000000E+00 -0.00000000000E+00 -0.64410968292E+02  0.64410968292E+02  0.00000000000E+00 0.  1.
         25    2    1    2    0    0  0.31845074915E+02 -0.32691181014E+02  0.10821901175E+03  0.17158981940E+03  0.12509552152E+03 0.  0.
          5    1    3    3  502    0 -0.24725713126E+02 -0.61838468156E+02  0.72330722864E+02  0.98410176829E+02  0.41800000000E+01 0. -1.
         -5    1    3    3    0  502  0.56570788041E+02  0.29147287141E+02  0.35888288884E+02  0.73179642567E+02  0.41800000000E+01 0. -1.
        -11    1    1    2    0    0 -0.39136060099E+02 -0.11290980122E+02  0.52056096470E+02  0.66098068140E+02  0.00000000000E+00 0. -1.
         11    1    1    2    0    0  0.72909851839E+01  0.43982161137E+02 -0.63734996099E+01  0.45035657656E+02  0.00000000000E+00 0.  1.
</event>
<event>
 7    1  0.3028056E-009  0.2628048E+03  0.7561462E-02  0.1105470E+00
          1   -1    0    0  501    0  0.00000000000E+00  0.00000000000E+00  0.12261787624E+04  0.12261787624E+04  0.00000000000E+00 0. -1.
         -1   -1    0    0    0  501 -0.00000000000E+00 -0.00000000000E+00 -0.58442248776E+02  0.58442248776E+02  0.00000000000E+00 0.  1.
         25    2    1    2    0    0  0.24409717223E+03 -0.42869734482E+01  0.57731035953E+03  0.63916853971E+03  0.12508942123E+03 0.  0.
          5    1    3    3  502    0  0.17782210978E+03  0.52076421646E+02  0.42616003171E+03  0.46471765778E+03  0.41800000000E+01 0.  1.
         -5    1    3    3    0  502  0.66275062443E+02 -0.56363395094E+02  0.15115032782E+03  0.17445088194E+03  0.41800000000E+01 0.  1.
        -11    1    1    2    0    0 -0.11433186108E+03  0.35476099834E+02  0.35738300812E+03  0.37689911463E+03  0.00000000000E+00 0. -1.
         11    1    1    2    0    0 -0.12976531115E+03 -0.31189126386E+02  0.23304314596E+03  0.26855335682E+03  0.00000000000E+00 0.  1.
</event>
<event>
 7    1  0.2619826E-009  0.1516989E+03  0.7561462E-02  0.1198401E+00
         -1   -1    0    0    0  501 -0.00000000000E+00  0.00000000000E+00  0.21040945907E+03  0.21040945907E+03  0.00000000000E+00 0.  1.
          1   -1    0    0  501    0  0.00000000000E+00 -0.00000000000E+00 -0.12077589247E+03  0.12077589247E+03  0.00000000000E+00 0. -1.
         25    2    1    2    0    0  0.40686146493E+02  0.96647298058E+02  0.97511205200E+02  0.19013592148E+03  0.12508865160E+03 0.  0.
          5    1    3    3  502    0 -0.10184431737E+01 -0.29500296668E+02  0.12359749057E+02  0.32272907008E+02  0.41800000000E+01 0. -1.
         -5    1    3    3    0  502  0.41704589667E+02  0.12614759473E+03  0.85151456143E+02  0.15786301447E+03  0.41800000000E+01 0. -1.
        -11    1    1    2    0    0  0.24603209782E+02 -0.62088267237E+02 -0.25748903824E+00  0.66785755672E+02  0.00000000000E+00 0.  1.
         11    1    1    2    0    0 -0.65289356275E+02 -0.34559030821E+02 -0.76201495597E+01  0.74263674386E+02  0.00000000000E+00 0. -1.
</event>
<event>
 7    1  0.2619826E-009  0.2037418E+03  0.7561462E-02  0.1146620E+00
         -2   -1    0    0    0  501 -0.00000000000E+00  0.00000000000E+00  0.12386121770E+04  0.12386121770E+04  0.00000000000E+00 0.  1.
          2   -1    0    0  501    0  0.00000000000E+00 -0.00000000000E+00 -0.39072211163E+02  0.39072211163E+02  0.00000000000E+00 0. -1.
         25    2    1    2    0    0 -0.26843636999E+02 -0.18930422591E+03  0.59874920255E+03  0.64086084744E+03  0.12508136322E+03 0.  0.
          5    1    3    3  502    0  0.38982712722E+01 -0.17925577677E+03  0.56943591843E+03  0.59701136306E+03  0.41800000000E+01 0. -1.
         -5    1    3    3    0  502 -0.30741908271E+02 -0.10048449143E+02  0.29313284129E+02  0.43849484384E+02  0.41800000000E+01 0. -1.
        -11    1    1    2    0    0  0.34588509040E+02  0.98595536869E+02  0.43815357455E+03  0.45043978481E+03  0.00000000000E+00 0.  1.
         11    1    1    2    0    0 -0.77448720412E+01  0.90708689046E+02  0.16263718877E+03  0.18638375595E+03  0.00000000000E+00 0. -1.
</event>
<event>
 7    1  0.2619826E-009  0.4376529E+02  0.7561462E-02  0.1482200E+00
          3   -1    0    0  501    0  0.00000000000E+00  0.00000000000E+00  0.69995818718E+02  0.69995818718E+02  0.00000000000E+00 0. -1.
         -3   -1    0    0    0  501 -0.00000000000E+00 -0.00000000000E+00 -0.16436509801E+03  0.16436509801E+03  0.00000000000E+00 0.  1.
         25    2    1    2    0    0 -0.11982023287E+02 -0.32777927155E+01 -0.14202390087E+02  0.12650475777E+03  0.12508970001E+03 0.  0.
          5    1    3    3  502    0 -0.82934989016E+01 -0.33019416610E+01  0.55606635472E+02  0.56473491580E+02  0.41800000000E+01 0.  1.
         -5    1    3    3    0  502 -0.36885243850E+01  0.24148945575E-01 -0.69809025559E+02  0.70031266194E+02  0.41800000000E+01 0.  1.
        -11    1    1    2    0    0 -0.24649815029E+02  0.20083939481E+02 -0.33266993145E+02  0.46018157709E+02  0.00000000000E+00 0.  1.
         11    1    1    2    0    0  0.36631838316E+02 -0.16806146765E+02 -0.46899896062E+02  0.61838001246E+02  0.00000000000E+00 0. -1.
</event>
<event>
 7    1  0.2840996E-009  0.3002465E+03  0.7561462E-02  0.1085117E+00
          4   -1    0    0  501    0  0.00000000000E+00  0.00000000000E+00  0.40234073383E+03  0.40234073383E+03  0.00000000000E+00 0. -1.
         -4   -1    0    0    0  501 -0.00000000000E+00 -0.00000000000E+00 -0.25068945473E+03  0.25068945473E+03  0.00000000000E+00 0.  1.
         25    2    1    2    0    0  0.29615683954E+03  0.62742309570E+01  0.41580971299E+02  0.32422985673E+03  0.12509109977E+03 0.  0.
          5    1    3    3  502    0  0.17348825488E+03  0.37658368803E+02 -0.27873224259E+02  0.17975181878E+03  0.41800000000E+01 0.  1.
         -5    1    3    3    0  502  0.12266858465E+03 -0.31384137846E+02  0.69454195558E+02  0.14447803795E+03  0.41800000000E+01 0.  1.
        -11    1    1    2    0    0 -0.18827707546E+03 -0.33017872592E+01  0.22159193559E+02  0.18960535014E+03  0.00000000000E+00 0.  1.
         11    1    1    2    0    0 -0.10787976408E+03 -0.29724436978E+01  0.87911114242E+02  0.13919498169E+03  0.00000000000E+00 0. -1.
</event>
<event>
 7    1  0.2619826E-009  0.9517524E+02  0.7561462E-02  0.1290782E+00
          1   -1    0    0  501    0  0.00000000000E+00  0.00000000000E+00  0.33730795593E+03  0.33730795593E+03  0.00000000000E+00 0. -1.
         -1   -1    0    0    0  501 -0.00000000000E+00 -0.00000000000E+00 -0.36718671542E+02  0.36718671542E+02  0.00000000000E+00 0.  1.
         25    2    1    2    0    0 -0.17481794503E+02  0.20312789605E+02  0.18120048533E+03  0.22181047554E+03  0.12509216048E+03 0.  0.
          5    1    3    3  502    0  0.51431108382E+02  0.16878187009E+02  0.51458990310E+02  0.74803289967E+02  0.41800000000E+01 0.  1.
         -5    1    3    3    0  502 -0.68912902885E+02  0.34346025959E+01  0.12974149502E+03  0.14700718557E+03  0.41800000000E+01 0.  1.
        -11    1    1    2    0    0  0.38837862708E+02 -0.21463440419E+01  0.11234883791E+02  0.40487145939E+02  0.00000000000E+00 0.  1.
         11    1    1    2    0    0 -0.21356068205E+02 -0.18166445563E+02  0.10815391526E+03  0.11172900599E+03  0.00000000000E+00 0. -1.
</event>
<event>
 7    1  0.2619826E-009  0.8590203E+02  0.7561462E-02  0.1313090E+00
          1   -1    0    0  501    0  0.00000000000E+00  0.00000000000E+00  0.25602018921E+03  0.25602018921E+03  0.00000000000E+00 0. -1.
         -1   -1    0    0    0  501 -0.00000000000E+00 -0.00000000000E+00 -0.69330258494E+02  0.69330258494E+02  0.00000000000E+00 0.  1.
         25    2    1    2    0    0  0.45055929422E+01  0.42949695096E+02  0.13834279484E+03  0.19144430378E+03  0.12508883199E+03 0.  0.
          5    1    3    3  502    0  0.39707523017E+02  0.66687593844E+02  0.12416591015E+03  0.14648743359E+03  0.41800000000E+01 0. -1.
         -5    1    3    3    0  502 -0.35201930075E+02 -0.23737898748E+02  0.14176884700E+02  0.44956870195E+02  0.41800000000E+01 0. -1.
        -11    1    1    2    0    0 -0.16330759432E+02 -0.27089939661E+02 -0.35621386564E+02  0.47638657782E+02  0.00000000000E+00 0.  1.
         11    1    1    2    0    0  0.11825166489E+02 -0.15859755435E+02  0.83968522438E+02  0.86267486143E+02  0.00000000000E+00 0. -1.
</event>
<event>
 6    1  0.2619826E-009  0.9623539E+02  0.7561462E-02  0.1288418E+00
         -2   -1    0    0    0  501 -0.00000000000E+00  0.00000000000E+00  0.15349567574E+02  0.15349567574E+02  0.00000000000E+00 0.  1.
          2   -1    0    0  501    0  0.00000000000E+00 -0.00000000000E+00 -0.93892491780E+03  0.93892491780E+03  0.00000000000E+00 0. -1.
          5    1    1    2  502    0 -0.32971723369E+02  0.52240768242E+02 -0.57170642496E+03  0.57504951191E+03  0.41800000000E+01 0. -1.
         -5    1    1    2    0  502  0.15953164388E+01 -0.43897780466E+02 -0.10481824729E+03  0.11372729457E+03  0.41800000000E+01 0. -1.
        -11    1    1    2    0    0  0.53346840726E+02  0.13937825262E+02 -0.91483301973E+02  0.10681452583E+03  0.00000000000E+00 0.  1.
         11    1    1    2    0    0 -0.21970433796E+02 -0.22280813039E+02 -0.15556737599E+03  0.15868315306E+03  0.00000000000E+00 0. -1.
</event>
<event>
 7    1  0.2619826E-009  0.1139951E+03  0.7561462E-02  0.1253345E+00
         -1   -1    0    0    0  501 -0.00000000000E+00  0.00000000000E+00  0.66587033422E+03  0.66587033422E+03  0.00000000000E+00 0.  1.
          1   -1    0    0  501    0  0.00000000000E+00 -0.00000000000E+00 -0.25837569276E+02  0.25837569276E+02  0.00000000000E+00 0. -1.
         25    2    1    2    0    0  0.69769451484E+01 -0.70388791683E+02  0.29656378689E+03  0.32954680727E+03  0.12509100179E+03 0.  0.
          5    1    3    3  502    0  0.94377174059E+01 -0.10025279109E+03  0.15570706177E+03  0.18547736821E+03  0.41800000000E+01 0. -1.
         -5    1    3    3    0  502 -0.24607722574E+01  0.29863999408E+02  0.14085672512E+03  0.14406943906E+03  0.41800000000E+01 0. -1.
        -11    1    1    2    0    0 -0.43084624267E+01 -0.12910333403E+02  0.65819521603E+01  0.15118255564E+02  0.00000000000E+00 0. -1.
         11    1    1    2    0    0 -0.26684827217E+01  0.83299125086E+02  0.33688702589E+03  0.34704284066E+03  0.00000000000E+00 0.  1.
</event>
<event>
 7    1  0.2619826E-009  0.8520482E+02  0.7561462E-02  0.1314898E+00
          2   -1    0    0  501    0  0.00000000000E+00  0.00000000000E+00  0.23780421901E+03  0.23780421901E+03  0.00000000000E+00 0. -1.
         -2   -1    0    0    0  501 -0.00000000000E+00 -0.00000000000E+00 -0.47700119189E+02  0.47700119189E+02  0.00000000000E+00 0.  1.
         25    2    1    2    0    0 -0.90861464194E+01 -0.98817401093E+01  0.10165637879E+03  0.16174423055E+03  0.12508784883E+03 0.  0.
          5    1    3    3  502    0 -0.36670574472E+02 -0.58831384542E+02  0.57310351586E+02  0.90043387532E+02  0.41800000000E+01 0.  1.
         -5    1    3    3    0  502  0.27584428053E+02  0.48949644433E+02  0.44346027205E+02  0.71700843021E+02  0.41800000000E+01 0.  1.
        -11    1    1    2    0    0 -0.21431254206E+01 -0.16137017548E+02 -0.11461997795E+02  0.19909136480E+02  0.00000000000E+00 0.  1.
         11    1    1    2    0    0  0.11229271840E+02  0.26018757658E+02  0.99909718831E+02  0.10385097117E+03  0.00000000000E+00 0. -1.
</event>
<event>
 7    1  0.2619826E-009  0.9945153E+02  0.7561462E-02  0.1281454E+00
         -1   -1    0    0    0  501 -0.00000000000E+00  0.00000000000E+00  0.13569016755E+03  0.13569016755E+03  0.00000000000E+00 0.  1.
          1   -1    0    0  501    0  0.00000000000E+00 -0.00000000000E+00 -0.13133984005E+03  0.13133984005E+03  0.00000000000E+00 0. -1.
         25    2    1    2    0    0  0.45635853977E+02 -0.36483034470E+02 -0.48081983923E+02  0.14619917330E+03  0.12509467663E+03 0.  0.
          5    1    3    3  502    0  0.87071934209E+02 -0.11101668222E+02 -0.40805002036E+02  0.96888024830E+02  0.41800000000E+01 0.  1.
         -5    1    3    3    0  502 -0.41436080233E+02 -0.25381366248E+02 -0.72769818874E+01  0.49311148466E+02  0.41800000000E+01 0.  1.
        -11    1    1    2    0    0 -0.31066953716E+02  0.36173838237E+02  0.77989285354E+02  0.91411327613E+02  0.00000000000E+00 0.  1.
         11    1    1    2    0    0 -0.14568900261E+02  0.30919623313E+00 -0.25556973935E+02  0.29419506690E+02  0.00000000000E+00 0. -1.
</event>
<event>
 7    1  0.2619826E-009  0.1271440E+03  0.7561462E-02  0.1231756E+00
         -2   -1    0    0    0  501 -0.00000000000E+00  0.00000000000E+00  0.73690426098E+02  0.73690426098E+02  0.00000000000E+00 0.  1.
          2   -1    0    0  501    0  0.00000000000E+00 -0.00000000000E+00 -0.30824793624E+03  0.30824793624E+03  0.00000000000E+00 0. -1.
         25    2    1    2    0    0  0.34104227154E+02 -0.64816583821E+02 -0.31980581847E+02  0.14844133812E+03  0.12509110840E+03 0.  0.
          5    1    3    3  502    0  0.81828120334E+01  0.34499773972E+02 -0.28451124393E+02  0.45652291247E+02  0.41800000000E+01 0.  1.
         -5    1    3    3    0  502  0.25921415120E+02 -0.99316357793E+02 -0.35294574539E+01  0.10278904687E+03  0.41800000000E+01 0.  1.
        -11    1    1    2    0    0 -0.50489058300E+02  0.15601068369E+01 -0.96140731676E+02  0.10860303508E+03  0.00000000000E+00 0. -1.
         11    1    1    2    0    0  0.16384831146E+02  0.63256476984E+02 -0.10643619662E+03  0.12489398914E+03  0.00000000000E+00 0.  1.
</event>
<event>
 7    1  0.2619826E-009  0.1361081E+03  0.7561462E-02  0.1218664E+00
         -1   -1    0    0    0  501 -0.00000000000E+00  0.00000000000E+00  0.49945139163E+02  0.49945139163E+02  0.00000000000E+00 0.  1.
          1   -1    0    0  501    0  0.00000000000E+00 -0.00000000000E+00 -0.51739868989E+03  0.51739868989E+03  0.00000000000E+00 0. -1.
         25    2    1    2    0    0  0.49478483241E+02  0.10655751148E+03 -0.20697428250E+03  0.26886535846E+03  0.12509038255E+03 0.  0.
          5    1    3    3  502    0 -0.25353304696E+02  0.17257249929E+02  0.41249962872E+00  0.30955537309E+02  0.41800000000E+01 0. -1.
         -5    1    3    3    0  502  0.74831787937E+02  0.89300261546E+02 -0.20738678213E+03  0.23790982115E+03  0.41800000000E+01 0. -1.
        -11    1    1    2    0    0 -0.47529098010E+02 -0.53407992035E+02 -0.67572047768E+02  0.98373829906E+02  0.00000000000E+00 0.  1.
         11    1    1    2    0    0 -0.19493852308E+01 -0.53149519440E+02 -0.19290722046E+03  0.20010464069E+03  0.00000000000E+00 0. -1.
</event>
<event>
 7    1  0.2619826E-009  0.2457291E+03  0.7561462E-02  0.1116034E+00
          2   -1    0    0  501    0  0.00000000000E+00  0.00000000000E+00  0.31057821489E+03  0.31057821489E+03  0.00000000000E+00 0. -1.
         -2   -1    0    0    0  501 -0.00000000000E+00 -0.00000000000E+00 -0.23807532053E+03  0.23807532053E+03  0.00000000000E+00 0.  1.
         25    2    1    2    0    0 -0.82154505401E+01  0.23339667642E+03 -0.49108660115E+02  0.26944493052E+03  0.12508959946E+03 0.  0.
          5    1    3    3  502    0 -0.46334733144E+02  0.19679897345E+03 -0.80304876953E+01  0.20238256985E+03  0.41800000000E+01 0.  1.
         -5    1    3    3    0  502  0.38119282604E+02  0.36597702968E+02 -0.41078172420E+02  0.67062360667E+02  0.41800000000E+01 0.  1.
        -11    1    1    2    0    0 -0.12427444379E+02 -0.14124706353E+03  0.24758955902E+02  0.14393811249E+03  0.00000000000E+00 0.  1.
         11    1    1    2    0    0  0.20642894919E+02 -0.92149612893E+02  0.96852598581E+02  0.13527049242E+03  0.00000000000E+00 0. -1.
</event>
<event>
 7    1  0.2619826E-009  0.1682704E+03  0.7561462E-02  0.1179664E+00
         -2   -1    0    0    0  501 -0.00000000000E+00  0.00000000000E+00  0.52927383369E+02  0.52927383369E+02  0.00000000000E+00 0.  1.
          2   -1    0    0  501    0  0.00000000000E+00 -0.00000000000E+00 -0.57392747665E+03  0.57392747665E+03  0.00000000000E+00 0. -1.
         25    2    1    2    0    0 -0.11935983871E+03 -0.57142448584E+02 -0.22222731285E+03  0.28730448863E+03  0.12508740977E+03 0.  0.
          5    1    3    3  502    0 -0.59371551120E+02 -0.90367123083E+02 -0.10129970194E+03  0.14822381735E+03  0.41800000000E+01 0. -1.
         -5    1    3    3    0  502 -0.59988287587E+02  0.33224674499E+02 -0.12092761091E+03  0.13908067128E+03  0.41800000000E+01 0. -1.
        -11    1    1    2    0    0  0.53045046992E+02  0.74150998032E+02 -0.19455470703E+03  0.21485735162E+03  0.00000000000E+00 0. -1.
         11    1    1    2    0    0  0.66314791716E+02 -0.17008549447E+02 -0.10421807340E+03  0.12469301977E+03  0.00000000000E+00 0.  1.
</event>
<event>
 7    1  0.2619826E-009  0.9799918E+02  0.7561462E-02  0.1284561E+00
         -2   -1    0    0    0  501 -0.00000000000E+00  0.00000000000E+00  0.19711572560E+03  0.19711572560E+03  0.00000000000E+00 0.  1.
          2   -1    0    0  501    0  0.00000000000E+00 -0.00000000000E+00 -0.94274569601E+02  0.94274569601E+02  0.00000000000E+00 0. -1.
         25    2    1    2    0    0  0.26990068649E+02  0.43560401699E+02  0.11453254056E+02  0.13566418288E+03  0.12509045161E+03 0.  0.
          5    1    3    3  502    0  0.69938426487E+02  0.19372955438E+02 -0.21997851759E+02  0.75947829356E+02  0.41800000000E+01 0.  1.
         -5    1    3    3    0  502 -0.42948357837E+02  0.24187446261E+02  0.33451105815E+02  0.59716353521E+02  0.41800000000E+01 0.  1.
        -11    1    1    2    0    0 -0.39785160417E+02 -0.45994070380E+02  0.11424267564E+03  0.12942064146E+03  0.00000000000E+00 0.  1.
         11    1    1    2    0    0  0.12795091767E+02  0.24336686811E+01 -0.22854773696E+02  0.26305470862E+02  0.00000000000E+00 0. -1.
</event>
<event>
 7    1  0.3556351E-009  0.1526791E+03  0.7561462E-02  0.1197219E+00
         -2   -1    0    0    0  501 -0.00000000000E+00  0.00000000000E+00  0.66970314134E+02  0.66970314134E+02  0.00000000000E+00 0.  1.
          2   -1    0    0  501    0  0.00000000000E+00 -0.00000000000E+00 -0.49415405826E+03  0.49415405826E+03  0.00000000000E+00 0. -1.
         25    2    1    2    0    0 -0.11286646785E+02  0.14438447594E+03 -0.24949145288E+03  0.31443173365E+03  0.12508822798E+03 0.  0.
          5    1    3    3  502    0 -0.39144030377E+02  0.10476229142E+03 -0.24012264193E+03  0.26492215533E+03  0.41800000000E+01 0.  1.
         -5    1    3    3    0  502  0.27857383591E+02  0.39622184519E+02 -0.93688109447E+01  0.49509578317E+02  0.41800000000E+01 0.  1.
        -11    1    1    2    0    0  0.66142838749E+01 -0.90922652567E+02 -0.16942475316E+03  0.19239393048E+03  0.00000000000E+00 0. -1.
         11    1    1    2    0    0  0.46723629102E+01 -0.53461823371E+02 -0.82675380859E+01  0.54298708266E+02  0.00000000000E+00 0.  1.
</event>
<event>
 7    1  0.2619826E-009  0.1457228E+03  0.7561462E-02  0.1205829E+00
         -1   -1    0    0    0  501 -0.00000000000E+00  0.00000000000E+00  0.80971876414E+03  0.80971876414E+03  0.00000000000E+00 0.  1.
          1   -1    0    0  501    0  0.00000000000E+00 -0.00000000000E+00 -0.28215203182E+02  0.28215203182E+02  0.00000000000E+00 0. -1.
         25    2    1    2    0    0  0.66450999609E+02 -0.81634319942E+02  0.45556598318E+03  0.48401092786E+03  0.12508523379E+03 0.  0.
          5    1    3    3  502    0 -0.10380998185E+02 -0.79180371042E+02  0.16407198622E+03  0.18252228726E+03  0.41800000000E+01 0.  1.
         -5    1    3    3    0  502  0.76831997794E+02 -0.24539489006E+01  0.29149399696E+03  0.30148864060E+03  0.41800000000E+01 0.  1.
        -11    1    1    2    0    0 -0.24330164653E+02 -0.15343011767E+02  0.10690484583E+03  0.11070686963E+03  0.00000000000E+00 0.  1.
         11    1    1    2    0    0 -0.42120834956E+02  0.96977331710E+02  0.21903273194E+03  0.24321616983E+03  0.00000000000E+00 0. -1.
</event>
<event>
 7    1  0.2619826E-009  0.1524545E+03  0.7561462E-02  0.1197489E+00
         -1   -1    0    0    0  501 -0.00000000000E+00  0.00000000000E+00  0.10426823775E+03  0.10426823775E+03  0.00000000000E+00 0.  1.
          1   -1    0    0  501    0  0.00000000000E+00 -0.00000000000E+00 -0.43375005585E+03  0.43375005585E+03  0.00000000000E+00 0. -1.
         25    2    1    2    0    0  0.13068806480E+03  0.51744821495E+02 -0.22990967707E+02  0.18956049577E+03  0.12509076755E+03 0.  0.
          5    1    3    3  502    0  0.78825249429E+02  0.72616869818E+02 -0.59503721095E+02  0.12265722544E+03  0.41800000000E+01 0. -1.
         -5    1    3    3    0  502  0.51862815376E+02 -0.20872048323E+02  0.36512753389E+02  0.66903270323E+02  0.41800000000E+01 0. -1.
        -11    1    1    2    0    0 -0.58666058084E+02 -0.32388327709E+02 -0.23781496496E+03  0.24707623864E+03  0.00000000000E+00 0. -1.
         11    1    1    2    0    0 -0.72022006721E+02 -0.19356493786E+02 -0.68675885443E+02  0.10138155920E+03  0.00000000000E+00 0.  1.
</event>
<event>
 7    1  0.2619826E-009  0.1050064E+03  0.7561462E-02  0.1270107E+00
         -1   -1    0    0    0  501 -0.00000000000E+00  0.00000000000E+00  0.16263945181E+03  0.16263945181E+03  0.00000000000E+00 0.  1.
          1   -1    0    0  501    0  0.00000000000E+00 -0.00000000000E+00 -0.10025568272E+03  0.10025568272E+03  0.00000000000E+00 0. -1.
         25    2    1    2    0    0  0.39454058641E+02  0.14344948039E+01  0.89721649154E+02  0.15892233365E+03  0.12509058032E+03 0.  0.
          5    1    3    3  502    0  0.23534700528E+02 -0.60003308341E+02  0.28350410889E+02  0.70537205348E+02  0.41800000000E+01 0.  1.
         -5    1    3    3    0  502  0.15919358113E+02  0.61437803145E+02  0.61371238264E+02  0.88385128297E+02  0.41800000000E+01 0.  1.
        -11    1    1    2    0    0 -0.54020625775E+02 -0.20540567787E+02 -0.45744448980E+02  0.73706835142E+02  0.00000000000E+00 0. -1.
         11    1    1    2    0    0  0.14566567135E+02  0.19106072983E+02  0.18406568918E+02  0.30265965742E+02  0.00000000000E+00 0.  1.
</event>
<event>
 7    1  0.2619826E-009  0.1710133E+03  0.7561462E-02  0.1176795E+00
          1   -1    0    0  501    0  0.00000000000E+00  0.00000000000E+00  0.11201763795E+04  0.11201763795E+04  0.00000000000E+00 0. -1.
         -1   -1    0    0    0  501 -0.00000000000E+00 -0.00000000000E+00 -0.27924825278E+02  0.27924825278E+02  0.00000000000E+00 0.  1.
         25    2    1    2    0    0 -0.84140832023E+02  0.10721718339E+03  0.49574727065E+03  0.52913832777E+03  0.12508720768E+03 0.  0.
          5    1    3    3  502    0 -0.49957482280E+01 -0.24252671987E+02  0.13129637653E+03  0.13367632733E+03  0.41800000000E+01 0. -1.
         -5    1    3    3    0  502 -0.79145083795E+02  0.13146985538E+03  0.36445089413E+03  0.39546200044E+03  0.41800000000E+01 0. -1.
        -11    1    1    2    0    0  0.10244988970E+03 -0.77349406182E+02  0.42712194560E+03  0.44599559072E+03  0.00000000000E+00 0.  1.
         11    1    1    2    0    0 -0.18309057672E+02 -0.29867777211E+02  0.16938233799E+03  0.17296728630E+03  0.00000000000E+00 0. -1.
</event>
<event>
 7    1  0.2619826E-009  0.9599562E+02  0.7561462E-02  0.1288949E+00
          1   -1    0    0  501    0  0.00000000000E+00  0.00000000000E+00  0.56211419708E+02  0.56211419708E+02  0.00000000000E+00 0. -1.
         -1   -1    0    0    0  501 -0.00000000000E+00 -0.00000000000E+00 -0.23536252541E+03  0.23536252541E+03  0.00000000000E+00 0.  1.
         25    2    1    2    0    0 -0.53502470640E+01 -0.36938439201E+02 -0.99166981476E+02  0.16393742785E+03  0.12509323164E+03 0.  0.
          5    1    3    3  502    0  0.18886531125E+02  0.29547208693E+02 -0.84450040633E+02  0.91536989040E+02  0.41800000000E+01 0. -1.
         -5    1    3    3    0  502 -0.24236778189E+02 -0.66485647894E+02 -0.14716940842E+02  0.72400438815E+02  0.41800000000E+01 0. -1.
        -11    1    1    2    0    0  0.34150009667E+02  0.44420774921E+02 -0.80255534458E+02  0.97879411604E+02  0.00000000000E+00 0.  1.
         11    1    1    2    0    0 -0.28799762603E+02 -0.74823357200E+01  0.27141022994E+00  0.29757105661E+02  0.00000000000E+00 0. -1.
</event>
<event>
 7    1  0.2619826E-009  0.1684745E+03  0.7561462E-02  0.1179448E+00
         -1   -1    0    0    0  501 -0.00000000000E+00  0.00000000000E+00  0.16638056384E+03  0.16638056384E+03  0.00000000000E+00 0.  1.
          1   -1    0    0  501    0  0.00000000000E+00 -0.00000000000E+00 -0.20046928034E+03  0.20046928034E+03  0.00000000000E+00 0. -1.
         25    2    1    2    0    0  0.72859741767E+02  0.12721885802E+03 -0.11127383967E+02  0.19304140663E+03  0.12509191098E+03 0.  0.
          5    1    3    3  502    0  0.92194168960E+02  0.10754950616E+03 -0.45435244952E+02  0.14882370426E+03  0.41800000000E+01 0.  1.
         -5    1    3    3    0  502 -0.19334427193E+02  0.19669351861E+02  0.34307860985E+02  0.44217702370E+02  0.41800000000E+01 0. -1.
        -11    1    1    2    0    0 -0.16235412498E+02 -0.10541443414E+03 -0.34389102753E+02  0.11206427589E+03  0.00000000000E+00 0.  1.
         11    1    1    2    0    0 -0.56624329269E+02 -0.21804423883E+02  0.11427770215E+02  0.61744161652E+02  0.00000000000E+00 0. -1.
</event>
<event>
 7    1  0.2619826E-009  0.1344856E+03  0.7561462E-02  0.1220948E+00
          2   -1    0    0  501    0  0.00000000000E+00  0.00000000000E+00  0.14096211690E+04  0.14096211690E+04  0.00000000000E+00 0.  1.
         -2   -1    0    0    0  501 -0.00000000000E+00 -0.00000000000E+00 -0.17752052134E+02  0.17752052134E+02  0.00000000000E+00 0. -1.
         25    2    1    2    0    0  0.37019301806E+02  0.96388469199E+02  0.10070940806E+04  0.10200724503E+04  0.12509256947E+03 0.  0.
          5    1    3    3  502    0 -0.29418451018E+02 -0.47546786061E+01  0.39327543110E+03  0.39442501104E+03  0.41800000000E+01 0.  1.
         -5    1    3    3    0  502  0.66437752824E+02  0.10114314781E+03  0.61381864948E+03  0.62564743922E+03  0.41800000000E+01 0.  1.
        -11    1    1    2    0    0 -0.36679824042E+02 -0.20723289633E+02  0.24273461711E+03  0.24636346841E+03  0.00000000000E+00 0.  1.
         11    1    1    2    0    0 -0.33947776472E+00 -0.75665179566E+02  0.14204041917E+03  0.16093730245E+03  0.00000000000E+00 0. -1.
</event>
<event>
 7    1  0.2619826E-009  0.2029992E+03  0.7561462E-02  0.1147233E+00
         -1   -1    0    0    0  501 -0.00000000000E+00  0.00000000000E+00  0.49096428603E+03  0.49096428603E+03  0.00000000000E+00 0.  1.
          1   -1    0    0  501    0  0.00000000000E+00 -0.00000000000E+00 -0.11930479678E+03  0.11930479678E+03  0.00000000000E+00 0. -1.
         25    2    1    2    0    0  0.96211826722E+02 -0.15651907115E+03  0.44901811522E+02  0.22676124701E+03  0.12509818237E+03 0.  0.
          5    1    3    3  502    0  0.37829348504E+02 -0.15698863875E+03  0.46856481363E+02  0.16819481131E+03  0.41800000000E+01 0.  1.
         -5    1    3    3    0  502  0.58382478218E+02  0.46956759864E+00 -0.19546698410E+01  0.58566435701E+02  0.41800000000E+01 0.  1.
        -11    1    1    2    0    0 -0.55746176215E+02  0.11581198546E+03  0.28464307076E+03  0.31231671404E+03  0.00000000000E+00 0.  1.
         11    1    1    2    0    0 -0.40465650506E+02  0.40707085696E+02  0.42114606973E+02  0.71191121759E+02  0.00000000000E+00 0. -1.
</event>
<event>
 7    1  0.2619826E-009  0.1061753E+03  0.7561462E-02  0.1267821E+00
          1   -1    0    0  501    0  0.00000000000E+00  0.00000000000E+00  0.54325611649E+02  0.54325611649E+02  0.00000000000E+00 0. -1.
         -1   -1    0    0    0  501 -0.00000000000E+00 -0.00000000000E+00 -0.27570330945E+03  0.27570330945E+03  0.00000000000E+00 0.  1.
         25    2    1    2    0    0 -0.23919526084E+02  0.82584411920E+01 -0.54000924719E+02  0.13857832163E+03  0.12508999071E+03 0.  0.
          5    1    3    3  502    0 -0.66458287032E+02  0.29272453697E+02 -0.94330823103E+01  0.73348728023E+02  0.41800000000E+01 0. -1.
         -5    1    3    3    0  502  0.42538760948E+02 -0.21014012505E+02 -0.44567842409E+02  0.65229593603E+02  0.41800000000E+01 0. -1.
        -11    1    1    2    0    0 -0.16531454273E+02  0.31303090744E+02 -0.78187190307E+02  0.85827788033E+02  0.00000000000E+00 0.  1.
         11    1    1    2    0    0  0.40450980357E+02 -0.39561531936E+02 -0.89189582770E+02  0.10562281144E+03  0.00000000000E+00 0. -1.
</event>
<event>
 7    1  0.2619826E-009  0.1408828E+03  0.7561462E-02  0.1212146E+00
         -1   -1    0    0    0  501 -0.00000000000E+00  0.00000000000E+00  0.46361591123E+02  0.46361591123E+02  0.00000000000E+00 0.  1.
          1   -1    0    0  501    0  0.00000000000E+00 -0.00000000000E+00 -0.62600233699E+03  0.62600233699E+03  0.00000000000E+00 0. -1.
         25    2    1    2    0    0 -0.14785632506E+02 -0.91556188120E+02 -0.12735859715E+03  0.20116926315E+03  0.12509080564E+03 0.  0.
          5    1    3    3  502    0  0.46364293988E+02 -0.75302580533E+02 -0.95438830385E+02  0.13017745249E+03  0.41800000000E+01 0.  1.
         -5    1    3    3    0  502 -0.61149926494E+02 -0.16253607587E+02 -0.31919766769E+02  0.70991810657E+02  0.41800000000E+01 0.  1.
        -11    1    1    2    0    0  0.22333933677E+02  0.10876421192E+03 -0.41275246656E+03  0.42742608371E+03  0.00000000000E+00 0. -1.
         11    1    1    2    0    0 -0.75483011710E+01 -0.17208023797E+02 -0.39529682159E+02  0.43768581256E+02  0.00000000000E+00 0.  1.
</event>
<event>
 7    1  0.2619826E-009  0.1181878E+03  0.7561462E-02  0.1246117E+00
          2   -1    0    0  501    0  0.00000000000E+00  0.00000000000E+00  0.23671506309E+03  0.23671506309E+03  0.00000000000E+00 0. -1.
         -2   -1    0    0    0  501 -0.00000000000E+00 -0.00000000000E+00 -0.73722424500E+02  0.73722424500E+02  0.00000000000E+00 0.  1.
         25    2    1    2    0    0  0.50214099179E+02 -0.50621695242E+02  0.11769571157E+03  0.18596563203E+03  0.12508766521E+03 0.  0.
          5    1    3    3  502    0 -0.58827417500E+01  0.38083978731E+02  0.27638895389E+02  0.47606480912E+02  0.41800000000E+01 0. -1.
         -5    1    3    3    0  502  0.56096840929E+02 -0.88705673973E+02  0.90056816185E+02  0.13835915112E+03  0.41800000000E+01 0. -1.
        -11    1    1    2    0    0 -0.21706863242E+02  0.58997084190E+02 -0.80816905076E+01  0.63381050608E+02  0.00000000000E+00 0.  1.
         11    1    1    2    0    0 -0.28507235936E+02 -0.83753889486E+01  0.53378617528E+02  0.61090804954E+02  0.00000000000E+00 0. -1.
</event>
<event>
 7    1  0.2924693E-009  0.6130473E+02  0.7561462E-02  0.1392437E+00
         -1   -1    0    0    0  501 -0.00000000000E+00  0.00000000000E+00  0.30150163470E+03  0.30150163470E+03  0.00000000000E+00 0.  1.
          1   -1    0    0  501    0  0.00000000000E+00 -0.00000000000E+00 -0.65287810402E+02  0.65287810402E+02  0.00000000000E+00 0. -1.
         25    2    1    2    0    0  0.22728976393E+02 -0.19893054583E+02  0.23708369981E+03  0.26975609978E+03  0.12508929876E+03 0.  0.
          5    1    3    3  502    0  0.49614933091E+02  0.64535427072E+01  0.22419607633E+03  0.22974908671E+03  0.41800000000E+01 0. -1.
         -5    1    3    3    0  502 -0.26885956698E+02 -0.26346597290E+02  0.12887623478E+02  0.40007013076E+02  0.41800000000E+01 0. -1.
        -11    1    1    2    0    0 -0.22132926970E+02  0.94468707591E+01  0.44436606693E+02  0.50534362940E+02  0.00000000000E+00 0.  1.
         11    1    1    2    0    0 -0.59604942348E+00  0.10446183824E+02 -0.45306482212E+02  0.46498982374E+02  0.00000000000E+00 0. -1.
</event>
<event>
 7    1  0.2619826E-009  0.1041698E+03  0.7561462E-02  0.1271764E+00
         -2   -1    0    0    0  501 -0.00000000000E+00  0.00000000000E+00  0.56588571831E+02  0.56588571831E+02  0.00000000000E+00 0.  1.
          2   -1    0    0  501    0  0.00000000000E+00 -0.00000000000E+00 -0.34440248336E+03  0.34440248336E+03  0.00000000000E+00 0. -1.
         25    2    1    2    0    0  0.71010349721E+02  0.22629449431E+02 -0.19905945450E+03  0.24662870598E+03  0.12508593222E+03 0.  0.
          5    1    3    3  502    0  0.56792237974E+02 -0.23446690139E+02 -0.25859236736E+02  0.66792799740E+02  0.41800000000E+01 0. -1.
         -5    1    3    3    0  502  0.14218111747E+02  0.46076139570E+02 -0.17320021777E+03  0.17983590624E+03  0.41800000000E+01 0. -1.
        -11    1    1    2    0    0 -0.45192865039E+02 -0.45306184634E+02 -0.99550212433E+02  0.11834394878E+03  0.00000000000E+00 0. -1.
         11    1    1    2    0    0 -0.25817484682E+02  0.22676735203E+02  0.10795755407E+02  0.36018400431E+02  0.00000000000E+00 0.  1.
</event>
<event>
 7    1  0.2619826E-009  0.8945343E+02  0.7561462E-02  0.1304181E+00
          2   -1    0    0  501    0  0.00000000000E+00  0.00000000000E+00  0.73922552319E+02  0.73922552319E+02  0.00000000000E+00 0.  1.
         -2   -1    0    0    0  501 -0.00000000000E+00 -0.00000000000E+00 -0.19696547682E+03  0.19696547682E+03  0.00000000000E+00 0. -1.
         25    2    1    2    0    0  0.32975278455E+02 -0.21144473928E+00 -0.31188691021E+02  0.13306947777E+03  0.12508931916E+03 0.  0.
          5    1    3    3  502    0  0.51232453845E+02  0.15381058205E+02  0.33968825524E+02  0.63503502155E+02  0.41800000000E+01 0. -1.
         -5    1    3    3    0  502 -0.18257175389E+02 -0.15592502945E+02 -0.65157516546E+02  0.69565975618E+02  0.41800000000E+01 0. -1.
        -11    1    1    2    0    0  0.29606819456E+02 -0.19284173903E+02 -0.20176533101E+02  0.40688273610E+02  0.00000000000E+00 0.  1.
         11    1    1    2    0    0 -0.62582097911E+02  0.19495618642E+02 -0.71677700375E+02  0.97130277753E+02  0.00000000000E+00 0. -1.
</event>
<event>
 7    1  0.2619826E-009  0.1306906E+03  0.7561462E-02  0.1226435E+00
         -3   -1    0    0    0  501 -0.00000000000E+00  0.00000000000E+00  0.24519488568E+03  0.24519488568E+03  0.00000000000E+00 0.  1.
          3   -1    0    0  501    0  0.00000000000E+00 -0.00000000000E+00 -0.86033755010E+02  0.86033755010E+02  0.00000000000E+00 0. -1.
         25    2    1    2    0    0  0.74962353491E+02 -0.56800332376E+02  0.83956297644E+02  0.17759963712E+03  0.12508932405E+03 0.  0.
          5    1    3    3  502    0  0.15170643587E+01 -0.55514536661E+02  0.87744742867E+02  0.10392678945E+03  0.41800000000E+01 0. -1.
         -5    1    3    3    0  502  0.73445289133E+02 -0.12857957151E+01 -0.37884452235E+01  0.73672847669E+02  0.41800000000E+01 0. -1.
        -11    1    1    2    0    0 -0.46523593868E+02  0.81894096230E+02  0.41631756743E+02  0.10297713801E+03  0.00000000000E+00 0.  1.
         11    1    1    2    0    0 -0.28438759623E+02 -0.25093763854E+02  0.33573076282E+02  0.50651865556E+02  0.00000000000E+00 0. -1.
</event>
<event>
 7    1  0.2619826E-009  0.1469050E+03  0.7561462E-02  0.1204328E+00
          3   -1    0    0  501    0  0.00000000000E+00  0.00000000000E+00  0.36467418595E+03  0.36467418595E+03  0.00000000000E+00 0. -1.
         -3   -1    0    0    0  501 -0.00000000000E+00 -0.00000000000E+00 -0.92133884132E+02  0.92133884132E+02  0.00000000000E+00 0.  1.
         25    2    1    2    0    0  0.11764333812E+03 -0.52762774258E+02  0.56161720110E+02  0.18821711614E+03  0.12509068170E+03 0.  0.
          5    1    3    3  502    0  0.59894173055E+02  0.42935062945E+00  0.85346724464E+02  0.10435052508E+03  0.41800000000E+01 0.  1.
         -5    1    3    3    0  502  0.57749165065E+02 -0.53192124888E+02 -0.29185004355E+02  0.83866591054E+02  0.41800000000E+01 0.  1.
        -11    1    1    2    0    0 -0.41570541509E+02  0.65928632401E+02  0.13853625274E+03  0.15895593042E+03  0.00000000000E+00 0. -1.
         11    1    1    2    0    0 -0.76072796611E+02 -0.13165858142E+02  0.77842328966E+02  0.10963502353E+03  0.00000000000E+00 0.  1.
</event>
<event>
 7    1  0.2619826E-009  0.1186949E+03  0.7561462E-02  0.1245266E+00
         -2   -1    0    0    0  501 -0.00000000000E+00  0.00000000000E+00  0.81787332544E+02  0.81787332544E+02  0.00000000000E+00 0.  1.
          2   -1    0    0  501    0  0.00000000000E+00 -0.00000000000E+00 -0.25114870780E+03  0.25114870780E+03  0.00000000000E+00 0. -1.
         25    2    1    2    0    0 -0.22292603212E+02 -0.69696230167E+02 -0.23857160680E+02  0.14686774095E+03  0.12508574883E+03 0.  0.
          5    1    3    3  502    0 -0.54681242359E+02 -0.13297979704E+02  0.28547941342E+02  0.63240271070E+02  0.41800000000E+01 0. -1.
         -5    1    3    3    0  502  0.32388639147E+02 -0.56398250463E+02 -0.52405102022E+02  0.83627469883E+02  0.41800000000E+01 0. -1.
        -11    1    1    2    0    0  0.19022343503E+02  0.91644620872E+02 -0.11333452064E+03  0.14698741326E+03  0.00000000000E+00 0.  1.
         11    1    1    2    0    0  0.32702597088E+01 -0.21948390706E+02 -0.32169693928E+02  0.39080886128E+02  0.00000000000E+00 0. -1.
</event>
<event>
 7    1  0.2619826E-009  0.9157111E+02  0.7561462E-02  0.1299091E+00
          1   -1    0    0  501    0  0.00000000000E+00  0.00000000000E+00  0.34729513913E+02  0.34729513913E+02  0.00000000000E+00 0. -1.
         -1   -1    0    0    0  501 -0.00000000000E+00 -0.00000000000E+00 -0.41592852357E+03  0.41592852357E+03  0.00000000000E+00 0.  1.
         25    2    1    2    0    0 -0.51743689742E+02 -0.52774211587E+01 -0.22484239117E+03  0.26249658446E+03  0.12508035570E+03 0.  0.
          5    1    3    3  502    0  0.10719472600E+02 -0.28856110422E+02 -0.17834001827E+03  0.18102545876E+03  0.41800000000E+01 0. -1.
         -5    1    3    3    0  502 -0.62463162342E+02  0.23578689263E+02 -0.46502372901E+02  0.81471125699E+02  0.41800000000E+01 0. -1.
        -11    1    1    2    0    0  0.60472723526E+02  0.23576792232E+02 -0.15476501470E+03  0.16782438797E+03  0.00000000000E+00 0.  1.
         11    1    1    2    0    0 -0.87290337842E+01 -0.18299371074E+02 -0.15916037858E+01  0.20337065056E+02  0.00000000000E+00 0. -1.
</event>
<event>
 7    1  0.2619826E-009  0.8617413E+02  0.7561462E-02  0.1312390E+00
          2   -1    0    0  501    0  0.00000000000E+00  0.00000000000E+00  0.97131501032E+02  0.97131501032E+02  0.00000000000E+00 0. -1.
         -2   -1    0    0    0  501 -0.00000000000E+00 -0.00000000000E+00 -0.33729721517E+03  0.33729721517E+03  0.00000000000E+00 0.  1.
         25    2    1    2    0    0 -0.32627770791E+02 -0.62591666707E+02  0.23962400262E+02  0.14561380201E+03  0.12508754751E+03 0.  0.
          5    1    3    3  502    0 -0.33838235231E+02 -0.61980118724E+02 -0.40157931134E+02  0.81343058176E+02  0.41800000000E+01 0.  1.
         -5    1    3    3    0  502  0.12104644394E+01 -0.61154798378E+00  0.64120331396E+02  0.64270743837E+02  0.41800000000E+01 0.  1.
        -11    1    1    2    0    0 -0.18630175052E+02  0.33353705714E+02 -0.19131380977E+03  0.19509107339E+03  0.00000000000E+00 0.  1.
         11    1    1    2    0    0  0.51257945843E+02  0.29237960993E+02 -0.72814304626E+02  0.93723840794E+02  0.00000000000E+00 0. -1.
</event>
<event>
 7    1  0.2619826E-009  0.1223098E+03  0.7561462E-02  0.1239335E+00
         -2   -1    0    0    0  501 -0.00000000000E+00  0.00000000000E+00  0.21661930956E+02  0.21661930956E+02  0.00000000000E+00 0.  1.
          2   -1    0    0  501    0  0.00000000000E+00 -0.00000000000E+00 -0.76486867645E+03  0.76486867645E+03  0.00000000000E+00 0. -1.
         25    2    1    2    0    0  0.57061554660E+02  0.42709693297E+02 -0.36795926332E+03  0.39512240524E+03  0.12509019443E+03 0.  0.
          5    1    3    3  502    0  0.56411065655E+02 -0.30586942340E+02 -0.23028712171E+03  0.23909705183E+03  0.41800000000E+01 0. -1.
         -5    1    3    3    0  502  0.65048900524E+00  0.73296635636E+02 -0.13767214161E+03  0.15602535341E+03  0.41800000000E+01 0. -1.
        -11    1    1    2    0    0 -0.70724416660E+02 -0.99761846590E+01 -0.19418454619E+03  0.20690361367E+03  0.00000000000E+00 0. -1.
         11    1    1    2    0    0  0.13662862000E+02 -0.32733508638E+02 -0.18106293599E+03  0.18450458849E+03  0.00000000000E+00 0.  1.
</event>
<event>
 7    1  0.2619826E-009  0.1338648E+03  0.7561462E-02  0.1221831E+00
         -1   -1    0    0    0  501 -0.00000000000E+00  0.00000000000E+00  0.14716344532E+03  0.14716344532E+03  0.00000000000E+00 0.  1.
          1   -1    0    0  501    0  0.00000000000E+00 -0.00000000000E+00 -0.18301785120E+03  0.18301785120E+03  0.00000000000E+00 0. -1.
         25    2    1    2    0    0 -0.51702161713E+01 -0.10781725692E+03 -0.10212569811E+02  0.16554132029E+03  0.12509332562E+03 0.  0.
          5    1    3    3  502    0  0.13316057610E+02 -0.10005928028E+03 -0.55908595023E+02  0.11546610047E+03  0.41800000000E+01 0. -1.
         -5    1    3    3    0  502 -0.18486273781E+02 -0.77579766437E+01  0.45696025212E+02  0.50075219821E+02  0.41800000000E+01 0. -1.
        -11    1    1    2    0    0 -0.46308912754E+02  0.40821228826E+02 -0.46887305214E+02  0.77519723384E+02  0.00000000000E+00 0. -1.
         11    1    1    2    0    0  0.51479128925E+02  0.66996028095E+02  0.21245469148E+02  0.87120252839E+02  0.00000000000E+00 0.  1.
</event>
<event>
 7    1  0.2619826E-009  0.1272931E+03  0.7561462E-02  0.1231528E+00
          2   -1    0    0  501    0  0.00000000000E+00  0.00000000000E+00  0.78301689945E+03  0.78301689945E+03  0.00000000000E+00 0. -1.
         -2   -1    0    0    0  501 -0.00000000000E+00 -0.00000000000E+00 -0.21487522623E+02  0.21487522623E+02  0.00000000000E+00 0.  1.
         25    2    1    2    0    0  0.34003281624E+02  0.63555042855E+02  0.38256447256E+03  0.40889958846E+03  0.12509129124E+03 0.  0.
          5    1    3    3  502    0 -0.40899999144E+02 -0.64006298476E+01  0.10115296780E+03  0.10937629217E+03  0.41800000000E+01 0.  1.
         -5    1    3    3    0  502  0.74903280767E+02  0.69955672703E+02  0.28141150476E+03  0.29952329629E+03  0.41800000000E+01 0.  1.
        -11    1    1    2    0    0 -0.55459692332E+02 -0.68745139327E+02  0.25957616400E+03  0.27419237147E+03  0.00000000000E+00 0.  1.
         11    1    1    2    0    0  0.21456410708E+02  0.51900964714E+01  0.11938874027E+03  0.12141246215E+03  0.00000000000E+00 0. -1.
</event>
<event>
 7    1  0.2619826E-009  0.1063866E+03  0.7561462E-02  0.1267412E+00
          1   -1    0    0  501    0  0.00000000000E+00  0.00000000000E+00  0.29824228335E+03  0.29824228335E+03  0.00000000000E+00 0. -1.
         -1   -1    0    0    0  501 -0.00000000000E+00 -0.00000000000E+00 -0.47146002891E+02  0.47146002891E+02  0.00000000000E+00 0.  1.
         25    2    1    2    0    0 -0.29293652917E+01  0.38647766081E+02  0.18201636415E+03  0.22423115663E+03  0.12508966297E+03 0.  0.
          5    1    3    3  502    0 -0.57549614493E+02 -0.75783399106E+01  0.67409621600E+02  0.89055706433E+02  0.41800000000E+01 0. -1.
         -5    1    3    3    0  502  0.54620249201E+02  0.46226105992E+02  0.11460674255E+03  0.13517545020E+03  0.41800000000E+01 0. -1.
        -11    1    1    2    0    0  0.21548386482E+02 -0.54398578904E+02  0.75898890315E+02  0.95834127000E+02  0.00000000000E+00 0. -1.
         11    1    1    2    0    0 -0.18619021191E+02  0.15750812823E+02 -0.68189740073E+01  0.25323002610E+02  0.00000000000E+00 0.  1.
</event>
<event>
 7    1  0.2619826E-009  0.1791342E+03  0.7561462E-02  0.1168644E+00
          2   -1    0    0  501    0  0.00000000000E+00  0.00000000000E+00  0.20786682890E+03  0.20786682890E+03  0.00000000000E+00 0.  1.
         -2   -1    0    0    0  501 -0.00000000000E+00 -0.00000000000E+00 -0.16061745074E+03  0.16061745074E+03  0.00000000000E+00 0. -1.
         25    2    1    2    0    0 -0.12765910556E+03 -0.72603466442E+02  0.23755557619E+02  0.19437064209E+03  0.12509000527E+03 0.  0.
          5    1    3    3  502    0 -0.60987282521E+02  0.30109187591E+02 -0.56151852021E+01  0.68374077775E+02  0.41800000000E+01 0.  1.
         -5    1    3    3    0  502 -0.66671823041E+02 -0.10271265403E+03  0.29370742821E+02  0.12599656432E+03  0.41800000000E+01 0.  1.
        -11    1    1    2    0    0  0.11075512657E+03  0.20258030254E+02  0.35017599972E+02  0.11791233251E+03  0.00000000000E+00 0.  1.
         11    1    1    2    0    0  0.16903978992E+02  0.52345436187E+02 -0.11523779431E+02  0.56201305036E+02  0.00000000000E+00 0. -1.
</event>
<event>
 7    1  0.2619826E-009  0.1076505E+03  0.7561462E-02  0.1264984E+00
         -2   -1    0    0    0  501 -0.00000000000E+00  0.00000000000E+00  0.66471769312E+03  0.66471769312E+03  0.00000000000E+00 0.  1.
          2   -1    0    0  501    0  0.00000000000E+00 -0.00000000000E+00 -0.20267511352E+02  0.20267511352E+02  0.00000000000E+00 0. -1.
         25    2    1    2    0    0  0.20150888923E+02 -0.29412484601E+02  0.44965789422E+03  0.46809298605E+03  0.12509064384E+03 0.  0.
          5    1    3    3  502    0 -0.49685746904E+02 -0.16817434490E+02  0.12288818849E+03  0.13368051024E+03  0.41800000000E+01 0.  1.
         -5    1    3    3    0  502  0.69836635827E+02 -0.12595050111E+02  0.32676970573E+03  0.33441247580E+03  0.41800000000E+01 0.  1.
        -11    1    1    2    0    0 -0.24468081239E+02  0.57859755142E+02  0.15905512583E+03  0.17101161164E+03  0.00000000000E+00 0.  1.
         11    1    1    2    0    0  0.43171923152E+01 -0.28447270541E+02  0.35737161714E+02  0.45880606776E+02  0.00000000000E+00 0. -1.
</event>
<event>
 7    1  0.2619826E-009  0.1606887E+03  0.7561462E-02  0.1187921E+00
         -2   -1    0    0    0  501 -0.00000000000E+00  0.00000000000E+00  0.92318970285E+02  0.92318970285E+02  0.00000000000E+00 0.  1.
          2   -1    0    0  501    0  0.00000000000E+00 -0.00000000000E+00 -0.30301568885E+03  0.30301568885E+03  0.00000000000E+00 0. -1.
         25    2    1    2    0    0 -0.81372118959E+02  0.87474194794E+02 -0.68102784007E+02  0.18590325144E+03  0.12509545638E+03 0.  0.
          5    1    3    3  502    0 -0.13374693151E+01  0.91094938102E+02 -0.23786926664E+02  0.94251614586E+02  0.41800000000E+01 0.  1.
         -5    1    3    3    0  502 -0.80034649644E+02 -0.36207433079E+01 -0.44315857344E+02  0.91651636853E+02  0.41800000000E+01 0.  1.
        -11    1    1    2    0    0  0.42483969094E+02  0.11162128362E+02 -0.22919155223E+02  0.49545619541E+02  0.00000000000E+00 0. -1.
         11    1    1    2    0    0  0.38888149865E+02 -0.98636323155E+02 -0.11967477934E+03  0.15988578816E+03  0.00000000000E+00 0.  1.
</event>
<event>
 7    1  0.2619826E-009  0.1629843E+03  0.7561462E-02  0.1185368E+00
         -1   -1    0    0    0  501 -0.00000000000E+00  0.00000000000E+00  0.10826529150E+04  0.10826529150E+04  0.00000000000E+00 0.  1.
          1   -1    0    0  501    0  0.00000000000E+00 -0.00000000000E+00 -0.33326275211E+02  0.33326275211E+02  0.00000000000E+00 0. -1.
         25    2    1    2    0    0  0.14336137474E+03  0.37196504225E+02  0.68089068545E+03  0.70795177350E+03  0.12509006507E+03 0.  0.
          5    1    3    3  502    0  0.10782013280E+03  0.13777305347E+02  0.63862488756E+03  0.64782267218E+03  0.41800000000E+01 0.  1.
         -5    1    3    3    0  502  0.35541241935E+02  0.23419198878E+02  0.42265797890E+02  0.60129101321E+02  0.41800000000E+01 0.  1.
        -11    1    1    2    0    0 -0.46548214982E+02 -0.59033763920E+02  0.13851453690E+03  0.15760075676E+03  0.00000000000E+00 0.  1.
         11    1    1    2    0    0 -0.96813159755E+02  0.21837259694E+02  0.22992141742E+03  0.25042665993E+03  0.00000000000E+00 0. -1.
</event>
<event>
 7    1  0.2619826E-009  0.8411718E+02  0.7561462E-02  0.1317757E+00
         -2   -1    0    0    0  501 -0.00000000000E+00  0.00000000000E+00  0.52674953592E+02  0.52674953592E+02  0.00000000000E+00 0.  1.
          2   -1    0    0  501    0  0.00000000000E+00 -0.00000000000E+00 -0.29633097960E+03  0.29633097960E+03  0.00000000000E+00 0. -1.
         25    2    1    2    0    0 -0.36169051790E+02  0.26709653614E+02 -0.19529966125E+03  0.23624428235E+03  0.12509115618E+03 0.  0.
          5    1    3    3  502    0 -0.66590893973E+01  0.34672613847E+02 -0.20163933655E+03  0.20474967171E+03  0.41800000000E+01 0.  1.
         -5    1    3    3    0  502 -0.29509962393E+02 -0.79629602327E+01  0.63396753011E+01  0.31494610634E+02  0.41800000000E+01 0.  1.
        -11    1    1    2    0    0  0.53413759468E+02  0.16010870569E+02 -0.25000869526E+02  0.61109910439E+02  0.00000000000E+00 0.  1.
         11    1    1    2    0    0 -0.17244707678E+02 -0.42720524183E+02 -0.23355495235E+02  0.51651740407E+02  0.00000000000E+00 0. -1.
</event>
<event>
 7    1  0.3114968E-009  0.9215699E+02  0.7561462E-02  0.1297711E+00
         -1   -1    0    0    0  501 -0.00000000000E+00  0.00000000000E+00  0.28099694638E+02  0.28099694638E+02  0.00000000000E+00 0.  1.
          1   -1    0    0  501    0  0.00000000000E+00 -0.00000000000E+00 -0.63023379572E+03  0.63023379572E+03  0.00000000000E+00 0. -1.
         25    2    1    2    0    0  0.21564955688E+02 -0.26947785705E+02 -0.50298674750E+03  0.51945503856E+03  0.12508652388E+03 0.  0.
          5    1    3    3  502    0 -0.32703560452E+02  0.13368063509E+02 -0.35412624618E+03  0.35590883470E+03  0.41800000000E+01 0.  1.
         -5    1    3    3    0  502  0.54268516140E+02 -0.40315849214E+02 -0.14886050132E+03  0.16354620385E+03  0.41800000000E+01 0.  1.
        -11    1    1    2    0    0  0.23768797202E+02  0.26594225959E+02 -0.72362448291E+01  0.36394667384E+02  0.00000000000E+00 0.  1.
         11    1    1    2    0    0 -0.45333752890E+02  0.35355974673E+00 -0.91911108754E+02  0.10248378441E+03  0.00000000000E+00 0. -1.
</event>
<event>
 7    1  0.2619826E-009  0.1767341E+03  0.7561462E-02  0.1171002E+00
          1   -1    0    0  501    0  0.00000000000E+00  0.00000000000E+00  0.36598554220E+03  0.36598554220E+03  0.00000000000E+00 0. -1.
         -1   -1    0    0    0  501 -0.00000000000E+00 -0.00000000000E+00 -0.10568305801E+03  0.10568305801E+03  0.00000000000E+00 0.  1.
         25    2    1    2    0    0  0.15048105147E+03 -0.57510188620E+02  0.98725433646E+02  0.22659860447E+03  0.12509295605E+03 0.  0.
          5    1    3    3  502    0  0.12232289430E+03  0.30040533077E+01  0.10241852745E+03  0.15962124536E+03  0.41800000000E+01 0. -1.
         -5    1    3    3    0  502  0.28158157169E+02 -0.60514241927E+02 -0.36930938058E+01  0.66977359108E+02  0.41800000000E+01 0. -1.
        -11    1    1    2    0    0 -0.43404735004E+02  0.32444456137E+02  0.11203929973E+03  0.12445649215E+03  0.00000000000E+00 0. -1.
         11    1    1    2    0    0 -0.10707631647E+03  0.25065732483E+02  0.49537750813E+02  0.12061350359E+03  0.00000000000E+00 0.  1.
</event>
<event>
 7    1  0.2619826E-009  0.1116249E+03  0.7561462E-02  0.1257590E+00
          2   -1    0    0  501    0  0.00000000000E+00  0.00000000000E+00  0.10663523763E+04  0.10663523763E+04  0.00000000000E+00 0.  1.
         -2   -1    0    0    0  501 -0.00000000000E+00 -0.00000000000E+00 -0.30687891405E+02  0.30687891405E+02  0.00000000000E+00 0. -1.
         25    2    1    2    0    0 -0.83617529764E+02  0.35567297428E+02  0.88800141403E+03  0.90136118721E+03  0.12509418276E+03 0.  0.
          5    1    3    3  502    0 -0.35492572777E+02  0.12954840487E+01  0.75407354402E+03  0.75492104435E+03  0.41800000000E+01 0. -1.
         -5    1    3    3    0  502 -0.48124956987E+02  0.34271813380E+02  0.13392787000E+03  0.14644014286E+03  0.41800000000E+01 0. -1.
        -11    1    1    2    0    0  0.86950161619E+02  0.54371583625E+01  0.10447483352E+03  0.13603265834E+03  0.00000000000E+00 0.  1.
         11    1    1    2    0    0 -0.33326318545E+01 -0.41004455791E+02  0.43188237318E+02  0.59646422126E+02  0.00000000000E+00 0. -1.
</event>
<event>
 7    1  0.2619826E-009  0.9721961E+02  0.7561462E-02  0.1286254E+00
          2   -1    0    0  501    0  0.00000000000E+00  0.00000000000E+00  0.20028471045E+04  0.20028471045E+04  0.00000000000E+00 0. -1.
         -2   -1    0    0    0  501 -0.00000000000E+00 -0.00000000000E+00 -0.12045506064E+02  0.12045506064E+02  0.00000000000E+00 0.  1.
         25    2    1    2    0    0  0.26611476816E+01 -0.34613121712E+02  0.17513987128E+04  0.17562032621E+04  0.12508915445E+03 0.  0.
          5    1    3    3  502    0  0.52711508176E+02 -0.11598852561E+02  0.39646855640E+03  0.40014725426E+03  0.41800000000E+01 0.  1.
         -5    1    3    3    0  502 -0.50050360495E+02 -0.23014269151E+02  0.13549301564E+04  0.13560560078E+04  0.41800000000E+01 0.  1.
        -11    1    1    2    0    0 -0.31325328719E+01 -0.25124553402E+02  0.23048065786E+02  0.34238418221E+02  0.00000000000E+00 0.  1.
         11    1    1    2    0    0  0.47138519029E+00  0.59737675114E+02  0.21635481977E+03  0.22445093021E+03  0.00000000000E+00 0. -1.
</event>
<event>
 7    1  0.2619826E-009  0.1739723E+03  0.7561462E-02  0.1173768E+00
         -1   -1    0    0    0  501 -0.00000000000E+00  0.00000000000E+00  0.10632967298E+04  0.10632967298E+04  0.00000000000E+00 0.  1.
          1   -1    0    0  501    0  0.00000000000E+00 -0.00000000000E+00 -0.33679265272E+02  0.33679265272E+02  0.00000000000E+00 0. -1.
         25    2    1    2    0    0  0.13808785997E+03  0.55836900364E+02  0.42352947329E+03  0.46605909263E+03  0.12509135286E+03 0.  0.
          5    1    3    3  502    0  0.87960591060E+02 -0.31125277313E+02  0.18510063763E+03  0.20732960937E+03  0.41800000000E+01 0. -1.
         -5    1    3    3    0  502  0.50127268907E+02  0.86962177677E+02  0.23842883566E+03  0.25872948326E+03  0.41800000000E+01 0. -1.
        -11    1    1    2    0    0 -0.51663760291E+02 -0.88993311791E+00  0.82043606279E+02  0.96959215342E+02  0.00000000000E+00 0. -1.
         11    1    1    2    0    0 -0.86424099677E+02 -0.54946967246E+02  0.52404438498E+03  0.53395768713E+03  0.00000000000E+00 0.  1.
</event>
<event>
 6    1  0.2619826E-009  0.8822254E+02  0.7561462E-02  0.1307214E+00
         -1   -1    0    0    0  501 -0.00000000000E+00  0.00000000000E+00  0.18948630989E+03  0.18948630989E+03  0.00000000000E+00 0.  1.
          1   -1    0    0  501    0  0.00000000000E+00 -0.00000000000E+00 -0.14890279710E+03  0.14890279710E+03  0.00000000000E+00 0. -1.
          5    1    1    2  502    0  0.13113618286E+02  0.61848115054E+02  0.49685371619E+02  0.80518723743E+02  0.41800000000E+01 0.  1.
         -5    1    1    2    0  502 -0.36778316401E+02 -0.47156249057E+02  0.94047996946E+02  0.11152961271E+03  0.41800000000E+01 0.  1.
        -11    1    1    2    0    0 -0.13698902318E+02 -0.37672587951E+01  0.15761447968E+02  0.21219693815E+02  0.00000000000E+00 0.  1.
         11    1    1    2    0    0  0.37363600433E+02 -0.10924607201E+02 -0.11891130374E+03  0.12512107671E+03  0.00000000000E+00 0. -1.
</event>
<event>
 6    1  0.2619826E-009  0.7885257E+02  0.7561462E-02  0.1332340E+00
         -2   -1    0    0    0  501 -0.00000000000E+00  0.00000000000E+00  0.19041558345E+02  0.19041558345E+02  0.00000000000E+00 0.  1.
          2   -1    0    0  501    0  0.00000000000E+00 -0.00000000000E+00 -0.65473220010E+03  0.65473220010E+03  0.00000000000E+00 0. -1.
          5    1    1    2  502    0 -0.97329648735E+01  0.39543412099E+02 -0.36656790779E+02  0.54950930437E+02  0.41800000000E+01 0.  1.
         -5    1    1    2    0  502  0.19156213832E+02 -0.16250776054E+02 -0.37810049199E+03  0.37895712514E+03  0.41800000000E+01 0.  1.
        -11    1    1    2    0    0  0.38128852441E+02 -0.21373201830E+02 -0.13125315785E+03  0.13834021320E+03  0.00000000000E+00 0. -1.
         11    1    1    2    0    0 -0.47552101400E+02 -0.19194342145E+01 -0.89680201147E+02  0.10152548967E+03  0.00000000000E+00 0.  1.
</event>
<event>
 7    1  0.2619826E-009  0.1000040E+03  0.7561462E-02  0.1280287E+00
         -2   -1    0    0    0  501 -0.00000000000E+00  0.00000000000E+00  0.25030804283E+02  0.25030804283E+02  0.00000000000E+00 0.  1.
          2   -1    0    0  501    0  0.00000000000E+00 -0.00000000000E+00 -0.61231111302E+03  0.61231111302E+03  0.00000000000E+00 0. -1.
         25    2    1    2    0    0 -0.40239090084E+02 -0.15726527247E+02 -0.43345307676E+03  0.45320566157E+03  0.12508914380E+03 0.  0.
          5    1    3    3  502    0 -0.27004320842E+01  0.35367998924E+02 -0.36021054181E+02  0.50726486432E+02  0.41800000000E+01 0. -1.
         -5    1    3    3    0  502 -0.37538658000E+02 -0.51094526171E+02 -0.39743202258E+03  0.40247917514E+03  0.41800000000E+01 0. -1.
        -11    1    1    2    0    0  0.24458593201E+02  0.54039327192E+02 -0.99045451280E+02  0.11544900642E+03  0.00000000000E+00 0. -1.
         11    1    1    2    0    0  0.15780496883E+02 -0.38312799945E+02 -0.54781780696E+02  0.68687249310E+02  0.00000000000E+00 0.  1.
</event>
<event>
 7    1  0.2619826E-009  0.9534142E+02  0.7561462E-02  0.1290409E+00
         -2   -1    0    0    0  501 -0.00000000000E+00  0.00000000000E+00  0.42932255256E+02  0.42932255256E+02  0.00000000000E+00 0.  1.
          2   -1    0    0  501    0  0.00000000000E+00 -0.00000000000E+00 -0.34348093242E+03  0.34348093242E+03  0.00000000000E+00 0. -1.
         25    2    1    2    0    0 -0.43477506680E+02  0.33796933000E+02 -0.18337172441E+03  0.22870337556E+03  0.12509004122E+03 0.  0.
          5    1    3    3  502    0 -0.65726287952E+02  0.51018279565E+02 -0.61482338230E+02  0.10353917178E+03  0.41800000000E+01 0.  1.
         -5    1    3    3    0  502  0.22248781272E+02 -0.17221346564E+02 -0.12188938618E+03  0.12516420379E+03  0.41800000000E+01 0.  1.
        -11    1    1    2    0    0  0.12248647360E+02 -0.44316098369E+02 -0.11595107130E+03  0.12473410469E+03  0.00000000000E+00 0. -1.
         11    1    1    2    0    0  0.31228859320E+02  0.10519165369E+02 -0.12258814451E+01  0.32975707419E+02  0.00000000000E+00 0.  1.
</event>
<event>
 7    1  0.2619826E-009  0.1001119E+03  0.7561462E-02  0.1280061E+00
         -1   -1    0    0    0  501 -0.00000000000E+00  0.00000000000E+00  0.63717989509E+02  0.63717989509E+02  0.00000000000E+00 0.  1.
          1   -1    0    0  501    0  0.00000000000E+00 -0.00000000000E+00 -0.29968001375E+03  0.29968001375E+03  0.00000000000E+00 0. -1.
         25    2    1    2    0    0 -0.27299793363E+02 -0.80592681940E+02 -0.11639153594E+03  0.19087970323E+03  0.12509041676E+03 0.  0.
          5    1    3    3  502    0 -0.52023642888E+02 -0.69767650793E+02 -0.18264483111E+02  0.89022740128E+02  0.41800000000E+01 0.  1.
         -5    1    3    3    0  502  0.24723849525E+02 -0.10825031147E+02 -0.98127052829E+02  0.10185696310E+03  0.41800000000E+01 0.  1.
        -11    1    1    2    0    0  0.13818911440E+02  0.24851681364E+02 -0.11093794154E+03  0.11452421252E+03  0.00000000000E+00 0. -1.
         11    1    1    2    0    0  0.13480881924E+02  0.55741000576E+02 -0.86325467582E+01  0.57994087511E+02  0.00000000000E+00 0.  1.
</event>
<event>
 7    1  0.2619826E-009  0.1807020E+03  0.7561462E-02  0.1167125E+00
         -1   -1    0    0    0  501 -0.00000000000E+00  0.00000000000E+00  0.17941059954E+03  0.17941059954E+03  0.00000000000E+00 0.  1.
          1   -1    0    0  501    0  0.00000000000E+00 -0.00000000000E+00 -0.21567895050E+03  0.21567895050E+03  0.00000000000E+00 0. -1.
         25    2    1    2    0    0  0.10631129683E+03 -0.11893515345E+03 -0.52977913294E+02  0.20952760198E+03  0.12508994418E+03 0.  0.
          5    1    3    3  502    0  0.11283829535E+03 -0.12954528089E+03 -0.18755031490E+02  0.17286898017E+03  0.41800000000E+01 0.  1.
         -5    1    3    3    0  502 -0.65269985243E+01  0.10610127438E+02 -0.34222881804E+02  0.36658621809E+02  0.41800000000E+01 0.  1.
        -11    1    1    2    0    0 -0.49217088436E+02  0.56292345669E+01  0.30122114467E+02  0.57977166677E+02  0.00000000000E+00 0.  1.
         11    1    1    2    0    0 -0.57094208391E+02  0.11330591888E+03 -0.13412552136E+02  0.12758478138E+03  0.00000000000E+00 0. -1.
</event>
<event>
 7    1  0.2619826E-009  0.1031677E+03  0.7561462E-02  0.1273772E+00
         -1   -1    0    0    0  501 -0.00000000000E+00  0.00000000000E+00  0.74342330436E+02  0.74342330436E+02  0.00000000000E+00 0.  1.
          1   -1    0    0  501    0  0.00000000000E+00 -0.00000000000E+00 -0.25560086815E+03  0.25560086815E+03  0.00000000000E+00 0. -1.
         25    2    1    2    0    0  0.72466055351E+02 -0.22205022177E+02 -0.42846572854E+02  0.15241500901E+03  0.12510041558E+03 0.  0.
          5    1    3    3  502    0  0.52471642182E+02  0.16636473137E+02  0.33341430600E+02  0.64491618573E+02  0.41800000000E+01 0. -1.
         -5    1    3    3    0  502  0.19994413169E+02 -0.38841495314E+02 -0.76188003454E+02  0.87923390440E+02  0.41800000000E+01 0. -1.
        -11    1    1    2    0    0 -0.22615647551E+02  0.46561546709E+02 -0.90330258870E+02  0.10411052211E+03  0.00000000000E+00 0. -1.
         11    1    1    2    0    0 -0.49850407800E+02 -0.24356524532E+02 -0.48081705994E+02  0.73417667468E+02  0.00000000000E+00 0.  1.
</event>
<event>
 7    1  0.2619826E-009  0.1593637E+03  0.7561462E-02  0.1189417E+00
         -1   -1    0    0    0  501 -0.00000000000E+00  0.00000000000E+00  0.51979622240E+02  0.51979622240E+02  0.00000000000E+00 0.  1.
          1   -1    0    0  501    0  0.00000000000E+00 -0.00000000000E+00 -0.94567613095E+03  0.94567613095E+03  0.00000000000E+00 0. -1.
         25    2    1    2    0    0 -0.98446187586E+02  0.88614658352E+02 -0.77586351643E+03  0.79696672528E+03  0.12509018968E+03 0.  0.
          5    1    3    3  502    0 -0.14831221275E+02 -0.31732886704E+02 -0.16957704803E+03  0.17320735793E+03  0.41800000000E+01 0.  1.
         -5    1    3    3    0  502 -0.83614966312E+02  0.12034754506E+03 -0.60628646840E+03  0.62375936735E+03  0.41800000000E+01 0.  1.
        -11    1    1    2    0    0  0.88881773323E+02 -0.61468861667E+02 -0.35941003389E+02  0.11388655016E+03  0.00000000000E+00 0.  1.
         11    1    1    2    0    0  0.95644142629E+01 -0.27145796685E+02 -0.81891988900E+02  0.86802477751E+02  0.00000000000E+00 0. -1.
</event>
<event>
 7    1  0.2619826E-009  0.2868163E+03  0.7561462E-02  0.1092023E+00
          2   -1    0    0  501    0  0.00000000000E+00  0.00000000000E+00  0.12797709576E+04  0.12797709576E+04  0.00000000000E+00 0.  1.
         -2   -1    0    0    0  501 -0.00000000000E+00 -0.00000000000E+00 -0.92760083079E+02  0.92760083079E+02  0.00000000000E+00 0. -1.
         25    2    1    2    0    0  0.71678229571E+02 -0.27605950240E+03  0.28443854470E+03  0.42178063847E+03  0.12508798430E+03 0.  0.
          5    1    3    3  502    0  0.64486701042E+00 -0.69043907259E+02  0.14924138358E+03  0.16449297844E+03  0.41800000000E+01 0.  1.
         -5    1    3    3    0  502  0.71033362560E+02 -0.20701559514E+03  0.13519716112E+03  0.25728766003E+03  0.41800000000E+01 0.  1.
        -11    1    1    2    0    0 -0.57243900749E+02  0.19529460797E+03  0.75452964878E+03  0.78149333903E+03  0.00000000000E+00 0.  1.
         11    1    1    2    0    0 -0.14434328822E+02  0.80764894436E+02  0.14804268100E+03  0.16925706313E+03  0.00000000000E+00 0. -1.
</event>
<event>
 7    1  0.2619826E-009  0.9976028E+02  0.7561462E-02  0.1280801E+00
         -2   -1    0    0    0  501 -0.00000000000E+00  0.00000000000E+00  0.95675558360E+02  0.95675558360E+02  0.00000000000E+00 0.  1.
          2   -1    0    0  501    0  0.00000000000E+00 -0.00000000000E+00 -0.41554664997E+03  0.41554664997E+03  0.00000000000E+00 0. -1.
         25    2    1    2    0    0  0.74214097612E+02  0.30243259190E+02 -0.35593735289E+03  0.38569595877E+03  0.12509031304E+03 0.  0.
          5    1    3    3  502    0  0.63314272820E+02  0.42008310901E+01 -0.56995720746E+02  0.85395132812E+02  0.41800000000E+01 0. -1.
         -5    1    3    3    0  502  0.10899824792E+02  0.26042428100E+02 -0.29894163214E+03  0.30030082595E+03  0.41800000000E+01 0. -1.
        -11    1    1    2    0    0  0.63604571577E+01  0.14065245732E+02  0.29553487397E+02  0.33342093067E+02  0.00000000000E+00 0. -1.
         11    1    1    2    0    0 -0.80574554770E+02 -0.44308504922E+02  0.65127738837E+01  0.92184156493E+02  0.00000000000E+00 0.  1.
</event>
<event>
 7    1  0.2619826E-009  0.1106732E+03  0.7561462E-02  0.1259328E+00
         -2   -1    0    0    0  501 -0.00000000000E+00  0.00000000000E+00  0.13757020264E+02  0.13757020264E+02  0.00000000000E+00 0.  1.
          2   -1    0    0  501    0  0.00000000000E+00 -0.00000000000E+00 -0.13164980639E+04  0.13164980639E+04  0.00000000000E+00 0. -1.
         25    2    1    2    0    0 -0.28693649754E+02 -0.55456832718E+02 -0.95081770469E+03  0.96103953764E+03  0.12507557521E+03 0.  0.
          5    1    3    3  502    0 -0.61600255395E+02 -0.63649611551E+02 -0.42709615307E+03  0.43620460897E+03  0.41800000000E+01 0. -1.
         -5    1    3    3    0  502  0.32906605641E+02  0.81927788333E+01 -0.52372155162E+03  0.52483492867E+03  0.41800000000E+01 0. -1.
        -11    1    1    2    0    0  0.39226875573E+01  0.69779337500E+02 -0.31413810362E+03  0.32181872470E+03  0.00000000000E+00 0. -1.
         11    1    1    2    0    0  0.24770962197E+02 -0.14322504782E+02 -0.37785235335E+02  0.47396821841E+02  0.00000000000E+00 0.  1.
</event>
<event>
 7    1  0.2619826E-009  0.1418930E+03  0.7561462E-02  0.1210804E+00
          2   -1    0    0  501    0  0.00000000000E+00  0.00000000000E+00  0.61486994271E+03  0.61486994271E+03  0.00000000000E+00 0. -1.
         -2   -1    0    0    0  501 -0.00000000000E+00 -0.00000000000E+00 -0.37109351950E+02  0.37109351950E+02  0.00000000000E+00 0.  1.
         25    2    1    2    0    0  0.21255430097E+02 -0.10015259701E+03  0.35956160713E+03  0.39422600848E+03  0.12508901010E+03 0.  0.
          5    1    3    3  502    0 -0.26997194273E+02 -0.10340375513E+03  0.29249517553E+03  0.31143552331E+03  0.41800000000E+01 0. -1.
         -5    1    3    3    0  502  0.48252624371E+02  0.32511581158E+01  0.67066431601E+02  0.82790485174E+02  0.41800000000E+01 0. -1.
        -11    1    1    2    0    0  0.13689386342E+02 -0.71489652720E+01  0.44962630520E+01  0.16084880612E+02  0.00000000000E+00 0.  1.
         11    1    1    2    0    0 -0.34944816439E+02  0.10730156228E+03  0.21370272058E+03  0.24166840556E+03  0.00000000000E+00 0. -1.
</event>
<event>
 7    1  0.2619826E-009  0.1090387E+03  0.7561462E-02  0.1262361E+00
          2   -1    0    0  501    0  0.00000000000E+00  0.00000000000E+00  0.29846314943E+02  0.29846314943E+02  0.00000000000E+00 0. -1.
         -2   -1    0    0    0  501 -0.00000000000E+00 -0.00000000000E+00 -0.72928085102E+03  0.72928085102E+03  0.00000000000E+00 0.  1.
         25    2    1    2    0    0  0.75410836577E+02 -0.46678108994E+02 -0.49514711714E+03  0.51834619932E+03  0.12508586892E+03 0.  0.
          5    1    3    3  502    0  0.48594168637E+01 -0.19866002805E+02 -0.38019525143E+03  0.38076787365E+03  0.41800000000E+01 0. -1.
         -5    1    3    3    0  502  0.70551419713E+02 -0.26812106188E+02 -0.11495186571E+03  0.13757832566E+03  0.41800000000E+01 0. -1.
        -11    1    1    2    0    0 -0.91580796521E+02  0.51068663973E+02 -0.19553790822E+03  0.22187862512E+03  0.00000000000E+00 0.  1.
         11    1    1    2    0    0  0.16169959944E+02 -0.43905549792E+01 -0.87495107222E+01  0.18902341534E+02  0.00000000000E+00 0. -1.
</event>
<event>
 7    1  0.2619826E-009  0.2640554E+03  0.7561462E-02  0.1104731E+00
          2   -1    0    0  501    0  0.00000000000E+00  0.00000000000E+00  0.17636517304E+04  0.17636517304E+04  0.00000000000E+00 0. -1.
         -2   -1    0    0    0  501 -0.00000000000E+00 -0.00000000000E+00 -0.41284717823E+02  0.41284717823E+02  0.00000000000E+00 0.  1.
         25    2    1    2    0    0 -0.11929620221E+03  0.21621087154E+03  0.91054962852E+03  0.95169455354E+03  0.12507266850E+03 0.  0.
          5    1    3    3  502    0 -0.10897600864E+03  0.78720579628E+02  0.36552542034E+03  0.38948556511E+03  0.41800000000E+01 0. -1.
         -5    1    3    3    0  502 -0.10320193564E+02  0.13749029191E+03  0.54502420818E+03  0.56220898843E+03  0.41800000000E+01 0. -1.
        -11    1    1    2    0    0  0.87334443606E+02 -0.20317965947E+03  0.75536112225E+03  0.78707032981E+03  0.00000000000E+00 0. -1.
         11    1    1    2    0    0  0.31961758601E+02 -0.13031212071E+02  0.56456261839E+02  0.66171564903E+02  0.00000000000E+00 0.  1.
</event>
<event>
 7    1  0.2619826E-009  0.1069373E+03  0.7561462E-02  0.1266349E+00
         -1   -1    0    0    0  501 -0.00000000000E+00  0.00000000000E+00  0.31359824937E+02  0.31359824937E+02  0.00000000000E+00 0.  1.
          1   -1    0    0  501    0  0.00000000000E+00 -0.00000000000E+00 -0.53466605916E+03  0.53466605916E+03  0.00000000000E+00 0. -1.
         25    2    1    2    0    0  0.76166681099E+01  0.24859337922E+02 -0.42270609347E+03  0.44159401550E+03  0.12509529467E+03 0.  0.
          5    1    3    3  502    0  0.38233749474E+02  0.65232061888E+02 -0.22250899533E+03  0.23504205347E+03  0.41800000000E+01 0. -1.
         -5    1    3    3    0  502 -0.30617081364E+02 -0.40372723965E+02 -0.20019709814E+03  0.20655196203E+03  0.41800000000E+01 0. -1.
        -11    1    1    2    0    0 -0.61007870161E+01  0.30915305857E+02 -0.73593210642E+01  0.32359470715E+02  0.00000000000E+00 0.  1.
         11    1    1    2    0    0 -0.15158810938E+01 -0.55774643779E+02 -0.73240819680E+02  0.92072397881E+02  0.00000000000E+00 0. -1.
</event>
<event>
 7    1  0.2619826E-009  0.7352509E+02  0.7561462E-02  0.1348500E+00
          1   -1    0    0  501    0  0.00000000000E+00  0.00000000000E+00  0.30747294221E+03  0.30747294221E+03  0.00000000000E+00 0. -1.
         -1   -1    0    0    0  501 -0.00000000000E+00 -0.00000000000E+00 -0.48252104552E+02  0.48252104552E+02  0.00000000000E+00 0.  1.
         25    2    1    2    0    0  0.28807489472E+01 -0.56094103927E+02  0.15716707990E+03  0.20857515986E+03  0.12508900469E+03 0.  0.
          5    1    3    3  502    0  0.25412106398E+02  0.42351548452E+01 -0.11096389614E+02  0.28360429309E+02  0.41800000000E+01 0. -1.
         -5    1    3    3    0  502 -0.22531357451E+02 -0.60329258772E+02  0.16826346952E+03  0.18021473055E+03  0.41800000000E+01 0. -1.
        -11    1    1    2    0    0  0.10508296086E+01  0.30801859749E+02 -0.98504594991E+01  0.32355685114E+02  0.00000000000E+00 0.  1.
         11    1    1    2    0    0 -0.39315785558E+01  0.25292244178E+02  0.11190421725E+03  0.11479420179E+03  0.00000000000E+00 0. -1.
</event>
<event>
 7    1  0.2619826E-009  0.1007680E+03  0.7561462E-02  0.1278689E+00
          2   -1    0    0  501    0  0.00000000000E+00  0.00000000000E+00  0.10133984189E+04  0.10133984189E+04  0.00000000000E+00 0. -1.
         -2   -1    0    0    0  501 -0.00000000000E+00 -0.00000000000E+00 -0.15395952374E+02  0.15395952374E+02  0.00000000000E+00 0.  1.
         25    2    1    2    0    0 -0.30909677316E+02 -0.26362875246E+02  0.75024505253E+03  0.76168454107E+03  0.12508114135E+03 0.  0.
          5    1    3    3  502    0 -0.26166619207E+01  0.48894248366E+02  0.34894531153E+03  0.35238870198E+03  0.41800000000E+01 0.  1.
         -5    1    3    3    0  502 -0.28293015395E+02 -0.75257123612E+02  0.40129974099E+03  0.40929583909E+03  0.41800000000E+01 0.  1.
        -11    1    1    2    0    0  0.28638272829E+02 -0.13708133324E+02  0.24049670888E+02  0.39830268134E+02  0.00000000000E+00 0.  1.
         11    1    1    2    0    0  0.22714044871E+01  0.40071008569E+02  0.22370774308E+03  0.22727956204E+03  0.00000000000E+00 0. -1.
</event>
<event>
 7    1  0.2619826E-009  0.1494973E+03  0.7561462E-02  0.1201092E+00
         -2   -1    0    0    0  501 -0.00000000000E+00  0.00000000000E+00  0.84331901868E+02  0.84331901868E+02  0.00000000000E+00 0.  1.
          2   -1    0    0  501    0  0.00000000000E+00 -0.00000000000E+00 -0.35877444987E+03  0.35877444987E+03  0.00000000000E+00 0. -1.
         25    2    1    2    0    0  0.10997962826E+03 -0.43732948970E+01 -0.43227360503E+02  0.17216819927E+03  0.12513448686E+03 0.  0.
          5    1    3    3  502    0  0.43455131499E+02  0.54944977374E+02  0.56969323126E+01  0.70407573670E+02  0.41800000000E+01 0. -1.
         -5    1    3    3    0  502  0.66524496763E+02 -0.59318272271E+02 -0.48924292816E+02  0.10176062560E+03  0.41800000000E+01 0. -1.
        -11    1    1    2    0    0  0.14768715433E+02  0.12463138349E+00 -0.13655910434E+02  0.20115028668E+02  0.00000000000E+00 0.  1.
         11    1    1    2    0    0 -0.12474834370E+03  0.42486635135E+01 -0.21755927706E+03  0.25082312380E+03  0.00000000000E+00 0. -1.
</event>
<event>
 7    1  0.2619826E-009  0.1312450E+03  0.7561462E-02  0.1225620E+00
          2   -1    0    0  501    0  0.00000000000E+00  0.00000000000E+00  0.94780576050E+02  0.94780576050E+02  0.00000000000E+00 0. -1.
         -2   -1    0    0    0  501 -0.00000000000E+00 -0.00000000000E+00 -0.19849360923E+03  0.19849360923E+03  0.00000000000E+00 0.  1.
         25    2    1    2    0    0 -0.43551653225E+02  0.68583933925E+02 -0.33809169646E+02  0.15294143685E+03  0.12509005022E+03 0.  0.
          5    1    3    3  502    0 -0.72402232398E+02  0.49125575680E+01  0.50326158224E+01  0.72862995409E+02  0.41800000000E+01 0.  1.
         -5    1    3    3    0  502  0.28850579173E+02  0.63671376357E+02 -0.38841785468E+02  0.80078441444E+02  0.41800000000E+01 0.  1.
        -11    1    1    2    0    0  0.66376711812E+01 -0.80661208259E+02 -0.35235785214E+02  0.88271454934E+02  0.00000000000E+00 0. -1.
         11    1    1    2    0    0  0.36913982044E+02  0.12077274333E+02 -0.34668078321E+02  0.52061293493E+02  0.00000000000E+00 0.  1.
</event>
<event>
 7    1  0.2619826E-009  0.1121499E+03  0.7561462E-02  0.1256640E+00
         -1   -1    0    0    0  501 -0.00000000000E+00  0.00000000000E+00  0.50071208737E+03  0.50071208737E+03  0.00000000000E+00 0.  1.
          1   -1    0    0  501    0  0.00000000000E+00 -0.00000000000E+00 -0.26202055194E+02  0.26202055194E+02  0.00000000000E+00 0. -1.
         25    2    1    2    0    0 -0.36417669035E+02  0.55023521600E+01  0.28423437207E+03  0.31271828223E+03  0.12508806209E+03 0.  0.
          5    1    3    3  502    0 -0.59872893687E+02  0.49611740730E+02  0.20094654214E+03  0.21550655075E+03  0.41800000000E+01 0. -1.
         -5    1    3    3    0  502  0.23455224652E+02 -0.44109388570E+02  0.83287829931E+02  0.97211731484E+02  0.41800000000E+01 0. -1.
        -11    1    1    2    0    0  0.11814284674E+02  0.41552633499E+02  0.10747398203E+03  0.11583115076E+03  0.00000000000E+00 0.  1.
         11    1    1    2    0    0  0.24603384361E+02 -0.47054985659E+02  0.82801678080E+02  0.98364709578E+02  0.00000000000E+00 0. -1.
</event>
<event>
 7    1  0.2619826E-009  0.1282996E+03  0.7561462E-02  0.1230001E+00
          1   -1    0    0  501    0  0.00000000000E+00  0.00000000000E+00  0.57167574441E+03  0.57167574441E+03  0.00000000000E+00 0. -1.
         -1   -1    0    0    0  501 -0.00000000000E+00 -0.00000000000E+00 -0.38182474314E+02  0.38182474314E+02  0.00000000000E+00 0.  1.
         25    2    1    2    0    0 -0.66730478208E+02  0.39499052268E+02  0.41237910776E+03  0.43785491844E+03  0.12508904522E+03 0.  0.
          5    1    3    3  502    0 -0.52926624924E+02 -0.39669276392E+02  0.20297495628E+03  0.21352092261E+03  0.41800000000E+01 0. -1.
         -5    1    3    3    0  502 -0.13803853285E+02  0.79168328660E+02  0.20940415148E+03  0.22433399583E+03  0.41800000000E+01 0. -1.
        -11    1    1    2    0    0 -0.15326473312E+02  0.54803196935E+01 -0.30151402302E+01  0.16553723410E+02  0.00000000000E+00 0.  1.
         11    1    1    2    0    0  0.82056951520E+02 -0.44979371962E+02  0.12412930257E+03  0.15544957687E+03  0.00000000000E+00 0. -1.
</event>
<event>
 7    1  0.2619826E-009  0.1019668E+03  0.7561462E-02  0.1276214E+00
         -1   -1    0    0    0  501 -0.00000000000E+00  0.00000000000E+00  0.35074644397E+02  0.35074644397E+02  0.00000000000E+00 0.  1.
          1   -1    0    0  501    0  0.00000000000E+00 -0.00000000000E+00 -0.47691055582E+03  0.47691055582E+03  0.00000000000E+00 0. -1.
         25    2    1    2    0    0  0.26880230608E+02  0.31545939125E+02 -0.13504756826E+03  0.18869071566E+03  0.12509455388E+03 0.  0.
          5    1    3    3  502    0  0.74544797893E+02  0.25660836498E+02 -0.10681347744E+03  0.13282317864E+03  0.41800000000E+01 0.  1.
         -5    1    3    3    0  502 -0.47664567286E+02  0.58851026269E+01 -0.28234090825E+02  0.55867537015E+02  0.41800000000E+01 0.  1.
        -11    1    1    2    0    0 -0.13749689402E+02  0.19617056905E+02 -0.18663510577E+02  0.30367902584E+02  0.00000000000E+00 0.  1.
         11    1    1    2    0    0 -0.13130541206E+02 -0.51162996031E+02 -0.28812483258E+03  0.29292658197E+03  0.00000000000E+00 0. -1.
</event>
<event>
 7    1  0.2619826E-009  0.1658867E+03  0.7561462E-02  0.1182207E+00
         -2   -1    0    0    0  501 -0.00000000000E+00  0.00000000000E+00  0.84367316696E+02  0.84367316696E+02  0.00000000000E+00 0.  1.
          2   -1    0    0  501    0  0.00000000000E+00 -0.00000000000E+00 -0.44802863400E+03  0.44802863400E+03  0.00000000000E+00 0. -1.
         25    2    1    2    0    0 -0.12318779390E+03 -0.55820696648E+02 -0.30985802598E+03  0.36048782930E+03  0.12509314957E+03 0.  0.
          5    1    3    3  502    0 -0.92606289916E+01  0.32429059735E+02 -0.10210591544E+03  0.10761270154E+03  0.41800000000E+01 0. -1.
         -5    1    3    3    0  502 -0.11392716491E+03 -0.88249756383E+02 -0.20775211054E+03  0.25287512776E+03  0.41800000000E+01 0. -1.
        -11    1    1    2    0    0  0.63645328909E+02  0.67683725494E+02 -0.60435207620E+02  0.11083424069E+03  0.00000000000E+00 0. -1.
         11    1    1    2    0    0  0.59542464995E+02 -0.11863028846E+02  0.66319162954E+01  0.61073880708E+02  0.00000000000E+00 0.  1.
</event>
<event>
 7    1  0.2619826E-009  0.6755030E+02  0.7561462E-02  0.1368627E+00
         -4   -1    0    0    0  501 -0.00000000000E+00  0.00000000000E+00  0.19271681915E+03  0.19271681915E+03  0.00000000000E+00 0. -1.
          4   -1    0    0  501    0  0.00000000000E+00 -0.00000000000E+00 -0.69225383259E+02  0.69225383259E+02  0.00000000000E+00 0.  1.
         25    2    1    2    0    0  0.30859992810E+02  0.12869722132E+02  0.92273693748E+02  0.15900359184E+03  0.12509891588E+03 0.  0.
          5    1    3    3  502    0  0.54178379946E+02  0.25446287881E+02 -0.29497915862E+01  0.60074820773E+02  0.41800000000E+01 0.  1.
         -5    1    3    3    0  502 -0.23318387136E+02 -0.12576565749E+02  0.95223485334E+02  0.98928771062E+02  0.41800000000E+01 0.  1.
        -11    1    1    2    0    0 -0.24677442516E+02 -0.24708336314E+02 -0.26410174319E+02  0.43783277174E+02  0.00000000000E+00 0.  1.
         11    1    1    2    0    0 -0.61825502943E+01  0.11838614183E+02  0.57627916463E+02  0.59155333401E+02  0.00000000000E+00 0. -1.
</event>
<event>
 7    1  0.2619826E-009  0.4839151E+02  0.7561462E-02  0.1454215E+00
         -2   -1    0    0    0  501 -0.00000000000E+00  0.00000000000E+00  0.47591113461E+02  0.47591113461E+02  0.00000000000E+00 0.  1.
          2   -1    0    0  501    0  0.00000000000E+00 -0.00000000000E+00 -0.28277759767E+03  0.28277759767E+03  0.00000000000E+00 0. -1.
         25    2    1    2    0    0  0.84273754661E+01  0.20064815328E+02 -0.18405851124E+03  0.22360482474E+03  0.12509182474E+03 0.  0.
          5    1    3    3  502    0  0.11814434575E+02  0.15855616316E+02  0.14534804234E+02  0.24894062891E+02  0.41800000000E+01 0.  1.
         -5    1    3    3    0  502 -0.33870591084E+01  0.42091990115E+01 -0.19859331547E+03  0.19871076185E+03  0.41800000000E+01 0.  1.
        -11    1    1    2    0    0 -0.24807916625E+02  0.16419148964E+02  0.11963660236E+02  0.32064783583E+02  0.00000000000E+00 0.  1.
         11    1    1    2    0    0  0.16380541159E+02 -0.36483964292E+02 -0.63091633207E+02  0.74699102805E+02  0.00000000000E+00 0. -1.
</event>
<event>
 7    1  0.2619826E-009  0.1550377E+03  0.7561462E-02  0.1194416E+00
         -2   -1    0    0    0  501 -0.00000000000E+00  0.00000000000E+00  0.94568582164E+02  0.94568582164E+02  0.00000000000E+00 0.  1.
          2   -1    0    0  501    0  0.00000000000E+00 -0.00000000000E+00 -0.31044671406E+03  0.31044671406E+03  0.00000000000E+00 0. -1.
         25    2    1    2    0    0 -0.96042956094E+02 -0.90648803991E+02 -0.95035757360E+02  0.20523690261E+03  0.12509570710E+03 0.  0.
          5    1    3    3  502    0 -0.94304190019E+02 -0.30952190690E+02 -0.10499829287E+03  0.14454560619E+03  0.41800000000E+01 0. -1.
         -5    1    3    3    0  502 -0.17387660747E+01 -0.59696613301E+02  0.99625355089E+01  0.60691296417E+02  0.41800000000E+01 0. -1.
        -11    1    1    2    0    0  0.10888672557E+02  0.59037396627E+02 -0.80423619139E+02  0.10035903500E+03  0.00000000000E+00 0. -1.
         11    1    1    2    0    0  0.85154283536E+02  0.31611407364E+02 -0.40418755400E+02  0.99419358619E+02  0.00000000000E+00 0.  1.
</event>
<event>
 7    1  0.2619826E-009  0.1223578E+03  0.7561462E-02  0.1239257E+00
         -2   -1    0    0    0  501 -0.00000000000E+00  0.00000000000E+00  0.68678312811E+02  0.68678312811E+02  0.00000000000E+00 0.  1.
          2   -1    0    0  501    0  0.00000000000E+00 -0.00000000000E+00 -0.42218574553E+03  0.42218574553E+03  0.00000000000E+00 0. -1.
         25    2    1    2    0    0  0.62696158003E+02 -0.62483409566E+02 -0.32577265958E+03  0.36001468781E+03  0.12509102688E+03 0.  0.
          5    1    3    3  502    0  0.11386387630E+02  0.20965000490E+02 -0.51870827812E+01  0.24770129119E+02  0.41800000000E+01 0.  1.
         -5    1    3    3    0  502  0.51309770374E+02 -0.83448410056E+02 -0.32058557680E+03  0.33524455869E+03  0.41800000000E+01 0.  1.
        -11    1    1    2    0    0  0.18896869382E+02  0.28190234407E+02  0.88603330138E+01  0.35075439976E+02  0.00000000000E+00 0.  1.
         11    1    1    2    0    0 -0.81593027385E+02  0.34293175159E+02 -0.36595106148E+02  0.95773930557E+02  0.00000000000E+00 0. -1.
</event>
<event>
 7    1  0.2619826E-009  0.9990592E+02  0.7561462E-02  0.1280494E+00
          2   -1    0    0  501    0  0.00000000000E+00  0.00000000000E+00  0.76505427609E+02  0.76505427609E+02  0.00000000000E+00 0. -1.
         -2   -1    0    0    0  501 -0.00000000000E+00 -0.00000000000E+00 -0.18951185250E+03  0.18951185250E+03  0.00000000000E+00 0.  1.
         25    2    1    2    0    0  0.20193266681E+02  0.45788861103E+02 -0.48779315304E+02  0.14329910719E+03  0.12510325615E+03 0.  0.
          5    1    3    3  502    0 -0.19001826224E+02  0.53181225035E+02 -0.76037805262E+02  0.94807870587E+02  0.41800000000E+01 0. -1.
         -5    1    3    3    0  502  0.39195092905E+02 -0.73923639317E+01  0.27258489959E+02  0.48491236602E+02  0.41800000000E+01 0. -1.
        -11    1    1    2    0    0  0.26431793609E+02  0.11830038341E+02 -0.27750642925E+02  0.40108449276E+02  0.00000000000E+00 0.  1.
         11    1    1    2    0    0 -0.46625060290E+02 -0.57618899444E+02 -0.36476466659E+02  0.82609723642E+02  0.00000000000E+00 0. -1.
</event>
<event>
 7    1  0.2897472E-009  0.2589796E+03  0.7561462E-02  0.1107758E+00
          2   -1    0    0  501    0  0.00000000000E+00  0.00000000000E+00  0.10864396491E+04  0.10864396491E+04  0.00000000000E+00 0. -1.
         -2   -1    0    0    0  501 -0.00000000000E+00 -0.00000000000E+00 -0.66455236060E+02  0.66455236060E+02  0.00000000000E+00 0.  1.
         25    2    1    2    0    0  0.22821557044E+03  0.88189145319E+02  0.48101580135E+03  0.55397117537E+03  0.12509272583E+03 0.  0.
          5    1    3    3  502    0  0.13257039771E+03  0.92007787827E+02  0.38885113381E+03  0.42102615125E+03  0.41800000000E+01 0.  1.
         -5    1    3    3    0  502  0.95645172725E+02 -0.38186425078E+01  0.92164667531E+02  0.13294502412E+03  0.41800000000E+01 0.  1.
        -11    1    1    2    0    0 -0.94799550708E+02 -0.84909633431E+02  0.28110031234E+03  0.30856763644E+03  0.00000000000E+00 0. -1.
         11    1    1    2    0    0 -0.13341601973E+03 -0.32795118881E+01  0.25786829938E+03  0.29035607337E+03  0.00000000000E+00 0.  1.
</event>
<event>
 7    1  0.2619826E-009  0.1228091E+03  0.7561462E-02  0.1238534E+00
         -2   -1    0    0    0  501 -0.00000000000E+00  0.00000000000E+00  0.21486423444E+03  0.21486423444E+03  0.00000000000E+00 0.  1.
          2   -1    0    0  501    0  0.00000000000E+00 -0.00000000000E+00 -0.10217848526E+03  0.10217848526E+03  0.00000000000E+00 0. -1.
         25    2    1    2    0    0 -0.49634414418E+02 -0.52989315149E+02  0.13542338129E+03  0.19813734471E+03  0.12508985791E+03 0.  0.
          5    1    3    3  502    0 -0.82354631286E+02 -0.24300991417E+01  0.93210196932E+02  0.12447410931E+03  0.41800000000E+01 0.  1.
         -5    1    3    3    0  502  0.32720216868E+02 -0.50559216008E+02  0.42213184361E+02  0.73663235396E+02  0.41800000000E+01 0.  1.
        -11    1    1    2    0    0  0.59206126826E+02  0.64652209128E+02  0.44859556196E+01  0.87780393008E+02  0.00000000000E+00 0.  1.
         11    1    1    2    0    0 -0.95717124080E+01 -0.11662893978E+02 -0.27223587733E+02  0.31124981983E+02  0.00000000000E+00 0. -1.
</event>
<event>
 7    1  0.2619826E-009  0.1368378E+03  0.7561462E-02  0.1217648E+00
         -1   -1    0    0    0  501 -0.00000000000E+00  0.00000000000E+00  0.13335685619E+02  0.13335685619E+02  0.00000000000E+00 0.  1.
          1   -1    0    0  501    0  0.00000000000E+00 -0.00000000000E+00 -0.18884726968E+04  0.18884726968E+04  0.00000000000E+00 0. -1.
         25    2    1    2    0    0  0.58557058986E+02  0.99100564059E+02 -0.10225238255E+04  0.10365569650E+04  0.12508204177E+03 0.  0.
          5    1    3    3  502    0  0.34362894894E+02  0.95709331758E+02 -0.99213661681E+03  0.99734328270E+03  0.41800000000E+01 0.  1.
         -5    1    3    3    0  502  0.24194164093E+02  0.33912323010E+01 -0.30387208651E+02  0.39213682335E+02  0.41800000000E+01 0.  1.
        -11    1    1    2    0    0 -0.69585101296E+01  0.17918888850E+02 -0.95985641368E+02  0.97891525627E+02  0.00000000000E+00 0. -1.
         11    1    1    2    0    0 -0.51598548857E+02 -0.11701945291E+03 -0.75662754431E+03  0.76735989171E+03  0.00000000000E+00 0.  1.
</event>
<event>
 7    1  0.3383434E-009  0.1095109E+03  0.7561462E-02  0.1261478E+00
          1   -1    0    0  501    0  0.00000000000E+00  0.00000000000E+00  0.89447122848E+03  0.89447122848E+03  0.00000000000E+00 0. -1.
         -1   -1    0    0    0  501 -0.00000000000E+00 -0.00000000000E+00 -0.21023021898E+02  0.21023021898E+02  0.00000000000E+00 0.  1.
         25    2    1    2    0    0 -0.74477684906E+02 -0.37455766358E+02  0.45541519391E+03  0.47958295103E+03  0.12508776154E+03 0.  0.
          5    1    3    3  502    0 -0.28034521007E+02 -0.39726026667E+02  0.41492344423E+03  0.41778347088E+03  0.41800000000E+01 0.  1.
         -5    1    3    3    0  502 -0.46443163899E+02  0.22702603087E+01  0.40491749681E+02  0.61799480152E+02  0.41800000000E+01 0.  1.
        -11    1    1    2    0    0  0.84460462968E+02 -0.32083844310E+00  0.28989884665E+03  0.30195200617E+03  0.00000000000E+00 0. -1.
         11    1    1    2    0    0 -0.99827780620E+01  0.37776604802E+02  0.12813416602E+03  0.13395929318E+03  0.00000000000E+00 0.  1.
</event>
<event>
 7    1  0.2619826E-009  0.1025584E+03  0.7561462E-02  0.1275006E+00
         -1   -1    0    0    0  501 -0.00000000000E+00  0.00000000000E+00  0.72238264802E+02  0.72238264802E+02  0.00000000000E+00 0. -1.
          1   -1    0    0  501    0  0.00000000000E+00 -0.00000000000E+00 -0.25324917029E+03  0.25324917029E+03  0.00000000000E+00 0.  1.
         25    2    1    2    0    0 -0.62644559410E+02  0.35975246297E+02 -0.57951483766E+02  0.15564201170E+03  0.12508997628E+03 0.  0.
          5    1    3    3  502    0  0.46113592698E+01  0.40543800525E+02 -0.75443319216E+02  0.85873343999E+02  0.41800000000E+01 0. -1.
         -5    1    3    3    0  502 -0.67255918680E+02 -0.45685542276E+01  0.17491835450E+02  0.69768667700E+02  0.41800000000E+01 0. -1.
        -11    1    1    2    0    0 -0.12375360371E+02  0.18973837499E+01 -0.68535465586E+02  0.69669646565E+02  0.00000000000E+00 0.  1.
         11    1    1    2    0    0  0.75019919782E+02 -0.37872630047E+02 -0.54523956139E+02  0.10017577683E+03  0.00000000000E+00 0. -1.
</event>
<event>
 7    1  0.2619826E-009  0.1012279E+03  0.7561462E-02  0.1277735E+00
         -2   -1    0    0    0  501 -0.00000000000E+00  0.00000000000E+00  0.69909712508E+03  0.69909712508E+03  0.00000000000E+00 0.  1.
          2   -1    0    0  501    0  0.00000000000E+00 -0.00000000000E+00 -0.26348810706E+02  0.26348810706E+02  0.00000000000E+00 0. -1.
         25    2    1    2    0    0  0.74067591246E+02 -0.11085376612E+02  0.45459313412E+03  0.47739991947E+03  0.12508745690E+03 0.  0.
          5    1    3    3  502    0  0.21133861694E+02  0.24145691504E+02  0.37039746392E+03  0.37180829497E+03  0.41800000000E+01 0.  1.
         -5    1    3    3    0  502  0.52933729552E+02 -0.35231068116E+02  0.84195670202E+02  0.10559162451E+03  0.41800000000E+01 0.  1.
        -11    1    1    2    0    0 -0.79012613689E+02 -0.14484555029E+02  0.20203059234E+03  0.21741470902E+03  0.00000000000E+00 0.  1.
         11    1    1    2    0    0  0.49450224427E+01  0.25569931641E+02  0.16124587904E+02  0.30631307288E+02  0.00000000000E+00 0. -1.
</event>
<event>
 7    1  0.2619826E-009  0.1028827E+03  0.7561462E-02  0.1274348E+00
         -2   -1    0    0    0  501 -0.00000000000E+00  0.00000000000E+00  0.65931624895E+02  0.65931624895E+02  0.00000000000E+00 0.  1.
          2   -1    0    0  501    0  0.00000000000E+00 -0.00000000000E+00 -0.25362274380E+03  0.25362274380E+03  0.00000000000E+00 0. -1.
         25    2    1    2    0    0 -0.42239371551E+02  0.18297182679E+02 -0.39522051004E+02  0.13903379851E+03  0.12509777460E+03 0.  0.
          5    1    3    3  502    0 -0.71401955866E+02  0.17385862562E+02  0.16769021399E+02  0.75492913556E+02  0.41800000000E+01 0. -1.
         -5    1    3    3    0  502  0.29162584316E+02  0.91132011707E+00 -0.56291072403E+02  0.63540884953E+02  0.41800000000E+01 0. -1.
        -11    1    1    2    0    0 -0.29268081695E+02 -0.19592161445E+01 -0.50089956093E+02  0.58047074305E+02  0.00000000000E+00 0.  1.
         11    1    1    2    0    0  0.71507453246E+02 -0.16337966535E+02 -0.98079111811E+02  0.12247349588E+03  0.00000000000E+00 0. -1.
</event>
<event>
 7    1  0.2619826E-009  0.2530126E+03  0.7561462E-02  0.1111416E+00
         -1   -1    0    0    0  501 -0.00000000000E+00  0.00000000000E+00  0.10694026338E+03  0.10694026338E+03  0.00000000000E+00 0.  1.
          1   -1    0    0  501    0  0.00000000000E+00 -0.00000000000E+00 -0.64730041961E+03  0.64730041961E+03  0.00000000000E+00 0. -1.
         25    2    1    2    0    0  0.23827932019E+03 -0.26256241664E+02 -0.26360059621E+03  0.37762408044E+03  0.12509295405E+03 0.  0.
          5    1    3    3  502    0  0.18350455816E+03  0.25902493363E+02 -0.22821789607E+03  0.29401656843E+03  0.41800000000E+01 0. -1.
         -5    1    3    3    0  502  0.54774762034E+02 -0.52158735027E+02 -0.35382700136E+02  0.83607512010E+02  0.41800000000E+01 0. -1.
        -11    1    1    2    0    0 -0.57439881954E+02 -0.15107139029E+02 -0.11939727122E+03  0.13335394281E+03  0.00000000000E+00 0.  1.
         11    1    1    2    0    0 -0.18083943824E+03  0.41363380694E+02 -0.15736228881E+03  0.24326265974E+03  0.00000000000E+00 0. -1.
</event>
<event>
 7    1  0.2619826E-009  0.9631907E+02  0.7561462E-02  0.1288233E+00
         -2   -1    0    0    0  501 -0.00000000000E+00  0.00000000000E+00  0.14660056755E+03  0.14660056755E+03  0.00000000000E+00 0.  1.
          2   -1    0    0  501    0  0.00000000000E+00 -0.00000000000E+00 -0.92626964669E+02  0.92626964669E+02  0.00000000000E+00 0. -1.
         25    2    1    2    0    0 -0.34051234747E+02 -0.38755836654E+01  0.38587556001E+02  0.13531960077E+03  0.12509151905E+03 0.  0.
          5    1    3    3  502    0 -0.50247405292E+01 -0.61913227168E+02  0.58890219958E+01  0.62535179666E+02  0.41800000000E+01 0. -1.
         -5    1    3    3    0  502 -0.29026494218E+02  0.58037643503E+02  0.32698534005E+02  0.72784421108E+02  0.41800000000E+01 0. -1.
        -11    1    1    2    0    0 -0.13618693591E+02 -0.85653038207E+01 -0.31832608848E+02  0.35667187032E+02  0.00000000000E+00 0. -1.
         11    1    1    2    0    0  0.47669928338E+02  0.12440887486E+02  0.47218655725E+02  0.68240744410E+02  0.00000000000E+00 0.  1.
</event>
<event>
 7    1  0.2619826E-009  0.9055621E+02  0.7561462E-02  0.1301510E+00
          2   -1    0    0  501    0  0.00000000000E+00  0.00000000000E+00  0.19646376013E+03  0.19646376013E+03  0.00000000000E+00 0.  1.
         -2   -1    0    0    0  501 -0.00000000000E+00 -0.00000000000E+00 -0.90459387010E+02  0.90459387010E+02  0.00000000000E+00 0. -1.
         25    2    1    2    0    0 -0.22080449373E+01  0.30527553357E+02  0.13656769851E+03  0.18770954873E+03  0.12508929383E+03 0.  0.
          5    1    3    3  502    0  0.21458980861E+02  0.74985058397E+02  0.87075969950E+02  0.11697411588E+03  0.41800000000E+01 0.  1.
         -5    1    3    3    0  502 -0.23667025798E+02 -0.44457505040E+02  0.49491728561E+02  0.70735432850E+02  0.41800000000E+01 0.  1.
        -11    1    1    2    0    0  0.99003483062E+01  0.82790895474E+01 -0.52440937658E+02  0.54005667877E+02  0.00000000000E+00 0. -1.
         11    1    1    2    0    0 -0.76923033689E+01 -0.38806642905E+02  0.21877612263E+02  0.45207930532E+02  0.00000000000E+00 0.  1.
</event>
<event>
 7    1  0.2619826E-009  0.1848059E+03  0.7561462E-02  0.1163231E+00
          1   -1    0    0  501    0  0.00000000000E+00  0.00000000000E+00  0.49774099059E+02  0.49774099059E+02  0.00000000000E+00 0. -1.
         -1   -1    0    0    0  501 -0.00000000000E+00 -0.00000000000E+00 -0.76506608046E+03  0.76506608046E+03  0.00000000000E+00 0.  1.
         25    2    1    2    0    0 -0.33542825097E+02 -0.15631093995E+03 -0.32190887800E+03  0.38056901754E+03  0.12509684374E+03 0.  0.
          5    1    3    3  502    0  0.31732023745E+02 -0.12173117220E+03 -0.23369136414E+03  0.26543271405E+03  0.41800000000E+01 0. -1.
         -5    1    3    3    0  502 -0.65274848843E+02 -0.34579767754E+02 -0.88217513857E+02  0.11513630349E+03  0.41800000000E+01 0. -1.
        -11    1    1    2    0    0 -0.11348677473E+02  0.83149371951E+02 -0.27845870515E+03  0.29082960820E+03  0.00000000000E+00 0.  1.
         11    1    1    2    0    0  0.44891502570E+02  0.73161568000E+02 -0.11492439826E+03  0.14344155378E+03  0.00000000000E+00 0. -1.
</event>
<event>
 7    1  0.2619826E-009  0.1598334E+03  0.7561462E-02  0.1188885E+00
          2   -1    0    0  501    0  0.00000000000E+00  0.00000000000E+00  0.48668327221E+03  0.48668327221E+03  0.00000000000E+00 0. -1.
         -2   -1    0    0    0  501 -0.00000000000E+00 -0.00000000000E+00 -0.78575326213E+02  0.78575326213E+02  0.00000000000E+00 0.  1.
         25    2    1    2    0    0 -0.86267932575E+02 -0.13159184328E+03  0.26953446718E+03  0.33623578553E+03  0.12508838902E+03 0.  0.
          5    1    3    3  502    0 -0.43777235797E+02 -0.68070793783E+02  0.24148607753E+03  0.25472156834E+03  0.41800000000E+01 0.  1.
         -5    1    3    3    0  502 -0.42490696778E+02 -0.63521049497E+02  0.28048389651E+02  0.81514217189E+02  0.41800000000E+01 0.  1.
        -11    1    1    2    0    0  0.19029028523E+02  0.63922667773E+02  0.77951388133E+01  0.67148905954E+02  0.00000000000E+00 0.  1.
         11    1    1    2    0    0  0.67238904052E+02  0.67669175507E+02  0.13077834001E+03  0.16187390694E+03  0.00000000000E+00 0. -1.
</event>
<event>
 7    1  0.2619826E-009  0.1117046E+03  0.7561462E-02  0.1257445E+00
          2   -1    0    0  501    0  0.00000000000E+00  0.00000000000E+00  0.99068979980E+03  0.99068979980E+03  0.00000000000E+00 0. -1.
         -2   -1    0    0    0  501 -0.00000000000E+00 -0.00000000000E+00 -0.12822547667E+02  0.12822547667E+02  0.00000000000E+00 0.  1.
         25    2    1    2    0    0  0.27508223586E+02  0.13615863653E+02  0.58637755385E+03  0.60035690479E+03  0.12509070054E+03 0.  0.
          5    1    3    3  502    0  0.72391184870E+02  0.31695417171E+02  0.40016093104E+03  0.40791092931E+03  0.41800000000E+01 0.  1.
         -5    1    3    3    0  502 -0.44882961284E+02 -0.18079553518E+02  0.18621662281E+03  0.19244597549E+03  0.41800000000E+01 0.  1.
        -11    1    1    2    0    0 -0.14064117418E+01 -0.50499957166E+02  0.22851300267E+03  0.23403080152E+03  0.00000000000E+00 0. -1.
         11    1    1    2    0    0 -0.26101811844E+02  0.36884093513E+02  0.16297669561E+03  0.16912464116E+03  0.00000000000E+00 0.  1.
</event>
<event>
 7    1  0.2619826E-009  0.1072913E+03  0.7561462E-02  0.1265670E+00
          1   -1    0    0  501    0  0.00000000000E+00  0.00000000000E+00  0.84541747584E+02  0.84541747584E+02  0.00000000000E+00 0. -1.
         -1   -1    0    0    0  501 -0.00000000000E+00 -0.00000000000E+00 -0.18475610013E+03  0.18475610013E+03  0.00000000000E+00 0.  1.
         25    2    1    2    0    0  0.34441446837E+02  0.91366097530E+01 -0.11200113905E+03  0.17164430884E+03  0.12509125754E+03 0.  0.
          5    1    3    3  502    0 -0.23394179155E+02 -0.38195880003E+02 -0.76623996828E+02  0.88853374486E+02  0.41800000000E+01 0. -1.
         -5    1    3    3    0  502  0.57835625992E+02  0.47332489756E+02 -0.35377142219E+02  0.82790934358E+02  0.41800000000E+01 0. -1.
        -11    1    1    2    0    0 -0.60685951459E+02  0.10988512797E+02 -0.22772632027E+01  0.61714812207E+02  0.00000000000E+00 0.  1.
         11    1    1    2    0    0  0.26244504623E+02 -0.20125122550E+02  0.14064049700E+02  0.35938726668E+02  0.00000000000E+00 0. -1.
</event>
<event>
 7    1  0.2619826E-009  0.8859146E+02  0.7561462E-02  0.1306299E+00
          1   -1    0    0  501    0  0.00000000000E+00  0.00000000000E+00  0.41832515618E+02  0.41832515618E+02  0.00000000000E+00 0. -1.
         -1   -1    0    0    0  501 -0.00000000000E+00 -0.00000000000E+00 -0.37408689235E+03  0.37408689235E+03  0.00000000000E+00 0.  1.
         25    2    1    2    0    0  0.23220374761E+02 -0.76620662521E+01 -0.26024524885E+03  0.28978073923E+03  0.12508954480E+03 0.  0.
          5    1    3    3  502    0  0.34710831966E+02  0.28043790974E+02 -0.24588798473E+02  0.51121203803E+02  0.41800000000E+01 0. -1.
         -5    1    3    3    0  502 -0.11490457205E+02 -0.35705857226E+02 -0.23565645038E+03  0.23865953543E+03  0.41800000000E+01 0. -1.
        -11    1    1    2    0    0 -0.55658685219E+02 -0.11657785473E+02 -0.67271801626E+02  0.88086823625E+02  0.00000000000E+00 0. -1.
         11    1    1    2    0    0  0.32438310458E+02  0.19319851726E+02 -0.47373262525E+01  0.38051845107E+02  0.00000000000E+00 0.  1.
</event>
<event>
 7    1  0.2711197E-009  0.1042748E+03  0.7561462E-02  0.1271555E+00
         -3   -1    0    0    0  501 -0.00000000000E+00  0.00000000000E+00  0.45486443167E+02  0.45486443167E+02  0.00000000000E+00 0.  1.
          3   -1    0    0  501    0  0.00000000000E+00 -0.00000000000E+00 -0.38485585189E+03  0.38485585189E+03  0.00000000000E+00 0. -1.
         25    2    1    2    0    0 -0.64627677654E+02  0.37416949626E+02 -0.18078312667E+03  0.23217650962E+03  0.12508648165E+03 0.  0.
          5    1    3    3  502    0 -0.57665826948E+02  0.59014642952E+02 -0.19011251690E+03  0.20728800536E+03  0.41800000000E+01 0. -1.
         -5    1    3    3    0  502 -0.69618507066E+01 -0.21597693326E+02  0.93293902351E+01  0.24888504263E+02  0.41800000000E+01 0. -1.
        -11    1    1    2    0    0  0.77340722705E+02 -0.17605347535E+02 -0.67705901768E+02  0.10428626364E+03  0.00000000000E+00 0.  1.
         11    1    1    2    0    0 -0.12713045051E+02 -0.19811602091E+02 -0.90880380288E+02  0.93879521799E+02  0.00000000000E+00 0. -1.
</event>
<event>
 7    1  0.2619826E-009  0.1726229E+03  0.7561462E-02  0.1175140E+00
         -1   -1    0    0    0  501 -0.00000000000E+00  0.00000000000E+00  0.62951956378E+02  0.62951956378E+02  0.00000000000E+00 0.  1.
          1   -1    0    0  501    0  0.00000000000E+00 -0.00000000000E+00 -0.57144528593E+03  0.57144528593E+03  0.00000000000E+00 0. -1.
         25    2    1    2    0    0 -0.12291556275E+03  0.65843240144E+02 -0.14713585235E+03  0.23820191452E+03  0.12509046804E+03 0.  0.
          5    1    3    3  502    0 -0.14236701493E+03  0.29038016544E+02 -0.11050229337E+03  0.18259190175E+03  0.41800000000E+01 0.  1.
         -5    1    3    3    0  502  0.19451452184E+02  0.36805223600E+02 -0.36633558979E+02  0.55610012766E+02  0.41800000000E+01 0.  1.
        -11    1    1    2    0    0  0.32834813180E+02 -0.59234240979E+02 -0.11085229906E+03  0.12990401251E+03  0.00000000000E+00 0.  1.
         11    1    1    2    0    0  0.90080749569E+02 -0.66089991650E+01 -0.25050517815E+03  0.26629131528E+03  0.00000000000E+00 0. -1.
</event>
<event>
 7    1  0.2619826E-009  0.1147984E+03  0.7561462E-02  0.1251933E+00
          2   -1    0    0  501    0  0.00000000000E+00  0.00000000000E+00  0.22191603260E+03  0.22191603260E+03  0.00000000000E+00 0. -1.
         -2   -1    0    0    0  501 -0.00000000000E+00 -0.00000000000E+00 -0.64096758082E+02  0.64096758082E+02  0.00000000000E+00 0.  1.
         25    2    1    2    0    0  0.48586373742E+02  0.74811939903E+01  0.86965580313E+02  0.16008269461E+03  0.12508738136E+03 0.  0.
          5    1    3    3  502    0  0.22859215321E+02  0.63997317703E+02  0.64865806205E+02  0.94038532597E+02  0.41800000000E+01 0. -1.
         -5    1    3    3    0  502  0.25727158422E+02 -0.56516123713E+02  0.22099774107E+02  0.66044162010E+02  0.41800000000E+01 0. -1.
        -11    1    1    2    0    0  0.12362842103E+02 -0.31441263187E+02  0.43198490222E+02  0.54840700699E+02  0.00000000000E+00 0. -1.
         11    1    1    2    0    0 -0.60949215846E+02  0.23960069197E+02  0.27655203988E+02  0.71089395382E+02  0.00000000000E+00 0.  1.
</event>
<event>
 7    1  0.2619826E-009  0.1041871E+03  0.7561462E-02  0.1271730E+00
          2   -1    0    0  501    0  0.00000000000E+00  0.00000000000E+00  0.47393939785E+03  0.47393939785E+03  0.00000000000E+00 0. -1.
         -2   -1    0    0    0  501 -0.00000000000E+00 -0.00000000000E+00 -0.27049821045E+02  0.27049821045E+02  0.00000000000E+00 0.  1.
         25    2    1    2    0    0 -0.26192454700E+02 -0.14250579300E+02  0.27538935579E+03  0.30393317461E+03  0.12508778377E+03 0.  0.
          5    1    3    3  502    0  0.24387516179E+02 -0.47137461666E+02  0.20168718519E+03  0.20859502464E+03  0.41800000000E+01 0.  1.
         -5    1    3    3    0  502 -0.50579970879E+02  0.32886882366E+02  0.73702170608E+02  0.95338149962E+02  0.41800000000E+01 0.  1.
        -11    1    1    2    0    0 -0.43433742763E+01 -0.35783017188E+02  0.45168062284E+02  0.57787914564E+02  0.00000000000E+00 0.  1.
         11    1    1    2    0    0  0.30535828976E+02  0.50033596489E+02  0.12633215873E+03  0.13926812973E+03  0.00000000000E+00 0. -1.
</event>
<event>
 7    1  0.2619826E-009  0.1114657E+03  0.7561462E-02  0.1257880E+00
         -3   -1    0    0    0  501 -0.00000000000E+00  0.00000000000E+00  0.13861528252E+03  0.13861528252E+03  0.00000000000E+00 0.  1.
          3   -1    0    0  501    0  0.00000000000E+00 -0.00000000000E+00 -0.10969118397E+03  0.10969118397E+03  0.00000000000E+00 0. -1.
         25    2    1    2    0    0 -0.67212960610E+01  0.34583794408E+02  0.57108780287E+02  0.14196128339E+03  0.12510147297E+03 0.  0.
          5    1    3    3  502    0  0.47423439660E+02 -0.13073403903E+02  0.48485021090E+02  0.69196576425E+02  0.41800000000E+01 0. -1.
         -5    1    3    3    0  502 -0.54144735721E+02  0.47657198311E+02  0.86237591972E+01  0.72764706966E+02  0.41800000000E+01 0. -1.
        -11    1    1    2    0    0  0.35367922514E+02  0.19295000983E+02 -0.19327176019E+02  0.44684748390E+02  0.00000000000E+00 0.  1.
         11    1    1    2    0    0 -0.28646626452E+02 -0.53878795390E+02 -0.88575057199E+01  0.61660434700E+02  0.00000000000E+00 0. -1.
</event>
<event>
 7    1  0.2619826E-009  0.1066511E+03  0.7561462E-02  0.1266900E+00
          2   -1    0    0  501    0  0.00000000000E+00  0.00000000000E+00  0.24197037803E+03  0.24197037803E+03  0.00000000000E+00 0. -1.
         -2   -1    0    0    0  501 -0.00000000000E+00 -0.00000000000E+00 -0.51255491255E+02  0.51255491255E+02  0.00000000000E+00 0.  1.
         25    2    1    2    0    0  0.17896221098E+02  0.30313542760E+01  0.87596779243E+02  0.15378154170E+03  0.12508438350E+03 0.  0.
          5    1    3    3  502    0 -0.46103020486E+02  0.23756750293E+02  0.13787395551E+02  0.53827839995E+02  0.41800000000E+01 0.  1.
         -5    1    3    3    0  502  0.63999241584E+02 -0.20725396017E+02  0.73809383692E+02  0.99953701705E+02  0.41800000000E+01 0.  1.
        -11    1    1    2    0    0  0.37359283623E+02  0.61306228612E+01  0.41524688676E+02  0.56192529567E+02  0.00000000000E+00 0.  1.
         11    1    1    2    0    0 -0.55255504721E+02 -0.91619771372E+01  0.61593418861E+02  0.83251798023E+02  0.00000000000E+00 0. -1.
</event>
<event>
 7    1  0.2619826E-009  0.1923826E+03  0.7561462E-02  0.1156330E+00
         -1   -1    0    0    0  501 -0.00000000000E+00  0.00000000000E+00  0.10952824878E+03  0.10952824878E+03  0.00000000000E+00 0.  1.
          1   -1    0    0  501    0  0.00000000000E+00 -0.00000000000E+00 -0.40720283622E+03  0.40720283622E+03  0.00000000000E+00 0. -1.
         25    2    1    2    0    0 -0.14902753017E+03  0.94250488782E+02 -0.19069397824E+03  0.28828257816E+03  0.12510112769E+03 0.  0.
          5    1    3    3  502    0 -0.11330226722E+03  0.11408293432E+03 -0.18757305155E+03  0.24708994663E+03  0.41800000000E+01 0.  1.
         -5    1    3    3    0  502 -0.35725262957E+02 -0.19832445535E+02 -0.31209266925E+01  0.41192631534E+02  0.41800000000E+01 0.  1.
        -11    1    1    2    0    0  0.31402158918E+02  0.11157265970E+01  0.14219838649E+02  0.34489770103E+02  0.00000000000E+00 0.  1.
         11    1    1    2    0    0  0.11762537125E+03 -0.95366215379E+02 -0.12120044785E+03  0.19395873674E+03  0.00000000000E+00 0. -1.
</event>
<event>
 7    1  0.2619826E-009  0.1352231E+03  0.7561462E-02  0.1219905E+00
          2   -1    0    0  501    0  0.00000000000E+00  0.00000000000E+00  0.42174141452E+03  0.42174141452E+03  0.00000000000E+00 0. -1.
         -2   -1    0    0    0  501 -0.00000000000E+00 -0.00000000000E+00 -0.51399419150E+02  0.51399419150E+02  0.00000000000E+00 0.  1.
         25    2    1    2    0    0  0.60528137885E+00  0.86735707581E+02  0.12301722756E+03  0.19571652827E+03  0.12509305268E+03 0.  0.
          5    1    3    3  502    0  0.59019339787E+02  0.43799636765E+02  0.34713178948E+02  0.81388990916E+02  0.41800000000E+01 0.  1.
         -5    1    3    3    0  502 -0.58414058409E+02  0.42936070816E+02  0.88304048611E+02  0.11432753736E+03  0.41800000000E+01 0.  1.
        -11    1    1    2    0    0  0.41567594377E+02 -0.63970684652E+02  0.13069281136E+03  0.15132985276E+03  0.00000000000E+00 0.  1.
         11    1    1    2    0    0 -0.42172875756E+02 -0.22765022929E+02  0.11663195646E+03  0.12609445264E+03  0.00000000000E+00 0. -1.
</event>
<event>
 7    1  0.2619826E-009  0.8160192E+02  0.7561462E-02  0.1324566E+00
         -3   -1    0    0    0  501 -0.00000000000E+00  0.00000000000E+00  0.32584607125E+03  0.32584607125E+03  0.00000000000E+00 0.  1.
          3   -1    0    0  501    0  0.00000000000E+00 -0.00000000000E+00 -0.58314036978E+02  0.58314036978E+02  0.00000000000E+00 0. -1.
         25    2    1    2    0    0 -0.51454272331E+02 -0.10528715427E+02  0.56035511880E+02  0.14678473560E+03  0.12508950405E+03 0.  0.
          5    1    3    3  502    0 -0.43028476400E+02 -0.29193538814E+01 -0.34535728293E+02  0.55409036602E+02  0.41800000000E+01 0. -1.
         -5    1    3    3    0  502 -0.84257959316E+01 -0.76093615453E+01  0.90571240173E+02  0.91375698995E+02  0.41800000000E+01 0. -1.
        -11    1    1    2    0    0  0.34962603997E+02 -0.40877125066E+02  0.10641529935E+03  0.11923732204E+03  0.00000000000E+00 0. -1.
         11    1    1    2    0    0  0.16491668334E+02  0.51405840493E+02  0.10508122305E+03  0.11813805060E+03  0.00000000000E+00 0.  1.
</event>
<event>
 7    1  0.2619826E-009  0.1797449E+03  0.7561462E-02  0.1168050E+00
         -2   -1    0    0    0  501 -0.00000000000E+00  0.00000000000E+00  0.38963508126E+02  0.38963508126E+02  0.00000000000E+00 0.  1.
          2   -1    0    0  501    0  0.00000000000E+00 -0.00000000000E+00 -0.10880690859E+04  0.10880690859E+04  0.00000000000E+00 0. -1.
         25    2    1    2    0    0 -0.29549031510E+02  0.16883376764E+03 -0.64900267549E+03  0.68280978142E+03  0.12508692356E+03 0.  0.
          5    1    3    3  502    0 -0.22559362461E+02  0.92797836580E+02 -0.14923619839E+03  0.17722663067E+03  0.41800000000E+01 0.  1.
         -5    1    3    3    0  502 -0.69896690488E+01  0.76035931063E+02 -0.49976647710E+03  0.50558315075E+03  0.41800000000E+01 0.  1.
        -11    1    1    2    0    0  0.22670798992E+02 -0.47046371773E+01 -0.94180338717E+02  0.96984714975E+02  0.00000000000E+00 0. -1.
         11    1    1    2    0    0  0.68782325172E+01 -0.16412913047E+03 -0.30592256357E+03  0.34723809764E+03  0.00000000000E+00 0.  1.
</event>
<event>
 7    1  0.2619826E-009  0.9386303E+02  0.7561462E-02  0.1293758E+00
         -2   -1    0    0    0  501 -0.00000000000E+00  0.00000000000E+00  0.74441123317E+02  0.74441123317E+02  0.00000000000E+00 0.  1.
          2   -1    0    0  501    0  0.00000000000E+00 -0.00000000000E+00 -0.20486438902E+03  0.20486438902E+03  0.00000000000E+00 0. -1.
         25    2    1    2    0    0 -0.45084678242E+01  0.56465161309E+02 -0.63829992229E+02  0.15142792280E+03  0.12508999629E+03 0.  0.
          5    1    3    3  502    0 -0.45090887614E+02 -0.15765091994E+02 -0.20478773300E+01  0.47993671176E+02  0.41800000000E+01 0. -1.
         -5    1    3    3    0  502  0.40582419790E+02  0.72230253302E+02 -0.61782114899E+02  0.10343425163E+03  0.41800000000E+01 0. -1.
        -11    1    1    2    0    0  0.41788501347E+01 -0.24505600756E+02  0.22310785074E+02  0.33402969741E+02  0.00000000000E+00 0.  1.
         11    1    1    2    0    0  0.32961768956E+00 -0.31959560552E+02 -0.88904058549E+02  0.94474619793E+02  0.00000000000E+00 0. -1.
</event>
<event>
 7    1  0.2619826E-009  0.1019139E+03  0.7561462E-02  0.1276322E+00
         -2   -1    0    0    0  501 -0.00000000000E+00  0.00000000000E+00  0.92341660025E+02  0.92341660025E+02  0.00000000000E+00 0. -1.
          2   -1    0    0  501    0  0.00000000000E+00 -0.00000000000E+00 -0.25667404392E+03  0.25667404392E+03  0.00000000000E+00 0.  1.
         25    2    1    2    0    0  0.16645285560E+02  0.53287546277E+01 -0.21019882164E+03  0.24522705587E+03  0.12508918082E+03 0.  0.
          5    1    3    3  502    0  0.32491011622E+02  0.54383686924E+02 -0.16406806200E+03  0.17592342825E+03  0.41800000000E+01 0. -1.
         -5    1    3    3    0  502 -0.15845726061E+02 -0.49054932296E+02 -0.46130759637E+02  0.69303627623E+02  0.41800000000E+01 0. -1.
        -11    1    1    2    0    0  0.31766984560E+02 -0.20593478792E+02  0.35665304081E+02  0.52011985080E+02  0.00000000000E+00 0.  1.
         11    1    1    2    0    0 -0.48412270121E+02  0.15264724165E+02  0.10201133663E+02  0.51776662987E+02  0.00000000000E+00 0. -1.
</event>
<event>
 7    1  0.2619826E-009  0.1248586E+03  0.7561462E-02  0.1235290E+00
          1   -1    0    0  501    0  0.00000000000E+00  0.00000000000E+00  0.41055186829E+02  0.41055186829E+02  0.00000000000E+00 0. -1.
         -1   -1    0    0    0  501 -0.00000000000E+00 -0.00000000000E+00 -0.80731140345E+03  0.80731140345E+03  0.00000000000E+00 0.  1.
         25    2    1    2    0    0 -0.24984451168E+02  0.92627762934E+02 -0.65867642676E+03  0.67727883338E+03  0.12509139744E+03 0.  0.
          5    1    3    3  502    0 -0.33521612452E+02  0.10604799761E+03 -0.33141436560E+03  0.34960381924E+03  0.41800000000E+01 0. -1.
         -5    1    3    3    0  502  0.85371612842E+01 -0.13420234678E+02 -0.32726206115E+03  0.32767501414E+03  0.41800000000E+01 0. -1.
        -11    1    1    2    0    0 -0.23485913037E+02 -0.57501912159E+02 -0.20481886366E+02  0.65403101473E+02  0.00000000000E+00 0. -1.
         11    1    1    2    0    0  0.48470364205E+02 -0.35125850775E+02 -0.87097903496E+02  0.10568465542E+03  0.00000000000E+00 0.  1.
</event>
<event>
 7    1  0.2619826E-009  0.1055220E+03  0.7561462E-02  0.1269095E+00
          2   -1    0    0  501    0  0.00000000000E+00  0.00000000000E+00  0.25353616583E+03  0.25353616583E+03  0.00000000000E+00 0. -1.
         -2   -1    0    0    0  501 -0.00000000000E+00 -0.00000000000E+00 -0.49268983755E+02  0.49268983755E+02  0.00000000000E+00 0.  1.
         25    2    1    2    0    0 -0.17476498739E+02 -0.15522850917E+02  0.89935228268E+02  0.15582596201E+03  0.12508796203E+03 0.  0.
          5    1    3    3  502    0 -0.67565790748E+02 -0.36289567173E+01  0.76978475202E+02  0.10257418511E+03  0.41800000000E+01 0. -1.
         -5    1    3    3    0  502  0.50089292009E+02 -0.11893894199E+02  0.12956753066E+02  0.53251776902E+02  0.41800000000E+01 0. -1.
        -11    1    1    2    0    0  0.27527056286E+02  0.49242785725E+02  0.61018850934E+02  0.83101690374E+02  0.00000000000E+00 0.  1.
         11    1    1    2    0    0 -0.10050557547E+02 -0.33719934808E+02  0.53313102869E+02  0.63877497196E+02  0.00000000000E+00 0. -1.
</event>
<event>
 7    1  0.2619826E-009  0.1277988E+03  0.7561462E-02  0.1230759E+00
          2   -1    0    0  501    0  0.00000000000E+00  0.00000000000E+00  0.42139245956E+03  0.42139245956E+03  0.00000000000E+00 0. -1.
         -2   -1    0    0    0  501 -0.00000000000E+00 -0.00000000000E+00 -0.86888937931E+02  0.86888937931E+02  0.00000000000E+00 0.  1.
         25    2    1    2    0    0 -0.26896591025E+02 -0.72743934195E+02 -0.58890094938E+01  0.14728490045E+03  0.12507219873E+03 0.  0.
          5    1    3    3  502    0 -0.29965093481E+02 -0.10736403578E+03 -0.10215041757E+02  0.11201233184E+03  0.41800000000E+01 0. -1.
         -5    1    3    3    0  502  0.30685024560E+01  0.34620101584E+02  0.43260322636E+01  0.35272568607E+02  0.41800000000E+01 0. -1.
        -11    1    1    2    0    0  0.93248530492E+01 -0.16032478881E+02  0.16928486660E+02  0.25111091654E+02  0.00000000000E+00 0.  1.
         11    1    1    2    0    0  0.17571737976E+02  0.88776413077E+02  0.32346404446E+03  0.33588540539E+03  0.00000000000E+00 0. -1.
</event>
<event>
 7    1  0.2619826E-009  0.1091610E+03  0.7561462E-02  0.1262132E+00
          2   -1    0    0  501    0  0.00000000000E+00  0.00000000000E+00  0.13010003063E+04  0.13010003063E+04  0.00000000000E+00 0. -1.
         -2   -1    0    0    0  501 -0.00000000000E+00 -0.00000000000E+00 -0.16567951505E+02  0.16567951505E+02  0.00000000000E+00 0.  1.
         25    2    1    2    0    0  0.42966613400E+02 -0.32847024417E+02  0.10109502623E+04  0.10200964501E+04  0.12510506726E+03 0.  0.
          5    1    3    3  502    0  0.17477395923E+01  0.46327243042E+02  0.38365611180E+03  0.38646960109E+03  0.41800000000E+01 0. -1.
         -5    1    3    3    0  502  0.41218873807E+02 -0.79174267460E+02  0.62729415046E+03  0.63362684901E+03  0.41800000000E+01 0. -1.
        -11    1    1    2    0    0  0.76892958422E+01  0.30770019727E+02  0.16917585355E+02  0.35946127452E+02  0.00000000000E+00 0.  1.
         11    1    1    2    0    0 -0.50655909242E+02  0.20770046909E+01  0.25656450714E+03  0.26152568022E+03  0.00000000000E+00 0. -1.
</event>
<event>
 7    1  0.2619826E-009  0.1083296E+03  0.7561462E-02  0.1263695E+00
          2   -1    0    0  501    0  0.00000000000E+00  0.00000000000E+00  0.11971880556E+03  0.11971880556E+03  0.00000000000E+00 0. -1.
         -2   -1    0    0    0  501 -0.00000000000E+00 -0.00000000000E+00 -0.10460961513E+03  0.10460961513E+03  0.00000000000E+00 0.  1.
         25    2    1    2    0    0  0.16712284362E+02  0.11229762126E+02 -0.11855661054E+02  0.12725469368E+03  0.12509113622E+03 0.  0.
          5    1    3    3  502    0 -0.49954609041E+02  0.26488894078E+02 -0.15052853217E+02  0.58661616615E+02  0.41800000000E+01 0. -1.
         -5    1    3    3    0  502  0.66666893403E+02 -0.15259131953E+02  0.31971921636E+01  0.68593077069E+02  0.41800000000E+01 0. -1.
        -11    1    1    2    0    0 -0.10718566560E+02 -0.50547397718E+02  0.57301247883E+01  0.51988089167E+02  0.00000000000E+00 0. -1.
         11    1    1    2    0    0 -0.59937178027E+01  0.39317635593E+02  0.21234726696E+02  0.45085637841E+02  0.00000000000E+00 0.  1.
</event>
<event>
 7    1  0.2619826E-009  0.9054777E+02  0.7561462E-02  0.1301531E+00
          1   -1    0    0  501    0  0.00000000000E+00  0.00000000000E+00  0.42430088767E+03  0.42430088767E+03  0.00000000000E+00 0. -1.
         -1   -1    0    0    0  501 -0.00000000000E+00 -0.00000000000E+00 -0.36292789106E+02  0.36292789106E+02  0.00000000000E+00 0.  1.
         25    2    1    2    0    0  0.37422961503E+01 -0.66129630616E+01  0.32982185073E+03  0.35282776841E+03  0.12508894788E+03 0.  0.
          5    1    3    3  502    0  0.58442200439E+02  0.17258751665E+02  0.21289060943E+03  0.22147965885E+03  0.41800000000E+01 0. -1.
         -5    1    3    3    0  502 -0.54699904289E+02 -0.23871714727E+02  0.11693124130E+03  0.13134810956E+03  0.41800000000E+01 0. -1.
        -11    1    1    2    0    0  0.23896870013E+02 -0.12122814540E+02 -0.12516370160E+02  0.29575032557E+02  0.00000000000E+00 0.  1.
         11    1    1    2    0    0 -0.27639166163E+02  0.18735777602E+02  0.70702617997E+02  0.78190875811E+02  0.00000000000E+00 0. -1.
</event>
<event>
 7    1  0.2619826E-009  0.1023084E+03  0.7561462E-02  0.1275515E+00
         -2   -1    0    0    0  501 -0.00000000000E+00  0.00000000000E+00  0.15446913894E+02  0.15446913894E+02  0.00000000000E+00 0.  1.
          2   -1    0    0  501    0  0.00000000000E+00 -0.00000000000E+00 -0.91336264445E+03  0.91336264445E+03  0.00000000000E+00 0. -1.
         25    2    1    2    0    0 -0.33716385001E+02  0.14203079826E+02 -0.57253900723E+03  0.58718545725E+03  0.12508926541E+03 0.  0.
          5    1    3    3  502    0 -0.44105727598E+02  0.51055317186E+02 -0.50443791867E+03  0.50894699804E+03  0.41800000000E+01 0. -1.
         -5    1    3    3    0  502  0.10389342597E+02 -0.36852237360E+02 -0.68101088555E+02  0.78238459215E+02  0.41800000000E+01 0. -1.
        -11    1    1    2    0    0  0.14711728196E+02  0.39173029724E+02 -0.86085348382E+02  0.95716500199E+02  0.00000000000E+00 0.  1.
         11    1    1    2    0    0  0.19004656805E+02 -0.53376109549E+02 -0.23929137495E+03  0.24590760089E+03  0.00000000000E+00 0. -1.
</event>
<event>
 7    1  0.2619826E-009  0.1938372E+03  0.7561462E-02  0.1155045E+00
          2   -1    0    0  501    0  0.00000000000E+00  0.00000000000E+00  0.47728467788E+03  0.47728467788E+03  0.00000000000E+00 0. -1.
         -2   -1    0    0    0  501 -0.00000000000E+00 -0.00000000000E+00 -0.10911391160E+03  0.10911391160E+03  0.00000000000E+00 0.  1.
         25    2    1    2    0    0  0.30287216727E+02  0.18661231477E+03  0.27733280271E+03  0.35819870542E+03  0.12510538590E+03 0.  0.
          5    1    3    3  502    0  0.36848693604E+02  0.18415653058E+03  0.28856067566E+03  0.34431989474E+03  0.41800000000E+01 0. -1.
         -5    1    3    3    0  502 -0.65614768767E+01  0.24557841936E+01 -0.11227872950E+02  0.13878810676E+02  0.41800000000E+01 0. -1.
        -11    1    1    2    0    0 -0.64478117069E+01 -0.13096974939E+03  0.10264446813E+03  0.16652488213E+03  0.00000000000E+00 0. -1.
         11    1    1    2    0    0 -0.23839405020E+02 -0.55642565381E+02 -0.11806504565E+02  0.61675001937E+02  0.00000000000E+00 0.  1.
</event>
<event>
 7    1  0.2619826E-009  0.1160792E+03  0.7561462E-02  0.1249709E+00
         -1   -1    0    0    0  501 -0.00000000000E+00  0.00000000000E+00  0.12472121687E+03  0.12472121687E+03  0.00000000000E+00 0.  1.
          1   -1    0    0  501    0  0.00000000000E+00 -0.00000000000E+00 -0.12141030227E+03  0.12141030227E+03  0.00000000000E+00 0. -1.
         25    2    1    2    0    0 -0.39016259053E+02 -0.40871109178E+02  0.17419932147E+02  0.13835477346E+03  0.12508346520E+03 0.  0.
          5    1    3    3  502    0 -0.75555311821E+02 -0.45426768169E+02 -0.14502792694E+02  0.89442718019E+02  0.41800000000E+01 0.  1.
         -5    1    3    3    0  502  0.36539052769E+02  0.45556589912E+01  0.31922724841E+02  0.48912055440E+02  0.41800000000E+01 0.  1.
        -11    1    1    2    0    0  0.60593840495E+02 -0.33682739253E-01 -0.73358989437E+01  0.61036301115E+02  0.00000000000E+00 0.  1.
         11    1    1    2    0    0 -0.21577581442E+02  0.40904791917E+02 -0.67731186080E+01  0.46740444568E+02  0.00000000000E+00 0. -1.
</event>
<event>
 7    1  0.2701357E-009  0.1202326E+03  0.7561462E-02  0.1242714E+00
         -2   -1    0    0    0  501 -0.00000000000E+00  0.00000000000E+00  0.30492024417E+02  0.30492024417E+02  0.00000000000E+00 0.  1.
          2   -1    0    0  501    0  0.00000000000E+00 -0.00000000000E+00 -0.68523401320E+03  0.68523401320E+03  0.00000000000E+00 0. -1.
         25    2    1    2    0    0  0.63291636912E+02  0.29942082307E+02 -0.19473908404E+03  0.24180557780E+03  0.12507704429E+03 0.  0.
          5    1    3    3  502    0 -0.25390399645E+02  0.31758214960E+02 -0.19361141731E+02  0.45228119801E+02  0.41800000000E+01 0. -1.
         -5    1    3    3    0  502  0.88682036558E+02 -0.18161326532E+01 -0.17537794231E+03  0.19657745800E+03  0.41800000000E+01 0. -1.
        -11    1    1    2    0    0 -0.11919288950E+02 -0.53114055090E+02 -0.28211922364E+03  0.28732286481E+03  0.00000000000E+00 0.  1.
         11    1    1    2    0    0 -0.51372347962E+02  0.23171972783E+02 -0.17788368110E+03  0.18659759500E+03  0.00000000000E+00 0. -1.
</event>
<event>
 7    1  0.2619826E-009  0.1135689E+03  0.7561462E-02  0.1254100E+00
          1   -1    0    0  501    0  0.00000000000E+00  0.00000000000E+00  0.39971111674E+02  0.39971111674E+02  0.00000000000E+00 0. -1.
         -1   -1    0    0    0  501 -0.00000000000E+00 -0.00000000000E+00 -0.45199563059E+03  0.45199563059E+03  0.00000000000E+00 0.  1.
         25    2    1    2    0    0  0.57640639590E+02 -0.52873288624E+02 -0.21919690630E+03  0.26422180650E+03  0.12509137186E+03 0.  0.
          5    1    3    3  502    0 -0.28442805984E+02  0.19294572717E+02 -0.61238505281E+02  0.70348423419E+02  0.41800000000E+01 0. -1.
         -5    1    3    3    0  502  0.86083445574E+02 -0.72167861341E+02 -0.15795840102E+03  0.19387338308E+03  0.41800000000E+01 0. -1.
        -11    1    1    2    0    0 -0.31857847788E+02  0.17547780865E+02 -0.72535761848E+01  0.37087214056E+02  0.00000000000E+00 0. -1.
         11    1    1    2    0    0 -0.25782791802E+02  0.35325507759E+02 -0.18557403643E+03  0.19065772171E+03  0.00000000000E+00 0.  1.
</event>
<event>
 7    1  0.2619826E-009  0.1073933E+03  0.7561462E-02  0.1265475E+00
          1   -1    0    0  501    0  0.00000000000E+00  0.00000000000E+00  0.50836901236E+03  0.50836901236E+03  0.00000000000E+00 0. -1.
         -1   -1    0    0    0  501 -0.00000000000E+00 -0.00000000000E+00 -0.29269747916E+02  0.29269747916E+02  0.00000000000E+00 0.  1.
         25    2    1    2    0    0 -0.14742075465E+02 -0.50379615755E+02  0.23131022571E+03  0.26815588079E+03  0.12509085263E+03 0.  0.
          5    1    3    3  502    0 -0.58555420190E+02 -0.12550135815E+02  0.51112217673E+02  0.78842718992E+02  0.41800000000E+01 0. -1.
         -5    1    3    3    0  502  0.43813344725E+02 -0.37829479940E+02  0.18019800804E+03  0.18931316180E+03  0.41800000000E+01 0. -1.
        -11    1    1    2    0    0  0.42838355895E+02  0.53402665400E+02  0.11597914893E+03  0.13467788384E+03  0.00000000000E+00 0.  1.
         11    1    1    2    0    0 -0.28096280429E+02 -0.30230496444E+01  0.13180988980E+03  0.13480499565E+03  0.00000000000E+00 0. -1.
</event>
<event>
 7    1  0.2619826E-009  0.1207450E+03  0.7561462E-02  0.1241873E+00
          1   -1    0    0  501    0  0.00000000000E+00  0.00000000000E+00  0.76110683132E+03  0.76110683132E+03  0.00000000000E+00 0. -1.
         -1   -1    0    0    0  501 -0.00000000000E+00 -0.00000000000E+00 -0.46466850459E+02  0.46466850459E+02  0.00000000000E+00 0.  1.
         25    2    1    2    0    0  0.60850718677E+02  0.65124628381E+02  0.64457415118E+03  0.66261911839E+03  0.12507690636E+03 0.  0.
          5    1    3    3  502    0  0.94264771989E+02  0.29776217766E+02  0.33809018479E+03  0.35227108289E+03  0.41800000000E+01 0. -1.
         -5    1    3    3    0  502 -0.33414053312E+02  0.35348410616E+02  0.30648396638E+03  0.31034803550E+03  0.41800000000E+01 0. -1.
        -11    1    1    2    0    0 -0.20393223046E+02 -0.43052507706E+02 -0.13507460869E+02  0.49516193968E+02  0.00000000000E+00 0.  1.
         11    1    1    2    0    0 -0.40457495631E+02 -0.22072120675E+02  0.83573290554E+02  0.95438369422E+02  0.00000000000E+00 0. -1.
</event>
<event>
 7    1  0.2619826E-009  0.4261815E+03  0.7561462E-02  0.1035073E+00
          1   -1    0    0  501    0  0.00000000000E+00  0.00000000000E+00  0.19917804762E+03  0.19917804762E+03  0.00000000000E+00 0. -1.
         -1   -1    0    0    0  501 -0.00000000000E+00 -0.00000000000E+00 -0.92476890113E+03  0.92476890113E+03  0.00000000000E+00 0.  1.
         25    2    1    2    0    0  0.18735280904E+03  0.36782233223E+03 -0.42346975196E+03  0.60445538315E+03  0.12508131854E+03 0.  0.
          5    1    3    3  502    0  0.86899749791E+02  0.55609413316E+02 -0.96875354194E+02  0.14158488625E+03  0.41800000000E+01 0.  1.
         -5    1    3    3    0  502  0.10045305925E+03  0.31221291892E+03 -0.32659439776E+03  0.46287049690E+03  0.41800000000E+01 0.  1.
        -11    1    1    2    0    0 -0.16499253115E+03 -0.23937746329E+03 -0.22838806387E+03  0.36970963334E+03  0.00000000000E+00 0.  1.
         11    1    1    2    0    0 -0.22360277894E+02 -0.12844486894E+03 -0.73733037685E+02  0.14978193226E+03  0.00000000000E+00 0. -1.
</event>
<event>
 7    1  0.2619826E-009  0.1213090E+03  0.7561462E-02  0.1240953E+00
          2   -1    0    0  501    0  0.00000000000E+00  0.00000000000E+00  0.13509069803E+03  0.13509069803E+03  0.00000000000E+00 0. -1.
         -2   -1    0    0    0  501 -0.00000000000E+00 -0.00000000000E+00 -0.16111415274E+03  0.16111415274E+03  0.00000000000E+00 0.  1.
         25    2    1    2    0    0 -0.75987450593E+02 -0.23125274437E+02  0.43502823848E+02  0.15441826378E+03  0.12507451196E+03 0.  0.
          5    1    3    3  502    0  0.20812533162E+02  0.27775101918E+02  0.26031621683E+02  0.43585955888E+02  0.41800000000E+01 0.  1.
         -5    1    3    3    0  502 -0.96799983754E+02 -0.50900376355E+02  0.17471202165E+02  0.11083230789E+03  0.41800000000E+01 0.  1.
        -11    1    1    2    0    0  0.33572275817E+01  0.25327791525E+02  0.15544895754E+02  0.29906718051E+02  0.00000000000E+00 0. -1.
         11    1    1    2    0    0  0.72630223011E+02 -0.22025170880E+01 -0.85071174313E+02  0.11187986894E+03  0.00000000000E+00 0.  1.
</event>
<event>
 7    1  0.2619826E-009  0.1092497E+03  0.7561462E-02  0.1261966E+00
          1   -1    0    0  501    0  0.00000000000E+00  0.00000000000E+00  0.78516409228E+03  0.78516409228E+03  0.00000000000E+00 0. -1.
         -1   -1    0    0    0  501 -0.00000000000E+00 -0.00000000000E+00 -0.23359428957E+02  0.23359428957E+02  0.00000000000E+00 0.  1.
         25    2    1    2    0    0 -0.72426047293E+02  0.32275102926E+02  0.46399697536E+03  0.48706094175E+03  0.12509177928E+03 0.  0.
          5    1    3    3  502    0 -0.59921408224E+02  0.53623252320E+02  0.13558679348E+03  0.15769362485E+03  0.41800000000E+01 0.  1.
         -5    1    3    3    0  502 -0.12504639070E+02 -0.21348149394E+02  0.32841018188E+03  0.32936731690E+03  0.41800000000E+01 0.  1.
        -11    1    1    2    0    0  0.39841599372E+02  0.24969226769E+02  0.70017435285E+02  0.84340124317E+02  0.00000000000E+00 0.  1.
         11    1    1    2    0    0  0.32584447921E+02 -0.57244329695E+02  0.22779025268E+03  0.23712245517E+03  0.00000000000E+00 0. -1.
</event>
<event>
 7    1  0.2619826E-009  0.1022349E+03  0.7561462E-02  0.1275665E+00
         -1   -1    0    0    0  501 -0.00000000000E+00  0.00000000000E+00  0.11527141938E+03  0.11527141938E+03  0.00000000000E+00 0.  1.
          1   -1    0    0  501    0  0.00000000000E+00 -0.00000000000E+00 -0.11307164207E+03  0.11307164207E+03  0.00000000000E+00 0. -1.
         25    2    1    2    0    0 -0.33655623251E+02 -0.11925649057E+02  0.44894761712E+01  0.13016389908E+03  0.12509022002E+03 0.  0.
          5    1    3    3  502    0  0.29611159186E+02  0.38540266905E+02 -0.23559161419E+01  0.48838464987E+02  0.41800000000E+01 0.  1.
         -5    1    3    3    0  502 -0.63266782437E+02 -0.50465915962E+02  0.68453923131E+01  0.81325434089E+02  0.41800000000E+01 0.  1.
        -11    1    1    2    0    0 -0.17487842202E+02 -0.86670387236E+01 -0.30528570043E+02  0.36234455619E+02  0.00000000000E+00 0. -1.
         11    1    1    2    0    0  0.51143465453E+02  0.20592687780E+02  0.28238871184E+02  0.61944706750E+02  0.00000000000E+00 0.  1.
</event>
<event>
 7    1  0.2619826E-009  0.4915900E+02  0.7561462E-02  0.1449931E+00
          1   -1    0    0  501    0  0.00000000000E+00  0.00000000000E+00  0.41017492624E+03  0.41017492624E+03  0.00000000000E+00 0. -1.
         -1   -1    0    0    0  501 -0.00000000000E+00 -0.00000000000E+00 -0.31917871651E+02  0.31917871651E+02  0.00000000000E+00 0.  1.
         25    2    1    2    0    0  0.14808534615E+02  0.10356120474E+02  0.26988106944E+03  0.29800897409E+03  0.12508802928E+03 0.  0.
          5    1    3    3  502    0  0.11443995189E+02 -0.21820528554E+02  0.26360835006E+03  0.26479036069E+03  0.41800000000E+01 0.  1.
         -5    1    3    3    0  502  0.33645394267E+01  0.32176649028E+02  0.62727193802E+01  0.33218613406E+02  0.41800000000E+01 0.  1.
        -11    1    1    2    0    0 -0.16947861734E+02  0.10370380535E+02  0.11903312954E+03  0.12067999311E+03  0.00000000000E+00 0. -1.
         11    1    1    2    0    0  0.21393271185E+01 -0.20726501009E+02 -0.10657144383E+02  0.23403830691E+02  0.00000000000E+00 0.  1.
</event>
<event>
 7    1  0.2619826E-009  0.9873170E+02  0.7561462E-02  0.1282986E+00
          2   -1    0    0  501    0  0.00000000000E+00  0.00000000000E+00  0.70529919461E+03  0.70529919461E+03  0.00000000000E+00 0.  1.
         -2   -1    0    0    0  501 -0.00000000000E+00 -0.00000000000E+00 -0.19436637750E+02  0.19436637750E+02  0.00000000000E+00 0. -1.
         25    2    1    2    0    0 -0.38765814760E+02  0.54014476222E+01  0.32600866377E+03  0.35135161989E+03  0.12503738608E+03 0.  0.
          5    1    3    3  502    0 -0.66707690498E+02 -0.11633110711E+02  0.30450544465E+03  0.31197160682E+03  0.41800000000E+01 0.  1.
         -5    1    3    3    0  502  0.27941875738E+02  0.17034558333E+02  0.21503219114E+02  0.39380013073E+02  0.41800000000E+01 0.  1.
        -11    1    1    2    0    0  0.64265912228E+02  0.12503392176E+02  0.19754531588E+03  0.20811197495E+03  0.00000000000E+00 0.  1.
         11    1    1    2    0    0 -0.25500097468E+02 -0.17904839799E+02  0.16230857721E+03  0.16527223752E+03  0.00000000000E+00 0. -1.
</event>
<event>
 7    1  0.2619826E-009  0.1171794E+03  0.7561462E-02  0.1247824E+00
         -1   -1    0    0    0  501 -0.00000000000E+00  0.00000000000E+00  0.44813626962E+02  0.44813626962E+02  0.00000000000E+00 0.  1.
          1   -1    0    0  501    0  0.00000000000E+00 -0.00000000000E+00 -0.36050755095E+03  0.36050755095E+03  0.00000000000E+00 0. -1.
         25    2    1    2    0    0  0.24062476783E+02  0.59766765339E+02 -0.22180964259E+03  0.26267120976E+03  0.12508228437E+03 0.  0.
          5    1    3    3  502    0 -0.47713288621E+02  0.34643725693E+02 -0.13384754119E+03  0.14631945299E+03  0.41800000000E+01 0.  1.
         -5    1    3    3    0  502  0.71775765404E+02  0.25123039646E+02 -0.87962101403E+02  0.11635175677E+03  0.41800000000E+01 0.  1.
        -11    1    1    2    0    0 -0.33403642135E+01  0.18153340689E+02 -0.44308737900E+02  0.47999646515E+02  0.00000000000E+00 0. -1.
         11    1    1    2    0    0 -0.20722112570E+02 -0.77920106027E+02 -0.49575543493E+02  0.94650321633E+02  0.00000000000E+00 0.  1.
</event>
<event>
 7    1  0.2619826E-009  0.1298143E+03  0.7561462E-02  0.1227732E+00
         -2   -1    0    0    0  501 -0.00000000000E+00  0.00000000000E+00  0.30453835395E+02  0.30453835395E+02  0.00000000000E+00 0.  1.
          2   -1    0    0  501    0  0.00000000000E+00 -0.00000000000E+00 -0.59621220863E+03  0.59621220863E+03  0.00000000000E+00 0. -1.
         25    2    1    2    0    0  0.76854231920E+02  0.11932492970E+02 -0.26990844691E+03  0.30748533235E+03  0.12509077721E+03 0.  0.
          5    1    3    3  502    0 -0.28466354734E+02  0.27954444460E+02 -0.86299434044E+02  0.95167478863E+02  0.41800000000E+01 0. -1.
         -5    1    3    3    0  502  0.10532058665E+03 -0.16021951489E+02 -0.18360901287E+03  0.21231785348E+03  0.41800000000E+01 0. -1.
        -11    1    1    2    0    0 -0.72842753873E+02  0.24037075189E+02 -0.14488001326E+03  0.16393311446E+03  0.00000000000E+00 0.  1.
         11    1    1    2    0    0 -0.40114780471E+01 -0.35969568160E+02 -0.15096991306E+03  0.15524759721E+03  0.00000000000E+00 0. -1.
</event>
<event>
 7    1  0.2619826E-009  0.1257071E+03  0.7561462E-02  0.1233968E+00
         -2   -1    0    0    0  501 -0.00000000000E+00  0.00000000000E+00  0.35723348808E+02  0.35723348808E+02  0.00000000000E+00 0.  1.
          2   -1    0    0  501    0  0.00000000000E+00 -0.00000000000E+00 -0.57583775082E+03  0.57583775082E+03  0.00000000000E+00 0. -1.
         25    2    1    2    0    0  0.41833918275E+02  0.67027965195E+02 -0.21981966048E+03  0.26497374948E+03  0.12509028717E+03 0.  0.
          5    1    3    3  502    0 -0.24185344992E+02  0.44828274475E+02 -0.22799759184E+02  0.55962545721E+02  0.41800000000E+01 0. -1.
         -5    1    3    3    0  502  0.66019263267E+02  0.22199690720E+02 -0.19701990129E+03  0.20901120376E+03  0.41800000000E+01 0. -1.
        -11    1    1    2    0    0  0.30625781701E+02 -0.45669597580E+02 -0.10684782839E+03  0.12016700496E+03  0.00000000000E+00 0.  1.
         11    1    1    2    0    0 -0.72459699976E+02 -0.21358367615E+02 -0.21344691314E+03  0.22642034519E+03  0.00000000000E+00 0. -1.
</event>
<event>
 7    1  0.2619826E-009  0.1760876E+03  0.7561462E-02  0.1171644E+00
         -2   -1    0    0    0  501 -0.00000000000E+00  0.00000000000E+00  0.10240754083E+04  0.10240754083E+04  0.00000000000E+00 0.  1.
          2   -1    0    0  501    0  0.00000000000E+00 -0.00000000000E+00 -0.39623083231E+02  0.39623083231E+02  0.00000000000E+00 0. -1.
         25    2    1    2    0    0  0.15083478623E+03  0.68807098429E+02  0.60162515640E+03  0.63646298151E+03  0.12508696367E+03 0.  0.
          5    1    3    3  502    0  0.46198590404E+02  0.97489493068E+01  0.39162659948E+03  0.39448474950E+03  0.41800000000E+01 0.  1.
         -5    1    3    3    0  502  0.10463619583E+03  0.59058149122E+02  0.20999855693E+03  0.24197823201E+03  0.41800000000E+01 0.  1.
        -11    1    1    2    0    0 -0.72329410597E+02  0.10347750740E+02  0.20195395267E+03  0.21476503109E+03  0.00000000000E+00 0. -1.
         11    1    1    2    0    0 -0.78505375638E+02 -0.79154849169E+02  0.18087321599E+03  0.21247047893E+03  0.00000000000E+00 0.  1.
</event>
<event>
 7    1  0.2619826E-009  0.1147776E+03  0.7561462E-02  0.1251970E+00
          1   -1    0    0  501    0  0.00000000000E+00  0.00000000000E+00  0.57821779070E+03  0.57821779070E+03  0.00000000000E+00 0. -1.
         -1   -1    0    0    0  501 -0.00000000000E+00 -0.00000000000E+00 -0.31171380449E+02  0.31171380449E+02  0.00000000000E+00 0.  1.
         25    2    1    2    0    0 -0.60058145441E+02  0.29214581042E+01  0.40923538992E+03  0.43213057985E+03  0.12509083870E+03 0.  0.
          5    1    3    3  502    0 -0.88575819624E+02  0.24398613487E+02  0.20402491714E+03  0.22379590563E+03  0.41800000000E+01 0.  1.
         -5    1    3    3    0  502  0.28517674183E+02 -0.21477155383E+02  0.20521047278E+03  0.20833467422E+03  0.41800000000E+01 0.  1.
        -11    1    1    2    0    0 -0.13888093321E+02  0.19887590218E+02  0.70980239470E+02  0.75010597758E+02  0.00000000000E+00 0. -1.
         11    1    1    2    0    0  0.73946238762E+02 -0.22809048322E+02  0.66830780856E+02  0.10224799354E+03  0.00000000000E+00 0.  1.
</event>
<event>
 7    1  0.2619826E-009  0.9681786E+02  0.7561462E-02  0.1287134E+00
         -2   -1    0    0    0  501 -0.00000000000E+00  0.00000000000E+00  0.18151384860E+02  0.18151384860E+02  0.00000000000E+00 0.  1.
          2   -1    0    0  501    0  0.00000000000E+00 -0.00000000000E+00 -0.10000275231E+04  0.10000275231E+04  0.00000000000E+00 0. -1.
         25    2    1    2    0    0  0.65873497157E+02  0.41900175135E+02 -0.47257285781E+03  0.49504160878E+03  0.12508455611E+03 0.  0.
          5    1    3    3  502    0  0.38105077163E+01 -0.59773534817E+00 -0.35723509360E+03  0.35728036856E+03  0.41800000000E+01 0.  1.
         -5    1    3    3    0  502  0.62062989441E+02  0.42497910483E+02 -0.11533776420E+03  0.13776124021E+03  0.41800000000E+01 0.  1.
        -11    1    1    2    0    0 -0.61033241222E+02  0.88157907838E+01 -0.36339940252E+03  0.36859449325E+03  0.00000000000E+00 0. -1.
         11    1    1    2    0    0 -0.48402559349E+01 -0.50715965919E+02 -0.14590387789E+03  0.15454280591E+03  0.00000000000E+00 0.  1.
</event>
<event>
 7    1  0.2619826E-009  0.1504350E+03  0.7561462E-02  0.1199939E+00
          1   -1    0    0  501    0  0.00000000000E+00  0.00000000000E+00  0.81101797960E+03  0.81101797960E+03  0.00000000000E+00 0. -1.
         -1   -1    0    0    0  501 -0.00000000000E+00 -0.00000000000E+00 -0.34906992904E+02  0.34906992904E+02  0.00000000000E+00 0.  1.
         25    2    1    2    0    0 -0.58023810697E+02 -0.85525975156E+02  0.22385340137E+03  0.27647609192E+03  0.12508888465E+03 0.  0.
          5    1    3    3  502    0  0.22578935788E+01 -0.99810370675E+02  0.13058484066E+03  0.16442956300E+03  0.41800000000E+01 0. -1.
         -5    1    3    3    0  502 -0.60281704276E+02  0.14284395519E+02  0.93268560709E+02  0.11204652892E+03  0.41800000000E+01 0. -1.
        -11    1    1    2    0    0  0.27058716988E+02  0.10077079626E+03  0.41193162919E+03  0.42494069547E+03  0.00000000000E+00 0.  1.
         11    1    1    2    0    0  0.30965093709E+02 -0.15244821105E+02  0.14032595613E+03  0.14450818511E+03  0.00000000000E+00 0. -1.
</event>
<event>
 7    1  0.2619826E-009  0.9503548E+02  0.7561462E-02  0.1291096E+00
         -1   -1    0    0    0  501 -0.00000000000E+00  0.00000000000E+00  0.36693729936E+02  0.36693729936E+02  0.00000000000E+00 0.  1.
          1   -1    0    0  501    0  0.00000000000E+00 -0.00000000000E+00 -0.32037744967E+03  0.32037744967E+03  0.00000000000E+00 0. -1.
         25    2    1    2    0    0 -0.87451256576E+00  0.58852635973E+01 -0.16693415171E+03  0.20868700150E+03  0.12509137655E+03 0.  0.
          5    1    3    3  502    0 -0.17795224082E+02  0.48937238826E+02 -0.22339759168E+02  0.56816024005E+02  0.41800000000E+01 0. -1.
         -5    1    3    3    0  502  0.16920711517E+02 -0.43051975228E+02 -0.14459439254E+03  0.15187097749E+03  0.41800000000E+01 0. -1.
        -11    1    1    2    0    0  0.14943124551E+02 -0.46268243262E+02 -0.57236270638E+02  0.75100186301E+02  0.00000000000E+00 0.  1.
         11    1    1    2    0    0 -0.14068611985E+02  0.40382979665E+02 -0.59513297386E+02  0.73283991809E+02  0.00000000000E+00 0. -1.
</event>
<event>
 7    1  0.2619826E-009  0.9536807E+02  0.7561462E-02  0.1290349E+00
         -1   -1    0    0    0  501 -0.00000000000E+00  0.00000000000E+00  0.61373162429E+02  0.61373162429E+02  0.00000000000E+00 0.  1.
          1   -1    0    0  501    0  0.00000000000E+00 -0.00000000000E+00 -0.46202139593E+03  0.46202139593E+03  0.00000000000E+00 0. -1.
         25    2    1    2    0    0  0.31578501104E+02 -0.46471872213E+02 -0.39203929098E+03  0.41533002238E+03  0.12508950868E+03 0.  0.
          5    1    3    3  502    0 -0.12738034230E+02  0.28100351290E+02 -0.30789880300E+02  0.43787856622E+02  0.41800000000E+01 0.  1.
         -5    1    3    3    0  502  0.44316535333E+02 -0.74572223502E+02 -0.36124941068E+03  0.37154216576E+03  0.41800000000E+01 0.  1.
        -11    1    1    2    0    0 -0.32593378433E+02  0.70851687983E+01  0.35642277112E+02  0.48814955212E+02  0.00000000000E+00 0.  1.
         11    1    1    2    0    0  0.10148773289E+01  0.39386703414E+02 -0.44251219640E+02  0.59249580770E+02  0.00000000000E+00 0. -1.
</event>
<event>
 7    1  0.2619826E-009  0.1272769E+03  0.7561462E-02  0.1231553E+00
          1   -1    0    0  501    0  0.00000000000E+00  0.00000000000E+00  0.62319255804E+02  0.62319255804E+02  0.00000000000E+00 0. -1.
         -1   -1    0    0    0  501 -0.00000000000E+00 -0.00000000000E+00 -0.38184777095E+03  0.38184777095E+03  0.00000000000E+00 0.  1.
         25    2    1    2    0    0  0.10853666486E+03 -0.25208975826E+02 -0.13620521479E+03  0.21590528641E+03  0.12509009586E+03 0.  0.
          5    1    3    3  502    0  0.11558943826E+03  0.34545287096E+00 -0.50703721050E+02  0.12629084410E+03  0.41800000000E+01 0.  1.
         -5    1    3    3    0  502 -0.70527733966E+01 -0.25554428697E+02 -0.85501493743E+02  0.89614442312E+02  0.41800000000E+01 0.  1.
        -11    1    1    2    0    0 -0.78238970200E+02  0.12657214213E+02 -0.17825128842E+03  0.19507707029E+03  0.00000000000E+00 0.  1.
         11    1    1    2    0    0 -0.30297694662E+02  0.12551761613E+02 -0.50720119309E+01  0.33184670052E+02  0.00000000000E+00 0. -1.
</event>
<event>
 7    1  0.2731951E-009  0.1315900E+03  0.7561462E-02  0.1225115E+00
          2   -1    0    0  501    0  0.00000000000E+00  0.00000000000E+00  0.47571969131E+03  0.47571969131E+03  0.00000000000E+00 0. -1.
         -2   -1    0    0    0  501 -0.00000000000E+00 -0.00000000000E+00 -0.44290371325E+02  0.44290371325E+02  0.00000000000E+00 0.  1.
         25    2    1    2    0    0 -0.15532616368E+02 -0.87048403700E+02  0.16839438261E+03  0.22764456474E+03  0.12508674193E+03 0.  0.
          5    1    3    3  502    0 -0.56414559012E+02  0.36556536882E+00  0.64055533282E+02  0.85459463201E+02  0.41800000000E+01 0. -1.
         -5    1    3    3    0  502  0.40881942644E+02 -0.87413969069E+02  0.10433884932E+03  0.14218510154E+03  0.41800000000E+01 0. -1.
        -11    1    1    2    0    0 -0.25322356749E+02  0.23993702319E+02  0.25443645244E+02  0.43177524079E+02  0.00000000000E+00 0.  1.
         11    1    1    2    0    0  0.40854973117E+02  0.63054701381E+02  0.23759129214E+03  0.24918797381E+03  0.00000000000E+00 0. -1.
</event>
<event>
 6    1  0.2619826E-009  0.1854882E+03  0.7561462E-02  0.1162595E+00
         -2   -1    0    0    0  501 -0.00000000000E+00  0.00000000000E+00  0.31835363655E+02  0.31835363655E+02  0.00000000000E+00 0. -1.
          2   -1    0    0  501    0  0.00000000000E+00 -0.00000000000E+00 -0.14383691670E+04  0.14383691670E+04  0.00000000000E+00 0.  1.
          5    1    1    2  502    0 -0.95800320847E+00 -0.51780495420E+02 -0.50375064775E+03  0.50642306916E+03  0.41800000000E+01 0. -1.
         -5    1    1    2    0  502  0.12599492169E+03 -0.50579537404E+02 -0.51312208136E+03  0.53079633823E+03  0.41800000000E+01 0. -1.
        -11    1    1    2    0    0 -0.50882542596E+02  0.96135635212E+02 -0.28070148826E+03  0.30103889950E+03  0.00000000000E+00 0.  1.
         11    1    1    2    0    0 -0.74154375887E+02  0.62243976115E+01 -0.10895958595E+03  0.13194622374E+03  0.00000000000E+00 0. -1.
</event>
<event>
 7    1  0.3025128E-009  0.9733476E+02  0.7561462E-02  0.1286003E+00
         -1   -1    0    0    0  501 -0.00000000000E+00  0.00000000000E+00  0.27154388435E+02  0.27154388435E+02  0.00000000000E+00 0.  1.
          1   -1    0    0  501    0  0.00000000000E+00 -0.00000000000E+00 -0.60278187410E+03  0.60278187410E+03  0.00000000000E+00 0. -1.
         25    2    1    2    0    0 -0.90427621406E+01 -0.10758425005E+02 -0.15637324609E+03  0.20074793789E+03  0.12509847009E+03 0.  0.
          5    1    3    3  502    0  0.25483798862E+02  0.38258290071E+02 -0.17388733248E+02  0.49325056589E+02  0.41800000000E+01 0.  1.
         -5    1    3    3    0  502 -0.34526561003E+02 -0.49016715075E+02 -0.13898451285E+03  0.15142288130E+03  0.41800000000E+01 0.  1.
        -11    1    1    2    0    0  0.36912278577E+02  0.35447905742E+02 -0.29745363457E+03  0.30182401338E+03  0.00000000000E+00 0.  1.
         11    1    1    2    0    0 -0.27869516436E+02 -0.24689480738E+02 -0.12180060500E+03  0.12736431127E+03  0.00000000000E+00 0. -1.
</event>
<event>
 7    1  0.2619826E-009  0.1084940E+03  0.7561462E-02  0.1263384E+00
         -1   -1    0    0    0  501 -0.00000000000E+00  0.00000000000E+00  0.27042577906E+02  0.27042577906E+02  0.00000000000E+00 0.  1.
          1   -1    0    0  501    0  0.00000000000E+00 -0.00000000000E+00 -0.53365555594E+03  0.53365555594E+03  0.00000000000E+00 0. -1.
         25    2    1    2    0    0 -0.96001805769E+01 -0.52159292483E+02 -0.27721755295E+03  0.30872749475E+03  0.12510131530E+03 0.  0.
          5    1    3    3  502    0 -0.56932680841E+02  0.45704482831E+01 -0.16168240086E+03  0.17152518851E+03  0.41800000000E+01 0. -1.
         -5    1    3    3    0  502  0.47332500265E+02 -0.56729740766E+02 -0.11553515209E+03  0.13720230624E+03  0.41800000000E+01 0. -1.
        -11    1    1    2    0    0 -0.28747074636E+02  0.29435796481E+02 -0.18325108317E+03  0.18781325804E+03  0.00000000000E+00 0. -1.
         11    1    1    2    0    0  0.38347255213E+02  0.22723496002E+02 -0.46144341914E+02  0.64157381053E+02  0.00000000000E+00 0.  1.
</event>
<event>
 7    1  0.2619826E-009  0.8011731E+02  0.7561462E-02  0.1328719E+00
         -2   -1    0    0    0  501 -0.00000000000E+00  0.00000000000E+00  0.46742867649E+03  0.46742867649E+03  0.00000000000E+00 0.  1.
          2   -1    0    0  501    0  0.00000000000E+00 -0.00000000000E+00 -0.39069373546E+02  0.39069373546E+02  0.00000000000E+00 0. -1.
         25    2    1    2    0    0 -0.60637663186E+02 -0.12629954872E+02  0.13441626525E+03  0.19377936466E+03  0.12508504247E+03 0.  0.
          5    1    3    3  502    0 -0.24763036700E+02  0.16823819427E+02  0.14319885413E+03  0.14635447759E+03  0.41800000000E+01 0. -1.
         -5    1    3    3    0  502 -0.35874626486E+02 -0.29453774299E+02 -0.87825888886E+01  0.47424887069E+02  0.41800000000E+01 0. -1.
        -11    1    1    2    0    0  0.48645639660E+02  0.33686172295E+02  0.27675595459E+03  0.28301062677E+03  0.00000000000E+00 0.  1.
         11    1    1    2    0    0  0.11992023526E+02 -0.21056217422E+02  0.17187083110E+02  0.29708058607E+02  0.00000000000E+00 0. -1.
</event>
<event>
 7    1  0.2619826E-009  0.8867873E+02  0.7561462E-02  0.1306083E+00
          1   -1    0    0  501    0  0.00000000000E+00  0.00000000000E+00  0.34225668960E+02  0.34225668960E+02  0.00000000000E+00 0. -1.
         -1   -1    0    0    0  501 -0.00000000000E+00 -0.00000000000E+00 -0.53229944222E+03  0.53229944222E+03  0.00000000000E+00 0.  1.
         25    2    1    2    0    0 -0.24673608524E+02  0.59792070949E+02 -0.17453382765E+03  0.22426091003E+03  0.12508804925E+03 0.  0.
          5    1    3    3  502    0 -0.34194590438E+02 -0.10860771333E+02 -0.14065405548E+03  0.14521798130E+03  0.41800000000E+01 0.  1.
         -5    1    3    3    0  502  0.95209819139E+01  0.70652842283E+02 -0.33879772168E+02  0.79042928725E+02  0.41800000000E+01 0.  1.
        -11    1    1    2    0    0 -0.53508529048E+01 -0.14754901966E+02 -0.15670470083E+01  0.15773217654E+02  0.00000000000E+00 0. -1.
         11    1    1    2    0    0  0.30024461429E+02 -0.45037168984E+02 -0.32197289860E+03  0.32649098350E+03  0.00000000000E+00 0.  1.
</event>
<event>
 7    1  0.2619826E-009  0.2227095E+03  0.7561462E-02  0.1131879E+00
          3   -1    0    0  501    0  0.00000000000E+00  0.00000000000E+00  0.14325693552E+03  0.14325693552E+03  0.00000000000E+00 0. -1.
         -3   -1    0    0    0  501 -0.00000000000E+00 -0.00000000000E+00 -0.36770736283E+03  0.36770736283E+03  0.00000000000E+00 0.  1.
         25    2    1    2    0    0  0.10841412829E+03 -0.16924715589E+03 -0.11531971459E+03  0.26333961480E+03  0.12510352977E+03 0.  0.
          5    1    3    3  502    0  0.55937524593E+02 -0.31490819508E+01 -0.55878360822E+02  0.79238797207E+02  0.41800000000E+01 0.  1.
         -5    1    3    3    0  502  0.52476603695E+02 -0.16609807394E+03 -0.59441353764E+02  0.18410081759E+03  0.41800000000E+01 0.  1.
        -11    1    1    2    0    0 -0.53010125933E+02  0.21502668286E+02 -0.26498467152E+01  0.57266568628E+02  0.00000000000E+00 0. -1.
         11    1    1    2    0    0 -0.55404002355E+02  0.14774448760E+03 -0.10648086600E+03  0.19035811492E+03  0.00000000000E+00 0.  1.
</event>
<event>
 7    1  0.2619826E-009  0.1030956E+03  0.7561462E-02  0.1273918E+00
         -2   -1    0    0    0  501 -0.00000000000E+00  0.00000000000E+00  0.37848953247E+02  0.37848953247E+02  0.00000000000E+00 0.  1.
          2   -1    0    0  501    0  0.00000000000E+00 -0.00000000000E+00 -0.35153854125E+03  0.35153854125E+03  0.00000000000E+00 0. -1.
         25    2    1    2    0    0 -0.34350203276E+02  0.12762899286E+02 -0.17179938144E+03  0.21564633847E+03  0.12508192423E+03 0.  0.
          5    1    3    3  502    0  0.24324818760E+02 -0.29201523431E+02 -0.11682052056E+02  0.39979601282E+02  0.41800000000E+01 0.  1.
         -5    1    3    3    0  502 -0.58675022036E+02  0.41964422717E+02 -0.16011732938E+03  0.17566673719E+03  0.41800000000E+01 0.  1.
        -11    1    1    2    0    0  0.32849931762E+02  0.34948282184E+02 -0.45179865974E+02  0.65891734943E+02  0.00000000000E+00 0.  1.
         11    1    1    2    0    0  0.15002715135E+01 -0.47711181470E+02 -0.96710340591E+02  0.10784942109E+03  0.00000000000E+00 0. -1.
</event>
<event>
 7    1  0.2619826E-009  0.1393325E+03  0.7561462E-02  0.1214230E+00
         -1   -1    0    0    0  501 -0.00000000000E+00  0.00000000000E+00  0.49795524565E+03  0.49795524565E+03  0.00000000000E+00 0.  1.
          1   -1    0    0  501    0  0.00000000000E+00 -0.00000000000E+00 -0.67625116291E+02  0.67625116291E+02  0.00000000000E+00 0. -1.
         25    2    1    2    0    0  0.44979780817E+02 -0.12188798751E+03  0.11795221420E+03  0.21549896512E+03  0.12508883623E+03 0.  0.
          5    1    3    3  502    0 -0.11562438245E+02  0.75599218256E+00 -0.19302863205E+02  0.22898349946E+02  0.41800000000E+01 0.  1.
         -5    1    3    3    0  502  0.56542219062E+02 -0.12264397969E+03  0.13725507740E+03  0.19260061517E+03  0.41800000000E+01 0.  1.
        -11    1    1    2    0    0 -0.43476565624E+02  0.96989013951E+02  0.30656667257E+03  0.32446911304E+03  0.00000000000E+00 0.  1.
         11    1    1    2    0    0 -0.15032151930E+01  0.24898973561E+02  0.58112425941E+01  0.25612283787E+02  0.00000000000E+00 0. -1.
</event>
<event>
 7    1  0.2619826E-009  0.1214630E+03  0.7561462E-02  0.1240703E+00
         -2   -1    0    0    0  501 -0.00000000000E+00  0.00000000000E+00  0.11622193763E+03  0.11622193763E+03  0.00000000000E+00 0.  1.
          2   -1    0    0  501    0  0.00000000000E+00 -0.00000000000E+00 -0.14570429403E+03  0.14570429403E+03  0.00000000000E+00 0. -1.
         25    2    1    2    0    0 -0.62140820538E+02  0.10592446042E+02 -0.50223118059E+02  0.14880498285E+03  0.12508748875E+03 0.  0.
          5    1    3    3  502    0 -0.71054665128E+02 -0.44457211084E+02 -0.25950035653E+02  0.87841253431E+02  0.41800000000E+01 0. -1.
         -5    1    3    3    0  502  0.89138445900E+01  0.55049657126E+02 -0.24273082405E+02  0.60963729418E+02  0.41800000000E+01 0. -1.
        -11    1    1    2    0    0  0.26623094354E+02  0.35825344153E+02  0.30230184446E+02  0.53908334127E+02  0.00000000000E+00 0.  1.
         11    1    1    2    0    0  0.35517726184E+02 -0.46417790195E+02 -0.94894227871E+01  0.59212914678E+02  0.00000000000E+00 0. -1.
</event>
<event>
 7    1  0.2619826E-009  0.9966367E+02  0.7561462E-02  0.1281005E+00
          4   -1    0    0  501    0  0.00000000000E+00  0.00000000000E+00  0.91584797096E+02  0.91584797096E+02  0.00000000000E+00 0. -1.
         -4   -1    0    0    0  501 -0.00000000000E+00 -0.00000000000E+00 -0.40234861546E+03  0.40234861546E+03  0.00000000000E+00 0.  1.
         25    2    1    2    0    0  0.41305728554E+02 -0.10766700658E+02 -0.35967056450E+03  0.38318780260E+03  0.12509153462E+03 0.  0.
          5    1    3    3  502    0 -0.11906042220E+02 -0.51374687513E+02 -0.24229343213E+03  0.24800139518E+03  0.41800000000E+01 0. -1.
         -5    1    3    3    0  502  0.53211770774E+02  0.40607986855E+02 -0.11737713238E+03  0.13518640742E+03  0.41800000000E+01 0. -1.
        -11    1    1    2    0    0  0.15135776494E+02  0.16780029951E+02 -0.13550749879E+02  0.26349268634E+02  0.00000000000E+00 0.  1.
         11    1    1    2    0    0 -0.56441505048E+02 -0.60133292933E+01  0.62457496016E+02  0.84396341330E+02  0.00000000000E+00 0. -1.
</event>
<event>
 7    1  0.2619826E-009  0.9012235E+02  0.7561462E-02  0.1302556E+00
          1   -1    0    0  501    0  0.00000000000E+00  0.00000000000E+00  0.29750203679E+03  0.29750203679E+03  0.00000000000E+00 0. -1.
         -1   -1    0    0    0  501 -0.00000000000E+00 -0.00000000000E+00 -0.40910325083E+02  0.40910325083E+02  0.00000000000E+00 0.  1.
         25    2    1    2    0    0  0.49358523418E+01 -0.18077377612E+02  0.15916468218E+03  0.20329571460E+03  0.12507836464E+03 0.  0.
          5    1    3    3  502    0  0.44221250834E+02 -0.37840200953E+02  0.27670169415E+02  0.64579489848E+02  0.41800000000E+01 0. -1.
         -5    1    3    3    0  502 -0.39285398492E+02  0.19762823341E+02  0.13149451277E+03  0.13871622475E+03  0.41800000000E+01 0. -1.
        -11    1    1    2    0    0 -0.32089948382E+02  0.33582882698E+02  0.18104338879E+02  0.49853203345E+02  0.00000000000E+00 0.  1.
         11    1    1    2    0    0  0.27154096040E+02 -0.15505505086E+02  0.79322690649E+02  0.85263443934E+02  0.00000000000E+00 0. -1.
</event>
<event>
 7    1  0.2619826E-009  0.1052648E+03  0.7561462E-02  0.1269599E+00
          3   -1    0    0  501    0  0.00000000000E+00  0.00000000000E+00  0.61401093381E+02  0.61401093381E+02  0.00000000000E+00 0. -1.
         -3   -1    0    0    0  501 -0.00000000000E+00 -0.00000000000E+00 -0.27724243083E+03  0.27724243083E+03  0.00000000000E+00 0.  1.
         25    2    1    2    0    0  0.26224318330E+02 -0.58897758773E+02 -0.81707599597E+02  0.16272680489E+03  0.12508884977E+03 0.  0.
          5    1    3    3  502    0 -0.39579284353E+01  0.16033428298E+02  0.24117569093E+02  0.29527369667E+02  0.41800000000E+01 0.  1.
         -5    1    3    3    0  502  0.30182246765E+02 -0.74931187071E+02 -0.10582516869E+03  0.13319943522E+03  0.41800000000E+01 0.  1.
        -11    1    1    2    0    0 -0.50107972496E+02  0.11594110040E+01 -0.72601131392E+02  0.88221751405E+02  0.00000000000E+00 0. -1.
         11    1    1    2    0    0  0.23883654166E+02  0.57738347769E+02 -0.61532606457E+02  0.87694967911E+02  0.00000000000E+00 0.  1.
</event>
<event>
 7    1  0.2619826E-009  0.1601456E+03  0.7561462E-02  0.1188533E+00
          4   -1    0    0  501    0  0.00000000000E+00  0.00000000000E+00  0.14465328179E+03  0.14465328179E+03  0.00000000000E+00 0. -1.
         -4   -1    0    0    0  501 -0.00000000000E+00 -0.00000000000E+00 -0.62131755398E+03  0.62131755398E+03  0.00000000000E+00 0.  1.
         25    2    1    2    0    0  0.45727223599E+02 -0.11479782034E+03  0.76717799343E+02  0.19184160485E+03  0.12509221431E+03 0.  0.
          5    1    3    3  502    0  0.29935130189E+02 -0.14030499568E+03  0.73869622146E+02  0.16141808235E+03  0.41800000000E+01 0.  1.
         -5    1    3    3    0  502  0.15792093410E+02  0.25507175337E+02  0.28481771972E+01  0.30423522500E+02  0.41800000000E+01 0.  1.
        -11    1    1    2    0    0  0.92260836891E+01  0.81923986052E+02 -0.22657616699E+03  0.24110872974E+03  0.00000000000E+00 0. -1.
         11    1    1    2    0    0 -0.54953307288E+02  0.32873834291E+02 -0.32680590454E+03  0.33302050118E+03  0.00000000000E+00 0.  1.
</event>
<event>
 7    1  0.2619826E-009  0.1223104E+03  0.7561462E-02  0.1239334E+00
          2   -1    0    0  501    0  0.00000000000E+00  0.00000000000E+00  0.85422055117E+03  0.85422055117E+03  0.00000000000E+00 0. -1.
         -2   -1    0    0    0  501 -0.00000000000E+00 -0.00000000000E+00 -0.31971176670E+02  0.31971176670E+02  0.00000000000E+00 0.  1.
         25    2    1    2    0    0  0.63382548509E+02 -0.65515475227E+02  0.21236735535E+03  0.26278558195E+03  0.12508694381E+03 0.  0.
          5    1    3    3  502    0  0.35149401655E+02  0.17978744735E+02  0.14887795237E+03  0.15408060488E+03  0.41800000000E+01 0.  1.
         -5    1    3    3    0  502  0.28233146854E+02 -0.83494219963E+02  0.63489402980E+02  0.10870497707E+03  0.41800000000E+01 0.  1.
        -11    1    1    2    0    0  0.12487378442E+02 -0.46651289382E+01  0.17100455286E+02  0.21682334269E+02  0.00000000000E+00 0. -1.
         11    1    1    2    0    0 -0.75869926951E+02  0.70180604165E+02  0.59278156386E+03  0.60172381162E+03  0.00000000000E+00 0.  1.
</event>
<event>
 7    1  0.2619826E-009  0.3068739E+03  0.7561462E-02  0.1081854E+00
         -3   -1    0    0    0  501 -0.00000000000E+00  0.00000000000E+00  0.78593805442E+03  0.78593805442E+03  0.00000000000E+00 0.  1.
          3   -1    0    0  501    0  0.00000000000E+00 -0.00000000000E+00 -0.14189981426E+03  0.14189981426E+03  0.00000000000E+00 0. -1.
         25    2    1    2    0    0  0.25352068197E+03 -0.14454757706E+03  0.15957148025E+03  0.35535123703E+03  0.12507879968E+03 0.  0.
          5    1    3    3  502    0  0.11161095882E+03  0.31512056852E+01  0.43620495949E+02  0.11994647262E+03  0.41800000000E+01 0. -1.
         -5    1    3    3    0  502  0.14190972315E+03 -0.14769878274E+03  0.11595098430E+03  0.23540476441E+03  0.41800000000E+01 0. -1.
        -11    1    1    2    0    0 -0.22303726973E+03  0.10314593167E+03  0.44236237735E+03  0.50603278530E+03  0.00000000000E+00 0.  1.
         11    1    1    2    0    0 -0.30483412242E+02  0.41401645392E+02  0.42104382563E+02  0.66453846345E+02  0.00000000000E+00 0. -1.
</event>
<event>
 7    1  0.3544842E-009  0.9063357E+02  0.7561462E-02  0.1301325E+00
          1   -1    0    0  501    0  0.00000000000E+00  0.00000000000E+00  0.89259455390E+02  0.89259455390E+02  0.00000000000E+00 0. -1.
         -1   -1    0    0    0  501 -0.00000000000E+00 -0.00000000000E+00 -0.16031153423E+03  0.16031153423E+03  0.00000000000E+00 0.  1.
         25    2    1    2    0    0 -0.42585012158E+02 -0.44374967689E+01 -0.69063017190E+02  0.14916358758E+03  0.12508757284E+03 0.  0.
          5    1    3    3  502    0  0.87502704643E+01  0.42618212346E+02 -0.66217251416E+02  0.79341515248E+02  0.41800000000E+01 0. -1.
         -5    1    3    3    0  502 -0.51335282622E+02 -0.47055709115E+02 -0.28457657733E+01  0.69822072334E+02  0.41800000000E+01 0. -1.
        -11    1    1    2    0    0 -0.49464492477E+01  0.17757016644E+02 -0.36012155715E+02  0.40455585023E+02  0.00000000000E+00 0. -1.
         11    1    1    2    0    0  0.47531461405E+02 -0.13319519875E+02  0.34023094068E+02  0.59951817012E+02  0.00000000000E+00 0.  1.
</event>
<event>
 7    1  0.2619826E-009  0.1124709E+03  0.7561462E-02  0.1256061E+00
          1   -1    0    0  501    0  0.00000000000E+00  0.00000000000E+00  0.47904119157E+03  0.47904119157E+03  0.00000000000E+00 0. -1.
         -1   -1    0    0    0  501 -0.00000000000E+00 -0.00000000000E+00 -0.36241929934E+02  0.36241929934E+02  0.00000000000E+00 0.  1.
         25    2    1    2    0    0 -0.68921865050E+02  0.40708445631E+01  0.30052450008E+03  0.33276023520E+03  0.12509038223E+03 0.  0.
          5    1    3    3  502    0 -0.96760830370E+02  0.30330222769E+02  0.24506551532E+03  0.26524924110E+03  0.41800000000E+01 0. -1.
         -5    1    3    3    0  502  0.27838965320E+02 -0.26259378205E+02  0.55458984762E+02  0.67510994102E+02  0.41800000000E+01 0. -1.
        -11    1    1    2    0    0  0.50104345706E+01  0.16950670119E+02 -0.68239691823E+01  0.18947195768E+02  0.00000000000E+00 0.  1.
         11    1    1    2    0    0  0.63911430479E+02 -0.21021514682E+02  0.14909873074E+03  0.16357569054E+03  0.00000000000E+00 0. -1.
</event>
<event>
 7    1  0.2619826E-009  0.1021908E+03  0.7561462E-02  0.1275755E+00
         -4   -1    0    0    0  501 -0.00000000000E+00  0.00000000000E+00  0.50580504878E+02  0.50580504878E+02  0.00000000000E+00 0.  1.
          4   -1    0    0  501    0  0.00000000000E+00 -0.00000000000E+00 -0.36204260394E+03  0.36204260394E+03  0.00000000000E+00 0. -1.
         25    2    1    2    0    0 -0.73839505310E+02  0.34356939045E+02 -0.15894937488E+03  0.21804894210E+03  0.12509102913E+03 0.  0.
          5    1    3    3  502    0 -0.14482220903E+02  0.14918936814E+02  0.19579067180E+02  0.28863847103E+02  0.41800000000E+01 0. -1.
         -5    1    3    3    0  502 -0.59357284406E+02  0.19438002231E+02 -0.17852844206E+03  0.18918509499E+03  0.41800000000E+01 0. -1.
        -11    1    1    2    0    0 -0.14444593429E+02  0.13828640820E+02 -0.20832599065E+02  0.28876889896E+02  0.00000000000E+00 0.  1.
         11    1    1    2    0    0  0.88284098738E+02 -0.48185579864E+02 -0.13168012512E+03  0.16569727683E+03  0.00000000000E+00 0. -1.
</event>
<event>
 7    1  0.2619826E-009  0.1667023E+03  0.7561462E-02  0.1181331E+00
          2   -1    0    0  501    0  0.00000000000E+00  0.00000000000E+00  0.18274211920E+04  0.18274211920E+04  0.00000000000E+00 0. -1.
         -2   -1    0    0    0  501 -0.00000000000E+00 -0.00000000000E+00 -0.16988220708E+02  0.16988220708E+02  0.00000000000E+00 0.  1.
         25    2    1    2    0    0 -0.10813541079E+03 -0.66012079884E+02  0.11765931224E+04  0.11899873975E+04  0.12509104123E+03 0.  0.
          5    1    3    3  502    0 -0.12429798722E+03 -0.17029537313E+02  0.78095962229E+03  0.79098381704E+03  0.41800000000E+01 0.  1.
         -5    1    3    3    0  502  0.16162576425E+02 -0.48982542571E+02  0.39563350015E+03  0.39900358042E+03  0.41800000000E+01 0.  1.
        -11    1    1    2    0    0  0.10646087533E+03  0.17863861572E+02  0.51492257302E+03  0.52611623406E+03  0.00000000000E+00 0.  1.
         11    1    1    2    0    0  0.16745354602E+01  0.48148218312E+02  0.11891727582E+03  0.12830578118E+03  0.00000000000E+00 0. -1.
</event>
<event>
 7    1  0.2619826E-009  0.1868562E+03  0.7561462E-02  0.1161328E+00
          1   -1    0    0  501    0  0.00000000000E+00  0.00000000000E+00  0.17692849581E+03  0.17692849581E+03  0.00000000000E+00 0. -1.
         -1   -1    0    0    0  501 -0.00000000000E+00 -0.00000000000E+00 -0.31391876084E+03  0.31391876084E+03  0.00000000000E+00 0.  1.
         25    2    1    2    0    0  0.98103414761E+02 -0.13705200778E+03  0.58081959905E+02  0.21778093928E+03  0.12508993014E+03 0.  0.
          5    1    3    3  502    0  0.63911299911E+02 -0.55511826146E+01  0.50288092347E+02  0.81620061974E+02  0.41800000000E+01 0.  1.
         -5    1    3    3    0  502  0.34192114850E+02 -0.13150082517E+03  0.77938675575E+01  0.13616087731E+03  0.41800000000E+01 0.  1.
        -11    1    1    2    0    0 -0.31158293581E+02  0.78834536118E+02 -0.38491552342E+02  0.93098458341E+02  0.00000000000E+00 0. -1.
         11    1    1    2    0    0 -0.66945121180E+02  0.58217471662E+02 -0.15658067258E+03  0.17996785903E+03  0.00000000000E+00 0.  1.
</event>
<event>
 7    1  0.2986324E-009  0.9256847E+02  0.7561462E-02  0.1296748E+00
         -1   -1    0    0    0  501 -0.00000000000E+00  0.00000000000E+00  0.31280730446E+03  0.31280730446E+03  0.00000000000E+00 0.  1.
          1   -1    0    0  501    0  0.00000000000E+00 -0.00000000000E+00 -0.62512334172E+02  0.62512334172E+02  0.00000000000E+00 0. -1.
         25    2    1    2    0    0  0.52274266197E+02 -0.54944826227E+02  0.19681073129E+03  0.24522360546E+03  0.12509444389E+03 0.  0.
          5    1    3    3  502    0  0.35844937573E+02 -0.71423156691E+02  0.20511002917E+03  0.22016748926E+03  0.41800000000E+01 0. -1.
         -5    1    3    3    0  502  0.16429328624E+02  0.16478330464E+02 -0.82992978819E+01  0.25056116204E+02  0.41800000000E+01 0. -1.
        -11    1    1    2    0    0 -0.11197032592E+02  0.33111678670E+02  0.71993319064E+02  0.80029961846E+02  0.00000000000E+00 0.  1.
         11    1    1    2    0    0 -0.41077233605E+02  0.21833147557E+02 -0.18509080062E+02  0.50066071322E+02  0.00000000000E+00 0. -1.
</event>
<event>
 7    1  0.2619826E-009  0.2479156E+03  0.7561462E-02  0.1114629E+00
         -2   -1    0    0    0  501 -0.00000000000E+00  0.00000000000E+00  0.10834379287E+03  0.10834379287E+03  0.00000000000E+00 0.  1.
          2   -1    0    0  501    0  0.00000000000E+00 -0.00000000000E+00 -0.76959947960E+03  0.76959947960E+03  0.00000000000E+00 0. -1.
         25    2    1    2    0    0 -0.12746300422E+03 -0.21225840944E+03 -0.18567524241E+03  0.33380167023E+03  0.12509120505E+03 0.  0.
          5    1    3    3  502    0 -0.11344445610E+03 -0.19468293165E+03 -0.10256819134E+03  0.24760612830E+03  0.41800000000E+01 0.  1.
         -5    1    3    3    0  502 -0.14018548120E+02 -0.17575477788E+02 -0.83107051074E+02  0.86195541933E+02  0.41800000000E+01 0.  1.
        -11    1    1    2    0    0  0.10342839269E+03  0.17405402609E+03 -0.29356110895E+03  0.35660953592E+03  0.00000000000E+00 0.  1.
         11    1    1    2    0    0  0.24034611524E+02  0.38204383345E+02 -0.18201933536E+03  0.18753206633E+03  0.00000000000E+00 0. -1.
</event>
<event>
 7    1  0.2619826E-009  0.1882903E+03  0.7561462E-02  0.1160012E+00
          2   -1    0    0  501    0  0.00000000000E+00  0.00000000000E+00  0.15262347882E+03  0.15262347882E+03  0.00000000000E+00 0. -1.
         -2   -1    0    0    0  501 -0.00000000000E+00 -0.00000000000E+00 -0.29291828308E+03  0.29291828308E+03  0.00000000000E+00 0.  1.
         25    2    1    2    0    0  0.30633074013E+02  0.16665006468E+03 -0.61552810909E+01  0.21070116084E+03  0.12508582018E+03 0.  0.
          5    1    3    3  502    0 -0.40240729586E+02  0.22995482428E+02  0.15397816658E+02  0.49017075469E+02  0.41800000000E+01 0.  1.
         -5    1    3    3    0  502  0.70873803598E+02  0.14365458225E+03 -0.21553097748E+02  0.16168408537E+03  0.41800000000E+01 0.  1.
        -11    1    1    2    0    0 -0.11460805953E+01 -0.29381744824E+02  0.12387149522E+02  0.31906768920E+02  0.00000000000E+00 0. -1.
         11    1    1    2    0    0 -0.29486993417E+02 -0.13726831986E+03 -0.14652667269E+03  0.20293383214E+03  0.00000000000E+00 0.  1.
</event>
<event>
 7    1  0.2619826E-009  0.1035033E+03  0.7561462E-02  0.1273097E+00
          1   -1    0    0  501    0  0.00000000000E+00  0.00000000000E+00  0.17720175931E+04  0.17720175931E+04  0.00000000000E+00 0. -1.
         -1   -1    0    0    0  501 -0.00000000000E+00 -0.00000000000E+00 -0.12852432399E+02  0.12852432399E+02  0.00000000000E+00 0.  1.
         25    2    1    2    0    0  0.60058850240E+02 -0.13135377633E+02  0.14470071796E+04  0.14537049873E+04  0.12509519868E+03 0.  0.
          5    1    3    3  502    0  0.45750813944E+02  0.29565210399E+02  0.12644182677E+04  0.12655979878E+04  0.41800000000E+01 0.  1.
         -5    1    3    3    0  502  0.14308036296E+02 -0.42700588031E+02  0.18258891190E+03  0.18810699953E+03  0.41800000000E+01 0.  1.
        -11    1    1    2    0    0 -0.69069450597E+02 -0.20721705956E+02  0.24535081953E+03  0.25572837689E+03  0.00000000000E+00 0.  1.
         11    1    1    2    0    0  0.90106003563E+01  0.33857083589E+02  0.66807161570E+02  0.75436661280E+02  0.00000000000E+00 0. -1.
</event>
<event>
 7    1  0.2619826E-009  0.1162325E+03  0.7561462E-02  0.1249445E+00
         -1   -1    0    0    0  501 -0.00000000000E+00  0.00000000000E+00  0.38989664734E+02  0.38989664734E+02  0.00000000000E+00 0.  1.
          1   -1    0    0  501    0  0.00000000000E+00 -0.00000000000E+00 -0.42741008123E+03  0.42741008123E+03  0.00000000000E+00 0. -1.
         25    2    1    2    0    0  0.63213633801E+02  0.18361839832E+01 -0.17771158936E+03  0.22633542174E+03  0.12508788538E+03 0.  0.
          5    1    3    3  502    0  0.10141604192E+03  0.35464004433E+00 -0.12331778442E+03  0.15971877686E+03  0.41800000000E+01 0.  1.
         -5    1    3    3    0  502 -0.38202408116E+02  0.14815439389E+01 -0.54393804945E+02  0.66616644877E+02  0.41800000000E+01 0.  1.
        -11    1    1    2    0    0 -0.63587416707E+02 -0.25737704170E+02 -0.20401670914E+03  0.21524081069E+03  0.00000000000E+00 0. -1.
         11    1    1    2    0    0  0.37378290650E+00  0.23901520187E+02 -0.66921179922E+01  0.24823513533E+02  0.00000000000E+00 0.  1.
</event>
<event>
 7    1  0.2619826E-009  0.1378211E+03  0.7561462E-02  0.1216291E+00
          1   -1    0    0  501    0  0.00000000000E+00  0.00000000000E+00  0.14247545638E+03  0.14247545638E+03  0.00000000000E+00 0. -1.
         -1   -1    0    0    0  501 -0.00000000000E+00 -0.00000000000E+00 -0.16247840527E+03  0.16247840527E+03  0.00000000000E+00 0.  1.
         25    2    1    2    0    0  0.24110249088E+02 -0.10498033686E+03 -0.14404045001E+02  0.16569356979E+03  0.12507880444E+03 0.  0.
          5    1    3    3  502    0  0.53478072042E+02 -0.11379959867E+03 -0.32374856740E+02  0.12990710757E+03  0.41800000000E+01 0.  1.
         -5    1    3    3    0  502 -0.29367822954E+02  0.88192618141E+01  0.17970811740E+02  0.35786462225E+02  0.41800000000E+01 0.  1.
        -11    1    1    2    0    0 -0.42766382210E+01  0.97647365447E+02 -0.34322838442E+02  0.10359225286E+03  0.00000000000E+00 0.  1.
         11    1    1    2    0    0 -0.19833610867E+02  0.73329714102E+01  0.28723934555E+02  0.35668038999E+02  0.00000000000E+00 0. -1.
</event>
<event>
 7    1  0.2619826E-009  0.1308678E+03  0.7561462E-02  0.1226174E+00
         -1   -1    0    0    0  501 -0.00000000000E+00  0.00000000000E+00  0.44598315417E+03  0.44598315417E+03  0.00000000000E+00 0.  1.
          1   -1    0    0  501    0  0.00000000000E+00 -0.00000000000E+00 -0.64353459086E+02  0.64353459086E+02  0.00000000000E+00 0. -1.
         25    2    1    2    0    0  0.90053425510E+02 -0.25112519617E+02  0.70463438809E+02  0.17132826793E+03  0.12509205048E+03 0.  0.
          5    1    3    3  502    0  0.84613244161E+02  0.20485663761E+02  0.86220459756E+02  0.12259895427E+03  0.41800000000E+01 0.  1.
         -5    1    3    3    0  502  0.54401813497E+01 -0.45598183377E+02 -0.15757020947E+02  0.48729313658E+02  0.41800000000E+01 0.  1.
        -11    1    1    2    0    0 -0.63814466271E+02 -0.27643947912E+02  0.21752802052E+03  0.22837450311E+03  0.00000000000E+00 0.  1.
         11    1    1    2    0    0 -0.26238959239E+02  0.52756467529E+02  0.93638235754E+02  0.11063384221E+03  0.00000000000E+00 0. -1.
</event>
<event>
 7    1  0.2619826E-009  0.1240755E+03  0.7561462E-02  0.1236521E+00
         -2   -1    0    0    0  501 -0.00000000000E+00  0.00000000000E+00  0.92407590142E+03  0.92407590142E+03  0.00000000000E+00 0. -1.
          2   -1    0    0  501    0  0.00000000000E+00 -0.00000000000E+00 -0.16738755946E+02  0.16738755946E+02  0.00000000000E+00 0.  1.
         25    2    1    2    0    0 -0.56529733126E+02 -0.21421733765E+02  0.53504486266E+03  0.55278882200E+03  0.12509186730E+03 0.  0.
          5    1    3    3  502    0  0.10198549765E+02 -0.60489057392E+02  0.24041117629E+03  0.24814903298E+03  0.41800000000E+01 0.  1.
         -5    1    3    3    0  502 -0.66728282890E+02  0.39067323628E+02  0.29463368636E+03  0.30463978902E+03  0.41800000000E+01 0.  1.
        -11    1    1    2    0    0  0.47364545253E+01 -0.33444712131E+02  0.12450682685E+03  0.12900749088E+03  0.00000000000E+00 0. -1.
         11    1    1    2    0    0  0.51793278600E+02  0.54866445895E+02  0.24778545597E+03  0.25901834449E+03  0.00000000000E+00 0.  1.
</event>
<event>
 7    1  0.2619826E-009  0.2581789E+03  0.7561462E-02  0.1108242E+00
          2   -1    0    0  501    0  0.00000000000E+00  0.00000000000E+00  0.15185112988E+04  0.15185112988E+04  0.00000000000E+00 0. -1.
         -2   -1    0    0    0  501 -0.00000000000E+00 -0.00000000000E+00 -0.61223158197E+02  0.61223158197E+02  0.00000000000E+00 0.  1.
         25    2    1    2    0    0  0.19930411489E+03  0.12407106786E+03  0.32563208087E+03  0.42047911113E+03  0.12510264071E+03 0.  0.
          5    1    3    3  502    0  0.13558399648E+03  0.11979708349E+02  0.15051743169E+03  0.20297660741E+03  0.41800000000E+01 0.  1.
         -5    1    3    3    0  502  0.63720118411E+02  0.11209135951E+03  0.17511464918E+03  0.21750250372E+03  0.41800000000E+01 0.  1.
        -11    1    1    2    0    0 -0.80296347349E+02 -0.14632187688E+01  0.33703008654E+03  0.34646633839E+03  0.00000000000E+00 0.  1.
         11    1    1    2    0    0 -0.11900776754E+03 -0.12260784909E+03  0.79462597317E+03  0.81278900745E+03  0.00000000000E+00 0. -1.
</event>
<event>
 7    1  0.2619826E-009  0.1075268E+03  0.7561462E-02  0.1265220E+00
         -2   -1    0    0    0  501 -0.00000000000E+00  0.00000000000E+00  0.86318864914E+02  0.86318864914E+02  0.00000000000E+00 0.  1.
          2   -1    0    0  501    0  0.00000000000E+00 -0.00000000000E+00 -0.16242325838E+03  0.16242325838E+03  0.00000000000E+00 0. -1.
         25    2    1    2    0    0 -0.37758191851E+02  0.23996050642E+02 -0.47533355946E+02  0.14108785837E+03  0.12507946415E+03 0.  0.
          5    1    3    3  502    0  0.31713901934E+02  0.45107993577E+02 -0.39412135448E+02  0.67906490713E+02  0.41800000000E+01 0.  1.
         -5    1    3    3    0  502 -0.69472093785E+02 -0.21111942935E+02 -0.81212204977E+01  0.73181367654E+02  0.41800000000E+01 0.  1.
        -11    1    1    2    0    0  0.50738391616E+02 -0.41280256681E+02  0.72566077541E+01  0.65811111003E+02  0.00000000000E+00 0.  1.
         11    1    1    2    0    0 -0.12980199765E+02  0.17284206039E+02 -0.35827645274E+02  0.41843153923E+02  0.00000000000E+00 0. -1.
</event>
<event>
 7    1  0.2619826E-009  0.1608979E+03  0.7561462E-02  0.1187687E+00
          1   -1    0    0  501    0  0.00000000000E+00  0.00000000000E+00  0.35330439984E+03  0.35330439984E+03  0.00000000000E+00 0. -1.
         -1   -1    0    0    0  501 -0.00000000000E+00 -0.00000000000E+00 -0.11065990713E+03  0.11065990713E+03  0.00000000000E+00 0.  1.
         25    2    1    2    0    0 -0.12653798588E+03  0.33539828328E+02  0.92563981048E+01  0.18130396271E+03  0.12509462033E+03 0.  0.
          5    1    3    3  502    0 -0.37262124962E+02  0.73949593918E+02  0.17223721789E+01  0.82930376601E+02  0.41800000000E+01 0.  1.
         -5    1    3    3    0  502 -0.89275860917E+02 -0.40409765590E+02  0.75340259259E+01  0.98373586110E+02  0.41800000000E+01 0.  1.
        -11    1    1    2    0    0  0.92832062679E+02 -0.47544584333E+02  0.10045881445E+03  0.14481109337E+03  0.00000000000E+00 0.  1.
         11    1    1    2    0    0  0.33705923200E+02  0.14004756005E+02  0.13292928015E+03  0.13784925089E+03  0.00000000000E+00 0. -1.
</event>
<event>
 7    1  0.2619826E-009  0.1124216E+03  0.7561462E-02  0.1256150E+00
         -1   -1    0    0    0  501 -0.00000000000E+00  0.00000000000E+00  0.89523765227E+02  0.89523765227E+02  0.00000000000E+00 0.  1.
          1   -1    0    0  501    0  0.00000000000E+00 -0.00000000000E+00 -0.15373512779E+03  0.15373512779E+03  0.00000000000E+00 0. -1.
         25    2    1    2    0    0 -0.27224724921E+02 -0.40249761179E+02 -0.57052323691E+02  0.14582991230E+03  0.12510062654E+03 0.  0.
          5    1    3    3  502    0 -0.33001771130E+02 -0.82193692160E+02 -0.52486405081E+02  0.10303987115E+03  0.41800000000E+01 0. -1.
         -5    1    3    3    0  502  0.57770462084E+01  0.41943930981E+02 -0.45659186095E+01  0.42790041152E+02  0.41800000000E+01 0. -1.
        -11    1    1    2    0    0 -0.99794322998E+01  0.53280549837E+02 -0.16979182648E+02  0.56804037738E+02  0.00000000000E+00 0. -1.
         11    1    1    2    0    0  0.37204157221E+02 -0.13030788657E+02  0.98201437803E+01  0.40624942971E+02  0.00000000000E+00 0.  1.
</event>
<event>
 7    1  0.2619826E-009  0.8873809E+02  0.7561462E-02  0.1305937E+00
          1   -1    0    0  501    0  0.00000000000E+00  0.00000000000E+00  0.29838365814E+03  0.29838365814E+03  0.00000000000E+00 0. -1.
         -1   -1    0    0    0  501 -0.00000000000E+00 -0.00000000000E+00 -0.53870921153E+02  0.53870921153E+02  0.00000000000E+00 0.  1.
         25    2    1    2    0    0  0.26510859263E+02  0.25629129380E+02  0.20784583505E+03  0.24537131431E+03  0.12509001881E+03 0.  0.
          5    1    3    3  502    0  0.61201796031E+02  0.90513199585E+01  0.41561500047E+02  0.74648623005E+02  0.41800000000E+01 0.  1.
         -5    1    3    3    0  502 -0.34690936767E+02  0.16577809421E+02  0.16628433501E+03  0.17072269131E+03  0.41800000000E+01 0.  1.
        -11    1    1    2    0    0  0.32784004123E+01  0.21112416649E+02 -0.18807437046E+02  0.28464042830E+02  0.00000000000E+00 0.  1.
         11    1    1    2    0    0 -0.29789259676E+02 -0.46741546028E+02  0.55474338976E+02  0.78419222146E+02  0.00000000000E+00 0. -1.
</event>
<event>
 7    1  0.2619826E-009  0.1041979E+03  0.7561462E-02  0.1271708E+00
         -3   -1    0    0    0  501 -0.00000000000E+00  0.00000000000E+00  0.10927653896E+03  0.10927653896E+03  0.00000000000E+00 0.  1.
          3   -1    0    0  501    0  0.00000000000E+00 -0.00000000000E+00 -0.16062670992E+03  0.16062670992E+03  0.00000000000E+00 0. -1.
         25    2    1    2    0    0  0.61357725873E+02 -0.63306824128E+00 -0.67888849552E+02  0.15498965450E+03  0.12509087021E+03 0.  0.
          5    1    3    3  502    0  0.70974829155E+02  0.19783676660E+02 -0.94464705575E+02  0.11987440609E+03  0.41800000000E+01 0.  1.
         -5    1    3    3    0  502 -0.96171032813E+01 -0.20416744902E+02  0.26575856023E+02  0.35115248415E+02  0.41800000000E+01 0.  1.
        -11    1    1    2    0    0 -0.66231851421E+02 -0.35526128939E+02  0.21299521566E+02  0.78118074727E+02  0.00000000000E+00 0.  1.
         11    1    1    2    0    0  0.48741255481E+01  0.36159197180E+02 -0.47608429690E+01  0.36795519650E+02  0.00000000000E+00 0. -1.
</event>
<event>
 7    1  0.2619826E-009  0.8848902E+02  0.7561462E-02  0.1306553E+00
          1   -1    0    0  501    0  0.00000000000E+00  0.00000000000E+00  0.73700779572E+02  0.73700779572E+02  0.00000000000E+00 0. -1.
         -1   -1    0    0    0  501 -0.00000000000E+00 -0.00000000000E+00 -0.20203155219E+03  0.20203155219E+03  0.00000000000E+00 0.  1.
         25    2    1    2    0    0 -0.15320861826E+02  0.47580843964E+02 -0.90589139399E+02  0.16233485049E+03  0.12509015144E+03 0.  0.
          5    1    3    3  502    0 -0.37817794246E+02  0.52655616245E+02 -0.11271958026E+03  0.13009986802E+03  0.41800000000E+01 0.  1.
         -5    1    3    3    0  502  0.22496932420E+02 -0.50747722813E+01  0.22130440863E+02  0.32234982470E+02  0.41800000000E+01 0.  1.
        -11    1    1    2    0    0  0.20383969235E+02 -0.66207272886E+02  0.19065019697E+01  0.69300389137E+02  0.00000000000E+00 0. -1.
         11    1    1    2    0    0 -0.50631074095E+01  0.18626428922E+02 -0.39648135184E+02  0.44097092133E+02  0.00000000000E+00 0.  1.
</event>
<event>
 7    1  0.2619826E-009  0.1701107E+03  0.7561462E-02  0.1177732E+00
          1   -1    0    0  501    0  0.00000000000E+00  0.00000000000E+00  0.13026729950E+04  0.13026729950E+04  0.00000000000E+00 0. -1.
         -1   -1    0    0    0  501 -0.00000000000E+00 -0.00000000000E+00 -0.29833870479E+02  0.29833870479E+02  0.00000000000E+00 0.  1.
         25    2    1    2    0    0  0.45372501833E+02 -0.13785681526E+03  0.93239351326E+03  0.95187611240E+03  0.12508918561E+03 0.  0.
          5    1    3    3  502    0  0.17170088093E+02 -0.15517954994E+03  0.81521591790E+03  0.83004214943E+03  0.41800000000E+01 0. -1.
         -5    1    3    3    0  502  0.28202413740E+02  0.17322734679E+02  0.11717759536E+03  0.12183396297E+03  0.41800000000E+01 0. -1.
        -11    1    1    2    0    0  0.69976726039E+01  0.29649639281E+02  0.15540025701E+02  0.34198843988E+02  0.00000000000E+00 0.  1.
         11    1    1    2    0    0 -0.52370174436E+02  0.10820717598E+03  0.32490558554E+03  0.34643190907E+03  0.00000000000E+00 0. -1.
</event>
<event>
 7    1  0.2619826E-009  0.2790051E+03  0.7561462E-02  0.1096234E+00
          3   -1    0    0  501    0  0.00000000000E+00  0.00000000000E+00  0.89904021273E+03  0.89904021273E+03  0.00000000000E+00 0. -1.
         -3   -1    0    0    0  501 -0.00000000000E+00 -0.00000000000E+00 -0.12575913392E+03  0.12575913392E+03  0.00000000000E+00 0.  1.
         25    2    1    2    0    0 -0.12492151589E+03  0.24419388412E+03  0.63750410682E+03  0.70519184669E+03  0.12509203116E+03 0.  0.
          5    1    3    3  502    0 -0.10523711692E+03  0.17673001982E+03  0.57624661419E+03  0.61187088789E+03  0.41800000000E+01 0.  1.
         -5    1    3    3    0  502 -0.19684398967E+02  0.67463864296E+02  0.61257492631E+02  0.93320958802E+02  0.41800000000E+01 0.  1.
        -11    1    1    2    0    0  0.74511343714E+02 -0.76585319234E+02  0.87334869687E+02  0.13800228595E+03  0.00000000000E+00 0.  1.
         11    1    1    2    0    0  0.50410172177E+02 -0.16760856488E+03  0.48442102305E+02  0.18160521401E+03  0.00000000000E+00 0. -1.
</event>
<event>
 6    1  0.2619826E-009  0.6340176E+02  0.7561462E-02  0.1384086E+00
          3   -1    0    0  501    0  0.00000000000E+00  0.00000000000E+00  0.72165535611E+02  0.72165535611E+02  0.00000000000E+00 0. -1.
         -3   -1    0    0    0  501 -0.00000000000E+00 -0.00000000000E+00 -0.24296799278E+03  0.24296799278E+03  0.00000000000E+00 0.  1.
          5    1    1    2  502    0 -0.20199165433E+02  0.32561984359E+02 -0.64078359567E+01  0.39074568088E+02  0.41800000000E+01 0.  1.
         -5    1    1    2    0  502  0.22745864334E+02 -0.35083350093E+02 -0.18280159132E+03  0.18756894729E+03  0.41800000000E+01 0.  1.
        -11    1    1    2    0    0 -0.13138489539E+02  0.21097601425E+02  0.46773259994E+02  0.52966655017E+02  0.00000000000E+00 0. -1.
         11    1    1    2    0    0  0.10591790638E+02 -0.18576235691E+02 -0.28366289881E+02  0.35523357991E+02  0.00000000000E+00 0.  1.
</event>
<event>
 7    1  0.2619826E-009  0.8315150E+02  0.7561462E-02  0.1320339E+00
         -2   -1    0    0    0  501 -0.00000000000E+00  0.00000000000E+00  0.19119763222E+02  0.19119763222E+02  0.00000000000E+00 0.  1.
          2   -1    0    0  501    0  0.00000000000E+00 -0.00000000000E+00 -0.71392110393E+03  0.71392110393E+03  0.00000000000E+00 0. -1.
         25    2    1    2    0    0  0.36064304191E+02 -0.90816133786E+01 -0.46179427850E+03  0.47987995766E+03  0.12509080053E+03 0.  0.
          5    1    3    3  502    0 -0.74411788641E+01 -0.49880646151E+02 -0.34479569063E+03  0.34848958475E+03  0.41800000000E+01 0. -1.
         -5    1    3    3    0  502  0.43505483055E+02  0.40799032773E+02 -0.11699858787E+03  0.13139037291E+03  0.41800000000E+01 0. -1.
        -11    1    1    2    0    0 -0.45510973315E+02  0.56631077831E+01 -0.23769200255E+03  0.24207603673E+03  0.00000000000E+00 0. -1.
         11    1    1    2    0    0  0.94466691239E+01  0.34185055955E+01  0.46849403414E+01  0.11084872757E+02  0.00000000000E+00 0.  1.
</event>
<event>
 7    1  0.2619826E-009  0.5648573E+02  0.7561462E-02  0.1413201E+00
          1   -1    0    0  501    0  0.00000000000E+00  0.00000000000E+00  0.44478865991E+02  0.44478865991E+02  0.00000000000E+00 0. -1.
         -1   -1    0    0    0  501 -0.00000000000E+00 -0.00000000000E+00 -0.31472039682E+03  0.31472039682E+03  0.00000000000E+00 0.  1.
         25    2    1    2    0    0  0.67588895654E+01 -0.10639951730E+02 -0.89393624937E+02  0.15426559274E+03  0.12509101392E+03 0.  0.
          5    1    3    3  502    0 -0.34209083804E+01  0.14325300231E+02 -0.11549652399E+03  0.11650680793E+03  0.41800000000E+01 0.  1.
         -5    1    3    3    0  502  0.10179797946E+02 -0.24965251961E+02  0.26102899052E+02  0.37758784814E+02  0.41800000000E+01 0.  1.
        -11    1    1    2    0    0  0.10459974946E+02 -0.27017279521E+02 -0.15133999871E+03  0.15408809064E+03  0.00000000000E+00 0.  1.
         11    1    1    2    0    0 -0.17218864511E+02  0.37657231251E+02 -0.29507907183E+02  0.50845579423E+02  0.00000000000E+00 0. -1.
</event>
<event>
 7    1  0.2619826E-009  0.1005996E+03  0.7561462E-02  0.1279040E+00
          1   -1    0    0  501    0  0.00000000000E+00  0.00000000000E+00  0.32866491065E+02  0.32866491065E+02  0.00000000000E+00 0. -1.
         -1   -1    0    0    0  501 -0.00000000000E+00 -0.00000000000E+00 -0.42717278782E+03  0.42717278782E+03  0.00000000000E+00 0.  1.
         25    2    1    2    0    0 -0.21200323402E+02  0.29830322235E+01 -0.28256967043E+03  0.30976341928E+03  0.12509758226E+03 0.  0.
          5    1    3    3  502    0 -0.40935660659E+02  0.40740078700E+02 -0.61041142304E+02  0.84136649445E+02  0.41800000000E+01 0.  1.
         -5    1    3    3    0  502  0.19735337258E+02 -0.37757046477E+02 -0.22152852812E+03  0.22562676984E+03  0.41800000000E+01 0.  1.
        -11    1    1    2    0    0  0.38282034509E+01  0.47213549518E+02 -0.53073867838E+02  0.71137963473E+02  0.00000000000E+00 0. -1.
         11    1    1    2    0    0  0.17372119951E+02 -0.50196581742E+02 -0.58662758495E+02  0.79137896133E+02  0.00000000000E+00 0.  1.
</event>
<event>
 7    1  0.2619826E-009  0.1225053E+03  0.7561462E-02  0.1239020E+00
          1   -1    0    0  501    0  0.00000000000E+00  0.00000000000E+00  0.84606089226E+02  0.84606089226E+02  0.00000000000E+00 0. -1.
         -1   -1    0    0    0  501 -0.00000000000E+00 -0.00000000000E+00 -0.23394908924E+03  0.23394908924E+03  0.00000000000E+00 0.  1.
         25    2    1    2    0    0 -0.46528339069E+02  0.38865222674E+02 -0.15740034718E+03  0.20999471620E+03  0.12509004625E+03 0.  0.
          5    1    3    3  502    0  0.24463505048E+01  0.76204781215E+02 -0.74927900435E+02  0.10698044669E+03  0.41800000000E+01 0.  1.
         -5    1    3    3    0  502 -0.48974689574E+02 -0.37339558542E+02 -0.82472446745E+02  0.10301426951E+03  0.41800000000E+01 0.  1.
        -11    1    1    2    0    0  0.45297756493E+02  0.18946210302E+02  0.12182048463E+02  0.50589010001E+02  0.00000000000E+00 0. -1.
         11    1    1    2    0    0  0.12305825757E+01 -0.57811432976E+02 -0.41247012951E+01  0.57971452259E+02  0.00000000000E+00 0.  1.
</event>
<event>
 7    1  0.2619826E-009  0.1333003E+03  0.7561462E-02  0.1222639E+00
         -3   -1    0    0    0  501 -0.00000000000E+00  0.00000000000E+00  0.79042423506E+02  0.79042423506E+02  0.00000000000E+00 0.  1.
          3   -1    0    0  501    0  0.00000000000E+00 -0.00000000000E+00 -0.31244387301E+03  0.31244387301E+03  0.00000000000E+00 0. -1.
         25    2    1    2    0    0 -0.80754658279E+02  0.67046869234E+02 -0.74443078401E+02  0.17945994389E+03  0.12508997574E+03 0.  0.
          5    1    3    3  502    0 -0.83649219758E+02 -0.95233319609E+01 -0.53778721089E+02  0.99987544523E+02  0.41800000000E+01 0.  1.
         -5    1    3    3    0  502  0.28945614789E+01  0.76570201195E+02 -0.20664357312E+02  0.79472399362E+02  0.41800000000E+01 0.  1.
        -11    1    1    2    0    0  0.24488087238E+02 -0.13838358590E+02 -0.12384108969E+03  0.12699520495E+03  0.00000000000E+00 0. -1.
         11    1    1    2    0    0  0.56266571042E+02 -0.53208510644E+02 -0.35117281411E+02  0.85031147678E+02  0.00000000000E+00 0.  1.
</event>
<event>
 7    1  0.2619826E-009  0.1026877E+03  0.7561462E-02  0.1274743E+00
          2   -1    0    0  501    0  0.00000000000E+00  0.00000000000E+00  0.52788784508E+02  0.52788784508E+02  0.00000000000E+00 0. -1.
         -2   -1    0    0    0  501 -0.00000000000E+00 -0.00000000000E+00 -0.30741921827E+03  0.30741921827E+03  0.00000000000E+00 0.  1.
         25    2    1    2    0    0  0.41608700517E+02  0.44288975821E+02 -0.13554658951E+03  0.19420391230E+03  0.12509789882E+03 0.  0.
          5    1    3    3  502    0  0.82542027042E+02  0.34907981566E+02 -0.60838333329E+02  0.10839985520E+03  0.41800000000E+01 0.  1.
         -5    1    3    3    0  502 -0.40933326525E+02  0.93809942545E+01 -0.74708256182E+02  0.85804057103E+02  0.41800000000E+01 0.  1.
        -11    1    1    2    0    0 -0.53162169631E+01 -0.35788578610E+02  0.49244627686E+01  0.36514858007E+02  0.00000000000E+00 0. -1.
         11    1    1    2    0    0 -0.36292483554E+02 -0.85003972111E+01 -0.12400830702E+03  0.12948923247E+03  0.00000000000E+00 0.  1.
</event>
<event>
 7    1  0.2619826E-009  0.1323773E+03  0.7561462E-02  0.1223970E+00
         -2   -1    0    0    0  501 -0.00000000000E+00  0.00000000000E+00  0.31217454740E+02  0.31217454740E+02  0.00000000000E+00 0.  1.
          2   -1    0    0  501    0  0.00000000000E+00 -0.00000000000E+00 -0.67070069301E+03  0.67070069301E+03  0.00000000000E+00 0. -1.
         25    2    1    2    0    0  0.47638607660E+02  0.23604064481E+02 -0.42170231958E+03  0.44306627585E+03  0.12509312393E+03 0.  0.
          5    1    3    3  502    0  0.24076251978E+02 -0.49210618754E+02 -0.23303203537E+03  0.23942170498E+03  0.41800000000E+01 0. -1.
         -5    1    3    3    0  502  0.23562355682E+02  0.72814683234E+02 -0.18867028422E+03  0.20364457087E+03  0.41800000000E+01 0. -1.
        -11    1    1    2    0    0 -0.70305391786E+02  0.28871588049E+02 -0.16219653567E+03  0.17912044242E+03  0.00000000000E+00 0. -1.
         11    1    1    2    0    0  0.22666784126E+02 -0.52475652529E+02 -0.55584383020E+02  0.79731429478E+02  0.00000000000E+00 0.  1.
</event>
<event>
 7    1  0.2619826E-009  0.1458327E+03  0.7561462E-02  0.1205689E+00
          2   -1    0    0  501    0  0.00000000000E+00  0.00000000000E+00  0.19674707593E+03  0.19674707593E+03  0.00000000000E+00 0. -1.
         -2   -1    0    0    0  501 -0.00000000000E+00 -0.00000000000E+00 -0.16979478397E+03  0.16979478397E+03  0.00000000000E+00 0.  1.
         25    2    1    2    0    0  0.12507670725E+03 -0.34366026158E+01 -0.62636603822E+02  0.18768874084E+03  0.12509087244E+03 0.  0.
          5    1    3    3  502    0  0.30958072267E+02 -0.38837947583E+02  0.23605057097E+02  0.55149429113E+02  0.41800000000E+01 0. -1.
         -5    1    3    3    0  502  0.94118634979E+02  0.35401344968E+02 -0.86241660919E+02  0.13253931173E+03  0.41800000000E+01 0. -1.
        -11    1    1    2    0    0 -0.62594218167E+02  0.34423855095E+02  0.81914652881E+02  0.10868784801E+03  0.00000000000E+00 0. -1.
         11    1    1    2    0    0 -0.62482489079E+02 -0.30987252480E+02  0.76742428932E+01  0.70165271051E+02  0.00000000000E+00 0.  1.
</event>
<event>
 7    1  0.2619826E-009  0.9003032E+02  0.7561462E-02  0.1302778E+00
         -2   -1    0    0    0  501 -0.00000000000E+00  0.00000000000E+00  0.86352841185E+02  0.86352841185E+02  0.00000000000E+00 0.  1.
          2   -1    0    0  501    0  0.00000000000E+00 -0.00000000000E+00 -0.16766205721E+03  0.16766205721E+03  0.00000000000E+00 0. -1.
         25    2    1    2    0    0 -0.11975862674E+02 -0.49346829665E+02 -0.37415368995E+02  0.14009063351E+03  0.12508774871E+03 0.  0.
          5    1    3    3  502    0  0.16133053518E+02 -0.65597171633E+02  0.22911498020E+02  0.71453995574E+02  0.41800000000E+01 0.  1.
         -5    1    3    3    0  502 -0.28108916193E+02  0.16250341968E+02 -0.60326867016E+02  0.68636637939E+02  0.41800000000E+01 0.  1.
        -11    1    1    2    0    0  0.33356862722E+02  0.99342424320E+01 -0.57371990737E+02  0.67103761329E+02  0.00000000000E+00 0. -1.
         11    1    1    2    0    0 -0.21381000048E+02  0.39412587233E+02  0.13478143705E+02  0.46820503555E+02  0.00000000000E+00 0.  1.
</event>
<event>
 7    1  0.2619826E-009  0.1163154E+03  0.7561462E-02  0.1249302E+00
          2   -1    0    0  501    0  0.00000000000E+00  0.00000000000E+00  0.84021545472E+03  0.84021545472E+03  0.00000000000E+00 0. -1.
         -2   -1    0    0    0  501 -0.00000000000E+00 -0.00000000000E+00 -0.16950991746E+02  0.16950991746E+02  0.00000000000E+00 0.  1.
         25    2    1    2    0    0 -0.21766249419E+02  0.52795284577E+02  0.49677879437E+03  0.51545872259E+03  0.12508961776E+03 0.  0.
          5    1    3    3  502    0  0.12924564227E+02 -0.37387819959E+02  0.11786669908E+03  0.12439824996E+03  0.41800000000E+01 0.  1.
         -5    1    3    3    0  502 -0.34690813647E+02  0.90183104536E+02  0.37891209529E+03  0.39106047263E+03  0.41800000000E+01 0.  1.
        -11    1    1    2    0    0  0.51052624954E+02 -0.33161615159E+02  0.15282593861E+03  0.16450480463E+03  0.00000000000E+00 0.  1.
         11    1    1    2    0    0 -0.29286375535E+02 -0.19633669418E+02  0.17365973000E+03  0.17720291924E+03  0.00000000000E+00 0. -1.
</event>
<event>
 7    1  0.2619826E-009  0.1407257E+03  0.7561462E-02  0.1212356E+00
          4   -1    0    0  501    0  0.00000000000E+00  0.00000000000E+00  0.63189092797E+02  0.63189092797E+02  0.00000000000E+00 0. -1.
         -4   -1    0    0    0  501 -0.00000000000E+00 -0.00000000000E+00 -0.33281409294E+03  0.33281409294E+03  0.00000000000E+00 0.  1.
         25    2    1    2    0    0  0.48911714786E+02  0.93909913568E+02 -0.13806933165E+03  0.21429474324E+03  0.12509064285E+03 0.  0.
          5    1    3    3  502    0  0.40425918599E+02  0.12089934001E+03 -0.82805937610E+02  0.15206972418E+03  0.41800000000E+01 0.  1.
         -5    1    3    3    0  502  0.84857961872E+01 -0.26989426439E+02 -0.55263394035E+02  0.62225019058E+02  0.41800000000E+01 0.  1.
        -11    1    1    2    0    0 -0.19041127785E+01 -0.74375329444E+02 -0.75873822170E+02  0.10626453861E+03  0.00000000000E+00 0.  1.
         11    1    1    2    0    0 -0.47007602007E+02 -0.19534584123E+02 -0.55681846325E+02  0.75443903886E+02  0.00000000000E+00 0. -1.
</event>
<event>
 7    1  0.2619826E-009  0.1612687E+03  0.7561462E-02  0.1187272E+00
          1   -1    0    0  501    0  0.00000000000E+00  0.00000000000E+00  0.11526244696E+04  0.11526244696E+04  0.00000000000E+00 0. -1.
         -1   -1    0    0    0  501 -0.00000000000E+00 -0.00000000000E+00 -0.25165824297E+02  0.25165824297E+02  0.00000000000E+00 0.  1.
         25    2    1    2    0    0  0.54530024612E+02  0.11980812970E+03  0.59012566453E+03  0.61743235406E+03  0.12508757084E+03 0.  0.
          5    1    3    3  502    0  0.57559140690E+02  0.14086560723E+03  0.43647874743E+03  0.46226328357E+03  0.41800000000E+01 0. -1.
         -5    1    3    3    0  502 -0.30291160778E+01 -0.21057477523E+02  0.15364691710E+03  0.15516907049E+03  0.41800000000E+01 0. -1.
        -11    1    1    2    0    0 -0.67264028054E+02 -0.11791821312E+03  0.52590500922E+03  0.54314384207E+03  0.00000000000E+00 0. -1.
         11    1    1    2    0    0  0.12734003442E+02 -0.18899165876E+01  0.11427971575E+02  0.17214097789E+02  0.00000000000E+00 0.  1.
</event>
<event>
 7    1  0.2619826E-009  0.1103102E+03  0.7561462E-02  0.1259997E+00
          2   -1    0    0  501    0  0.00000000000E+00  0.00000000000E+00  0.58948382974E+03  0.58948382974E+03  0.00000000000E+00 0. -1.
         -2   -1    0    0    0  501 -0.00000000000E+00 -0.00000000000E+00 -0.26412577083E+02  0.26412577083E+02  0.00000000000E+00 0.  1.
         25    2    1    2    0    0  0.30188422873E+02 -0.52023933318E+02  0.32557889914E+03  0.35392705140E+03  0.12507960520E+03 0.  0.
          5    1    3    3  502    0 -0.33473238580E+02 -0.90124107690E+01  0.22289873891E+03  0.22561693521E+03  0.41800000000E+01 0. -1.
         -5    1    3    3    0  502  0.63661661453E+02 -0.43011522549E+02  0.10268016023E+03  0.12831011619E+03  0.41800000000E+01 0. -1.
        -11    1    1    2    0    0 -0.62305278521E+02  0.41909050077E+02  0.18436891160E+03  0.19907338289E+03  0.00000000000E+00 0.  1.
         11    1    1    2    0    0  0.32116855648E+02  0.10114883240E+02  0.53123441922E+02  0.62895972536E+02  0.00000000000E+00 0. -1.
</event>
<event>
 7    1  0.2619826E-009  0.1101770E+03  0.7561462E-02  0.1260242E+00
          4   -1    0    0  501    0  0.00000000000E+00  0.00000000000E+00  0.39241331646E+02  0.39241331646E+02  0.00000000000E+00 0.  1.
         -4   -1    0    0    0  501 -0.00000000000E+00 -0.00000000000E+00 -0.40125943530E+03  0.40125943530E+03  0.00000000000E+00 0. -1.
         25    2    1    2    0    0  0.34358580427E+02  0.11750103707E+02 -0.11083352757E+03  0.17102481967E+03  0.12508733398E+03 0.  0.
          5    1    3    3  502    0 -0.34433376816E+02  0.37793954305E+02 -0.70018474475E+02  0.86799191176E+02  0.41800000000E+01 0.  1.
         -5    1    3    3    0  502  0.68791957243E+02 -0.26043850598E+02 -0.40815053097E+02  0.84225628491E+02  0.41800000000E+01 0.  1.
        -11    1    1    2    0    0 -0.33871655869E+02  0.34954270206E+02 -0.15656358663E+03  0.16395501437E+03  0.00000000000E+00 0. -1.
         11    1    1    2    0    0 -0.48692455836E+00 -0.46704373913E+02 -0.94620989450E+02  0.10552093291E+03  0.00000000000E+00 0.  1.
</event>
<event>
 7    1  0.2619826E-009  0.1036186E+03  0.7561462E-02  0.1272866E+00
          1   -1    0    0  501    0  0.00000000000E+00  0.00000000000E+00  0.15923777868E+03  0.15923777868E+03  0.00000000000E+00 0. -1.
         -1   -1    0    0    0  501 -0.00000000000E+00 -0.00000000000E+00 -0.10543893346E+03  0.10543893346E+03  0.00000000000E+00 0.  1.
         25    2    1    2    0    0 -0.20783962187E+02  0.67550749962E+02  0.16230650201E+02  0.14458918197E+03  0.12509005009E+03 0.  0.
          5    1    3    3  502    0  0.18627415542E+02  0.42171114160E+02  0.63040729267E+02  0.78211184787E+02  0.41800000000E+01 0.  1.
         -5    1    3    3    0  502 -0.39411377729E+02  0.25379635802E+02 -0.46810079065E+02  0.66377997183E+02  0.41800000000E+01 0.  1.
        -11    1    1    2    0    0 -0.30991111011E+02 -0.50725732425E+02  0.16276342796E+02  0.61631714454E+02  0.00000000000E+00 0.  1.
         11    1    1    2    0    0  0.51775073197E+02 -0.16825017536E+02  0.21291852219E+02  0.58455815712E+02  0.00000000000E+00 0. -1.
</event>
<event>
 7    1  0.2619826E-009  0.1021572E+03  0.7561462E-02  0.1275824E+00
         -4   -1    0    0    0  501 -0.00000000000E+00  0.00000000000E+00  0.55967786185E+02  0.55967786185E+02  0.00000000000E+00 0.  1.
          4   -1    0    0  501    0  0.00000000000E+00 -0.00000000000E+00 -0.32488425790E+03  0.32488425790E+03  0.00000000000E+00 0. -1.
         25    2    1    2    0    0 -0.69555310579E+01  0.70315638176E+02 -0.20440639654E+03  0.24984519972E+03  0.12509188818E+03 0.  0.
          5    1    3    3  502    0 -0.45475396585E+02  0.17003669182E+02 -0.16721496331E+03  0.17417075763E+03  0.41800000000E+01 0. -1.
         -5    1    3    3    0  502  0.38519865527E+02  0.53311968994E+02 -0.37191433236E+02  0.75674442082E+02  0.41800000000E+01 0. -1.
        -11    1    1    2    0    0  0.25188165974E+02 -0.66420122543E+02 -0.79842002137E+02  0.10686824453E+03  0.00000000000E+00 0. -1.
         11    1    1    2    0    0 -0.18232634916E+02 -0.38955156326E+01  0.15331926963E+02  0.24138599844E+02  0.00000000000E+00 0.  1.
</event>
<event>
 7    1  0.2619826E-009  0.9239991E+02  0.7561462E-02  0.1297142E+00
          1   -1    0    0  501    0  0.00000000000E+00  0.00000000000E+00  0.36896228691E+02  0.36896228691E+02  0.00000000000E+00 0. -1.
         -1   -1    0    0    0  501 -0.00000000000E+00 -0.00000000000E+00 -0.44813164204E+03  0.44813164204E+03  0.00000000000E+00 0.  1.
         25    2    1    2    0    0  0.67444006033E+02 -0.13976690406E+02 -0.22187062631E+03  0.26384588640E+03  0.12507611732E+03 0.  0.
          5    1    3    3  502    0  0.52634169795E+02 -0.29500891723E+02 -0.23199992820E+03  0.23975424402E+03  0.41800000000E+01 0.  1.
         -5    1    3    3    0  502  0.14809836238E+02  0.15524201316E+02  0.10129301881E+02  0.24091642378E+02  0.41800000000E+01 0.  1.
        -11    1    1    2    0    0  0.45149595907E+01  0.28662848590E+02 -0.10683829100E+03  0.11070846478E+03  0.00000000000E+00 0.  1.
         11    1    1    2    0    0 -0.71958965623E+02 -0.14686158184E+02 -0.82526496040E+02  0.11047351956E+03  0.00000000000E+00 0. -1.
</event>
<event>
 7    1  0.3182995E-009  0.1172574E+03  0.7561462E-02  0.1247691E+00
          2   -1    0    0  501    0  0.00000000000E+00  0.00000000000E+00  0.53426192214E+03  0.53426192214E+03  0.00000000000E+00 0.  1.
         -2   -1    0    0    0  501 -0.00000000000E+00 -0.00000000000E+00 -0.46841583505E+02  0.46841583505E+02  0.00000000000E+00 0. -1.
         25    2    1    2    0    0  0.55627226996E+01  0.98947968192E+02  0.15512594020E+03  0.22256044584E+03  0.12508976951E+03 0.  0.
          5    1    3    3  502    0  0.76991095306E+01  0.86833128717E+02  0.23619318015E+02  0.90413567090E+02  0.41800000000E+01 0. -1.
         -5    1    3    3    0  502 -0.21363868310E+01  0.12114839474E+02  0.13150662219E+03  0.13214687875E+03  0.41800000000E+01 0. -1.
        -11    1    1    2    0    0 -0.35182858937E+02 -0.47487644605E+01  0.75973171214E+02  0.83858852075E+02  0.00000000000E+00 0.  1.
         11    1    1    2    0    0  0.29620136238E+02 -0.94199203731E+02  0.25632122722E+03  0.27468420773E+03  0.00000000000E+00 0. -1.
</event>
<event>
 7    1  0.2619826E-009  0.1098378E+03  0.7561462E-02  0.1260871E+00
          1   -1    0    0  501    0  0.00000000000E+00  0.00000000000E+00  0.45332690801E+03  0.45332690801E+03  0.00000000000E+00 0. -1.
         -1   -1    0    0    0  501 -0.00000000000E+00 -0.00000000000E+00 -0.44455682545E+02  0.44455682545E+02  0.00000000000E+00 0.  1.
         25    2    1    2    0    0  0.72008361258E+02 -0.46370158784E+02  0.17629066430E+03  0.23251066464E+03  0.12508962841E+03 0.  0.
          5    1    3    3  502    0  0.59997253812E+01 -0.24953999413E+02 -0.14272005649E+02  0.29662456686E+02  0.41800000000E+01 0.  1.
         -5    1    3    3    0  502  0.66008635877E+02 -0.21416159371E+02  0.19056266995E+03  0.20284820796E+03  0.41800000000E+01 0.  1.
        -11    1    1    2    0    0 -0.77070186705E+02 -0.43616228518E+00  0.11322494876E+03  0.13696675852E+03  0.00000000000E+00 0.  1.
         11    1    1    2    0    0  0.50618254468E+01  0.46806321070E+02  0.11935561240E+03  0.12830516739E+03  0.00000000000E+00 0. -1.
</event>
<event>
 7    1  0.2619826E-009  0.1314642E+03  0.7561462E-02  0.1225299E+00
         -2   -1    0    0    0  501 -0.00000000000E+00  0.00000000000E+00  0.12196869656E+02  0.12196869656E+02  0.00000000000E+00 0.  1.
          2   -1    0    0  501    0  0.00000000000E+00 -0.00000000000E+00 -0.28916795737E+04  0.28916795737E+04  0.00000000000E+00 0. -1.
         25    2    1    2    0    0  0.37889881835E+02  0.77161695778E+02 -0.25240572976E+04  0.25286167149E+04  0.12509068090E+03 0.  0.
          5    1    3    3  502    0 -0.27394307702E+02  0.73793081630E+02 -0.17571019625E+04  0.17588691384E+04  0.41800000000E+01 0. -1.
         -5    1    3    3    0  502  0.65284189537E+02  0.33686141478E+01 -0.76695533514E+03  0.76974757646E+03  0.41800000000E+01 0. -1.
        -11    1    1    2    0    0 -0.63223801633E+02 -0.64342491528E+02 -0.29524185876E+03  0.30871501498E+03  0.00000000000E+00 0. -1.
         11    1    1    2    0    0  0.25333919797E+02 -0.12819204249E+02 -0.60183547598E+02  0.66544713474E+02  0.00000000000E+00 0.  1.
</event>
<event>
 7    1  0.2619826E-009  0.2203359E+03  0.7561462E-02  0.1133633E+00
         -1   -1    0    0    0  501 -0.00000000000E+00  0.00000000000E+00  0.24388800540E+02  0.24388800540E+02  0.00000000000E+00 0.  1.
          1   -1    0    0  501    0  0.00000000000E+00 -0.00000000000E+00 -0.21009457462E+04  0.21009457462E+04  0.00000000000E+00 0. -1.
         25    2    1    2    0    0 -0.77990815985E+02  0.18171789361E+03 -0.11406528952E+04  0.11644057405E+04  0.12509093059E+03 0.  0.
          5    1    3    3  502    0 -0.12673130300E+02  0.15000866963E+03 -0.58764814516E+03  0.60663912181E+03  0.41800000000E+01 0.  1.
         -5    1    3    3    0  502 -0.65317685685E+02  0.31709223985E+02 -0.55300475004E+03  0.55776661868E+03  0.41800000000E+01 0.  1.
        -11    1    1    2    0    0  0.45519190744E+02 -0.15656434635E+02 -0.18074780622E+03  0.18704782844E+03  0.00000000000E+00 0.  1.
         11    1    1    2    0    0  0.32471625241E+02 -0.16606145898E+03 -0.75515624423E+03  0.77388097780E+03  0.00000000000E+00 0. -1.
</event>
<event>
 7    1  0.2619826E-009  0.1161082E+03  0.7561462E-02  0.1249659E+00
          2   -1    0    0  501    0  0.00000000000E+00  0.00000000000E+00  0.20160442652E+02  0.20160442652E+02  0.00000000000E+00 0. -1.
         -2   -1    0    0    0  501 -0.00000000000E+00 -0.00000000000E+00 -0.81400374008E+03  0.81400374008E+03  0.00000000000E+00 0.  1.
         25    2    1    2    0    0  0.11271896992E+02 -0.74832796588E+02 -0.43164606316E+03  0.45573403097E+03  0.12509268578E+03 0.  0.
          5    1    3    3  502    0  0.59493512532E+02 -0.33877609737E+02 -0.12481001981E+03  0.14241553258E+03  0.41800000000E+01 0. -1.
         -5    1    3    3    0  502 -0.48221615540E+02 -0.40955186851E+02 -0.30683604335E+03  0.31331849839E+03  0.41800000000E+01 0. -1.
        -11    1    1    2    0    0 -0.37663306857E+02  0.29806536557E+02 -0.98121263540E+02  0.10924622036E+03  0.00000000000E+00 0. -1.
         11    1    1    2    0    0  0.26391409865E+02  0.45026260031E+02 -0.26407597073E+03  0.26918393140E+03  0.00000000000E+00 0.  1.
</event>
<event>
 7    1  0.2619826E-009  0.2436310E+03  0.7561462E-02  0.1117397E+00
          2   -1    0    0  501    0  0.00000000000E+00  0.00000000000E+00  0.65405617739E+03  0.65405617739E+03  0.00000000000E+00 0. -1.
         -2   -1    0    0    0  501 -0.00000000000E+00 -0.00000000000E+00 -0.10093195430E+03  0.10093195430E+03  0.00000000000E+00 0.  1.
         25    2    1    2    0    0 -0.25667430364E+02 -0.23185593395E+03  0.36245171578E+03  0.44881463860E+03  0.12508933790E+03 0.  0.
          5    1    3    3  502    0 -0.60462330207E+02 -0.10524892391E+03  0.10832546946E+03  0.16274184800E+03  0.41800000000E+01 0.  1.
         -5    1    3    3    0  502  0.34794899844E+02 -0.12660701004E+03  0.25412624632E+03  0.28607279059E+03  0.41800000000E+01 0.  1.
        -11    1    1    2    0    0  0.27367107269E+02  0.14442183838E+03  0.88057766759E+02  0.17134992340E+03  0.00000000000E+00 0. -1.
         11    1    1    2    0    0 -0.16996769056E+01  0.87434095571E+02  0.10261474054E+03  0.13482356970E+03  0.00000000000E+00 0.  1.
</event>
<event>
 7    1  0.2619826E-009  0.9144066E+02  0.7561462E-02  0.1299400E+00
          2   -1    0    0  501    0  0.00000000000E+00  0.00000000000E+00  0.21222689633E+03  0.21222689633E+03  0.00000000000E+00 0.  1.
         -2   -1    0    0    0  501 -0.00000000000E+00 -0.00000000000E+00 -0.74496799843E+02  0.74496799843E+02  0.00000000000E+00 0. -1.
         25    2    1    2    0    0 -0.58175921260E+02  0.47679395734E+01  0.52188981185E+02  0.14756703150E+03  0.12508064586E+03 0.  0.
          5    1    3    3  502    0 -0.79353430151E+02  0.61245010367E+01  0.79606035889E+02  0.11264577107E+03  0.41800000000E+01 0.  1.
         -5    1    3    3    0  502  0.21177508891E+02 -0.13565614633E+01 -0.27417054704E+02  0.34921260436E+02  0.41800000000E+01 0.  1.
        -11    1    1    2    0    0  0.28892113077E+02  0.26149900892E+02 -0.48180374326E+01  0.39265570152E+02  0.00000000000E+00 0. -1.
         11    1    1    2    0    0  0.29283808183E+02 -0.30917840465E+02  0.90359152730E+02  0.99891094512E+02  0.00000000000E+00 0.  1.
</event>
<event>
 7    1  0.2619826E-009  0.2428287E+03  0.7561462E-02  0.1117923E+00
          2   -1    0    0  501    0  0.00000000000E+00  0.00000000000E+00  0.14190898221E+03  0.14190898221E+03  0.00000000000E+00 0. -1.
         -2   -1    0    0    0  501 -0.00000000000E+00 -0.00000000000E+00 -0.53697048190E+03  0.53697048190E+03  0.00000000000E+00 0.  1.
         25    2    1    2    0    0 -0.92762680845E+02  0.20328257870E+03 -0.55377392535E+02  0.26200784070E+03  0.12511087572E+03 0.  0.
          5    1    3    3  502    0 -0.64375451470E+02  0.21377072556E+02 -0.35806034960E+02  0.76816160556E+02  0.41800000000E+01 0.  1.
         -5    1    3    3    0  502 -0.28387229375E+02  0.18190550615E+03 -0.19571357575E+02  0.18519168015E+03  0.41800000000E+01 0.  1.
        -11    1    1    2    0    0 -0.48023121629E+01 -0.60025575367E+02 -0.45691441771E+02  0.75589944777E+02  0.00000000000E+00 0. -1.
         11    1    1    2    0    0  0.97564993008E+02 -0.14325700334E+03 -0.29399266539E+03  0.34128167863E+03  0.00000000000E+00 0.  1.
</event>
<event>
 7    1  0.2619826E-009  0.1375679E+03  0.7561462E-02  0.1216640E+00
         -3   -1    0    0    0  501 -0.00000000000E+00  0.00000000000E+00  0.19599274026E+03  0.19599274026E+03  0.00000000000E+00 0.  1.
          3   -1    0    0  501    0  0.00000000000E+00 -0.00000000000E+00 -0.12661920679E+03  0.12661920679E+03  0.00000000000E+00 0. -1.
         25    2    1    2    0    0 -0.44508029759E+02 -0.82441646596E+02  0.10157487712E+03  0.18639845544E+03  0.12509731701E+03 0.  0.
          5    1    3    3  502    0 -0.59219286469E+02 -0.10409154579E+03  0.10543506720E+03  0.15961202834E+03  0.41800000000E+01 0. -1.
         -5    1    3    3    0  502  0.14711256710E+02  0.21649899199E+02 -0.38601900787E+01  0.26786427099E+02  0.41800000000E+01 0. -1.
        -11    1    1    2    0    0  0.70022312370E+02  0.44130741542E+02 -0.53880310468E+01  0.82943821092E+02  0.00000000000E+00 0.  1.
         11    1    1    2    0    0 -0.25514282611E+02  0.38310905053E+02 -0.26813312608E+02  0.53269670509E+02  0.00000000000E+00 0. -1.
</event>
<event>
 7    1  0.2619826E-009  0.7559051E+02  0.7561462E-02  0.1342052E+00
          2   -1    0    0  501    0  0.00000000000E+00  0.00000000000E+00  0.25138243113E+03  0.25138243113E+03  0.00000000000E+00 0.  1.
         -2   -1    0    0    0  501 -0.00000000000E+00 -0.00000000000E+00 -0.62376215852E+02  0.62376215852E+02  0.00000000000E+00 0. -1.
         25    2    1    2    0    0  0.33181327178E+02  0.33440699721E+02  0.15577997434E+03  0.20526629983E+03  0.12509025769E+03 0.  0.
          5    1    3    3  502    0  0.32998850388E+02  0.27051373010E+02 -0.60126836684E+01  0.43293483038E+02  0.41800000000E+01 0.  1.
         -5    1    3    3    0  502  0.18247678946E+00  0.63893267111E+01  0.16179265801E+03  0.16197281679E+03  0.41800000000E+01 0.  1.
        -11    1    1    2    0    0  0.23242003556E+02 -0.37480563522E+02  0.26687065147E+02  0.51547869184E+02  0.00000000000E+00 0.  1.
         11    1    1    2    0    0 -0.56423330734E+02  0.40398638010E+01  0.65391757845E+01  0.56944477964E+02  0.00000000000E+00 0. -1.
</event>
<event>
 7    1  0.2619826E-009  0.9630740E+02  0.7561462E-02  0.1288258E+00
         -2   -1    0    0    0  501 -0.00000000000E+00  0.00000000000E+00  0.37444629615E+02  0.37444629615E+02  0.00000000000E+00 0.  1.
          2   -1    0    0  501    0  0.00000000000E+00 -0.00000000000E+00 -0.38858684464E+03  0.38858684464E+03  0.00000000000E+00 0. -1.
         25    2    1    2    0    0 -0.46620393844E+02 -0.21432837335E+02 -0.24000957177E+03  0.27547304793E+03  0.12509187805E+03 0.  0.
          5    1    3    3  502    0  0.24879811512E+02 -0.11331879638E+02 -0.17818993342E+03  0.18032343522E+03  0.41800000000E+01 0.  1.
         -5    1    3    3    0  502 -0.71500205356E+02 -0.10100957696E+02 -0.61819638350E+02  0.95149612706E+02  0.41800000000E+01 0.  1.
        -11    1    1    2    0    0  0.16073655225E+02 -0.29293365594E+02 -0.72575743311E+02  0.79898073677E+02  0.00000000000E+00 0.  1.
         11    1    1    2    0    0  0.30546738619E+02  0.50726202929E+02 -0.38556899943E+02  0.70660352653E+02  0.00000000000E+00 0. -1.
</event>
<event>
 7    1  0.2619826E-009  0.2032051E+03  0.7561462E-02  0.1147063E+00
          3   -1    0    0  501    0  0.00000000000E+00  0.00000000000E+00  0.61710597294E+03  0.61710597294E+03  0.00000000000E+00 0. -1.
         -3   -1    0    0    0  501 -0.00000000000E+00 -0.00000000000E+00 -0.81398268202E+02  0.81398268202E+02  0.00000000000E+00 0.  1.
         25    2    1    2    0    0 -0.19224549686E+03  0.38786859081E+02  0.28664247718E+03  0.36915539318E+03  0.12509613540E+03 0.  0.
          5    1    3    3  502    0 -0.13565054325E+03  0.59302205572E+01  0.26883252613E+03  0.30120530690E+03  0.41800000000E+01 0.  1.
         -5    1    3    3    0  502 -0.56594953611E+02  0.32856638524E+02  0.17809951046E+02  0.67950086281E+02  0.41800000000E+01 0.  1.
        -11    1    1    2    0    0  0.64107614902E+02  0.15296553056E+02  0.36541895942E+02  0.75359677434E+02  0.00000000000E+00 0.  1.
         11    1    1    2    0    0  0.12813788196E+03 -0.54083412137E+02  0.21252333161E+03  0.25398917052E+03  0.00000000000E+00 0. -1.
</event>
<event>
 7    1  0.2619826E-009  0.1199166E+03  0.7561462E-02  0.1243235E+00
          1   -1    0    0  501    0  0.00000000000E+00  0.00000000000E+00  0.79116479526E+02  0.79116479526E+02  0.00000000000E+00 0. -1.
         -1   -1    0    0    0  501 -0.00000000000E+00 -0.00000000000E+00 -0.30165596793E+03  0.30165596793E+03  0.00000000000E+00 0.  1.
         25    2    1    2    0    0  0.43290165226E+02  0.49934816461E+02 -0.22654518681E+03  0.26708903611E+03  0.12508519995E+03 0.  0.
          5    1    3    3  502    0  0.35985856442E+02  0.89546644841E+02 -0.18706115082E+03  0.21053011664E+03  0.41800000000E+01 0. -1.
         -5    1    3    3    0  502  0.73043087840E+01 -0.39611828380E+02 -0.39484035990E+02  0.56558919478E+02  0.41800000000E+01 0. -1.
        -11    1    1    2    0    0  0.73549897538E+01  0.17163868006E+02 -0.18882966291E+02  0.26556744061E+02  0.00000000000E+00 0.  1.
         11    1    1    2    0    0 -0.50645154980E+02 -0.67098684466E+02  0.22888664693E+02  0.87126667281E+02  0.00000000000E+00 0. -1.
</event>
<event>
 7    1  0.2619826E-009  0.1125021E+03  0.7561462E-02  0.1256005E+00
         -1   -1    0    0    0  501 -0.00000000000E+00  0.00000000000E+00  0.25150818023E+02  0.25150818023E+02  0.00000000000E+00 0.  1.
          1   -1    0    0  501    0  0.00000000000E+00 -0.00000000000E+00 -0.73736922454E+03  0.73736922454E+03  0.00000000000E+00 0. -1.
         25    2    1    2    0    0  0.23835191241E+02 -0.39387899707E+02 -0.20835584608E+03  0.24734475760E+03  0.12509095702E+03 0.  0.
          5    1    3    3  502    0  0.17334673782E+01 -0.75790794248E+02 -0.18171128819E+03  0.19693581202E+03  0.41800000000E+01 0. -1.
         -5    1    3    3    0  502  0.22101723862E+02  0.36402894540E+02 -0.26644557895E+02  0.50408945575E+02  0.41800000000E+01 0. -1.
        -11    1    1    2    0    0  0.33113676876E+02 -0.57624658260E+01 -0.12721574614E+03  0.13158103083E+03  0.00000000000E+00 0. -1.
         11    1    1    2    0    0 -0.56948868117E+02  0.45150365533E+02 -0.37664681430E+03  0.38359425414E+03  0.00000000000E+00 0.  1.
</event>
<event>
 7    1  0.2619826E-009  0.9483664E+02  0.7561462E-02  0.1291544E+00
          2   -1    0    0  501    0  0.00000000000E+00  0.00000000000E+00  0.36829360913E+03  0.36829360913E+03  0.00000000000E+00 0.  1.
         -2   -1    0    0    0  501 -0.00000000000E+00 -0.00000000000E+00 -0.42746306257E+02  0.42746306257E+02  0.00000000000E+00 0. -1.
         25    2    1    2    0    0 -0.39644077657E+02  0.49839665819E+02  0.21027738561E+03  0.25282318209E+03  0.12508931738E+03 0.  0.
          5    1    3    3  502    0 -0.32764973381E+02  0.63680863066E+02  0.22178944983E+03  0.23310261315E+03  0.41800000000E+01 0. -1.
         -5    1    3    3    0  502 -0.68791042758E+01 -0.13841197247E+02 -0.11512064219E+02  0.19720568943E+02  0.41800000000E+01 0. -1.
        -11    1    1    2    0    0 -0.23445328091E+02 -0.36366178871E+01  0.53635299440E+02  0.58648561321E+02  0.00000000000E+00 0.  1.
         11    1    1    2    0    0  0.63089405747E+02 -0.46203047932E+02  0.61634617822E+02  0.99568171972E+02  0.00000000000E+00 0. -1.
</event>
<event>
 7    1  0.2619826E-009  0.9510945E+02  0.7561462E-02  0.1290930E+00
         -1   -1    0    0    0  501 -0.00000000000E+00  0.00000000000E+00  0.55111258063E+02  0.55111258063E+02  0.00000000000E+00 0.  1.
          1   -1    0    0  501    0  0.00000000000E+00 -0.00000000000E+00 -0.24557158128E+03  0.24557158128E+03  0.00000000000E+00 0. -1.
         25    2    1    2    0    0 -0.68842855365E+01  0.14960481385E+02 -0.15786553575E+03  0.20208917976E+03  0.12508916744E+03 0.  0.
          5    1    3    3  502    0  0.55165631031E+02  0.13170632387E+02 -0.10912375134E+03  0.12305355708E+03  0.41800000000E+01 0. -1.
         -5    1    3    3    0  502 -0.62049916567E+02  0.17898489987E+01 -0.48741784406E+02  0.79035622681E+02  0.41800000000E+01 0. -1.
        -11    1    1    2    0    0 -0.30667685920E+02 -0.13621949897E+02  0.15991452879E+02  0.37172450065E+02  0.00000000000E+00 0.  1.
         11    1    1    2    0    0  0.37551971456E+02 -0.13385314887E+01 -0.48586240354E+02  0.61421209517E+02  0.00000000000E+00 0. -1.
</event>
<event>
 7    1  0.2619826E-009  0.8031498E+02  0.7561462E-02  0.1328160E+00
         -1   -1    0    0    0  501 -0.00000000000E+00  0.00000000000E+00  0.19135169701E+03  0.19135169701E+03  0.00000000000E+00 0.  1.
          1   -1    0    0  501    0  0.00000000000E+00 -0.00000000000E+00 -0.87250131220E+02  0.87250131220E+02  0.00000000000E+00 0. -1.
         25    2    1    2    0    0  0.28709960888E+02 -0.60076870418E+02  0.83559967998E+02  0.16450929214E+03  0.12509015443E+03 0.  0.
          5    1    3    3  502    0 -0.68808302017E+00 -0.58964208335E+02 -0.15478701969E+02  0.61109033190E+02  0.41800000000E+01 0. -1.
         -5    1    3    3    0  502  0.29398043908E+02 -0.11126620835E+01  0.99038669966E+02  0.10340025895E+03  0.41800000000E+01 0. -1.
        -11    1    1    2    0    0 -0.29182671315E+02  0.30477467981E+02  0.54575474439E+02  0.68985409833E+02  0.00000000000E+00 0.  1.
         11    1    1    2    0    0  0.47271042722E+00  0.29599402437E+02 -0.34033876645E+02  0.45107126258E+02  0.00000000000E+00 0. -1.
</event>
<event>
 7    1  0.2619826E-009  0.1373043E+03  0.7561462E-02  0.1217003E+00
         -1   -1    0    0    0  501 -0.00000000000E+00  0.00000000000E+00  0.25181284649E+03  0.25181284649E+03  0.00000000000E+00 0. -1.
          1   -1    0    0  501    0  0.00000000000E+00 -0.00000000000E+00 -0.10941230796E+03  0.10941230796E+03  0.00000000000E+00 0.  1.
         25    2    1    2    0    0  0.16841127271E+01 -0.92352375597E+02  0.41206637166E+02  0.16085937369E+03  0.12508378649E+03 0.  0.
          5    1    3    3  502    0 -0.40922226521E+02 -0.10087117492E+03  0.15046737491E+02  0.10997044722E+03  0.41800000000E+01 0.  1.
         -5    1    3    3    0  502  0.42606339249E+02  0.85187993189E+01  0.26159899675E+02  0.50888926467E+02  0.41800000000E+01 0.  1.
        -11    1    1    2    0    0  0.29468736616E+02  0.58001572642E+01 -0.28471821093E+02  0.41384693528E+02  0.00000000000E+00 0.  1.
         11    1    1    2    0    0 -0.31152849344E+02  0.86552218333E+02  0.12966572245E+03  0.15898108724E+03  0.00000000000E+00 0. -1.
</event>
<event>
 7    1  0.2619826E-009  0.8402758E+02  0.7561462E-02  0.1317995E+00
          3   -1    0    0  501    0  0.00000000000E+00  0.00000000000E+00  0.75556185659E+02  0.75556185659E+02  0.00000000000E+00 0. -1.
         -3   -1    0    0    0  501 -0.00000000000E+00 -0.00000000000E+00 -0.22558005837E+03  0.22558005837E+03  0.00000000000E+00 0.  1.
         25    2    1    2    0    0  0.15340219312E+02 -0.25690339135E+02 -0.15868912030E+03  0.20426913503E+03  0.12509327229E+03 0.  0.
          5    1    3    3  502    0 -0.24153220515E+02 -0.53554801213E+02 -0.14069458767E+03  0.15252519199E+03  0.41800000000E+01 0. -1.
         -5    1    3    3    0  502  0.39493439828E+02  0.27864462078E+02 -0.17994532632E+02  0.51743943037E+02  0.41800000000E+01 0. -1.
        -11    1    1    2    0    0 -0.34979001526E+02  0.19523699088E+02 -0.32011879963E+02  0.51278317373E+02  0.00000000000E+00 0.  1.
         11    1    1    2    0    0  0.19638782214E+02  0.61666400473E+01  0.40677127549E+02  0.45588791626E+02  0.00000000000E+00 0. -1.
</event>
<event>
 7    1  0.2619826E-009  0.1681632E+03  0.7561462E-02  0.1179777E+00
         -1   -1    0    0    0  501 -0.00000000000E+00  0.00000000000E+00  0.35499227907E+02  0.35499227907E+02  0.00000000000E+00 0.  1.
          1   -1    0    0  501    0  0.00000000000E+00 -0.00000000000E+00 -0.10391323794E+04  0.10391323794E+04  0.00000000000E+00 0. -1.
         25    2    1    2    0    0  0.13258596266E+03  0.88990351349E+02 -0.48217839691E+03  0.52310826669E+03  0.12509169478E+03 0.  0.
          5    1    3    3  502    0  0.29292328648E+02  0.17417542943E+02 -0.29878176110E+03  0.30074810803E+03  0.41800000000E+01 0.  1.
         -5    1    3    3    0  502  0.10329363401E+03  0.71572808406E+02 -0.18339663581E+03  0.22236015865E+03  0.41800000000E+01 0.  1.
        -11    1    1    2    0    0 -0.45144475380E+02 -0.75232004543E+02 -0.20649696485E+03  0.22436326495E+03  0.00000000000E+00 0.  1.
         11    1    1    2    0    0 -0.87441487275E+02 -0.13758346806E+02 -0.31495778976E+03  0.32716007570E+03  0.00000000000E+00 0. -1.
</event>
<event>
 7    1  0.2619826E-009  0.1645193E+03  0.7561462E-02  0.1183687E+00
         -2   -1    0    0    0  501 -0.00000000000E+00  0.00000000000E+00  0.44598149400E+02  0.44598149400E+02  0.00000000000E+00 0.  1.
          2   -1    0    0  501    0  0.00000000000E+00 -0.00000000000E+00 -0.73619406775E+03  0.73619406775E+03  0.00000000000E+00 0. -1.
         25    2    1    2    0    0 -0.31083011926E+01  0.13859345551E+03 -0.45864928090E+03  0.49520326003E+03  0.12509715595E+03 0.  0.
          5    1    3    3  502    0  0.59647662436E+02  0.70109597302E+02 -0.26064376109E+03  0.27645224156E+03  0.41800000000E+01 0. -1.
         -5    1    3    3    0  502 -0.62755963629E+02  0.68483858203E+02 -0.19800551981E+03  0.21875101847E+03  0.41800000000E+01 0. -1.
        -11    1    1    2    0    0 -0.16448889060E+02 -0.37590794645E+02 -0.13452870803E+02  0.43181170968E+02  0.00000000000E+00 0.  1.
         11    1    1    2    0    0  0.19557190253E+02 -0.10100266086E+03 -0.21949376665E+03  0.24240778615E+03  0.00000000000E+00 0. -1.
</event>
<event>
 6    1  0.2619826E-009  0.1550562E+03  0.7561462E-02  0.1194394E+00
         -1   -1    0    0    0  501 -0.00000000000E+00  0.00000000000E+00  0.24101258769E+03  0.24101258769E+03  0.00000000000E+00 0.  1.
          1   -1    0    0  501    0  0.00000000000E+00 -0.00000000000E+00 -0.12564508553E+03  0.12564508553E+03  0.00000000000E+00 0. -1.
          5    1    1    2  502    0 -0.11097556672E+02  0.53074145481E+01  0.57720170258E+02  0.59164304001E+02  0.41800000000E+01 0. -1.
         -5    1    1    2    0  502 -0.61892033882E+02 -0.11941850995E+03  0.16056292297E+01  0.13457880525E+03  0.41800000000E+01 0. -1.
        -11    1    1    2    0    0  0.71702720887E+02  0.28864179154E+02  0.16989738447E+02  0.79139574381E+02  0.00000000000E+00 0.  1.
         11    1    1    2    0    0  0.12868696672E+01  0.85246916250E+02  0.39051964227E+02  0.93774989595E+02  0.00000000000E+00 0. -1.
</event>
<event>
 7    1  0.2619826E-009  0.8173350E+02  0.7561462E-02  0.1324203E+00
         -1   -1    0    0    0  501 -0.00000000000E+00  0.00000000000E+00  0.14134133363E+03  0.14134133363E+03  0.00000000000E+00 0.  1.
          1   -1    0    0  501    0  0.00000000000E+00 -0.00000000000E+00 -0.80791099347E+02  0.80791099347E+02  0.00000000000E+00 0. -1.
         25    2    1    2    0    0 -0.46058627836E+02  0.21489336456E+02  0.43939425690E+02  0.14199063888E+03  0.12508988617E+03 0.  0.
          5    1    3    3  502    0 -0.19857950066E+02  0.45634630054E+02 -0.31087502744E+02  0.58828248893E+02  0.41800000000E+01 0.  1.
         -5    1    3    3    0  502 -0.26200677770E+02 -0.24145293598E+02  0.75026928434E+02  0.83162389990E+02  0.41800000000E+01 0.  1.
        -11    1    1    2    0    0  0.49242680433E+02 -0.37140061232E+02  0.86033383160E+01  0.62275542188E+02  0.00000000000E+00 0. -1.
         11    1    1    2    0    0 -0.31840525967E+01  0.15650724776E+02  0.80074702770E+01  0.17866251907E+02  0.00000000000E+00 0.  1.
</event>
<event>
 7    1  0.2619826E-009  0.1366134E+03  0.7561462E-02  0.1217960E+00
         -2   -1    0    0    0  501 -0.00000000000E+00  0.00000000000E+00  0.35079315059E+02  0.35079315059E+02  0.00000000000E+00 0. -1.
          2   -1    0    0  501    0  0.00000000000E+00 -0.00000000000E+00 -0.74076867738E+03  0.74076867738E+03  0.00000000000E+00 0.  1.
         25    2    1    2    0    0 -0.11528988364E+03  0.18724308761E+01 -0.44117948850E+03  0.47284475894E+03  0.12509021431E+03 0.  0.
          5    1    3    3  502    0 -0.11369491326E+03  0.12526612017E+02 -0.19293863966E+03  0.22433510734E+03  0.41800000000E+01 0. -1.
         -5    1    3    3    0  502 -0.15949703760E+01 -0.10654181141E+02 -0.24824084884E+03  0.24850965161E+03  0.41800000000E+01 0. -1.
        -11    1    1    2    0    0 -0.36849304001E+00  0.27804551858E+02 -0.40005300230E+02  0.48720149196E+02  0.00000000000E+00 0.  1.
         11    1    1    2    0    0  0.11565837668E+03 -0.29676982735E+02 -0.22450457358E+03  0.25428308430E+03  0.00000000000E+00 0. -1.
</event>
<event>
 7    1  0.2619826E-009  0.1286843E+03  0.7561462E-02  0.1229421E+00
         -2   -1    0    0    0  501 -0.00000000000E+00  0.00000000000E+00  0.22263301004E+03  0.22263301004E+03  0.00000000000E+00 0. -1.
          2   -1    0    0  501    0  0.00000000000E+00 -0.00000000000E+00 -0.76093391930E+02  0.76093391930E+02  0.00000000000E+00 0.  1.
         25    2    1    2    0    0 -0.23202948969E+02 -0.65530259793E+02  0.91140448591E+02  0.16966553875E+03  0.12508885594E+03 0.  0.
          5    1    3    3  502    0  0.49355818722E+02 -0.10736358946E+02  0.44229372433E+02  0.67267942075E+02  0.41800000000E+01 0.  1.
         -5    1    3    3    0  502 -0.72558767691E+02 -0.54793900847E+02  0.46911076157E+02  0.10239759668E+03  0.41800000000E+01 0.  1.
        -11    1    1    2    0    0 -0.26224424716E+02 -0.76859069960E+01  0.20133507491E+02  0.33943360794E+02  0.00000000000E+00 0. -1.
         11    1    1    2    0    0  0.49427373685E+02  0.73216166789E+02  0.35265662025E+02  0.95117502421E+02  0.00000000000E+00 0.  1.
</event>
<event>
 7    1  0.2619826E-009  0.9123046E+02  0.7561462E-02  0.1299899E+00
         -1   -1    0    0    0  501 -0.00000000000E+00  0.00000000000E+00  0.19186267616E+03  0.19186267616E+03  0.00000000000E+00 0.  1.
          1   -1    0    0  501    0  0.00000000000E+00 -0.00000000000E+00 -0.13047971619E+03  0.13047971619E+03  0.00000000000E+00 0. -1.
         25    2    1    2    0    0  0.39272004646E+02  0.55551624176E+02  0.13302257590E+03  0.19486076340E+03  0.12508972027E+03 0.  0.
          5    1    3    3  502    0  0.47820732838E+02  0.19097251082E+02 -0.48911549320E+01  0.51893383823E+02  0.41800000000E+01 0. -1.
         -5    1    3    3    0  502 -0.85487281922E+01  0.36454373093E+02  0.13791373083E+03  0.14296737958E+03  0.41800000000E+01 0. -1.
        -11    1    1    2    0    0 -0.21630731343E+02 -0.68113659550E+02 -0.77120052832E+02  0.10514210244E+03  0.00000000000E+00 0. -1.
         11    1    1    2    0    0 -0.17641273303E+02  0.12562035375E+02  0.54804369025E+01  0.22339526520E+02  0.00000000000E+00 0.  1.
</event>
<event>
 7    1  0.2619826E-009  0.1023342E+03  0.7561462E-02  0.1275463E+00
          3   -1    0    0  501    0  0.00000000000E+00  0.00000000000E+00  0.17186299398E+02  0.17186299398E+02  0.00000000000E+00 0. -1.
         -3   -1    0    0    0  501 -0.00000000000E+00 -0.00000000000E+00 -0.90281223298E+03  0.90281223298E+03  0.00000000000E+00 0.  1.
         25    2    1    2    0    0 -0.72115285073E-01 -0.25436516204E+02 -0.70383997705E+03  0.71532117788E+03  0.12508658067E+03 0.  0.
          5    1    3    3  502    0  0.58749229384E+02 -0.10838910320E+02 -0.46656624485E+03  0.47039397016E+03  0.41800000000E+01 0. -1.
         -5    1    3    3    0  502 -0.58821344669E+02 -0.14597605885E+02 -0.23727373220E+03  0.24492720771E+03  0.41800000000E+01 0. -1.
        -11    1    1    2    0    0 -0.34532377485E+02 -0.85009544694E+01 -0.12528912775E+03  0.13023869185E+03  0.00000000000E+00 0.  1.
         11    1    1    2    0    0  0.34604492770E+02  0.33937470674E+02 -0.56496828781E+02  0.74438662655E+02  0.00000000000E+00 0. -1.
</event>
<event>
 7    1  0.2619826E-009  0.1002855E+03  0.7561462E-02  0.1279697E+00
         -1   -1    0    0    0  501 -0.00000000000E+00  0.00000000000E+00  0.49830374707E+03  0.49830374707E+03  0.00000000000E+00 0.  1.
          1   -1    0    0  501    0  0.00000000000E+00 -0.00000000000E+00 -0.25144462694E+02  0.25144462694E+02  0.00000000000E+00 0. -1.
         25    2    1    2    0    0  0.24014384235E+00 -0.20568697665E+02  0.30220088022E+03  0.32771398370E+03  0.12509178276E+03 0.  0.
          5    1    3    3  502    0  0.61043127862E+02  0.27357712249E+01  0.15711119560E+03  0.16862724597E+03  0.41800000000E+01 0.  1.
         -5    1    3    3    0  502 -0.60802984019E+02 -0.23304468890E+02  0.14508968462E+03  0.15908673772E+03  0.41800000000E+01 0.  1.
        -11    1    1    2    0    0  0.28525748531E+02 -0.11711379378E+02  0.13790330618E+03  0.14130886947E+03  0.00000000000E+00 0.  1.
         11    1    1    2    0    0 -0.28765892373E+02  0.32280077043E+02  0.33055097980E+02  0.54425356594E+02  0.00000000000E+00 0. -1.
</event>
<event>
 7    1  0.2619826E-009  0.7043325E+02  0.7561462E-02  0.1358626E+00
         -1   -1    0    0    0  501 -0.00000000000E+00  0.00000000000E+00  0.58333713701E+03  0.58333713701E+03  0.00000000000E+00 0.  1.
          1   -1    0    0  501    0  0.00000000000E+00 -0.00000000000E+00 -0.21612385512E+02  0.21612385512E+02  0.00000000000E+00 0. -1.
         25    2    1    2    0    0 -0.93152760315E+01  0.79757667502E+01  0.24751618251E+03  0.27760142324E+03  0.12509157590E+03 0.  0.
          5    1    3    3  502    0 -0.16866567414E+02 -0.18826293507E+02 -0.27400773106E+01  0.25766079391E+02  0.41800000000E+01 0. -1.
         -5    1    3    3    0  502  0.75512913823E+01  0.26802060257E+02  0.25025625982E+03  0.25183534385E+03  0.41800000000E+01 0. -1.
        -11    1    1    2    0    0 -0.38219201934E+02 -0.10019222377E+02  0.19563748567E+03  0.19958736937E+03  0.00000000000E+00 0.  1.
         11    1    1    2    0    0  0.47534477965E+02  0.20434556272E+01  0.11857108332E+03  0.12776072991E+03  0.00000000000E+00 0. -1.
</event>
<event>
 7    1  0.2619826E-009  0.1036736E+03  0.7561462E-02  0.1272755E+00
          2   -1    0    0  501    0  0.00000000000E+00  0.00000000000E+00  0.27733665036E+03  0.27733665036E+03  0.00000000000E+00 0. -1.
         -2   -1    0    0    0  501 -0.00000000000E+00 -0.00000000000E+00 -0.81986938057E+02  0.81986938057E+02  0.00000000000E+00 0.  1.
         25    2    1    2    0    0 -0.78907946099E+02 -0.26066728263E+02  0.18039034821E+03  0.23472143015E+03  0.12509010258E+03 0.  0.
          5    1    3    3  502    0 -0.23732349272E+02 -0.28168284997E+02  0.17522980529E+03  0.17910788298E+03  0.41800000000E+01 0.  1.
         -5    1    3    3    0  502 -0.55175596827E+02  0.21015567338E+01  0.51605429203E+01  0.55613547173E+02  0.41800000000E+01 0.  1.
        -11    1    1    2    0    0  0.24257597878E+02 -0.28670261984E+02  0.27092365522E+02  0.46307788185E+02  0.00000000000E+00 0. -1.
         11    1    1    2    0    0  0.54650348221E+02  0.54736990247E+02 -0.12133001436E+02  0.78294370077E+02  0.00000000000E+00 0.  1.
</event>
<event>
 7    1  0.2619826E-009  0.2197767E+03  0.7561462E-02  0.1134050E+00
         -1   -1    0    0    0  501 -0.00000000000E+00  0.00000000000E+00  0.22408532745E+03  0.22408532745E+03  0.00000000000E+00 0.  1.
          1   -1    0    0  501    0  0.00000000000E+00 -0.00000000000E+00 -0.12461662469E+04  0.12461662469E+04  0.00000000000E+00 0. -1.
         25    2    1    2    0    0 -0.17123387394E+03  0.90896688700E+02 -0.11823993248E+04  0.12046985692E+04  0.12508889513E+03 0.  0.
          5    1    3    3  502    0 -0.18165913623E+03  0.50227043987E+02 -0.96345206994E+03  0.98172305727E+03  0.41800000000E+01 0.  1.
         -5    1    3    3    0  502  0.10425262284E+02  0.40669644713E+02 -0.21894725488E+03  0.22297551192E+03  0.41800000000E+01 0.  1.
        -11    1    1    2    0    0  0.17630520920E+02  0.14271860047E+02  0.32913787771E+02  0.39972974402E+02  0.00000000000E+00 0.  1.
         11    1    1    2    0    0  0.15360335302E+03 -0.10516854875E+03  0.12740461757E+03  0.22558003077E+03  0.00000000000E+00 0. -1.
</event>
<event>
 7    1  0.2619826E-009  0.5684299E+02  0.7561462E-02  0.1411579E+00
          1   -1    0    0  501    0  0.00000000000E+00  0.00000000000E+00  0.12290198288E+03  0.12290198288E+03  0.00000000000E+00 0. -1.
         -1   -1    0    0    0  501 -0.00000000000E+00 -0.00000000000E+00 -0.11982830765E+03  0.11982830765E+03  0.00000000000E+00 0.  1.
         25    2    1    2    0    0  0.18026656919E+01 -0.29694933580E+02 -0.43305294429E+02  0.13567513008E+03  0.12508938289E+03 0.  0.
          5    1    3    3  502    0 -0.63515248312E+01 -0.34271028837E+02 -0.85409902527E+02  0.92342672340E+02  0.41800000000E+01 0. -1.
         -5    1    3    3    0  502  0.81541905231E+01  0.45760952568E+01  0.42104608097E+02  0.43332457741E+02  0.41800000000E+01 0. -1.
        -11    1    1    2    0    0 -0.31552826955E+02  0.12220014282E+02 -0.14710228841E+02  0.36895805594E+02  0.00000000000E+00 0.  1.
         11    1    1    2    0    0  0.29750161263E+02  0.17474919298E+02  0.61089198500E+02  0.70159354850E+02  0.00000000000E+00 0. -1.
</event>
<event>
 7    1  0.2619826E-009  0.9931761E+02  0.7561462E-02  0.1281737E+00
         -2   -1    0    0    0  501 -0.00000000000E+00  0.00000000000E+00  0.25342016859E+03  0.25342016859E+03  0.00000000000E+00 0. -1.
          2   -1    0    0  501    0  0.00000000000E+00 -0.00000000000E+00 -0.68627616990E+02  0.68627616990E+02  0.00000000000E+00 0.  1.
         25    2    1    2    0    0 -0.13642756246E+02 -0.67740426428E+02  0.14021008225E+03  0.20020187253E+03  0.12508809866E+03 0.  0.
          5    1    3    3  502    0 -0.18337132465E+02  0.14180234541E+02 -0.12593840077E+02  0.26709674026E+02  0.41800000000E+01 0. -1.
         -5    1    3    3    0  502  0.46943762192E+01 -0.81920660968E+02  0.15280392233E+03  0.17349219850E+03  0.41800000000E+01 0. -1.
        -11    1    1    2    0    0  0.24396986933E+02  0.67136737018E-01 -0.16984879243E+02  0.29727152599E+02  0.00000000000E+00 0.  1.
         11    1    1    2    0    0 -0.10754230687E+02  0.67673289691E+02  0.61567348592E+02  0.92118760455E+02  0.00000000000E+00 0. -1.
</event>
<event>
 7    1  0.2619826E-009  0.1109838E+03  0.7561462E-02  0.1258759E+00
         -2   -1    0    0    0  501 -0.00000000000E+00  0.00000000000E+00  0.29080535340E+02  0.29080535340E+02  0.00000000000E+00 0.  1.
          2   -1    0    0  501    0  0.00000000000E+00 -0.00000000000E+00 -0.60841311615E+03  0.60841311615E+03  0.00000000000E+00 0. -1.
         25    2    1    2    0    0 -0.18241858226E+02  0.74649133427E+02 -0.31914205789E+03  0.35128937077E+03  0.12508920971E+03 0.  0.
          5    1    3    3  502    0  0.18336003258E+02  0.99030850131E+02 -0.19472075212E+03  0.21926459358E+03  0.41800000000E+01 0.  1.
         -5    1    3    3    0  502 -0.36577861484E+02 -0.24381716704E+02 -0.12442130577E+03  0.13202477718E+03  0.41800000000E+01 0.  1.
        -11    1    1    2    0    0  0.15597029006E+02 -0.54512251162E+02 -0.25977440210E+03  0.26589018942E+03  0.00000000000E+00 0. -1.
         11    1    1    2    0    0  0.26448292202E+01 -0.20136882266E+02 -0.41612081247E+00  0.20314091304E+02  0.00000000000E+00 0.  1.
</event>
<event>
 7    1  0.2619826E-009  0.1519508E+03  0.7561462E-02  0.1198096E+00
          2   -1    0    0  501    0  0.00000000000E+00  0.00000000000E+00  0.18751564220E+04  0.18751564220E+04  0.00000000000E+00 0.  1.
         -2   -1    0    0    0  501 -0.00000000000E+00 -0.00000000000E+00 -0.15628152027E+02  0.15628152027E+02  0.00000000000E+00 0. -1.
         25    2    1    2    0    0  0.32975942355E+02 -0.10945260808E+03  0.13453888625E+04  0.13560185540E+04  0.12509133170E+03 0.  0.
          5    1    3    3  502    0  0.78681790137E+02 -0.66385991917E+02  0.69564461361E+03  0.70323312271E+03  0.41800000000E+01 0.  1.
         -5    1    3    3    0  502 -0.45705847782E+02 -0.43066616162E+02  0.64974424894E+03  0.65278543134E+03  0.41800000000E+01 0.  1.
        -11    1    1    2    0    0 -0.49211355741E+02  0.31780049466E+02  0.13108923460E+03  0.14358313448E+03  0.00000000000E+00 0. -1.
         11    1    1    2    0    0  0.16235413387E+02  0.77672558613E+02  0.38305017281E+03  0.39118288549E+03  0.00000000000E+00 0.  1.
</event>
<event>
 7    1  0.2619826E-009  0.7839079E+02  0.7561462E-02  0.1333681E+00
          3   -1    0    0  501    0  0.00000000000E+00  0.00000000000E+00  0.31527331256E+03  0.31527331256E+03  0.00000000000E+00 0. -1.
         -3   -1    0    0    0  501 -0.00000000000E+00 -0.00000000000E+00 -0.70820217296E+02  0.70820217296E+02  0.00000000000E+00 0.  1.
         25    2    1    2    0    0  0.51850313274E+02 -0.51162505555E+02  0.25619397117E+03  0.29426015156E+03  0.12509048314E+03 0.  0.
          5    1    3    3  502    0  0.25794717447E+02 -0.14319498798E+02  0.24601438211E+03  0.24781235663E+03  0.41800000000E+01 0. -1.
         -5    1    3    3    0  502  0.26055595828E+02 -0.36843006757E+02  0.10179589065E+02  0.46447794935E+02  0.41800000000E+01 0. -1.
        -11    1    1    2    0    0 -0.20963139244E+02 -0.10629296004E+01 -0.21875871589E+02  0.30317268743E+02  0.00000000000E+00 0.  1.
         11    1    1    2    0    0 -0.30887174031E+02  0.52225435156E+02  0.10134995683E+02  0.61516109551E+02  0.00000000000E+00 0. -1.
</event>
<event>
 7    1  0.2619826E-009  0.9130353E+02  0.7561462E-02  0.1299725E+00
         -2   -1    0    0    0  501 -0.00000000000E+00  0.00000000000E+00  0.21958461517E+03  0.21958461517E+03  0.00000000000E+00 0.  1.
          2   -1    0    0  501    0  0.00000000000E+00 -0.00000000000E+00 -0.66296716167E+02  0.66296716167E+02  0.00000000000E+00 0. -1.
         25    2    1    2    0    0 -0.31358061772E+02  0.28111590960E+02  0.48604116672E+02  0.14065353935E+03  0.12508984127E+03 0.  0.
          5    1    3    3  502    0 -0.18231601345E+02 -0.24885702967E+02  0.74008085891E+02  0.80289218933E+02  0.41800000000E+01 0.  1.
         -5    1    3    3    0  502 -0.13126460427E+02  0.52997293927E+02 -0.25403969218E+02  0.60364320413E+02  0.41800000000E+01 0.  1.
        -11    1    1    2    0    0  0.53420757165E+02 -0.44261923049E+02  0.91627603258E+02  0.11492829420E+03  0.00000000000E+00 0.  1.
         11    1    1    2    0    0 -0.22062695393E+02  0.16150332089E+02  0.13056179074E+02  0.30299497794E+02  0.00000000000E+00 0. -1.
</event>
<event>
 7    1  0.2619826E-009  0.1224639E+03  0.7561462E-02  0.1239087E+00
         -1   -1    0    0    0  501 -0.00000000000E+00  0.00000000000E+00  0.65932649915E+03  0.65932649915E+03  0.00000000000E+00 0.  1.
          1   -1    0    0  501    0  0.00000000000E+00 -0.00000000000E+00 -0.45654297422E+02  0.45654297422E+02  0.00000000000E+00 0. -1.
         25    2    1    2    0    0  0.22856734085E+02 -0.77147912149E+02  0.10572020025E+03  0.18247918788E+03  0.12509061766E+03 0.  0.
          5    1    3    3  502    0  0.15385868891E+02  0.28280299362E+02 -0.64683315031E+00  0.32471388739E+02  0.41800000000E+01 0. -1.
         -5    1    3    3    0  502  0.74708651943E+01 -0.10542821151E+03  0.10636703340E+03  0.15000779914E+03  0.41800000000E+01 0. -1.
        -11    1    1    2    0    0 -0.20108063589E+02  0.90678190724E+02  0.49477021408E+03  0.50341278613E+03  0.00000000000E+00 0.  1.
         11    1    1    2    0    0 -0.27486704961E+01 -0.13530278576E+02  0.13181787389E+02  0.19088822557E+02  0.00000000000E+00 0. -1.
</event>
<event>
 7    1  0.3101890E-009  0.7939612E+02  0.7561462E-02  0.1330774E+00
         -2   -1    0    0    0  501 -0.00000000000E+00  0.00000000000E+00  0.18242312817E+02  0.18242312817E+02  0.00000000000E+00 0.  1.
          2   -1    0    0  501    0  0.00000000000E+00 -0.00000000000E+00 -0.75271822545E+03  0.75271822545E+03  0.00000000000E+00 0. -1.
         25    2    1    2    0    0 -0.43404340497E+02  0.50721475164E+01 -0.42766164000E+03  0.44772778606E+03  0.12512405295E+03 0.  0.
          5    1    3    3  502    0 -0.49373494767E+02 -0.14492603600E+02 -0.58686149313E+02  0.78162101212E+02  0.41800000000E+01 0. -1.
         -5    1    3    3    0  502  0.59691542700E+01  0.19564751116E+02 -0.36897549069E+03  0.36956568485E+03  0.41800000000E+01 0. -1.
        -11    1    1    2    0    0 -0.43297883779E+01  0.27925482514E+02 -0.33505516342E+02  0.43831487157E+02  0.00000000000E+00 0.  1.
         11    1    1    2    0    0  0.47734128875E+02 -0.32997630030E+02 -0.27330875628E+03  0.27940126504E+03  0.00000000000E+00 0. -1.
</event>
<event>
 7    1  0.2619826E-009  0.1049240E+03  0.7561462E-02  0.1270269E+00
         -2   -1    0    0    0  501 -0.00000000000E+00  0.00000000000E+00  0.45550572970E+02  0.45550572970E+02  0.00000000000E+00 0.  1.
          2   -1    0    0  501    0  0.00000000000E+00 -0.00000000000E+00 -0.28628870492E+03  0.28628870492E+03  0.00000000000E+00 0. -1.
         25    2    1    2    0    0 -0.12230700146E+02 -0.71107826780E-01 -0.18414217298E+03  0.22295563846E+03  0.12510508290E+03 0.  0.
          5    1    3    3  502    0 -0.13844457686E+02  0.60458475604E+02 -0.69552116600E+02  0.93283790685E+02  0.41800000000E+01 0. -1.
         -5    1    3    3    0  502  0.16137575399E+01 -0.60529583431E+02 -0.11459005638E+03  0.12967184777E+03  0.41800000000E+01 0. -1.
        -11    1    1    2    0    0  0.18533621806E+01  0.42890133662E+02 -0.86952843850E+01  0.43801900500E+02  0.00000000000E+00 0.  1.
         11    1    1    2    0    0  0.10377337965E+02 -0.42819025835E+02 -0.47900674586E+02  0.65081738933E+02  0.00000000000E+00 0. -1.
</event>
<event>
 7    1  0.2619826E-009  0.8633092E+02  0.7561462E-02  0.1311988E+00
         -1   -1    0    0    0  501 -0.00000000000E+00  0.00000000000E+00  0.43447992354E+02  0.43447992354E+02  0.00000000000E+00 0.  1.
          1   -1    0    0  501    0  0.00000000000E+00 -0.00000000000E+00 -0.28807393916E+03  0.28807393916E+03  0.00000000000E+00 0. -1.
         25    2    1    2    0    0 -0.36153947829E+02 -0.13915948471E+02 -0.16573256369E+03  0.21122329528E+03  0.12508891334E+03 0.  0.
          5    1    3    3  502    0 -0.14209658460E+02 -0.57463754341E+02 -0.29107425077E+02  0.66096233260E+02  0.41800000000E+01 0. -1.
         -5    1    3    3    0  502 -0.21944289369E+02  0.43547805870E+02 -0.13662513861E+03  0.14512706202E+03  0.41800000000E+01 0. -1.
        -11    1    1    2    0    0  0.26503659116E+02 -0.17335217587E+02 -0.81550218973E+02  0.87483666646E+02  0.00000000000E+00 0. -1.
         11    1    1    2    0    0  0.96502887134E+01  0.31251166058E+02  0.26568358488E+01  0.32814969587E+02  0.00000000000E+00 0.  1.
</event>
<event>
 7    1  0.4218053E-009  0.1096845E+03  0.7561462E-02  0.1261155E+00
          2   -1    0    0  501    0  0.00000000000E+00  0.00000000000E+00  0.15620149407E+03  0.15620149407E+03  0.00000000000E+00 0. -1.
         -2   -1    0    0    0  501 -0.00000000000E+00 -0.00000000000E+00 -0.12034777885E+03  0.12034777885E+03  0.00000000000E+00 0.  1.
         25    2    1    2    0    0 -0.57862498782E+02 -0.48238680494E+02  0.56739201184E+02  0.15666076695E+03  0.12509284508E+03 0.  0.
          5    1    3    3  502    0 -0.49543682348E+01  0.19647279500E+02 -0.28656449745E+02  0.35344389489E+02  0.41800000000E+01 0.  1.
         -5    1    3    3    0  502 -0.52908130547E+02 -0.67885959994E+02  0.85395650930E+02  0.12131637746E+03  0.41800000000E+01 0.  1.
        -11    1    1    2    0    0  0.24724555813E+02 -0.23108849404E+02 -0.23459949753E+02  0.41178778798E+02  0.00000000000E+00 0.  1.
         11    1    1    2    0    0  0.33137942968E+02  0.71347529898E+02  0.25744637875E+01  0.78709727165E+02  0.00000000000E+00 0. -1.
</event>
<event>
 7    1  0.2619826E-009  0.2930580E+03  0.7561462E-02  0.1088763E+00
         -1   -1    0    0    0  501 -0.00000000000E+00  0.00000000000E+00  0.88471524007E+03  0.88471524007E+03  0.00000000000E+00 0.  1.
          1   -1    0    0  501    0  0.00000000000E+00 -0.00000000000E+00 -0.12921083126E+03  0.12921083126E+03  0.00000000000E+00 0. -1.
         25    2    1    2    0    0  0.27758985955E+03 -0.79025262815E+02  0.59054929569E+03  0.66910195911E+03  0.12509132165E+03 0.  0.
          5    1    3    3  502    0  0.86059695899E+02  0.90457821794E+01  0.85111225104E+02  0.12144748030E+03  0.41800000000E+01 0.  1.
         -5    1    3    3    0  502  0.19153016366E+03 -0.88071044995E+02  0.50543807058E+03  0.54765447880E+03  0.41800000000E+01 0.  1.
        -11    1    1    2    0    0 -0.25108980753E+03  0.72278688895E+02  0.17631832415E+03  0.31521175699E+03  0.00000000000E+00 0.  1.
         11    1    1    2    0    0 -0.26500052026E+02  0.67465739208E+01 -0.11363211032E+02  0.29612355226E+02  0.00000000000E+00 0. -1.
</event>
<event>
 7    1  0.2619826E-009  0.3013254E+03  0.7561462E-02  0.1084580E+00
         -2   -1    0    0    0  501 -0.00000000000E+00  0.00000000000E+00  0.86740875955E+03  0.86740875955E+03  0.00000000000E+00 0.  1.
          2   -1    0    0  501    0  0.00000000000E+00 -0.00000000000E+00 -0.21437085961E+03  0.21437085961E+03  0.00000000000E+00 0. -1.
         25    2    1    2    0    0  0.12272602507E+03 -0.25341533199E+03  0.71452435423E+03  0.77812189685E+03  0.12509047068E+03 0.  0.
          5    1    3    3  502    0  0.14171969893E+03 -0.17741787107E+03  0.57195657763E+03  0.61539692324E+03  0.41800000000E+01 0. -1.
         -5    1    3    3    0  502 -0.18993673854E+02 -0.75997460914E+02  0.14256777660E+03  0.16272497361E+03  0.41800000000E+01 0. -1.
        -11    1    1    2    0    0  0.10539223143E+01  0.99841288409E+02 -0.26833232814E+02  0.10338963201E+03  0.00000000000E+00 0. -1.
         11    1    1    2    0    0 -0.12377994739E+03  0.15357404358E+03 -0.34653221467E+02  0.20026809030E+03  0.00000000000E+00 0.  1.
</event>
<event>
 7    1  0.2619826E-009  0.4155996E+03  0.7561462E-02  0.1038508E+00
          2   -1    0    0  501    0  0.00000000000E+00  0.00000000000E+00  0.40181726423E+04  0.40181726423E+04  0.00000000000E+00 0. -1.
         -2   -1    0    0    0  501 -0.00000000000E+00 -0.00000000000E+00 -0.56372095278E+02  0.56372095278E+02  0.00000000000E+00 0.  1.
         25    2    1    2    0    0  0.38743216009E+03 -0.12015076439E+03  0.29547481046E+04  0.29850835272E+04  0.12508963893E+03 0.  0.
          5    1    3    3  502    0  0.39395907594E+03 -0.10734153494E+03  0.28010519786E+04  0.28306599262E+04  0.41800000000E+01 0. -1.
         -5    1    3    3    0  502 -0.65269158495E+01 -0.12809229453E+02  0.15369612604E+03  0.15442360102E+03  0.41800000000E+01 0. -1.
        -11    1    1    2    0    0 -0.86974439579E+02  0.86421978059E+01  0.13964069734E+03  0.16473847480E+03  0.00000000000E+00 0.  1.
         11    1    1    2    0    0 -0.30045772052E+03  0.11150856658E+03  0.86741174510E+03  0.92472273562E+03  0.00000000000E+00 0. -1.
</event>
<event>
 7    1  0.2619826E-009  0.1990682E+03  0.7561462E-02  0.1150528E+00
          3   -1    0    0  501    0  0.00000000000E+00  0.00000000000E+00  0.92998683176E+02  0.92998683176E+02  0.00000000000E+00 0. -1.
         -3   -1    0    0    0  501 -0.00000000000E+00 -0.00000000000E+00 -0.57024849974E+03  0.57024849974E+03  0.00000000000E+00 0.  1.
         25    2    1    2    0    0 -0.18334644122E+03 -0.96179014841E+01 -0.37047007859E+03  0.43197631365E+03  0.12508810850E+03 0.  0.
          5    1    3    3  502    0 -0.12047138568E+03 -0.34373025859E+02 -0.33022659663E+03  0.35321655850E+03  0.41800000000E+01 0. -1.
         -5    1    3    3    0  502 -0.62875055533E+02  0.24755124375E+02 -0.40243481960E+02  0.78759755151E+02  0.41800000000E+01 0. -1.
        -11    1    1    2    0    0  0.18095537048E+02  0.33542060173E+02 -0.22019271173E+02  0.44015526405E+02  0.00000000000E+00 0.  1.
         11    1    1    2    0    0  0.16525090417E+03 -0.23924158689E+02 -0.84760466798E+02  0.18725534286E+03  0.00000000000E+00 0. -1.
</event>
<event>
 7    1  0.2619826E-009  0.1161824E+03  0.7561462E-02  0.1249531E+00
         -3   -1    0    0    0  501 -0.00000000000E+00  0.00000000000E+00  0.25927125306E+03  0.25927125306E+03  0.00000000000E+00 0.  1.
          3   -1    0    0  501    0  0.00000000000E+00 -0.00000000000E+00 -0.91408228983E+02  0.91408228983E+02  0.00000000000E+00 0. -1.
         25    2    1    2    0    0  0.46645359929E+02  0.87559647570E+02  0.40555294498E+02  0.16472541884E+03  0.12508896920E+03 0.  0.
          5    1    3    3  502    0  0.30231268127E+02 -0.18747200393E+01 -0.34967132893E+02  0.46450155334E+02  0.41800000000E+01 0.  1.
         -5    1    3    3    0  502  0.16414091801E+02  0.89434367609E+02  0.75522427391E+02  0.11827526351E+03  0.41800000000E+01 0.  1.
        -11    1    1    2    0    0 -0.52136131164E+02 -0.48134314078E+02  0.12776326063E+03  0.14614560935E+03  0.00000000000E+00 0.  1.
         11    1    1    2    0    0  0.54907712354E+01 -0.39425333492E+02 -0.45553104945E+00  0.39808453854E+02  0.00000000000E+00 0. -1.
</event>
<event>
 7    1  0.2619826E-009  0.1172462E+03  0.7561462E-02  0.1247710E+00
          2   -1    0    0  501    0  0.00000000000E+00  0.00000000000E+00  0.47429458447E+03  0.47429458447E+03  0.00000000000E+00 0. -1.
         -2   -1    0    0    0  501 -0.00000000000E+00 -0.00000000000E+00 -0.34783597647E+02  0.34783597647E+02  0.00000000000E+00 0.  1.
         25    2    1    2    0    0 -0.36970145241E+02  0.54631567040E+02  0.29087220923E+03  0.32342570737E+03  0.12508455669E+03 0.  0.
          5    1    3    3  502    0  0.25296571684E+02 -0.25457398726E+02  0.11275225230E+03  0.11839990915E+03  0.41800000000E+01 0. -1.
         -5    1    3    3    0  502 -0.62266716925E+02  0.80088965767E+02  0.17811995694E+03  0.20502579821E+03  0.41800000000E+01 0. -1.
        -11    1    1    2    0    0  0.53856611037E+02 -0.18499667408E+02  0.39094094459E+02  0.69073297795E+02  0.00000000000E+00 0.  1.
         11    1    1    2    0    0 -0.16886465796E+02 -0.36131899632E+02  0.10954468313E+03  0.11657917696E+03  0.00000000000E+00 0. -1.
</event>
<event>
 7    1  0.2619826E-009  0.9966584E+02  0.7561462E-02  0.1281000E+00
          2   -1    0    0  501    0  0.00000000000E+00  0.00000000000E+00  0.10178025115E+04  0.10178025115E+04  0.00000000000E+00 0.  1.
         -2   -1    0    0    0  501 -0.00000000000E+00 -0.00000000000E+00 -0.16095064251E+02  0.16095064251E+02  0.00000000000E+00 0. -1.
         25    2    1    2    0    0  0.36218752798E+02 -0.33476569243E+02  0.67113955741E+03  0.68447757945E+03  0.12509505390E+03 0.  0.
          5    1    3    3  502    0  0.53601689269E+02 -0.54493952493E+00  0.11361495308E+03  0.12569513918E+03  0.41800000000E+01 0. -1.
         -5    1    3    3    0  502 -0.17382936471E+02 -0.32931629718E+02  0.55752460433E+03  0.55878244027E+03  0.41800000000E+01 0. -1.
        -11    1    1    2    0    0  0.55138640716E+01  0.58945144784E+02  0.12788250558E+03  0.14092149596E+03  0.00000000000E+00 0. -1.
         11    1    1    2    0    0 -0.41732616870E+02 -0.25468575540E+02  0.20268538429E+03  0.20849850037E+03  0.00000000000E+00 0.  1.
</event>
<event>
 7    1  0.2619826E-009  0.1654763E+03  0.7561462E-02  0.1182649E+00
         -1   -1    0    0    0  501 -0.00000000000E+00  0.00000000000E+00  0.68536314568E+02  0.68536314568E+02  0.00000000000E+00 0.  1.
          1   -1    0    0  501    0  0.00000000000E+00 -0.00000000000E+00 -0.55743900046E+03  0.55743900046E+03  0.00000000000E+00 0. -1.
         25    2    1    2    0    0  0.93570649397E+02 -0.13228147396E+03 -0.29783782884E+03  0.36140687492E+03  0.12511475600E+03 0.  0.
          5    1    3    3  502    0  0.47060695274E+02 -0.32513603511E+02 -0.17125606826E+02  0.59854843264E+02  0.41800000000E+01 0. -1.
         -5    1    3    3    0  502  0.46509954123E+02 -0.99767870451E+02 -0.28071222202E+03  0.30155203166E+03  0.41800000000E+01 0. -1.
        -11    1    1    2    0    0 -0.63545846752E+02  0.71538943032E+02 -0.16736120359E+03  0.19278399175E+03  0.00000000000E+00 0. -1.
         11    1    1    2    0    0 -0.30024802645E+02  0.60742530931E+02 -0.23703653457E+02  0.71784448351E+02  0.00000000000E+00 0.  1.
</event>
<event>
 7    1  0.2619826E-009  0.1008762E+03  0.7561462E-02  0.1278464E+00
         -1   -1    0    0    0  501 -0.00000000000E+00  0.00000000000E+00  0.31788555592E+02  0.31788555592E+02  0.00000000000E+00 0.  1.
          1   -1    0    0  501    0  0.00000000000E+00 -0.00000000000E+00 -0.51518807773E+03  0.51518807773E+03  0.00000000000E+00 0. -1.
         25    2    1    2    0    0  0.42269425852E+02  0.56337988156E+02 -0.29440287481E+03  0.32753980930E+03  0.12509436721E+03 0.  0.
          5    1    3    3  502    0  0.68989005121E+02  0.44061482389E+02 -0.28474664489E+03  0.29630899621E+03  0.41800000000E+01 0.  1.
         -5    1    3    3    0  502 -0.26719579270E+02  0.12276505767E+02 -0.96562299242E+01  0.31230813094E+02  0.41800000000E+01 0.  1.
        -11    1    1    2    0    0 -0.14996809458E+02  0.10226169725E+02 -0.10357686392E+01  0.18181079666E+02  0.00000000000E+00 0.  1.
         11    1    1    2    0    0 -0.27272616394E+02 -0.66564157881E+02 -0.18796087868E+03  0.20125574435E+03  0.00000000000E+00 0. -1.
</event>
<event>
 7    1  0.2619826E-009  0.9646852E+02  0.7561462E-02  0.1287902E+00
          1   -1    0    0  501    0  0.00000000000E+00  0.00000000000E+00  0.11027525936E+03  0.11027525936E+03  0.00000000000E+00 0. -1.
         -1   -1    0    0    0  501 -0.00000000000E+00 -0.00000000000E+00 -0.13179122359E+03  0.13179122359E+03  0.00000000000E+00 0.  1.
         25    2    1    2    0    0  0.36684074057E+02 -0.96388667660E+01 -0.47053754514E+02  0.13893391952E+03  0.12509975674E+03 0.  0.
          5    1    3    3  502    0 -0.79186648486E+01  0.44281795540E+02  0.12581950621E+02  0.46897340550E+02  0.41800000000E+01 0. -1.
         -5    1    3    3    0  502  0.44602738906E+02 -0.53920662306E+02 -0.59635705135E+02  0.92036578970E+02  0.41800000000E+01 0. -1.
        -11    1    1    2    0    0  0.85261976975E+01 -0.21253559675E+02 -0.21150904400E+02  0.31173235363E+02  0.00000000000E+00 0.  1.
         11    1    1    2    0    0 -0.45210271755E+02  0.30892426441E+02  0.46688694686E+02  0.71959328061E+02  0.00000000000E+00 0. -1.
</event>
<event>
 7    1  0.2619826E-009  0.8319459E+02  0.7561462E-02  0.1320223E+00
         -2   -1    0    0    0  501 -0.00000000000E+00  0.00000000000E+00  0.24248271550E+03  0.24248271550E+03  0.00000000000E+00 0.  1.
          2   -1    0    0  501    0  0.00000000000E+00 -0.00000000000E+00 -0.53366656588E+02  0.53366656588E+02  0.00000000000E+00 0. -1.
         25    2    1    2    0    0 -0.12845783637E+01 -0.24587820574E+02  0.12434302392E+03  0.17808718721E+03  0.12509055755E+03 0.  0.
          5    1    3    3  502    0  0.27803387625E+02  0.27763518956E+01  0.13386935757E+03  0.13681817785E+03  0.41800000000E+01 0.  1.
         -5    1    3    3    0  502 -0.29087965989E+02 -0.27364172469E+02 -0.95263336524E+01  0.41269009355E+02  0.41800000000E+01 0.  1.
        -11    1    1    2    0    0  0.17489108182E+02  0.58144451638E+02  0.45010725378E+02  0.75581820303E+02  0.00000000000E+00 0.  1.
         11    1    1    2    0    0 -0.16204529819E+02 -0.33556631064E+02  0.19762309617E+02  0.42180364583E+02  0.00000000000E+00 0. -1.
</event>
<event>
 7    1  0.2619826E-009  0.1013876E+03  0.7561462E-02  0.1277405E+00
         -2   -1    0    0    0  501 -0.00000000000E+00  0.00000000000E+00  0.24852602339E+02  0.24852602339E+02  0.00000000000E+00 0. -1.
          2   -1    0    0  501    0  0.00000000000E+00 -0.00000000000E+00 -0.46764939315E+03  0.46764939315E+03  0.00000000000E+00 0.  1.
         25    2    1    2    0    0 -0.68063365922E+01 -0.34019065609E+01 -0.21049648910E+03  0.24497768643E+03  0.12508955087E+03 0.  0.
          5    1    3    3  502    0 -0.60003650078E+02 -0.16856123605E+02 -0.15362719915E+03  0.16584135686E+03  0.41800000000E+01 0. -1.
         -5    1    3    3    0  502  0.53197313485E+02  0.13454217044E+02 -0.56869289952E+02  0.79136329571E+02  0.41800000000E+01 0. -1.
        -11    1    1    2    0    0 -0.97047258273E+01 -0.38781811592E+02 -0.10068211992E+03  0.10832866603E+03  0.00000000000E+00 0.  1.
         11    1    1    2    0    0  0.16511062419E+02  0.42183718153E+02 -0.13161818179E+03  0.13919564302E+03  0.00000000000E+00 0. -1.
</event>
<event>
 7    1  0.2619826E-009  0.8230887E+02  0.7561462E-02  0.1322624E+00
          2   -1    0    0  501    0  0.00000000000E+00  0.00000000000E+00  0.39371390019E+03  0.39371390019E+03  0.00000000000E+00 0. -1.
         -2   -1    0    0    0  501 -0.00000000000E+00 -0.00000000000E+00 -0.34455105246E+02  0.34455105246E+02  0.00000000000E+00 0.  1.
         25    2    1    2    0    0  0.95770483096E+01  0.21616820077E+02  0.26882224238E+03  0.29744339701E+03  0.12509264430E+03 0.  0.
          5    1    3    3  502    0  0.20765735554E+02 -0.21233334423E+02  0.24529382700E+03  0.24712062688E+03  0.41800000000E+01 0.  1.
         -5    1    3    3    0  502 -0.11188687244E+02  0.42850154500E+02  0.23528415384E+02  0.50322770128E+02  0.41800000000E+01 0.  1.
        -11    1    1    2    0    0  0.10207588132E+02  0.31683859744E+02  0.15652828038E+02  0.36784138556E+02  0.00000000000E+00 0.  1.
         11    1    1    2    0    0 -0.19784636441E+02 -0.53300679821E+02  0.74783724522E+02  0.93941469873E+02  0.00000000000E+00 0. -1.
</event>
<event>
 7    1  0.2619826E-009  0.1372635E+03  0.7561462E-02  0.1217059E+00
          1   -1    0    0  501    0  0.00000000000E+00  0.00000000000E+00  0.13792130558E+03  0.13792130558E+03  0.00000000000E+00 0. -1.
         -1   -1    0    0    0  501 -0.00000000000E+00 -0.00000000000E+00 -0.21338590494E+03  0.21338590494E+03  0.00000000000E+00 0.  1.
         25    2    1    2    0    0 -0.10273686117E+03 -0.53905704522E+02  0.32573285233E+02  0.17369180849E+03  0.12508851987E+03 0.  0.
          5    1    3    3  502    0 -0.88077900222E+02  0.24380844136E+01  0.62489837396E+02  0.10810232625E+03  0.41800000000E+01 0.  1.
         -5    1    3    3    0  502 -0.14658960945E+02 -0.56343788935E+02 -0.29916552163E+02  0.65589482243E+02  0.41800000000E+01 0.  1.
        -11    1    1    2    0    0  0.65282536225E+02  0.61547257590E+02 -0.10664170089E+03  0.13936400834E+03  0.00000000000E+00 0.  1.
         11    1    1    2    0    0  0.37454324942E+02 -0.76415530679E+01 -0.13961837037E+01  0.38251393688E+02  0.00000000000E+00 0. -1.
</event>
<event>
 6    1  0.2619826E-009  0.2067665E+03  0.7561462E-02  0.1144152E+00
         -2   -1    0    0    0  501 -0.00000000000E+00  0.00000000000E+00  0.75926206364E+02  0.75926206364E+02  0.00000000000E+00 0.  1.
          2   -1    0    0  501    0  0.00000000000E+00 -0.00000000000E+00 -0.66428731390E+03  0.66428731390E+03  0.00000000000E+00 0. -1.
          5    1    1    2  502    0 -0.13238261774E+03  0.55865468446E+02 -0.11588744396E+03  0.18464419870E+03  0.41800000000E+01 0.  1.
         -5    1    1    2    0  502 -0.12353063860E+02  0.74040184170E+02 -0.14840558338E+03  0.16636176435E+03  0.41800000000E+01 0.  1.
        -11    1    1    2    0    0  0.88848873596E+02 -0.84199898003E+02 -0.11473102760E+03  0.16777053930E+03  0.00000000000E+00 0.  1.
         11    1    1    2    0    0  0.55886808009E+02 -0.45705754613E+02 -0.20933705259E+03  0.22143701791E+03  0.00000000000E+00 0. -1.
</event>
<event>
 7    1  0.3158933E-009  0.7595255E+02  0.7561462E-02  0.1340946E+00
         -3   -1    0    0    0  501 -0.00000000000E+00  0.00000000000E+00  0.13481356694E+03  0.13481356694E+03  0.00000000000E+00 0.  1.
          3   -1    0    0  501    0  0.00000000000E+00 -0.00000000000E+00 -0.98619288400E+02  0.98619288400E+02  0.00000000000E+00 0. -1.
         25    2    1    2    0    0  0.44621359349E+01 -0.51972011357E+01  0.59931886777E+02  0.13887345157E+03  0.12508830057E+03 0.  0.
          5    1    3    3  502    0  0.61399290932E+02  0.96107805936E+01  0.13312771513E+02  0.63694130938E+02  0.41800000000E+01 0.  1.
         -5    1    3    3    0  502 -0.56937154997E+02 -0.14807981729E+02  0.46619115264E+02  0.75179320627E+02  0.41800000000E+01 0.  1.
        -11    1    1    2    0    0 -0.36868207239E+01 -0.12444664432E+02  0.32828396661E+02  0.35301075723E+02  0.00000000000E+00 0.  1.
         11    1    1    2    0    0 -0.77531521099E+00  0.17641865568E+02 -0.56566004893E+02  0.59258328056E+02  0.00000000000E+00 0. -1.
</event>
<event>
 7    1  0.2619826E-009  0.7840013E+02  0.7561462E-02  0.1333654E+00
          3   -1    0    0  501    0  0.00000000000E+00  0.00000000000E+00  0.39853733824E+03  0.39853733824E+03  0.00000000000E+00 0. -1.
         -3   -1    0    0    0  501 -0.00000000000E+00 -0.00000000000E+00 -0.34222412934E+02  0.34222412934E+02  0.00000000000E+00 0.  1.
         25    2    1    2    0    0  0.24053668160E+02  0.35814410388E+02  0.21538954949E+03  0.25279058643E+03  0.12509664910E+03 0.  0.
          5    1    3    3  502    0 -0.25238261351E+01  0.29127293584E+02 -0.56076126173E+01  0.30061381358E+02  0.41800000000E+01 0. -1.
         -5    1    3    3    0  502  0.26577494296E+02  0.66871168041E+01  0.22099716211E+03  0.22272920508E+03  0.41800000000E+01 0. -1.
        -11    1    1    2    0    0  0.24251467805E+02  0.15726963040E+02  0.58239326628E+02  0.65017614715E+02  0.00000000000E+00 0. -1.
         11    1    1    2    0    0 -0.48305135965E+02 -0.51541373428E+02  0.90686049184E+02  0.11495155002E+03  0.00000000000E+00 0.  1.
</event>
<event>
 7    1  0.2619826E-009  0.3083115E+03  0.7561462E-02  0.1081158E+00
          2   -1    0    0  501    0  0.00000000000E+00  0.00000000000E+00  0.12444575692E+04  0.12444575692E+04  0.00000000000E+00 0. -1.
         -2   -1    0    0    0  501 -0.00000000000E+00 -0.00000000000E+00 -0.79491198476E+02  0.79491198476E+02  0.00000000000E+00 0.  1.
         25    2    1    2    0    0 -0.18062901916E+03  0.23189946346E+03  0.54522147819E+03  0.63191620990E+03  0.12508969719E+03 0.  0.
          5    1    3    3  502    0 -0.96866256786E+02  0.21218161651E+03  0.40106499298E+03  0.46397705879E+03  0.41800000000E+01 0. -1.
         -5    1    3    3    0  502 -0.83762762376E+02  0.19717846954E+02  0.14415648521E+03  0.16793915112E+03  0.41800000000E+01 0. -1.
        -11    1    1    2    0    0  0.75961692255E+02 -0.63979722652E+02  0.12829234421E+03  0.16224213135E+03  0.00000000000E+00 0. -1.
         11    1    1    2    0    0  0.10466732691E+03 -0.16791974081E+03  0.49145254831E+03  0.52979042641E+03  0.00000000000E+00 0.  1.
</event>
<event>
 7    1  0.2905286E-009  0.1633677E+03  0.7561462E-02  0.1184946E+00
          2   -1    0    0  501    0  0.00000000000E+00  0.00000000000E+00  0.95986306188E+02  0.95986306188E+02  0.00000000000E+00 0. -1.
         -2   -1    0    0    0  501 -0.00000000000E+00 -0.00000000000E+00 -0.39286453850E+03  0.39286453850E+03  0.00000000000E+00 0.  1.
         25    2    1    2    0    0 -0.13026638020E+03 -0.59665226512E+02 -0.64003242517E+02  0.20068356886E+03  0.12509280832E+03 0.  0.
          5    1    3    3  502    0 -0.14518696491E+03 -0.68723854400E+02 -0.77333711090E+02  0.17832610076E+03  0.41800000000E+01 0.  1.
         -5    1    3    3    0  502  0.14920584709E+02  0.90586278875E+01  0.13330468574E+02  0.22357468096E+02  0.41800000000E+01 0.  1.
        -11    1    1    2    0    0  0.57183291845E+02  0.46803995260E+02 -0.18663950246E+03  0.20073576343E+03  0.00000000000E+00 0.  1.
         11    1    1    2    0    0  0.73083088352E+02  0.12861231253E+02 -0.46235487331E+02  0.87431512403E+02  0.00000000000E+00 0. -1.
</event>
<event>
 7    1  0.2619826E-009  0.1582712E+03  0.7561462E-02  0.1190662E+00
          1   -1    0    0  501    0  0.00000000000E+00  0.00000000000E+00  0.19250770832E+04  0.19250770832E+04  0.00000000000E+00 0. -1.
         -1   -1    0    0    0  501 -0.00000000000E+00 -0.00000000000E+00 -0.16135977925E+02  0.16135977925E+02  0.00000000000E+00 0.  1.
         25    2    1    2    0    0 -0.63765002756E+02  0.11375065502E+03  0.12146278339E+04  0.12279950705E+04  0.12508369694E+03 0.  0.
          5    1    3    3  502    0 -0.81126006824E+02  0.74161298538E+02  0.49572261627E+03  0.50777919597E+03  0.41800000000E+01 0. -1.
         -5    1    3    3    0  502  0.17361004067E+02  0.39589356481E+02  0.71890521762E+03  0.72021587454E+03  0.41800000000E+01 0. -1.
        -11    1    1    2    0    0 -0.15127917440E+02  0.87010951002E+01  0.76039687813E+02  0.78016646074E+02  0.00000000000E+00 0.  1.
         11    1    1    2    0    0  0.78892920196E+02 -0.12245175012E+03  0.61827358355E+03  0.63520134452E+03  0.00000000000E+00 0. -1.
</event>
<event>
 7    1  0.2619826E-009  0.1095292E+03  0.7561462E-02  0.1261444E+00
          2   -1    0    0  501    0  0.00000000000E+00  0.00000000000E+00  0.66982655762E+02  0.66982655762E+02  0.00000000000E+00 0. -1.
         -2   -1    0    0    0  501 -0.00000000000E+00 -0.00000000000E+00 -0.21085482386E+03  0.21085482386E+03  0.00000000000E+00 0.  1.
         25    2    1    2    0    0  0.37557871666E+02 -0.18220034360E+02 -0.51764752952E+02  0.14166833260E+03  0.12509102061E+03 0.  0.
          5    1    3    3  502    0  0.74957805242E+02  0.18817840356E+02 -0.19595669364E+02  0.79838877373E+02  0.41800000000E+01 0.  1.
         -5    1    3    3    0  502 -0.37399933576E+02 -0.37037874716E+02 -0.32169083588E+02  0.61829455228E+02  0.41800000000E+01 0.  1.
        -11    1    1    2    0    0 -0.31967841284E+02  0.48489203391E+02 -0.87535410539E+02  0.10505043465E+03  0.00000000000E+00 0. -1.
         11    1    1    2    0    0 -0.55900303819E+01 -0.30269169031E+02 -0.45720046064E+01  0.31118712371E+02  0.00000000000E+00 0.  1.
</event>
<event>
 7    1  0.2619826E-009  0.1354002E+03  0.7561462E-02  0.1219656E+00
         -2   -1    0    0    0  501 -0.00000000000E+00  0.00000000000E+00  0.22863967128E+02  0.22863967128E+02  0.00000000000E+00 0.  1.
          2   -1    0    0  501    0  0.00000000000E+00 -0.00000000000E+00 -0.87903885249E+03  0.87903885249E+03  0.00000000000E+00 0. -1.
         25    2    1    2    0    0  0.88364192420E+02  0.49462529062E+02 -0.46693302357E+03  0.49389120550E+03  0.12508917654E+03 0.  0.
          5    1    3    3  502    0  0.85563751347E+01  0.75387675921E+02 -0.19530479459E+03  0.20956609561E+03  0.41800000000E+01 0.  1.
         -5    1    3    3    0  502  0.79807817285E+02 -0.25925146858E+02 -0.27162822898E+03  0.28432510990E+03  0.41800000000E+01 0.  1.
        -11    1    1    2    0    0 -0.38780080726E+02 -0.47300213348E+02 -0.29732494043E+03  0.30355119016E+03  0.00000000000E+00 0. -1.
         11    1    1    2    0    0 -0.49584111694E+02 -0.21623157143E+01 -0.91916921364E+02  0.10446042396E+03  0.00000000000E+00 0.  1.
</event>
<event>
 7    1  0.2619826E-009  0.1463474E+03  0.7561462E-02  0.1205034E+00
          2   -1    0    0  501    0  0.00000000000E+00  0.00000000000E+00  0.60701632026E+03  0.60701632026E+03  0.00000000000E+00 0. -1.
         -2   -1    0    0    0  501 -0.00000000000E+00 -0.00000000000E+00 -0.58408219253E+02  0.58408219253E+02  0.00000000000E+00 0.  1.
         25    2    1    2    0    0  0.10389347451E+03 -0.23477001307E+02  0.48372172559E+03  0.51086172293E+03  0.12509184028E+03 0.  0.
          5    1    3    3  502    0 -0.16640542404E+02  0.21779968792E+02  0.16117964160E+03  0.16354700840E+03  0.41800000000E+01 0. -1.
         -5    1    3    3    0  502  0.12053401691E+03 -0.45256970099E+02  0.32254208400E+03  0.34731471452E+03  0.41800000000E+01 0. -1.
        -11    1    1    2    0    0 -0.14594892362E+02 -0.29077414901E+02  0.32542118569E+02  0.46016262575E+02  0.00000000000E+00 0. -1.
         11    1    1    2    0    0 -0.89298582148E+02  0.52554416208E+02  0.32344256841E+02  0.10854655401E+03  0.00000000000E+00 0.  1.
</event>
<event>
 7    1  0.2619826E-009  0.1093999E+03  0.7561462E-02  0.1261685E+00
          1   -1    0    0  501    0  0.00000000000E+00  0.00000000000E+00  0.10121126618E+03  0.10121126618E+03  0.00000000000E+00 0. -1.
         -1   -1    0    0    0  501 -0.00000000000E+00 -0.00000000000E+00 -0.21239540377E+03  0.21239540377E+03  0.00000000000E+00 0.  1.
         25    2    1    2    0    0  0.24353896142E+02 -0.54358920360E+02  0.17097301045E+02  0.13959809152E+03  0.12508918807E+03 0.  0.
          5    1    3    3  502    0 -0.37920890688E+02 -0.42755385387E+02  0.42373283892E+02  0.71266994591E+02  0.41800000000E+01 0.  1.
         -5    1    3    3    0  502  0.62274786830E+02 -0.11603534974E+02 -0.25275982847E+02  0.68331096929E+02  0.41800000000E+01 0.  1.
        -11    1    1    2    0    0  0.23838360943E+02  0.41949084628E+02 -0.15404789807E+02  0.50648797642E+02  0.00000000000E+00 0. -1.
         11    1    1    2    0    0 -0.48192257084E+02  0.12409835732E+02 -0.11287664883E+03  0.12335978079E+03  0.00000000000E+00 0.  1.
</event>
<event>
 7    1  0.2619826E-009  0.6065474E+02  0.7561462E-02  0.1395104E+00
         -1   -1    0    0    0  501 -0.00000000000E+00  0.00000000000E+00  0.56615800296E+02  0.56615800296E+02  0.00000000000E+00 0.  1.
          1   -1    0    0  501    0  0.00000000000E+00 -0.00000000000E+00 -0.26721662932E+03  0.26721662932E+03  0.00000000000E+00 0. -1.
         25    2    1    2    0    0 -0.30424187068E+02 -0.15725760884E+02 -0.54552232387E+02  0.14070496269E+03  0.12509600215E+03 0.  0.
          5    1    3    3  502    0  0.62279715619E+01 -0.45988097457E+01 -0.88750894051E+02  0.89185930930E+02  0.41800000000E+01 0.  1.
         -5    1    3    3    0  502 -0.36652158630E+02 -0.11126951138E+02  0.34198661665E+02  0.51519031761E+02  0.41800000000E+01 0.  1.
        -11    1    1    2    0    0  0.40350930819E+02  0.34273955322E+02 -0.43189817727E+02  0.68324680656E+02  0.00000000000E+00 0.  1.
         11    1    1    2    0    0 -0.99267437510E+01 -0.18548194439E+02 -0.11285877891E+03  0.11480278627E+03  0.00000000000E+00 0. -1.
</event>
<event>
 7    1  0.2619826E-009  0.1393219E+03  0.7561462E-02  0.1214244E+00
         -1   -1    0    0    0  501 -0.00000000000E+00  0.00000000000E+00  0.36886268877E+03  0.36886268877E+03  0.00000000000E+00 0.  1.
          1   -1    0    0  501    0  0.00000000000E+00 -0.00000000000E+00 -0.55587668646E+02  0.55587668646E+02  0.00000000000E+00 0. -1.
         25    2    1    2    0    0 -0.93746330932E+02 -0.36266176441E+01  0.17161244016E+03  0.23216310110E+03  0.12508936395E+03 0.  0.
          5    1    3    3  502    0 -0.51872110090E+02 -0.62792475539E+02  0.71267234173E+02  0.10830559476E+03  0.41800000000E+01 0. -1.
         -5    1    3    3    0  502 -0.41874220842E+02  0.59165857895E+02  0.10034520599E+03  0.12385750634E+03  0.41800000000E+01 0. -1.
        -11    1    1    2    0    0  0.48625500496E+02 -0.39060266136E+02  0.43202424569E+02  0.75872216112E+02  0.00000000000E+00 0. -1.
         11    1    1    2    0    0  0.45120830436E+02  0.42686883780E+02  0.98460155392E+02  0.11641504020E+03  0.00000000000E+00 0.  1.
</event>
<event>
 7    1  0.2619826E-009  0.9303429E+02  0.7561462E-02  0.1295666E+00
          2   -1    0    0  501    0  0.00000000000E+00  0.00000000000E+00  0.32654073033E+02  0.32654073033E+02  0.00000000000E+00 0. -1.
         -2   -1    0    0    0  501 -0.00000000000E+00 -0.00000000000E+00 -0.59039502652E+03  0.59039502652E+03  0.00000000000E+00 0.  1.
         25    2    1    2    0    0  0.14921165003E+02 -0.16666382700E+02 -0.50012780628E+03  0.51601937598E+03  0.12509102405E+03 0.  0.
          5    1    3    3  502    0 -0.13714127594E+02 -0.52618096443E+02 -0.10607671213E+03  0.11927481975E+03  0.41800000000E+01 0. -1.
         -5    1    3    3    0  502  0.28635292596E+02  0.35951713743E+02 -0.39405109415E+03  0.39674455624E+03  0.41800000000E+01 0. -1.
        -11    1    1    2    0    0  0.23653115578E+02  0.35339150784E+02 -0.45965207172E+02  0.62618892716E+02  0.00000000000E+00 0. -1.
         11    1    1    2    0    0 -0.38574280581E+02 -0.18672768083E+02 -0.11647940035E+02  0.44410830855E+02  0.00000000000E+00 0.  1.
</event>
<event>
 7    1  0.2619826E-009  0.6825974E+02  0.7561462E-02  0.1366113E+00
         -2   -1    0    0    0  501 -0.00000000000E+00  0.00000000000E+00  0.77548778172E+02  0.77548778172E+02  0.00000000000E+00 0.  1.
          2   -1    0    0  501    0  0.00000000000E+00 -0.00000000000E+00 -0.17476807485E+03  0.17476807485E+03  0.00000000000E+00 0. -1.
         25    2    1    2    0    0 -0.29741755406E+02  0.21705395186E+02 -0.25409962770E+02  0.13284835148E+03  0.12508925648E+03 0.  0.
          5    1    3    3  502    0 -0.33472434288E+02  0.49625057380E+02 -0.62133586740E+02  0.86377689124E+02  0.41800000000E+01 0.  1.
         -5    1    3    3    0  502  0.37306788824E+01 -0.27919662194E+02  0.36723623971E+02  0.46470662353E+02  0.41800000000E+01 0.  1.
        -11    1    1    2    0    0  0.14718173187E+02  0.64939605758E+01  0.18002087679E+02  0.24142727823E+02  0.00000000000E+00 0.  1.
         11    1    1    2    0    0  0.15023582218E+02 -0.28199355761E+02 -0.89811421589E+02  0.95325773723E+02  0.00000000000E+00 0. -1.
</event>
<event>
 7    1  0.2619826E-009  0.1802961E+03  0.7561462E-02  0.1167517E+00
         -1   -1    0    0    0  501 -0.00000000000E+00  0.00000000000E+00  0.48742175234E+02  0.48742175234E+02  0.00000000000E+00 0.  1.
          1   -1    0    0  501    0  0.00000000000E+00 -0.00000000000E+00 -0.99795880222E+03  0.99795880222E+03  0.00000000000E+00 0. -1.
         25    2    1    2    0    0 -0.78955738029E+02 -0.14498912931E+03 -0.72136010630E+03  0.75050192386E+03  0.12504750525E+03 0.  0.
          5    1    3    3  502    0 -0.76756964700E+02 -0.96155549263E+02 -0.66266382282E+03  0.67400173275E+03  0.41800000000E+01 0. -1.
         -5    1    3    3    0  502 -0.21987733288E+01 -0.48833580049E+02 -0.58696283480E+02  0.76500191104E+02  0.41800000000E+01 0. -1.
        -11    1    1    2    0    0  0.87380644461E+02  0.67333977360E+02 -0.11962525257E+03  0.16272505211E+03  0.00000000000E+00 0.  1.
         11    1    1    2    0    0 -0.84249064318E+01  0.77655151952E+02 -0.10823126812E+03  0.13347400148E+03  0.00000000000E+00 0. -1.
</event>
<event>
 7    1  0.2619826E-009  0.1143230E+03  0.7561462E-02  0.1252768E+00
         -2   -1    0    0    0  501 -0.00000000000E+00  0.00000000000E+00  0.43200846686E+02  0.43200846686E+02  0.00000000000E+00 0.  1.
          2   -1    0    0  501    0  0.00000000000E+00 -0.00000000000E+00 -0.49780184213E+03  0.49780184213E+03  0.00000000000E+00 0. -1.
         25    2    1    2    0    0  0.48192984311E+02 -0.18053789569E+02 -0.39747608452E+03  0.41986148157E+03  0.12509165795E+03 0.  0.
          5    1    3    3  502    0 -0.15855481603E+02  0.39344905424E+02 -0.76905520126E+02  0.87928091674E+02  0.41800000000E+01 0.  1.
         -5    1    3    3    0  502  0.64048465914E+02 -0.57398694992E+02 -0.32057056439E+03  0.33193338989E+03  0.41800000000E+01 0.  1.
        -11    1    1    2    0    0  0.11356433191E+02  0.35976713072E+02 -0.43309503756E+02  0.57436970445E+02  0.00000000000E+00 0. -1.
         11    1    1    2    0    0 -0.59549417503E+02 -0.17922923503E+02 -0.13815407177E+02  0.63704236808E+02  0.00000000000E+00 0.  1.
</event>
<event>
 7    1  0.2619826E-009  0.9928740E+02  0.7561462E-02  0.1281802E+00
          3   -1    0    0  501    0  0.00000000000E+00  0.00000000000E+00  0.19834456182E+03  0.19834456182E+03  0.00000000000E+00 0. -1.
         -3   -1    0    0    0  501 -0.00000000000E+00 -0.00000000000E+00 -0.68037903706E+02  0.68037903706E+02  0.00000000000E+00 0.  1.
         25    2    1    2    0    0 -0.22809029731E+02  0.38580436792E+02  0.64648806732E+02  0.14776509147E+03  0.12508537926E+03 0.  0.
          5    1    3    3  502    0 -0.40926249409E+02 -0.15699963301E+02  0.77344715632E+02  0.89000697607E+02  0.41800000000E+01 0. -1.
         -5    1    3    3    0  502  0.18117219679E+02  0.54280400094E+02 -0.12695908900E+02  0.58764393862E+02  0.41800000000E+01 0. -1.
        -11    1    1    2    0    0  0.27157497336E+02 -0.64971110003E+02  0.56707478873E+02  0.90413013204E+02  0.00000000000E+00 0.  1.
         11    1    1    2    0    0 -0.43484676056E+01  0.26390673210E+02  0.89503725085E+01  0.28204360852E+02  0.00000000000E+00 0. -1.
</event>
<event>
 7    1  0.2619826E-009  0.1368918E+03  0.7561462E-02  0.1217573E+00
          2   -1    0    0  501    0  0.00000000000E+00  0.00000000000E+00  0.87545434714E+03  0.87545434714E+03  0.00000000000E+00 0. -1.
         -2   -1    0    0    0  501 -0.00000000000E+00 -0.00000000000E+00 -0.26579291312E+02  0.26579291312E+02  0.00000000000E+00 0.  1.
         25    2    1    2    0    0 -0.47294789184E+02 -0.10411133049E+03  0.60067661469E+03  0.62412917617E+03  0.12509543114E+03 0.  0.
          5    1    3    3  502    0  0.18188006371E+01  0.22102519149E+02  0.19766917228E+03  0.19895326954E+03  0.41800000000E+01 0.  1.
         -5    1    3    3    0  502 -0.49113589821E+02 -0.12621384964E+03  0.40300744240E+03  0.42517590663E+03  0.41800000000E+01 0.  1.
        -11    1    1    2    0    0  0.21170897126E+02  0.67501672286E+02  0.19922669207E+03  0.21141418467E+03  0.00000000000E+00 0. -1.
         11    1    1    2    0    0  0.26123892058E+02  0.36609658208E+02  0.48971749080E+02  0.66490277623E+02  0.00000000000E+00 0.  1.
</event>
<event>
 7    1  0.2619826E-009  0.9946460E+02  0.7561462E-02  0.1281426E+00
          2   -1    0    0  501    0  0.00000000000E+00  0.00000000000E+00  0.79886301855E+03  0.79886301855E+03  0.00000000000E+00 0. -1.
         -2   -1    0    0    0  501 -0.00000000000E+00 -0.00000000000E+00 -0.24028426270E+02  0.24028426270E+02  0.00000000000E+00 0.  1.
         25    2    1    2    0    0 -0.82771559722E+02 -0.32307213400E+01  0.36663323316E+03  0.39614190461E+03  0.12508761839E+03 0.  0.
          5    1    3    3  502    0 -0.49653959238E+02  0.22281331251E+02  0.42187228034E+02  0.68987013267E+02  0.41800000000E+01 0.  1.
         -5    1    3    3    0  502 -0.33117600484E+02 -0.25512052591E+02  0.32444600513E+03  0.32715489135E+03  0.41800000000E+01 0.  1.
        -11    1    1    2    0    0  0.77270624872E+02 -0.18882638258E+02  0.38870371521E+03  0.39675922386E+03  0.00000000000E+00 0. -1.
         11    1    1    2    0    0  0.55009348495E+01  0.22113359598E+02  0.19497643911E+02  0.29990316354E+02  0.00000000000E+00 0.  1.
</event>
<event>
 7    1  0.2619826E-009  0.9464577E+02  0.7561462E-02  0.1291976E+00
          1   -1    0    0  501    0  0.00000000000E+00  0.00000000000E+00  0.62622806288E+02  0.62622806288E+02  0.00000000000E+00 0. -1.
         -1   -1    0    0    0  501 -0.00000000000E+00 -0.00000000000E+00 -0.23547194630E+03  0.23547194630E+03  0.00000000000E+00 0.  1.
         25    2    1    2    0    0 -0.23655101587E+02 -0.41671304414E+02 -0.63472372856E+02  0.14822993467E+03  0.12508920806E+03 0.  0.
          5    1    3    3  502    0 -0.56041400973E+02 -0.63784574544E+02 -0.15980877349E+02  0.86498389659E+02  0.41800000000E+01 0.  1.
         -5    1    3    3    0  502  0.32386299386E+02  0.22113270129E+02 -0.47491495507E+02  0.61731545009E+02  0.41800000000E+01 0.  1.
        -11    1    1    2    0    0  0.36150021200E+02  0.24754037518E+02 -0.11894617807E+03  0.12675874598E+03  0.00000000000E+00 0.  1.
         11    1    1    2    0    0 -0.12494919613E+02  0.16917266896E+02  0.95694109093E+01  0.23106071941E+02  0.00000000000E+00 0. -1.
</event>
<event>
 7    1  0.2619826E-009  0.8730971E+02  0.7561462E-02  0.1309501E+00
          2   -1    0    0  501    0  0.00000000000E+00  0.00000000000E+00  0.81783557681E+02  0.81783557681E+02  0.00000000000E+00 0. -1.
         -2   -1    0    0    0  501 -0.00000000000E+00 -0.00000000000E+00 -0.15035472922E+03  0.15035472922E+03  0.00000000000E+00 0.  1.
         25    2    1    2    0    0  0.14578345634E+02  0.14390997323E+02 -0.60084630192E+02  0.14028089291E+03  0.12509571202E+03 0.  0.
          5    1    3    3  502    0  0.63024228593E+02 -0.95543203534E+01 -0.67471446572E+01  0.64236553365E+02  0.41800000000E+01 0. -1.
         -5    1    3    3    0  502 -0.48445882959E+02  0.23945317676E+02 -0.53337485535E+02  0.76044339549E+02  0.41800000000E+01 0. -1.
        -11    1    1    2    0    0 -0.34120380809E+02 -0.14295154802E+02  0.30696737272E+02  0.48071212971E+02  0.00000000000E+00 0. -1.
         11    1    1    2    0    0  0.19542035175E+02 -0.95842520392E-01 -0.39183278620E+02  0.43786181016E+02  0.00000000000E+00 0.  1.
</event>
<event>
 7    1  0.2619826E-009  0.1468254E+03  0.7561462E-02  0.1204429E+00
         -2   -1    0    0    0  501 -0.00000000000E+00  0.00000000000E+00  0.72510210408E+02  0.72510210408E+02  0.00000000000E+00 0. -1.
          2   -1    0    0  501    0  0.00000000000E+00 -0.00000000000E+00 -0.33550711608E+03  0.33550711608E+03  0.00000000000E+00 0.  1.
         25    2    1    2    0    0  0.10879447417E+03 -0.19517067192E+02 -0.16789406388E+03  0.23675408360E+03  0.12508767283E+03 0.  0.
          5    1    3    3  502    0  0.13357455085E+02  0.41145976620E+02 -0.13855422417E+02  0.45616423892E+02  0.41800000000E+01 0. -1.
         -5    1    3    3    0  502  0.95437019083E+02 -0.60663043813E+02 -0.15403864146E+03  0.19113765971E+03  0.41800000000E+01 0. -1.
        -11    1    1    2    0    0 -0.38038046810E+01  0.31161451434E+02 -0.37674203474E+01  0.31618008186E+02  0.00000000000E+00 0.  1.
         11    1    1    2    0    0 -0.10499066949E+03 -0.11644384242E+02 -0.91335421445E+02  0.13964523470E+03  0.00000000000E+00 0. -1.
</event>
<event>
 7    1  0.2619826E-009  0.8804752E+02  0.7561462E-02  0.1307650E+00
          1   -1    0    0  501    0  0.00000000000E+00  0.00000000000E+00  0.18536986048E+02  0.18536986048E+02  0.00000000000E+00 0. -1.
         -1   -1    0    0    0  501 -0.00000000000E+00 -0.00000000000E+00 -0.67563630521E+03  0.67563630521E+03  0.00000000000E+00 0.  1.
         25    2    1    2    0    0 -0.32460078978E+02 -0.26222397838E+01 -0.33702140256E+03  0.36095927297E+03  0.12509051960E+03 0.  0.
          5    1    3    3  502    0  0.16167130018E+02  0.39049777443E+02 -0.44632007493E+02  0.61609655933E+02  0.41800000000E+01 0. -1.
         -5    1    3    3    0  502 -0.48627208996E+02 -0.41672017227E+02 -0.29238939507E+03  0.29934961704E+03  0.41800000000E+01 0. -1.
        -11    1    1    2    0    0 -0.18401196692E+02 -0.12218684327E+01 -0.14639336129E+02  0.23545852383E+02  0.00000000000E+00 0. -1.
         11    1    1    2    0    0  0.50861275670E+02  0.38441082165E+01 -0.30543858048E+03  0.30966816591E+03  0.00000000000E+00 0.  1.
</event>
<event>
 7    1  0.2619826E-009  0.1139461E+03  0.7561462E-02  0.1253432E+00
         -1   -1    0    0    0  501 -0.00000000000E+00  0.00000000000E+00  0.77618625359E+02  0.77618625359E+02  0.00000000000E+00 0.  1.
          1   -1    0    0  501    0  0.00000000000E+00 -0.00000000000E+00 -0.34765160706E+03  0.34765160706E+03  0.00000000000E+00 0. -1.
         25    2    1    2    0    0 -0.34909259282E+02  0.57361457738E+02 -0.27831511981E+03  0.31243616840E+03  0.12509220676E+03 0.  0.
          5    1    3    3  502    0 -0.32410074862E+02 -0.21208298469E+02 -0.22954256959E+02  0.45216978990E+02  0.41800000000E+01 0. -1.
         -5    1    3    3    0  502 -0.24991844205E+01  0.78569756207E+02 -0.25536086285E+03  0.26721918941E+03  0.41800000000E+01 0. -1.
        -11    1    1    2    0    0 -0.24726855952E+02 -0.41825013428E+02 -0.76380697057E+01  0.49184237947E+02  0.00000000000E+00 0. -1.
         11    1    1    2    0    0  0.59636115234E+02 -0.15536444310E+02  0.15920207816E+02  0.63649826071E+02  0.00000000000E+00 0.  1.
</event>
<event>
 7    1  0.2619826E-009  0.1064946E+03  0.7561462E-02  0.1267203E+00
          2   -1    0    0  501    0  0.00000000000E+00  0.00000000000E+00  0.26054282983E+03  0.26054282983E+03  0.00000000000E+00 0.  1.
         -2   -1    0    0    0  501 -0.00000000000E+00 -0.00000000000E+00 -0.45083945365E+02  0.45083945365E+02  0.00000000000E+00 0. -1.
         25    2    1    2    0    0  0.68099730416E+01  0.13043145182E+02  0.12417084580E+03  0.17686850729E+03  0.12509024964E+03 0.  0.
          5    1    3    3  502    0 -0.56844537180E+02 -0.18270817673E+01  0.78453620025E+02  0.96990115631E+02  0.41800000000E+01 0. -1.
         -5    1    3    3    0  502  0.63654510222E+02  0.14870226950E+02  0.45717225777E+02  0.79878391658E+02  0.41800000000E+01 0. -1.
        -11    1    1    2    0    0 -0.47414888218E+02  0.11983462491E+01  0.53431276847E+02  0.71445846653E+02  0.00000000000E+00 0. -1.
         11    1    1    2    0    0  0.40604915176E+02 -0.14241491431E+02  0.37856761813E+02  0.57312421251E+02  0.00000000000E+00 0.  1.
</event>
<event>
 7    1  0.2619826E-009  0.1240743E+03  0.7561462E-02  0.1236523E+00
          1   -1    0    0  501    0  0.00000000000E+00  0.00000000000E+00  0.88792563793E+02  0.88792563793E+02  0.00000000000E+00 0. -1.
         -1   -1    0    0    0  501 -0.00000000000E+00 -0.00000000000E+00 -0.18074420300E+03  0.18074420300E+03  0.00000000000E+00 0.  1.
         25    2    1    2    0    0  0.29691574280E+01  0.74023554089E+02 -0.33807233195E+02  0.14926099369E+03  0.12509041836E+03 0.  0.
          5    1    3    3  502    0 -0.41535365050E+02  0.87116679960E+02 -0.10483780944E+02  0.97169360088E+02  0.41800000000E+01 0. -1.
         -5    1    3    3    0  502  0.44504522478E+02 -0.13093125871E+02 -0.23323452251E+02  0.52091633599E+02  0.41800000000E+01 0. -1.
        -11    1    1    2    0    0  0.34430800538E+02 -0.21866180377E+02 -0.27198195375E+02  0.49023991083E+02  0.00000000000E+00 0. -1.
         11    1    1    2    0    0 -0.37399957966E+02 -0.52157373712E+02 -0.30946210635E+02  0.71251782020E+02  0.00000000000E+00 0.  1.
</event>
<event>
 7    1  0.2619826E-009  0.8925404E+02  0.7561462E-02  0.1304668E+00
         -3   -1    0    0    0  501 -0.00000000000E+00  0.00000000000E+00  0.63054237022E+02  0.63054237022E+02  0.00000000000E+00 0.  1.
          3   -1    0    0  501    0  0.00000000000E+00 -0.00000000000E+00 -0.19750997464E+03  0.19750997464E+03  0.00000000000E+00 0. -1.
         25    2    1    2    0    0  0.14042313483E+02 -0.23255850120E+02 -0.78697181580E+02  0.15025455076E+03  0.12508062401E+03 0.  0.
          5    1    3    3  502    0  0.46124400773E+02 -0.22228088307E+02  0.13017662101E+02  0.52995095840E+02  0.41800000000E+01 0.  1.
         -5    1    3    3    0  502 -0.32082087290E+02 -0.10277618130E+01 -0.91714843680E+02  0.97259454916E+02  0.41800000000E+01 0.  1.
        -11    1    1    2    0    0  0.32915385220E+02 -0.13053137816E+02 -0.15928921458E+02  0.38827020615E+02  0.00000000000E+00 0. -1.
         11    1    1    2    0    0 -0.46957698703E+02  0.36308987937E+02 -0.39829634585E+02  0.71482640296E+02  0.00000000000E+00 0.  1.
</event>
<event>
 7    1  0.2619826E-009  0.7781510E+02  0.7561462E-02  0.1335369E+00
          2   -1    0    0  501    0  0.00000000000E+00  0.00000000000E+00  0.11723845007E+04  0.11723845007E+04  0.00000000000E+00 0. -1.
         -2   -1    0    0    0  501 -0.00000000000E+00 -0.00000000000E+00 -0.11694870792E+02  0.11694870792E+02  0.00000000000E+00 0.  1.
         25    2    1    2    0    0  0.37599741168E+02  0.22720268825E+02  0.61723658264E+03  0.63131466247E+03  0.12508898013E+03 0.  0.
          5    1    3    3  502    0  0.81127336062E+01  0.23302917279E+02  0.16805855202E+02  0.30145506620E+02  0.41800000000E+01 0. -1.
         -5    1    3    3    0  502  0.29487007561E+02 -0.58264845476E+00  0.60043072744E+03  0.60116915585E+03  0.41800000000E+01 0. -1.
        -11    1    1    2    0    0 -0.53712666521E+02 -0.47203482865E+02  0.40139618463E+03  0.40771572986E+03  0.00000000000E+00 0.  1.
         11    1    1    2    0    0  0.16112925353E+02  0.24483214041E+02  0.14205686263E+03  0.14504897915E+03  0.00000000000E+00 0. -1.
</event>
<event>
 7    1  0.2619826E-009  0.8786757E+02  0.7561462E-02  0.1308099E+00
          2   -1    0    0  501    0  0.00000000000E+00  0.00000000000E+00  0.12859109864E+03  0.12859109864E+03  0.00000000000E+00 0. -1.
         -2   -1    0    0    0  501 -0.00000000000E+00 -0.00000000000E+00 -0.12959928496E+03  0.12959928496E+03  0.00000000000E+00 0.  1.
         25    2    1    2    0    0 -0.65647934521E+02  0.71737900637E+01  0.15206794162E+02  0.14226543543E+03  0.12508834062E+03 0.  0.
          5    1    3    3  502    0 -0.19340128612E+02 -0.14594853346E+02 -0.52101907285E+02  0.57611903819E+02  0.41800000000E+01 0.  1.
         -5    1    3    3    0  502 -0.46307805909E+02  0.21768643409E+02  0.67308701447E+02  0.84653531612E+02  0.41800000000E+01 0.  1.
        -11    1    1    2    0    0  0.29457955543E+02  0.34002833819E+02  0.21018362016E+02  0.49656171765E+02  0.00000000000E+00 0. -1.
         11    1    1    2    0    0  0.36189978978E+02 -0.41176623883E+02 -0.37233342503E+02  0.66268776409E+02  0.00000000000E+00 0.  1.
</event>
<event>
 7    1  0.2619826E-009  0.1276421E+03  0.7561462E-02  0.1230997E+00
         -1   -1    0    0    0  501 -0.00000000000E+00  0.00000000000E+00  0.78338882673E+02  0.78338882673E+02  0.00000000000E+00 0.  1.
          1   -1    0    0  501    0  0.00000000000E+00 -0.00000000000E+00 -0.32543006627E+03  0.32543006627E+03  0.00000000000E+00 0. -1.
         25    2    1    2    0    0  0.11262489767E+03 -0.23387410388E+02 -0.13755021635E+03  0.21862997791E+03  0.12509063388E+03 0.  0.
          5    1    3    3  502    0 -0.40073931206E+01 -0.66808386799E+00  0.20237644569E+02  0.21060393951E+02  0.41800000000E+01 0.  1.
         -5    1    3    3    0  502  0.11663229079E+03 -0.22719326520E+02 -0.15778786092E+03  0.19756958396E+03  0.41800000000E+01 0.  1.
        -11    1    1    2    0    0 -0.93512013658E+02 -0.79517779894E+01 -0.11455584385E+03  0.14809040763E+03  0.00000000000E+00 0.  1.
         11    1    1    2    0    0 -0.19112884009E+02  0.31339188377E+02  0.50148765994E+01  0.37048563408E+02  0.00000000000E+00 0. -1.
</event>
<event>
 7    1  0.2619826E-009  0.1359701E+03  0.7561462E-02  0.1218857E+00
          1   -1    0    0  501    0  0.00000000000E+00  0.00000000000E+00  0.10908823627E+04  0.10908823627E+04  0.00000000000E+00 0. -1.
         -1   -1    0    0    0  501 -0.00000000000E+00 -0.00000000000E+00 -0.19338711085E+02  0.19338711085E+02  0.00000000000E+00 0.  1.
         25    2    1    2    0    0 -0.37536191568E+02 -0.74530268523E+02  0.77247167662E+03  0.78697100505E+03  0.12508854869E+03 0.  0.
          5    1    3    3  502    0 -0.89214472845E+01 -0.10611757219E+03  0.58932747767E+03  0.59888636625E+03  0.41800000000E+01 0. -1.
         -5    1    3    3    0  502 -0.28614744284E+02  0.31587303669E+02  0.18314419895E+03  0.18808463880E+03  0.41800000000E+01 0. -1.
        -11    1    1    2    0    0 -0.17764813159E+02 -0.10849660825E+02  0.56456133289E+02  0.60171411090E+02  0.00000000000E+00 0.  1.
         11    1    1    2    0    0  0.55301004727E+02  0.85379929348E+02  0.24261584171E+03  0.26307865765E+03  0.00000000000E+00 0. -1.
</event>
<event>
 7    1  0.2619826E-009  0.1536994E+03  0.7561462E-02  0.1195999E+00
          1   -1    0    0  501    0  0.00000000000E+00  0.00000000000E+00  0.27093406770E+03  0.27093406770E+03  0.00000000000E+00 0. -1.
         -1   -1    0    0    0  501 -0.00000000000E+00 -0.00000000000E+00 -0.10581812333E+03  0.10581812333E+03  0.00000000000E+00 0.  1.
         25    2    1    2    0    0 -0.17194855342E+02 -0.12050564350E+03  0.13333350458E+03  0.21963285009E+03  0.12507394704E+03 0.  0.
          5    1    3    3  502    0 -0.68557710358E+02 -0.57920246869E+02  0.47750114009E+02  0.10174704141E+03  0.41800000000E+01 0. -1.
         -5    1    3    3    0  502  0.51362855016E+02 -0.62585396629E+02  0.85583390576E+02  0.11788580868E+03  0.41800000000E+01 0. -1.
        -11    1    1    2    0    0  0.40628034239E+02  0.75104071998E+02  0.54399367615E+02  0.10124499985E+03  0.00000000000E+00 0. -1.
         11    1    1    2    0    0 -0.23433178897E+02  0.45401571501E+02 -0.22616927833E+02  0.55874341093E+02  0.00000000000E+00 0.  1.
</event>
<event>
 7    1  0.3664049E-009  0.1083237E+03  0.7561462E-02  0.1263706E+00
          2   -1    0    0  501    0  0.00000000000E+00  0.00000000000E+00  0.46694725582E+03  0.46694725582E+03  0.00000000000E+00 0.  1.
         -2   -1    0    0    0  501 -0.00000000000E+00 -0.00000000000E+00 -0.48703810219E+02  0.48703810219E+02  0.00000000000E+00 0. -1.
         25    2    1    2    0    0 -0.33984310413E+02 -0.64869505674E+02  0.98602623071E+02  0.17531605500E+03  0.12510098219E+03 0.  0.
          5    1    3    3  502    0 -0.63589603449E+02 -0.59326150682E+02  0.17646717405E+02  0.88837541933E+02  0.41800000000E+01 0. -1.
         -5    1    3    3    0  502  0.29605293036E+02 -0.55433549922E+01  0.80955905666E+02  0.86478513068E+02  0.41800000000E+01 0. -1.
        -11    1    1    2    0    0  0.52497474819E+02  0.32098221593E+02  0.27567361629E+03  0.28245747186E+03  0.00000000000E+00 0.  1.
         11    1    1    2    0    0 -0.18513164406E+02  0.32771284081E+02  0.43967206243E+02  0.57877539180E+02  0.00000000000E+00 0. -1.
</event>
<event>
 7    1  0.2619826E-009  0.7919910E+02  0.7561462E-02  0.1331340E+00
          1   -1    0    0  501    0  0.00000000000E+00  0.00000000000E+00  0.48062323822E+02  0.48062323822E+02  0.00000000000E+00 0. -1.
         -1   -1    0    0    0  501 -0.00000000000E+00 -0.00000000000E+00 -0.30031655751E+03  0.30031655751E+03  0.00000000000E+00 0.  1.
         25    2    1    2    0    0  0.32773322284E+02 -0.39270629717E+02 -0.13060738363E+03  0.18794519891E+03  0.12509530816E+03 0.  0.
          5    1    3    3  502    0  0.39258075575E+02 -0.63823976766E+02 -0.14136478124E+03  0.16005052416E+03  0.41800000000E+01 0. -1.
         -5    1    3    3    0  502 -0.64847532910E+01  0.24553347049E+02  0.10757397604E+02  0.27894674756E+02  0.41800000000E+01 0. -1.
        -11    1    1    2    0    0 -0.10605622032E+02  0.32872363789E+02  0.20516984421E+01  0.34601748312E+02  0.00000000000E+00 0. -1.
         11    1    1    2    0    0 -0.22167700252E+02  0.63982659288E+01 -0.12369854850E+03  0.12583193411E+03  0.00000000000E+00 0.  1.
</event>
<event>
 7    1  0.2619826E-009  0.3195782E+03  0.7561462E-02  0.1075844E+00
         -2   -1    0    0    0  501 -0.00000000000E+00  0.00000000000E+00  0.20084612822E+04  0.20084612822E+04  0.00000000000E+00 0.  1.
          2   -1    0    0  501    0  0.00000000000E+00 -0.00000000000E+00 -0.55058316334E+02  0.55058316334E+02  0.00000000000E+00 0. -1.
         25    2    1    2    0    0 -0.18868479370E+03  0.23964591005E+03  0.76363881001E+03  0.83175931418E+03  0.12508881243E+03 0.  0.
          5    1    3    3  502    0 -0.19230107675E+03  0.24790961201E+03  0.75788656215E+03  0.82027336500E+03  0.41800000000E+01 0.  1.
         -5    1    3    3    0  502  0.36162830497E+01 -0.82637019522E+01  0.57522478536E+01  0.11485949174E+02  0.41800000000E+01 0.  1.
        -11    1    1    2    0    0  0.76849976116E+02 -0.16195924438E+03  0.58477143734E+03  0.61163252823E+03  0.00000000000E+00 0.  1.
         11    1    1    2    0    0  0.11183481758E+03 -0.77686665669E+02  0.60499271857E+03  0.62012775617E+03  0.00000000000E+00 0. -1.
</event>
<event>
 7    1  0.2808978E-009  0.9669552E+02  0.7561462E-02  0.1287402E+00
         -2   -1    0    0    0  501 -0.00000000000E+00  0.00000000000E+00  0.20762179191E+02  0.20762179191E+02  0.00000000000E+00 0.  1.
          2   -1    0    0  501    0  0.00000000000E+00 -0.00000000000E+00 -0.91274911217E+03  0.91274911217E+03  0.00000000000E+00 0. -1.
         25    2    1    2    0    0  0.78597707421E+02 -0.33465572046E+02 -0.50648272153E+03  0.52864777596E+03  0.12508469006E+03 0.  0.
          5    1    3    3  502    0  0.25270537754E+02 -0.13356715433E+02 -0.44013801961E+03  0.44108496986E+03  0.41800000000E+01 0.  1.
         -5    1    3    3    0  502  0.53327169667E+02 -0.20108856613E+02 -0.66344701918E+02  0.87562806097E+02  0.41800000000E+01 0.  1.
        -11    1    1    2    0    0 -0.16643033185E+01  0.30314569729E+02 -0.36546857727E+02  0.47512270553E+02  0.00000000000E+00 0.  1.
         11    1    1    2    0    0 -0.76933404102E+02  0.31510023171E+01 -0.34895735372E+03  0.35735124485E+03  0.00000000000E+00 0. -1.
</event>
<event>
 7    1  0.2619826E-009  0.2677498E+03  0.7561462E-02  0.1102574E+00
          2   -1    0    0  501    0  0.00000000000E+00  0.00000000000E+00  0.10043879235E+04  0.10043879235E+04  0.00000000000E+00 0. -1.
         -2   -1    0    0    0  501 -0.00000000000E+00 -0.00000000000E+00 -0.10105082728E+03  0.10105082728E+03  0.00000000000E+00 0.  1.
         25    2    1    2    0    0 -0.15805739121E+03 -0.20382086761E+03  0.72257928953E+03  0.77736353168E+03  0.12509254872E+03 0.  0.
          5    1    3    3  502    0 -0.14884631018E+03 -0.15724475701E+03  0.67929706535E+03  0.71298184623E+03  0.41800000000E+01 0.  1.
         -5    1    3    3    0  502 -0.92110810344E+01 -0.46576110594E+02  0.43282224183E+02  0.64381685456E+02  0.41800000000E+01 0.  1.
        -11    1    1    2    0    0  0.15525122188E+03  0.14514016034E+03  0.15901717278E+03  0.26543373802E+03  0.00000000000E+00 0. -1.
         11    1    1    2    0    0  0.28061693301E+01  0.58680707263E+02  0.21740633944E+02  0.62641481109E+02  0.00000000000E+00 0.  1.
</event>
<event>
 7    1  0.2619826E-009  0.1688276E+03  0.7561462E-02  0.1179076E+00
         -4   -1    0    0    0  501 -0.00000000000E+00  0.00000000000E+00  0.24596624530E+02  0.24596624530E+02  0.00000000000E+00 0.  1.
          4   -1    0    0  501    0  0.00000000000E+00 -0.00000000000E+00 -0.13330900812E+04  0.13330900812E+04  0.00000000000E+00 0. -1.
         25    2    1    2    0    0 -0.13653614961E+03 -0.41055307887E+02 -0.74942274092E+03  0.77305141231E+03  0.12508550283E+03 0.  0.
          5    1    3    3  502    0 -0.12189659111E+03  0.12848522153E+02 -0.62022229504E+03  0.63223178591E+03  0.41800000000E+01 0.  1.
         -5    1    3    3    0  502 -0.14639558497E+02 -0.53903830040E+02 -0.12920044588E+03  0.14081962640E+03  0.41800000000E+01 0.  1.
        -11    1    1    2    0    0  0.35695572371E+02  0.45776070602E+02 -0.11021311030E+03  0.12456545351E+03  0.00000000000E+00 0.  1.
         11    1    1    2    0    0  0.10084057724E+03 -0.47207627152E+01 -0.44885760550E+03  0.46006983996E+03  0.00000000000E+00 0. -1.
</event>
<event>
 7    1  0.2619826E-009  0.1063361E+03  0.7561462E-02  0.1267509E+00
          2   -1    0    0  501    0  0.00000000000E+00  0.00000000000E+00  0.60877562876E+03  0.60877562876E+03  0.00000000000E+00 0. -1.
         -2   -1    0    0    0  501 -0.00000000000E+00 -0.00000000000E+00 -0.25521926773E+02  0.25521926773E+02  0.00000000000E+00 0.  1.
         25    2    1    2    0    0 -0.63662501065E+02 -0.57045533367E+02  0.30038867594E+03  0.33643314920E+03  0.12508717091E+03 0.  0.
          5    1    3    3  502    0 -0.59108638242E+02 -0.78765837107E+02  0.29781725994E+03  0.31370444837E+03  0.41800000000E+01 0. -1.
         -5    1    3    3    0  502 -0.45538628227E+01  0.21720303740E+02  0.25714160058E+01  0.22728700830E+02  0.41800000000E+01 0. -1.
        -11    1    1    2    0    0  0.98971620818E+01  0.29492122439E+02  0.12557662369E+03  0.12937243725E+03  0.00000000000E+00 0. -1.
         11    1    1    2    0    0  0.53765338983E+02  0.27553410928E+02  0.15728840236E+03  0.16849196908E+03  0.00000000000E+00 0.  1.
</event>
<event>
 7    1  0.2619826E-009  0.9827500E+02  0.7561462E-02  0.1283966E+00
         -2   -1    0    0    0  501 -0.00000000000E+00  0.00000000000E+00  0.16670217478E+02  0.16670217478E+02  0.00000000000E+00 0.  1.
          2   -1    0    0  501    0  0.00000000000E+00 -0.00000000000E+00 -0.83912085749E+03  0.83912085749E+03  0.00000000000E+00 0. -1.
         25    2    1    2    0    0  0.16345407534E+01  0.36255817189E+02 -0.56530361405E+03  0.58011437106E+03  0.12508937383E+03 0.  0.
          5    1    3    3  502    0  0.46450582171E+02  0.27120253031E+02 -0.11018324879E+03  0.12268245768E+03  0.41800000000E+01 0. -1.
         -5    1    3    3    0  502 -0.44816041418E+02  0.91355641577E+01 -0.45512036526E+03  0.45743191338E+03  0.41800000000E+01 0. -1.
        -11    1    1    2    0    0  0.28118467409E+02 -0.54813761530E+02 -0.19269295052E+03  0.20230118597E+03  0.00000000000E+00 0. -1.
         11    1    1    2    0    0 -0.29753008163E+02  0.18557944341E+02 -0.64454075444E+02  0.73375517949E+02  0.00000000000E+00 0.  1.
</event>
<event>
 7    1  0.2619826E-009  0.8425434E+02  0.7561462E-02  0.1317394E+00
         -1   -1    0    0    0  501 -0.00000000000E+00  0.00000000000E+00  0.19927909886E+03  0.19927909886E+03  0.00000000000E+00 0.  1.
          1   -1    0    0  501    0  0.00000000000E+00 -0.00000000000E+00 -0.79692115933E+02  0.79692115933E+02  0.00000000000E+00 0. -1.
         25    2    1    2    0    0 -0.26835030206E+02 -0.16850749482E+02  0.10107415222E+02  0.12943660473E+03  0.12509040010E+03 0.  0.
          5    1    3    3  502    0 -0.10052089042E+02 -0.46891587066E+02  0.54758355796E+02  0.72909638328E+02  0.41800000000E+01 0. -1.
         -5    1    3    3    0  502 -0.16782941164E+02  0.30040837584E+02 -0.44650940574E+02  0.56526966405E+02  0.41800000000E+01 0. -1.
        -11    1    1    2    0    0  0.38576970957E+02  0.42560386632E+02  0.29226058614E+02  0.64449450739E+02  0.00000000000E+00 0. -1.
         11    1    1    2    0    0 -0.11741940751E+02 -0.25709637150E+02  0.80253509092E+02  0.85085159320E+02  0.00000000000E+00 0.  1.
</event>
<event>
 7    1  0.2619826E-009  0.1205453E+03  0.7561462E-02  0.1242200E+00
          1   -1    0    0  501    0  0.00000000000E+00  0.00000000000E+00  0.43858009268E+03  0.43858009268E+03  0.00000000000E+00 0. -1.
         -1   -1    0    0    0  501 -0.00000000000E+00 -0.00000000000E+00 -0.54682824264E+02  0.54682824264E+02  0.00000000000E+00 0.  1.
         25    2    1    2    0    0  0.17198342018E+02  0.91682421120E+02  0.30193545649E+03  0.33987360645E+03  0.12509036400E+03 0.  0.
          5    1    3    3  502    0  0.17583498749E+02 -0.10394846042E+02  0.17818499990E+03  0.17940066567E+03  0.41800000000E+01 0. -1.
         -5    1    3    3    0  502 -0.38515673094E+00  0.10207726716E+03  0.12375045659E+03  0.16047294078E+03  0.41800000000E+01 0. -1.
        -11    1    1    2    0    0 -0.45092906216E+02 -0.67406148974E+02  0.23891363799E+02  0.84544404751E+02  0.00000000000E+00 0.  1.
         11    1    1    2    0    0  0.27894564198E+02 -0.24276272146E+02  0.58070448125E+02  0.68844905742E+02  0.00000000000E+00 0. -1.
</event>
<event>
 7    1  0.2619826E-009  0.3777543E+03  0.7561462E-02  0.1051767E+00
         -1   -1    0    0    0  501 -0.00000000000E+00  0.00000000000E+00  0.13128587925E+03  0.13128587925E+03  0.00000000000E+00 0.  1.
          1   -1    0    0  501    0  0.00000000000E+00 -0.00000000000E+00 -0.11548321405E+04  0.11548321405E+04  0.00000000000E+00 0. -1.
         25    2    1    2    0    0 -0.35254532783E+03  0.11349805930E+03 -0.60889920476E+03  0.72358560870E+03  0.12509146219E+03 0.  0.
          5    1    3    3  502    0 -0.21598101027E+03  0.16309286557E+02 -0.40768798144E+03  0.46167169313E+03  0.41800000000E+01 0. -1.
         -5    1    3    3    0  502 -0.13656431756E+03  0.97188772742E+02 -0.20121122332E+03  0.26191391557E+03  0.41800000000E+01 0. -1.
        -11    1    1    2    0    0  0.97834031238E+02 -0.43356915002E+02 -0.68396350284E+02  0.12700149794E+03  0.00000000000E+00 0.  1.
         11    1    1    2    0    0  0.25471129659E+03 -0.70141144298E+02 -0.34625070621E+03  0.43553091313E+03  0.00000000000E+00 0. -1.
</event>
<event>
 7    1  0.2619826E-009  0.1016013E+03  0.7561462E-02  0.1276964E+00
          1   -1    0    0  501    0  0.00000000000E+00  0.00000000000E+00  0.93499946251E+02  0.93499946251E+02  0.00000000000E+00 0. -1.
         -1   -1    0    0    0  501 -0.00000000000E+00 -0.00000000000E+00 -0.12919887623E+03  0.12919887623E+03  0.00000000000E+00 0.  1.
         25    2    1    2    0    0  0.18730789651E+02 -0.23380233183E+02 -0.41232516380E+02  0.13507202741E+03  0.12508738705E+03 0.  0.
          5    1    3    3  502    0 -0.15312694886E+02  0.45930028881E+02 -0.29515616008E+02  0.56856751279E+02  0.41800000000E+01 0.  1.
         -5    1    3    3    0  502  0.34043484537E+02 -0.69310262064E+02 -0.11716900372E+02  0.78215276136E+02  0.41800000000E+01 0.  1.
        -11    1    1    2    0    0 -0.17026647391E+02  0.48857990250E+02 -0.16071384026E+02  0.54178402682E+02  0.00000000000E+00 0.  1.
         11    1    1    2    0    0 -0.17041422599E+01 -0.25477757067E+02  0.21604970426E+02  0.33448392385E+02  0.00000000000E+00 0. -1.
</event>
<event>
 7    1  0.2619826E-009  0.1356289E+03  0.7561462E-02  0.1219335E+00
         -1   -1    0    0    0  501 -0.00000000000E+00  0.00000000000E+00  0.67596267692E+02  0.67596267692E+02  0.00000000000E+00 0.  1.
          1   -1    0    0  501    0  0.00000000000E+00 -0.00000000000E+00 -0.32817642943E+03  0.32817642943E+03  0.00000000000E+00 0. -1.
         25    2    1    2    0    0 -0.82967320772E+02 -0.58301562157E+02 -0.13829731974E+03  0.21226389583E+03  0.12508862602E+03 0.  0.
          5    1    3    3  502    0 -0.24558343246E+02  0.38939506040E+02 -0.52663817344E+02  0.70073871100E+02  0.41800000000E+01 0. -1.
         -5    1    3    3    0  502 -0.58408977525E+02 -0.97241068197E+02 -0.85633502394E+02  0.14219002473E+03  0.41800000000E+01 0. -1.
        -11    1    1    2    0    0  0.29740754174E+02 -0.35124924878E+01  0.68953463798E+01  0.30731024455E+02  0.00000000000E+00 0.  1.
         11    1    1    2    0    0  0.53226566597E+02  0.61814054645E+02 -0.12917818838E+03  0.15277777684E+03  0.00000000000E+00 0. -1.
</event>
<event>
 7    1  0.2619826E-009  0.1626675E+03  0.7561462E-02  0.1185718E+00
         -1   -1    0    0    0  501 -0.00000000000E+00  0.00000000000E+00  0.11770130843E+03  0.11770130843E+03  0.00000000000E+00 0.  1.
          1   -1    0    0  501    0  0.00000000000E+00 -0.00000000000E+00 -0.30980892191E+03  0.30980892191E+03  0.00000000000E+00 0. -1.
         25    2    1    2    0    0  0.11039709579E+03  0.62944781849E+02  0.16893459872E+01  0.17832448244E+03  0.12508877978E+03 0.  0.
          5    1    3    3  502    0  0.52933571198E+02  0.93307984792E+02  0.23010818266E+02  0.10979669004E+03  0.41800000000E+01 0. -1.
         -5    1    3    3    0  502  0.57463524587E+02 -0.30363202943E+02 -0.21321472279E+02  0.68527792399E+02  0.41800000000E+01 0. -1.
        -11    1    1    2    0    0 -0.11884789082E+03 -0.35354788751E+02 -0.13268635773E+03  0.18160520854E+03  0.00000000000E+00 0.  1.
         11    1    1    2    0    0  0.84507950363E+01 -0.27589993098E+02 -0.61110601739E+02  0.67580539364E+02  0.00000000000E+00 0. -1.
</event>
<event>
 7    1  0.2619826E-009  0.7086604E+02  0.7561462E-02  0.1357173E+00
          1   -1    0    0  501    0  0.00000000000E+00  0.00000000000E+00  0.49499370342E+02  0.49499370342E+02  0.00000000000E+00 0. -1.
         -1   -1    0    0    0  501 -0.00000000000E+00 -0.00000000000E+00 -0.29066439734E+03  0.29066439734E+03  0.00000000000E+00 0.  1.
         25    2    1    2    0    0  0.84664858346E+01 -0.48510899344E+02 -0.10764610783E+03  0.17222004097E+03  0.12508824582E+03 0.  0.
          5    1    3    3  502    0  0.20424602916E+02 -0.30278769333E+02 -0.13331008055E+03  0.13828600165E+03  0.41800000000E+01 0.  1.
         -5    1    3    3    0  502 -0.11958117081E+02 -0.18232130011E+02  0.25663972717E+02  0.33934039318E+02  0.41800000000E+01 0.  1.
        -11    1    1    2    0    0 -0.29305535808E+02  0.53805032447E+02 -0.13300323123E+03  0.14643652366E+03  0.00000000000E+00 0.  1.
         11    1    1    2    0    0  0.20839049973E+02 -0.52941331035E+01 -0.51568794157E+00  0.21507203053E+02  0.00000000000E+00 0. -1.
</event>
<event>
 6    1  0.4574382E-009  0.1533966E+03  0.7561462E-02  0.1196360E+00
          2   -1    0    0  501    0  0.00000000000E+00  0.00000000000E+00  0.55198314700E+03  0.55198314700E+03  0.00000000000E+00 0. -1.
         -2   -1    0    0    0  501 -0.00000000000E+00 -0.00000000000E+00 -0.58499224882E+02  0.58499224882E+02  0.00000000000E+00 0.  1.
          5    1    1    2  502    0  0.33161975647E+02 -0.11224110563E+02  0.74264485076E+02  0.82209387727E+02  0.41800000000E+01 0.  1.
         -5    1    1    2    0  502 -0.35955648375E+02  0.13842958704E+03  0.29738279116E+03  0.33001447862E+03  0.41800000000E+01 0.  1.
        -11    1    1    2    0    0 -0.75182538812E+01 -0.51390108302E+02 -0.27972622332E+01  0.52012422061E+02  0.00000000000E+00 0.  1.
         11    1    1    2    0    0  0.10311926609E+02 -0.75815368171E+02  0.12463390811E+03  0.14624608348E+03  0.00000000000E+00 0. -1.
</event>
<event>
 7    1  0.2619826E-009  0.1224414E+03  0.7561462E-02  0.1239123E+00
         -2   -1    0    0    0  501 -0.00000000000E+00  0.00000000000E+00  0.19119667068E+02  0.19119667068E+02  0.00000000000E+00 0.  1.
          2   -1    0    0  501    0  0.00000000000E+00 -0.00000000000E+00 -0.23356356867E+04  0.23356356867E+04  0.00000000000E+00 0. -1.
         25    2    1    2    0    0  0.60641693949E+02  0.76926739751E+02 -0.20594081908E+04  0.20655274183E+04  0.12508509418E+03 0.  0.
          5    1    3    3  502    0  0.90130498052E+02  0.37990606699E+02 -0.16966298645E+04  0.16994520183E+04  0.41800000000E+01 0.  1.
         -5    1    3    3    0  502 -0.29488804103E+02  0.38936133052E+02 -0.36277832632E+03  0.36607539999E+03  0.41800000000E+01 0.  1.
        -11    1    1    2    0    0 -0.51042534173E+02 -0.64024999981E+02 -0.26026375363E+03  0.27284017734E+03  0.00000000000E+00 0. -1.
         11    1    1    2    0    0 -0.95991597762E+01 -0.12901739770E+02  0.31559247979E+01  0.16387758201E+02  0.00000000000E+00 0.  1.
</event>
<event>
 7    1  0.2619826E-009  0.1525109E+03  0.7561462E-02  0.1197421E+00
         -4   -1    0    0    0  501 -0.00000000000E+00  0.00000000000E+00  0.10732901314E+03  0.10732901314E+03  0.00000000000E+00 0. -1.
          4   -1    0    0  501    0  0.00000000000E+00 -0.00000000000E+00 -0.27215504129E+03  0.27215504129E+03  0.00000000000E+00 0.  1.
         25    2    1    2    0    0 -0.16922257344E+01 -0.13055726091E+03 -0.68230237076E+02  0.19326401214E+03  0.12509017200E+03 0.  0.
          5    1    3    3  502    0 -0.25983667405E+02 -0.14247049451E+03 -0.32901799835E+02  0.14856982738E+03  0.41800000000E+01 0.  1.
         -5    1    3    3    0  502  0.24291441671E+02  0.11913233593E+02 -0.35328437241E+02  0.44694184756E+02  0.41800000000E+01 0.  1.
        -11    1    1    2    0    0  0.11253304676E+02  0.10264494804E+03 -0.11249742135E+03  0.15270328102E+03  0.00000000000E+00 0.  1.
         11    1    1    2    0    0 -0.95610789417E+01  0.27912312877E+02  0.15901630278E+02  0.33516761272E+02  0.00000000000E+00 0. -1.
</event>
<event>
 7    1  0.2619826E-009  0.8023419E+02  0.7561462E-02  0.1328388E+00
         -2   -1    0    0    0  501 -0.00000000000E+00  0.00000000000E+00  0.28482579136E+02  0.28482579136E+02  0.00000000000E+00 0. -1.
          2   -1    0    0  501    0  0.00000000000E+00 -0.00000000000E+00 -0.52794190439E+03  0.52794190439E+03  0.00000000000E+00 0.  1.
         25    2    1    2    0    0  0.21195431918E+02 -0.32720128845E+02 -0.36753595730E+03  0.39019225171E+03  0.12508980862E+03 0.  0.
          5    1    3    3  502    0  0.59102677353E+02 -0.24762186918E+02 -0.93666662342E+02  0.11356587694E+03  0.41800000000E+01 0.  1.
         -5    1    3    3    0  502 -0.37907245435E+02 -0.79579419269E+01 -0.27386929496E+03  0.27662637477E+03  0.41800000000E+01 0.  1.
        -11    1    1    2    0    0  0.11498585840E+02  0.18181708240E+02 -0.12849972014E+03  0.13028802734E+03  0.00000000000E+00 0.  1.
         11    1    1    2    0    0 -0.32694017758E+02  0.14538420605E+02 -0.34236478035E+01  0.35944204472E+02  0.00000000000E+00 0. -1.
</event>
<event>
 7    1  0.2619826E-009  0.3088242E+03  0.7561462E-02  0.1080911E+00
         -1   -1    0    0    0  501 -0.00000000000E+00  0.00000000000E+00  0.72098597215E+03  0.72098597215E+03  0.00000000000E+00 0. -1.
          1   -1    0    0  501    0  0.00000000000E+00 -0.00000000000E+00 -0.20734075958E+03  0.20734075958E+03  0.00000000000E+00 0.  1.
         25    2    1    2    0    0  0.18927334550E+03 -0.23171758093E+03 -0.33514297196E+01  0.32430847084E+03  0.12508923036E+03 0.  0.
          5    1    3    3  502    0  0.22108739526E+02 -0.27011679621E+01  0.31289172558E+02  0.38633889154E+02  0.41800000000E+01 0.  1.
         -5    1    3    3    0  502  0.16716460597E+03 -0.22901641296E+03 -0.34640602277E+02  0.28567458169E+03  0.41800000000E+01 0. -1.
        -11    1    1    2    0    0 -0.15531851860E+03  0.12481768662E+03  0.30819447620E+03  0.36699745540E+03  0.00000000000E+00 0.  1.
         11    1    1    2    0    0 -0.33954826896E+02  0.10689989430E+03  0.20880216609E+03  0.23702080549E+03  0.00000000000E+00 0. -1.
</event>
<event>
 7    1  0.2619826E-009  0.3124231E+03  0.7561462E-02  0.1079190E+00
         -1   -1    0    0    0  501 -0.00000000000E+00  0.00000000000E+00  0.47108714795E+03  0.47108714795E+03  0.00000000000E+00 0.  1.
          1   -1    0    0  501    0  0.00000000000E+00 -0.00000000000E+00 -0.30867349970E+03  0.30867349970E+03  0.00000000000E+00 0. -1.
         25    2    1    2    0    0 -0.28300730951E+02 -0.29198784735E+03  0.30505711889E+03  0.44132198952E+03  0.12508964097E+03 0.  0.
          5    1    3    3  502    0 -0.77108682431E+02 -0.17522861757E+03  0.19880608081E+03  0.27602925115E+03  0.41800000000E+01 0. -1.
         -5    1    3    3    0  502  0.48807951480E+02 -0.11675922977E+03  0.10625103809E+03  0.16529273838E+03  0.41800000000E+01 0. -1.
        -11    1    1    2    0    0 -0.26194515505E+02  0.18320432359E+03 -0.91592066286E+02  0.20649233262E+03  0.00000000000E+00 0.  1.
         11    1    1    2    0    0  0.54495246456E+02  0.10878352376E+03 -0.51051404361E+02  0.13194632551E+03  0.00000000000E+00 0. -1.
</event>
<event>
 7    1  0.2619826E-009  0.1271632E+03  0.7561462E-02  0.1231727E+00
          2   -1    0    0  501    0  0.00000000000E+00  0.00000000000E+00  0.60685158732E+03  0.60685158732E+03  0.00000000000E+00 0. -1.
         -2   -1    0    0    0  501 -0.00000000000E+00 -0.00000000000E+00 -0.29175528851E+02  0.29175528851E+02  0.00000000000E+00 0.  1.
         25    2    1    2    0    0  0.40497849320E+02 -0.57008495232E+02  0.23271321516E+03  0.27330032165E+03  0.12509029129E+03 0.  0.
          5    1    3    3  502    0  0.58249710346E+02 -0.88862226570E+02  0.16545399968E+03  0.19667745798E+03  0.41800000000E+01 0. -1.
         -5    1    3    3    0  502 -0.17751861026E+02  0.31853731338E+02  0.67259215477E+02  0.76622863668E+02  0.41800000000E+01 0. -1.
        -11    1    1    2    0    0  0.27362353089E+02  0.20802937653E+02  0.87082052441E+02  0.93620213837E+02  0.00000000000E+00 0.  1.
         11    1    1    2    0    0 -0.67860202408E+02  0.36205557579E+02  0.25788079087E+03  0.26910658069E+03  0.00000000000E+00 0. -1.
</event>
<event>
 7    1  0.2619826E-009  0.1976414E+03  0.7561462E-02  0.1151744E+00
         -2   -1    0    0    0  501 -0.00000000000E+00  0.00000000000E+00  0.36243714424E+02  0.36243714424E+02  0.00000000000E+00 0.  1.
          2   -1    0    0  501    0  0.00000000000E+00 -0.00000000000E+00 -0.13059517187E+04  0.13059517187E+04  0.00000000000E+00 0. -1.
         25    2    1    2    0    0 -0.63493383502E+02  0.16804491616E+03 -0.82734010463E+03  0.85580952113E+03  0.12509110330E+03 0.  0.
          5    1    3    3  502    0 -0.88875311801E+02  0.16339748826E+03 -0.77839819689E+03  0.80032417528E+03  0.41800000000E+01 0.  1.
         -5    1    3    3    0  502  0.25381928299E+02  0.46474278920E+01 -0.48941907742E+02  0.55485345846E+02  0.41800000000E+01 0.  1.
        -11    1    1    2    0    0  0.37939166103E+02 -0.52616695073E+02 -0.68805984997E+02  0.94562997501E+02  0.00000000000E+00 0.  1.
         11    1    1    2    0    0  0.25554217400E+02 -0.11542822108E+03 -0.37356191467E+03  0.39182291452E+03  0.00000000000E+00 0. -1.
</event>
<event>
 7    1  0.2619826E-009  0.1332190E+03  0.7561462E-02  0.1222756E+00
         -1   -1    0    0    0  501 -0.00000000000E+00  0.00000000000E+00  0.10424719971E+03  0.10424719971E+03  0.00000000000E+00 0.  1.
          1   -1    0    0  501    0  0.00000000000E+00 -0.00000000000E+00 -0.20194336563E+03  0.20194336563E+03  0.00000000000E+00 0. -1.
         25    2    1    2    0    0  0.55808487327E+02 -0.66408679031E+02 -0.11245322267E+02  0.15264163217E+03  0.12509320801E+03 0.  0.
          5    1    3    3  502    0  0.92085449957E+02 -0.67698108892E+02  0.14086675530E+00  0.11436894808E+03  0.41800000000E+01 0.  1.
         -5    1    3    3    0  502 -0.36276962630E+02  0.12894298603E+01 -0.11386189023E+02  0.38272684090E+02  0.41800000000E+01 0.  1.
        -11    1    1    2    0    0 -0.15575391305E+02  0.73102358144E+02 -0.84361398958E+02  0.11270933065E+03  0.00000000000E+00 0.  1.
         11    1    1    2    0    0 -0.40233096022E+02 -0.66936791124E+01 -0.20894446933E+01  0.40839602529E+02  0.00000000000E+00 0. -1.
</event>
<event>
 7    1  0.2619826E-009  0.6432466E+02  0.7561462E-02  0.1380530E+00
         -2   -1    0    0    0  501 -0.00000000000E+00  0.00000000000E+00  0.46625610589E+02  0.46625610589E+02  0.00000000000E+00 0.  1.
          2   -1    0    0  501    0  0.00000000000E+00 -0.00000000000E+00 -0.26693514950E+03  0.26693514950E+03  0.00000000000E+00 0. -1.
         25    2    1    2    0    0  0.15042989822E+02  0.11807849957E+01 -0.15611405539E+03  0.20061776936E+03  0.12509278676E+03 0.  0.
          5    1    3    3  502    0  0.51042989528E+02 -0.11293800661E+02 -0.15348665294E+03  0.16219914224E+03  0.41800000000E+01 0. -1.
         -5    1    3    3    0  502 -0.35999999706E+02  0.12474585657E+02 -0.26274024445E+01  0.38418627120E+02  0.41800000000E+01 0. -1.
        -11    1    1    2    0    0 -0.11961383679E+02 -0.17539477526E+02  0.18761703704E+02  0.28332128358E+02  0.00000000000E+00 0.  1.
         11    1    1    2    0    0 -0.30816061425E+01  0.16358692530E+02 -0.82957187227E+02  0.84610862366E+02  0.00000000000E+00 0. -1.
</event>
<event>
 7    1  0.2619826E-009  0.1784438E+03  0.7561462E-02  0.1169318E+00
         -2   -1    0    0    0  501 -0.00000000000E+00  0.00000000000E+00  0.23180774015E+03  0.23180774015E+03  0.00000000000E+00 0. -1.
          2   -1    0    0  501    0  0.00000000000E+00 -0.00000000000E+00 -0.18058737925E+03  0.18058737925E+03  0.00000000000E+00 0.  1.
         25    2    1    2    0    0 -0.39659195849E+02 -0.15584542112E+03  0.90664541822E+02  0.22300096192E+03  0.12509485511E+03 0.  0.
          5    1    3    3  502    0  0.16187413017E+02 -0.11171867229E+03  0.10028644305E+03  0.15105607283E+03  0.41800000000E+01 0.  1.
         -5    1    3    3    0  502 -0.55846608865E+02 -0.44126748826E+02 -0.96219012272E+01  0.71944889096E+02  0.41800000000E+01 0.  1.
        -11    1    1    2    0    0  0.53559232734E+02  0.85272365542E+02 -0.56507693888E+02  0.11546898807E+03  0.00000000000E+00 0. -1.
         11    1    1    2    0    0 -0.13900036885E+02  0.70573055573E+02  0.17063512959E+02  0.73925169413E+02  0.00000000000E+00 0.  1.
</event>
<event>
 7    1  0.2619826E-009  0.2524109E+03  0.7561462E-02  0.1111791E+00
         -2   -1    0    0    0  501 -0.00000000000E+00  0.00000000000E+00  0.23580255598E+03  0.23580255598E+03  0.00000000000E+00 0.  1.
          2   -1    0    0  501    0  0.00000000000E+00 -0.00000000000E+00 -0.33642988159E+03  0.33642988159E+03  0.00000000000E+00 0. -1.
         25    2    1    2    0    0 -0.39796548035E+02  0.24698999926E+03  0.21018352485E+02  0.28049481640E+03  0.12509095057E+03 0.  0.
          5    1    3    3  502    0 -0.21762759097E+02  0.48997664999E+02  0.57051013512E+02  0.78400761486E+02  0.41800000000E+01 0.  1.
         -5    1    3    3    0  502 -0.18033788938E+02  0.19799233426E+03 -0.36032661027E+02  0.20209405491E+03  0.41800000000E+01 0.  1.
        -11    1    1    2    0    0  0.32058982170E+02 -0.10036514465E+03 -0.96295012750E+02  0.14273636565E+03  0.00000000000E+00 0. -1.
         11    1    1    2    0    0  0.77375658653E+01 -0.14662485461E+03 -0.25350665337E+02  0.14900125552E+03  0.00000000000E+00 0.  1.
</event>
<event>
 7    1  0.2619826E-009  0.1212172E+03  0.7561462E-02  0.1241103E+00
         -1   -1    0    0    0  501 -0.00000000000E+00  0.00000000000E+00  0.82280057792E+02  0.82280057792E+02  0.00000000000E+00 0.  1.
          1   -1    0    0  501    0  0.00000000000E+00 -0.00000000000E+00 -0.20849910397E+03  0.20849910397E+03  0.00000000000E+00 0. -1.
         25    2    1    2    0    0 -0.83481618199E+00  0.67781736037E+02 -0.69974100749E+02  0.15854787877E+03  0.12508394952E+03 0.  0.
          5    1    3    3  502    0  0.59492892805E+02  0.14024120759E+02 -0.32991296132E+02  0.69584324943E+02  0.41800000000E+01 0.  1.
         -5    1    3    3    0  502 -0.60327708987E+02  0.53757615278E+02 -0.36982804617E+02  0.88963553826E+02  0.41800000000E+01 0.  1.
        -11    1    1    2    0    0 -0.30542813174E+02 -0.60903851896E+02 -0.69641340677E+02  0.97427198172E+02  0.00000000000E+00 0. -1.
         11    1    1    2    0    0  0.31377629356E+02 -0.68778841408E+01  0.13396395251E+02  0.34804084818E+02  0.00000000000E+00 0.  1.
</event>
<event>
 7    1  0.2619826E-009  0.9496387E+02  0.7561462E-02  0.1291257E+00
         -1   -1    0    0    0  501 -0.00000000000E+00  0.00000000000E+00  0.42901840807E+02  0.42901840807E+02  0.00000000000E+00 0.  1.
          1   -1    0    0  501    0  0.00000000000E+00 -0.00000000000E+00 -0.29250493653E+03  0.29250493653E+03  0.00000000000E+00 0. -1.
         25    2    1    2    0    0  0.15578408734E+01 -0.26391532184E+02 -0.16971833925E+03  0.21248899337E+03  0.12509323637E+03 0.  0.
          5    1    3    3  502    0  0.13265046332E+02 -0.64422319838E+02 -0.40820464787E+02  0.77524057511E+02  0.41800000000E+01 0.  1.
         -5    1    3    3    0  502 -0.11707205458E+02  0.38030787654E+02 -0.12889787446E+03  0.13496493586E+03  0.41800000000E+01 0.  1.
        -11    1    1    2    0    0 -0.34240657940E+02  0.36258225505E+02 -0.72487469490E+02  0.87985878446E+02  0.00000000000E+00 0. -1.
         11    1    1    2    0    0  0.32682817067E+02 -0.98666933206E+01 -0.73972869768E+01  0.34931905518E+02  0.00000000000E+00 0.  1.
</event>
<event>
 7    1  0.2619826E-009  0.1094937E+03  0.7561462E-02  0.1261510E+00
          1   -1    0    0  501    0  0.00000000000E+00  0.00000000000E+00  0.38214433404E+03  0.38214433404E+03  0.00000000000E+00 0. -1.
         -1   -1    0    0    0  501 -0.00000000000E+00 -0.00000000000E+00 -0.80301481813E+02  0.80301481813E+02  0.00000000000E+00 0.  1.
         25    2    1    2    0    0  0.61978571106E+01 -0.10207956331E+03  0.27896065523E+03  0.32237471322E+03  0.12509099841E+03 0.  0.
          5    1    3    3  502    0  0.19366424426E+02 -0.43170515103E+02  0.12481296564E+02  0.49112187217E+02  0.41800000000E+01 0.  1.
         -5    1    3    3    0  502 -0.13168567315E+02 -0.58909048205E+02  0.26647935866E+03  0.27326252601E+03  0.41800000000E+01 0.  1.
        -11    1    1    2    0    0 -0.20351423730E+02  0.90302842108E+02  0.51584666578E+02  0.10597056934E+03  0.00000000000E+00 0. -1.
         11    1    1    2    0    0  0.14153566620E+02  0.11776721200E+02 -0.28702469582E+02  0.34100533286E+02  0.00000000000E+00 0.  1.
</event>
<event>
 7    1  0.2619826E-009  0.1015491E+03  0.7561462E-02  0.1277072E+00
          2   -1    0    0  501    0  0.00000000000E+00  0.00000000000E+00  0.63781135016E+03  0.63781135016E+03  0.00000000000E+00 0. -1.
         -2   -1    0    0    0  501 -0.00000000000E+00 -0.00000000000E+00 -0.43882530239E+02  0.43882530239E+02  0.00000000000E+00 0.  1.
         25    2    1    2    0    0 -0.98007559424E+02 -0.28518652280E+01  0.48056725242E+03  0.50616795059E+03  0.12508994870E+03 0.  0.
          5    1    3    3  502    0 -0.36656592090E+02  0.78870866104E+01  0.22627301226E+02  0.43992943066E+02  0.41800000000E+01 0. -1.
         -5    1    3    3    0  502 -0.61350967334E+02 -0.10738951838E+02  0.45793995119E+03  0.46217500752E+03  0.41800000000E+01 0. -1.
        -11    1    1    2    0    0  0.11325145731E+02  0.11118560717E+02  0.81143472240E+02  0.82680979707E+02  0.00000000000E+00 0. -1.
         11    1    1    2    0    0  0.86682413693E+02 -0.82666954889E+01  0.32218095265E+02  0.92844950107E+02  0.00000000000E+00 0.  1.
</event>
<event>
 7    1  0.2619826E-009  0.5760509E+02  0.7561462E-02  0.1408166E+00
         -1   -1    0    0    0  501 -0.00000000000E+00  0.00000000000E+00  0.28709153554E+03  0.28709153554E+03  0.00000000000E+00 0.  1.
          1   -1    0    0  501    0  0.00000000000E+00 -0.00000000000E+00 -0.45874047054E+02  0.45874047054E+02  0.00000000000E+00 0. -1.
         25    2    1    2    0    0  0.28354764229E+02 -0.88816240493E+01  0.15765495921E+03  0.20343358754E+03  0.12508901820E+03 0.  0.
          5    1    3    3  502    0 -0.81483458641E+01 -0.16337805152E+00  0.16475554713E+03  0.16500995408E+03  0.41800000000E+01 0. -1.
         -5    1    3    3    0  502  0.36503110094E+02 -0.87182459978E+01 -0.71005879206E+01  0.38423633464E+02  0.41800000000E+01 0. -1.
        -11    1    1    2    0    0 -0.34049735716E+02  0.30634837862E+02  0.30117811606E+01  0.45901509985E+02  0.00000000000E+00 0. -1.
         11    1    1    2    0    0  0.56949714862E+01 -0.21753213813E+02  0.80550748107E+02  0.83630485064E+02  0.00000000000E+00 0.  1.
</event>
<event>
 7    1  0.2619826E-009  0.2622623E+03  0.7561462E-02  0.1105792E+00
         -1   -1    0    0    0  501 -0.00000000000E+00  0.00000000000E+00  0.26431084641E+03  0.26431084641E+03  0.00000000000E+00 0.  1.
          1   -1    0    0  501    0  0.00000000000E+00 -0.00000000000E+00 -0.31317611279E+03  0.31317611279E+03  0.00000000000E+00 0. -1.
         25    2    1    2    0    0 -0.22837455006E+03 -0.98175114285E+02 -0.12080707848E+03  0.30336947720E+03  0.12508157861E+03 0.  0.
          5    1    3    3  502    0 -0.74755143425E+02  0.24985367779E+02 -0.16976029853E+02  0.80735729768E+02  0.41800000000E+01 0. -1.
         -5    1    3    3    0  502 -0.15361940663E+03 -0.12316048206E+03 -0.10383104863E+03  0.22263374743E+03  0.41800000000E+01 0. -1.
        -11    1    1    2    0    0  0.12490305772E+03  0.50437508855E+02  0.85216127166E+02  0.15939417949E+03  0.00000000000E+00 0. -1.
         11    1    1    2    0    0  0.10347149234E+03  0.47737605430E+02 -0.13274315065E+02  0.11472330251E+03  0.00000000000E+00 0.  1.
</event>
<event>
 7    1  0.2619826E-009  0.1875716E+03  0.7561462E-02  0.1160670E+00
          1   -1    0    0  501    0  0.00000000000E+00  0.00000000000E+00  0.89789762023E+02  0.89789762023E+02  0.00000000000E+00 0. -1.
         -1   -1    0    0    0  501 -0.00000000000E+00 -0.00000000000E+00 -0.40847299115E+03  0.40847299115E+03  0.00000000000E+00 0.  1.
         25    2    1    2    0    0 -0.13920625441E+03  0.70221066279E+02 -0.14113007513E+03  0.24469071661E+03  0.12508584761E+03 0.  0.
          5    1    3    3  502    0  0.61620910112E+01  0.49820079334E+02 -0.19525373247E+02  0.54025218842E+02  0.41800000000E+01 0.  1.
         -5    1    3    3    0  502 -0.14536834543E+03  0.20400986945E+02 -0.12160470188E+03  0.19066549777E+03  0.41800000000E+01 0.  1.
        -11    1    1    2    0    0  0.32384686509E+02 -0.63019101709E+02 -0.94280162160E+02  0.11793610167E+03  0.00000000000E+00 0.  1.
         11    1    1    2    0    0  0.10682156791E+03 -0.72019645703E+01 -0.83272991839E+02  0.13563593489E+03  0.00000000000E+00 0. -1.
</event>
<event>
 7    1  0.2619826E-009  0.1084324E+03  0.7561462E-02  0.1263501E+00
          1   -1    0    0  501    0  0.00000000000E+00  0.00000000000E+00  0.24040160305E+03  0.24040160305E+03  0.00000000000E+00 0. -1.
         -1   -1    0    0    0  501 -0.00000000000E+00 -0.00000000000E+00 -0.68153356691E+02  0.68153356691E+02  0.00000000000E+00 0.  1.
         25    2    1    2    0    0 -0.74656821720E+01 -0.52815788513E+02  0.46008986058E+02  0.14355999713E+03  0.12508957611E+03 0.  0.
          5    1    3    3  502    0 -0.62908264825E+02 -0.38542540679E+02  0.71473848043E+01  0.74239711306E+02  0.41800000000E+01 0.  1.
         -5    1    3    3    0  502  0.55442582653E+02 -0.14273247833E+02  0.38861601254E+02  0.69320285826E+02  0.41800000000E+01 0.  1.
        -11    1    1    2    0    0  0.13046153649E+02 -0.13641686335E+02  0.83904401047E+02  0.86001431652E+02  0.00000000000E+00 0. -1.
         11    1    1    2    0    0 -0.55804714771E+01  0.66457474848E+02  0.42334859254E+02  0.78993530957E+02  0.00000000000E+00 0.  1.
</event>
<event>
 7    1  0.2619826E-009  0.1144890E+03  0.7561462E-02  0.1252476E+00
          1   -1    0    0  501    0  0.00000000000E+00  0.00000000000E+00  0.21368236040E+03  0.21368236040E+03  0.00000000000E+00 0. -1.
         -1   -1    0    0    0  501 -0.00000000000E+00 -0.00000000000E+00 -0.97541414777E+02  0.97541414777E+02  0.00000000000E+00 0.  1.
         25    2    1    2    0    0 -0.71425517814E+02  0.27541890997E+02  0.11719477146E+03  0.18773184434E+03  0.12509384704E+03 0.  0.
          5    1    3    3  502    0 -0.65754811316E+02 -0.31732035196E+02  0.10309368178E+03  0.12639777250E+03  0.41800000000E+01 0.  1.
         -5    1    3    3    0  502 -0.56707064985E+01  0.59273926193E+02  0.14101089677E+02  0.61334071841E+02  0.41800000000E+01 0.  1.
        -11    1    1    2    0    0  0.65408390100E+01  0.16491344090E+02 -0.34067754067E+02  0.38410400571E+02  0.00000000000E+00 0.  1.
         11    1    1    2    0    0  0.64884678804E+02 -0.44033235087E+02  0.33013928232E+02  0.85081530270E+02  0.00000000000E+00 0. -1.
</event>
<event>
 7    1  0.3624332E-009  0.1186514E+03  0.7561462E-02  0.1245338E+00
         -1   -1    0    0    0  501 -0.00000000000E+00  0.00000000000E+00  0.42329717546E+02  0.42329717546E+02  0.00000000000E+00 0.  1.
          1   -1    0    0  501    0  0.00000000000E+00 -0.00000000000E+00 -0.78002832225E+03  0.78002832225E+03  0.00000000000E+00 0. -1.
         25    2    1    2    0    0 -0.74211860263E+02  0.39259738161E+02 -0.65813998333E+03  0.67516146687E+03  0.12508413746E+03 0.  0.
          5    1    3    3  502    0  0.21394913916E+02  0.49804034979E+02 -0.24006362287E+03  0.24614264090E+03  0.41800000000E+01 0.  1.
         -5    1    3    3    0  502 -0.95606774179E+02 -0.10544296817E+02 -0.41807636046E+03  0.42901882597E+03  0.41800000000E+01 0.  1.
        -11    1    1    2    0    0  0.26903086347E+02 -0.30327613467E+01  0.18261828510E+02  0.32656822823E+02  0.00000000000E+00 0.  1.
         11    1    1    2    0    0  0.47308773915E+02 -0.36226976815E+02 -0.97820449890E+02  0.11453975011E+03  0.00000000000E+00 0. -1.
</event>
<event>
 7    1  0.2619826E-009  0.1650183E+03  0.7561462E-02  0.1183145E+00
          1   -1    0    0  501    0  0.00000000000E+00  0.00000000000E+00  0.11460908367E+04  0.11460908367E+04  0.00000000000E+00 0. -1.
         -1   -1    0    0    0  501 -0.00000000000E+00 -0.00000000000E+00 -0.25711804507E+02  0.25711804507E+02  0.00000000000E+00 0.  1.
         25    2    1    2    0    0  0.62968228290E+02 -0.11076082801E+03  0.73970292290E+03  0.76094256853E+03  0.12506086382E+03 0.  0.
          5    1    3    3  502    0  0.13981657996E+02 -0.12389198900E+03  0.45826643265E+03  0.47494242534E+03  0.41800000000E+01 0. -1.
         -5    1    3    3    0  502  0.48986570294E+02  0.13131160990E+02  0.28143649025E+03  0.28600014319E+03  0.41800000000E+01 0. -1.
        -11    1    1    2    0    0  0.16465881489E+02  0.54834043948E+02  0.15055088570E+03  0.16106975760E+03  0.00000000000E+00 0.  1.
         11    1    1    2    0    0 -0.79434109779E+02  0.55926784062E+02  0.23012522363E+03  0.24979031511E+03  0.00000000000E+00 0. -1.
</event>
<event>
 7    1  0.2619826E-009  0.1154307E+03  0.7561462E-02  0.1250831E+00
          1   -1    0    0  501    0  0.00000000000E+00  0.00000000000E+00  0.41764343065E+03  0.41764343065E+03  0.00000000000E+00 0. -1.
         -1   -1    0    0    0  501 -0.00000000000E+00 -0.00000000000E+00 -0.48326686571E+02  0.48326686571E+02  0.00000000000E+00 0.  1.
         25    2    1    2    0    0 -0.59740864987E+02  0.58702935139E+02  0.26359711393E+03  0.30355722247E+03  0.12509413774E+03 0.  0.
          5    1    3    3  502    0 -0.85604764253E+02  0.19152922647E+02  0.22775204451E+03  0.24409726809E+03  0.41800000000E+01 0. -1.
         -5    1    3    3    0  502  0.25863899267E+02  0.39550012492E+02  0.35845069417E+02  0.59459954380E+02  0.41800000000E+01 0. -1.
        -11    1    1    2    0    0  0.33813053638E+02 -0.27416592748E+01  0.93599298352E+02  0.99557360069E+02  0.00000000000E+00 0. -1.
         11    1    1    2    0    0  0.25927811349E+02 -0.55961275864E+02  0.12120331800E+02  0.62855534685E+02  0.00000000000E+00 0.  1.
</event>
<event>
 7    1  0.2619826E-009  0.7866705E+02  0.7561462E-02  0.1332877E+00
          4   -1    0    0  501    0  0.00000000000E+00  0.00000000000E+00  0.59404383731E+03  0.59404383731E+03  0.00000000000E+00 0. -1.
         -4   -1    0    0    0  501 -0.00000000000E+00 -0.00000000000E+00 -0.22013282522E+02  0.22013282522E+02  0.00000000000E+00 0.  1.
         25    2    1    2    0    0 -0.29671494061E+02 -0.21522889416E+02  0.28696274741E+03  0.31518077642E+03  0.12509065149E+03 0.  0.
          5    1    3    3  502    0 -0.34509666144E+01  0.23080766084E+02  0.25079895244E+03  0.25191708533E+03  0.41800000000E+01 0.  1.
         -5    1    3    3    0  502 -0.26220527447E+02 -0.44603655499E+02  0.36163794971E+02  0.63263691089E+02  0.41800000000E+01 0.  1.
        -11    1    1    2    0    0 -0.24163872607E+02  0.12240484945E+02  0.31749350069E+02  0.41734199895E+02  0.00000000000E+00 0.  1.
         11    1    1    2    0    0  0.53835366668E+02  0.92824044709E+01  0.25331845731E+03  0.25914214352E+03  0.00000000000E+00 0. -1.
</event>
<event>
 7    1  0.2619826E-009  0.1197007E+03  0.7561462E-02  0.1243592E+00
          1   -1    0    0  501    0  0.00000000000E+00  0.00000000000E+00  0.25164612924E+02  0.25164612924E+02  0.00000000000E+00 0. -1.
         -1   -1    0    0    0  501 -0.00000000000E+00 -0.00000000000E+00 -0.82622223541E+03  0.82622223541E+03  0.00000000000E+00 0.  1.
         25    2    1    2    0    0  0.73562266389E+02 -0.35901845061E+02 -0.57665643773E+03  0.59571879812E+03  0.12509152548E+03 0.  0.
          5    1    3    3  502    0 -0.27999277417E+02 -0.48751417809E+00 -0.25417679933E+03  0.25574892946E+03  0.41800000000E+01 0.  1.
         -5    1    3    3    0  502  0.10156154381E+03 -0.35414330883E+02 -0.32247963840E+03  0.33996986866E+03  0.41800000000E+01 0.  1.
        -11    1    1    2    0    0 -0.77773084126E+02  0.47484466957E+02 -0.22557809021E+03  0.24328769389E+03  0.00000000000E+00 0.  1.
         11    1    1    2    0    0  0.42108177374E+01 -0.11582621896E+02  0.11769054571E+01  0.12380356314E+02  0.00000000000E+00 0. -1.
</event>
<event>
 7    1  0.2619826E-009  0.1220731E+03  0.7561462E-02  0.1239716E+00
          2   -1    0    0  501    0  0.00000000000E+00  0.00000000000E+00  0.25949407398E+03  0.25949407398E+03  0.00000000000E+00 0. -1.
         -2   -1    0    0    0  501 -0.00000000000E+00 -0.00000000000E+00 -0.71348331320E+02  0.71348331320E+02  0.00000000000E+00 0.  1.
         25    2    1    2    0    0 -0.58730481590E+02 -0.57320281453E+02  0.86585329090E+02  0.17284623319E+03  0.12507564503E+03 0.  0.
          5    1    3    3  502    0 -0.36734737834E+01  0.28709507375E+02  0.60727386848E+02  0.67401914934E+02  0.41800000000E+01 0. -1.
         -5    1    3    3    0  502 -0.55057007807E+02 -0.86029788828E+02  0.25857942242E+02  0.10544431825E+03  0.41800000000E+01 0. -1.
        -11    1    1    2    0    0 -0.16015843582E+02  0.28256581224E+02  0.58642685045E+02  0.67036602968E+02  0.00000000000E+00 0. -1.
         11    1    1    2    0    0  0.74746325172E+02  0.29063700228E+02  0.42917728525E+02  0.90959569147E+02  0.00000000000E+00 0.  1.
</event>
<event>
 7    1  0.2619826E-009  0.1405103E+03  0.7561462E-02  0.1212644E+00
         -2   -1    0    0    0  501 -0.00000000000E+00  0.00000000000E+00  0.70006385615E+02  0.70006385615E+02  0.00000000000E+00 0.  1.
          2   -1    0    0  501    0  0.00000000000E+00 -0.00000000000E+00 -0.63591852169E+03  0.63591852169E+03  0.00000000000E+00 0. -1.
         25    2    1    2    0    0  0.93714964376E+02  0.62496526281E+02 -0.54677202470E+02  0.17699135112E+03  0.12509209230E+03 0.  0.
          5    1    3    3  502    0  0.10461395515E+02  0.80990128389E+02 -0.16302981896E+02  0.83379261878E+02  0.41800000000E+01 0. -1.
         -5    1    3    3    0  502  0.83253568861E+02 -0.18493602108E+02 -0.38374220574E+02  0.93612089239E+02  0.41800000000E+01 0. -1.
        -11    1    1    2    0    0 -0.80249183658E+02 -0.59929424456E+02 -0.50314334285E+03  0.51301529299E+03  0.00000000000E+00 0. -1.
         11    1    1    2    0    0 -0.13465780718E+02 -0.25671018248E+01 -0.80915907554E+01  0.15918263193E+02  0.00000000000E+00 0.  1.
</event>
<event>
 7    1  0.2619826E-009  0.1041760E+03  0.7561462E-02  0.1271752E+00
          1   -1    0    0  501    0  0.00000000000E+00  0.00000000000E+00  0.81714830099E+02  0.81714830099E+02  0.00000000000E+00 0. -1.
         -1   -1    0    0    0  501 -0.00000000000E+00 -0.00000000000E+00 -0.23783311543E+03  0.23783311543E+03  0.00000000000E+00 0.  1.
         25    2    1    2    0    0 -0.87526561839E+01  0.51701920020E+02 -0.44829470889E+01  0.13570851855E+03  0.12508799970E+03 0.  0.
          5    1    3    3  502    0  0.19639839896E+02 -0.30541234264E+02 -0.27349793661E+02  0.45650563138E+02  0.41800000000E+01 0. -1.
         -5    1    3    3    0  502 -0.28392496080E+02  0.82243154285E+02  0.22866846572E+02  0.90057955409E+02  0.41800000000E+01 0. -1.
        -11    1    1    2    0    0  0.36286939036E+02 -0.41992262874E+02 -0.39900379035E+02  0.68352997982E+02  0.00000000000E+00 0. -1.
         11    1    1    2    0    0 -0.27534282853E+02 -0.97096571461E+01 -0.11173495920E+03  0.11548642900E+03  0.00000000000E+00 0.  1.
</event>
<event>
 7    1  0.2619826E-009  0.1019652E+03  0.7561462E-02  0.1276217E+00
         -1   -1    0    0    0  501 -0.00000000000E+00  0.00000000000E+00  0.14616227440E+03  0.14616227440E+03  0.00000000000E+00 0.  1.
          1   -1    0    0  501    0  0.00000000000E+00 -0.00000000000E+00 -0.11283225298E+03  0.11283225298E+03  0.00000000000E+00 0. -1.
         25    2    1    2    0    0 -0.33076179292E+02 -0.43798338729E+02 -0.20081352283E+02  0.13806955037E+03  0.12509041497E+03 0.  0.
          5    1    3    3  502    0 -0.76378558427E+02 -0.22743356591E+02  0.11074003837E+02  0.80567055410E+02  0.41800000000E+01 0. -1.
         -5    1    3    3    0  502  0.43302379135E+02 -0.21054982138E+02 -0.31155356119E+02  0.57502494959E+02  0.41800000000E+01 0. -1.
        -11    1    1    2    0    0 -0.14205565431E+02  0.13780219309E+02 -0.20299688731E+02  0.28350835896E+02  0.00000000000E+00 0. -1.
         11    1    1    2    0    0  0.47281744724E+02  0.30018119420E+02  0.73711062434E+02  0.92574141113E+02  0.00000000000E+00 0.  1.
</event>
<event>
 7    1  0.2619826E-009  0.1073330E+03  0.7561462E-02  0.1265590E+00
          2   -1    0    0  501    0  0.00000000000E+00  0.00000000000E+00  0.75782020338E+03  0.75782020338E+03  0.00000000000E+00 0. -1.
         -2   -1    0    0    0  501 -0.00000000000E+00 -0.00000000000E+00 -0.32121960831E+02  0.32121960831E+02  0.00000000000E+00 0.  1.
         25    2    1    2    0    0  0.45526237988E+02  0.32923291493E+02  0.63758760577E+03  0.65216636346E+03  0.12508568716E+03 0.  0.
          5    1    3    3  502    0 -0.36484822273E+02  0.40475601189E+02  0.25078714363E+03  0.25667310019E+03  0.41800000000E+01 0.  1.
         -5    1    3    3    0  502  0.82011060260E+02 -0.75523096954E+01  0.38680046214E+03  0.39549326327E+03  0.41800000000E+01 0.  1.
        -11    1    1    2    0    0 -0.40434236583E+02 -0.47341429249E+02  0.16302481412E+02  0.64357667077E+02  0.00000000000E+00 0.  1.
         11    1    1    2    0    0 -0.50920014048E+01  0.14418137756E+02  0.71808155363E+02  0.73418133668E+02  0.00000000000E+00 0. -1.
</event>
<event>
 7    1  0.2619826E-009  0.1893906E+03  0.7561462E-02  0.1159012E+00
         -1   -1    0    0    0  501 -0.00000000000E+00  0.00000000000E+00  0.75227005561E+02  0.75227005561E+02  0.00000000000E+00 0.  1.
          1   -1    0    0  501    0  0.00000000000E+00 -0.00000000000E+00 -0.65908900097E+03  0.65908900097E+03  0.00000000000E+00 0. -1.
         25    2    1    2    0    0 -0.16576519133E+03  0.24995492055E+02 -0.46260640151E+03  0.50769559969E+03  0.12508903210E+03 0.  0.
          5    1    3    3  502    0 -0.17329826415E+03 -0.62141505816E+01 -0.35153565758E+03  0.39200216195E+03  0.41800000000E+01 0. -1.
         -5    1    3    3    0  502  0.75330728199E+01  0.31209642636E+02 -0.11107074393E+03  0.11569343774E+03  0.41800000000E+01 0. -1.
        -11    1    1    2    0    0  0.11325723665E+02 -0.14150243412E+02  0.12505596697E+02  0.22020248724E+02  0.00000000000E+00 0.  1.
         11    1    1    2    0    0  0.15443946766E+03 -0.10845248643E+02 -0.13376119060E+03  0.20460015811E+03  0.00000000000E+00 0. -1.
</event>
<event>
 7    1  0.2619826E-009  0.9104395E+02  0.7561462E-02  0.1300343E+00
          3   -1    0    0  501    0  0.00000000000E+00  0.00000000000E+00  0.43061381497E+02  0.43061381497E+02  0.00000000000E+00 0. -1.
         -3   -1    0    0    0  501 -0.00000000000E+00 -0.00000000000E+00 -0.32024473732E+03  0.32024473732E+03  0.00000000000E+00 0.  1.
         25    2    1    2    0    0  0.21176147690E+02  0.52036921098E+02 -0.16907019871E+03  0.21768399234E+03  0.12508124575E+03 0.  0.
          5    1    3    3  502    0 -0.25478598008E+02  0.67804945548E+02 -0.48216989346E+02  0.87114981827E+02  0.41800000000E+01 0. -1.
         -5    1    3    3    0  502  0.46654745698E+02 -0.15768024450E+02 -0.12085320937E+03  0.13056901051E+03  0.41800000000E+01 0. -1.
        -11    1    1    2    0    0 -0.48617389585E+01 -0.38791071173E+02 -0.11658417714E+03  0.12296444229E+03  0.00000000000E+00 0.  1.
         11    1    1    2    0    0 -0.16314408732E+02 -0.13245849925E+02  0.84710200291E+01  0.22657684189E+02  0.00000000000E+00 0. -1.
</event>
<event>
 7    1  0.2619826E-009  0.2655387E+03  0.7561462E-02  0.1103860E+00
          2   -1    0    0  501    0  0.00000000000E+00  0.00000000000E+00  0.12516905277E+04  0.12516905277E+04  0.00000000000E+00 0. -1.
         -2   -1    0    0    0  501 -0.00000000000E+00 -0.00000000000E+00 -0.64565899193E+02  0.64565899193E+02  0.00000000000E+00 0.  1.
         25    2    1    2    0    0  0.20223441912E+03 -0.15653558984E+03  0.45246497597E+03  0.53457843383E+03  0.12508955301E+03 0.  0.
          5    1    3    3  502    0  0.86050497789E-01 -0.40412400408E+02  0.25131913669E+02  0.47772952558E+02  0.41800000000E+01 0.  1.
         -5    1    3    3    0  502  0.20214836862E+03 -0.11612318943E+03  0.42733306230E+03  0.48680548127E+03  0.41800000000E+01 0.  1.
        -11    1    1    2    0    0 -0.89797417849E+02  0.87304103643E+02  0.25381135543E+03  0.28302965729E+03  0.00000000000E+00 0.  1.
         11    1    1    2    0    0 -0.11243700127E+03  0.69231486193E+02  0.48084829714E+03  0.49864833580E+03  0.00000000000E+00 0. -1.
</event>
<event>
 7    1  0.2619826E-009  0.1060213E+03  0.7561462E-02  0.1268120E+00
         -2   -1    0    0    0  501 -0.00000000000E+00  0.00000000000E+00  0.33783866004E+02  0.33783866004E+02  0.00000000000E+00 0.  1.
          2   -1    0    0  501    0  0.00000000000E+00 -0.00000000000E+00 -0.45684945961E+03  0.45684945961E+03  0.00000000000E+00 0. -1.
         25    2    1    2    0    0  0.18090803896E+02 -0.35826600927E+02 -0.34423750730E+03  0.36845275815E+03  0.12508857276E+03 0.  0.
          5    1    3    3  502    0  0.58828497211E+02  0.13952696761E+02 -0.11094524476E+03  0.12641910285E+03  0.41800000000E+01 0. -1.
         -5    1    3    3    0  502 -0.40737693314E+02 -0.49779297689E+02 -0.23329226254E+03  0.24203365529E+03  0.41800000000E+01 0. -1.
        -11    1    1    2    0    0 -0.37714778768E+02 -0.83599781699E+01 -0.57653006838E+02  0.69398580461E+02  0.00000000000E+00 0. -1.
         11    1    1    2    0    0  0.19623974872E+02  0.44186579097E+02 -0.21175079474E+02  0.52781987011E+02  0.00000000000E+00 0.  1.
</event>
<event>
 7    1  0.2619826E-009  0.1130895E+03  0.7561462E-02  0.1254953E+00
          1   -1    0    0  501    0  0.00000000000E+00  0.00000000000E+00  0.13736883911E+04  0.13736883911E+04  0.00000000000E+00 0. -1.
         -1   -1    0    0    0  501 -0.00000000000E+00 -0.00000000000E+00 -0.11923248463E+02  0.11923248463E+02  0.00000000000E+00 0.  1.
         25    2    1    2    0    0 -0.42443117059E+02 -0.16538193876E+02  0.10272544287E+04  0.10358441777E+04  0.12508624669E+03 0.  0.
          5    1    3    3  502    0 -0.86091580568E+02 -0.18714421185E+02  0.62293228323E+03  0.62914552505E+03  0.41800000000E+01 0.  1.
         -5    1    3    3    0  502  0.43648463509E+02  0.21762273089E+01  0.40432214552E+03  0.40669865268E+03  0.41800000000E+01 0.  1.
        -11    1    1    2    0    0  0.66993228473E+02  0.18343569586E+02  0.29615965017E+03  0.30419585401E+03  0.00000000000E+00 0. -1.
         11    1    1    2    0    0 -0.24550111415E+02 -0.18053757097E+01  0.38351063744E+02  0.45571607852E+02  0.00000000000E+00 0.  1.
</event>
<event>
 7    1  0.2619826E-009  0.4034106E+03  0.7561462E-02  0.1042605E+00
         -2   -1    0    0    0  501 -0.00000000000E+00  0.00000000000E+00  0.46997551489E+02  0.46997551489E+02  0.00000000000E+00 0.  1.
          2   -1    0    0  501    0  0.00000000000E+00 -0.00000000000E+00 -0.39241784215E+04  0.39241784215E+04  0.00000000000E+00 0. -1.
         25    2    1    2    0    0  0.18063620801E+03  0.35324350117E+03 -0.25211220570E+04  0.25552131704E+04  0.12509000372E+03 0.  0.
          5    1    3    3  502    0  0.13780059626E+03  0.16046331871E+03 -0.10703876542E+04  0.10910933432E+04  0.41800000000E+01 0.  1.
         -5    1    3    3    0  502  0.42835611749E+02  0.19278018246E+03 -0.14507344028E+04  0.14641198271E+04  0.41800000000E+01 0.  1.
        -11    1    1    2    0    0 -0.60594234163E+02 -0.14874110266E+03 -0.70501624264E+03  0.72307916525E+03  0.00000000000E+00 0. -1.
         11    1    1    2    0    0 -0.12004197384E+03 -0.20450239851E+03 -0.65104257034E+03  0.69288363732E+03  0.00000000000E+00 0.  1.
</event>
<event>
 7    1  0.2619826E-009  0.2062943E+03  0.7561462E-02  0.1144535E+00
         -2   -1    0    0    0  501 -0.00000000000E+00  0.00000000000E+00  0.47200249749E+02  0.47200249749E+02  0.00000000000E+00 0. -1.
          2   -1    0    0  501    0  0.00000000000E+00 -0.00000000000E+00 -0.10593984394E+04  0.10593984394E+04  0.00000000000E+00 0.  1.
         25    2    1    2    0    0  0.72257173092E+02 -0.17381454806E+03 -0.65267247314E+03  0.69069636183E+03  0.12509001110E+03 0.  0.
          5    1    3    3  502    0  0.86598195095E+01 -0.12483700984E+03 -0.24460563955E+03  0.27478839640E+03  0.41800000000E+01 0. -1.
         -5    1    3    3    0  502  0.63597353582E+02 -0.48977538229E+02 -0.40806683359E+03  0.41590796543E+03  0.41800000000E+01 0. -1.
        -11    1    1    2    0    0  0.47360273698E+01  0.10074238686E+03 -0.20451727452E+03  0.22803239692E+03  0.00000000000E+00 0.  1.
         11    1    1    2    0    0 -0.76993200462E+02  0.73072161205E+02 -0.15500844201E+03  0.18786993041E+03  0.00000000000E+00 0. -1.
</event>
<event>
 7    1  0.2619826E-009  0.7353727E+02  0.7561462E-02  0.1348461E+00
         -1   -1    0    0    0  501 -0.00000000000E+00  0.00000000000E+00  0.60672653098E+02  0.60672653098E+02  0.00000000000E+00 0.  1.
          1   -1    0    0  501    0  0.00000000000E+00 -0.00000000000E+00 -0.28216365487E+03  0.28216365487E+03  0.00000000000E+00 0. -1.
         25    2    1    2    0    0  0.26948282998E+02  0.61778042017E+02 -0.15875441343E+03  0.21305562920E+03  0.12508797271E+03 0.  0.
          5    1    3    3  502    0 -0.42757107199E+01  0.54825915405E+01 -0.14731578434E+03  0.14753898884E+03  0.41800000000E+01 0. -1.
         -5    1    3    3    0  502  0.31223993718E+02  0.56295450476E+02 -0.11438629091E+02  0.65516640356E+02  0.41800000000E+01 0. -1.
        -11    1    1    2    0    0 -0.32744348065E+02 -0.38880552161E+02  0.11295620585E+02  0.52071880233E+02  0.00000000000E+00 0.  1.
         11    1    1    2    0    0  0.57960650671E+01 -0.22897489856E+02 -0.74032208927E+02  0.77708798540E+02  0.00000000000E+00 0. -1.
</event>
<event>
 7    1  0.2619826E-009  0.7664367E+02  0.7561462E-02  0.1338855E+00
         -2   -1    0    0    0  501 -0.00000000000E+00  0.00000000000E+00  0.94420025021E+02  0.94420025021E+02  0.00000000000E+00 0.  1.
          2   -1    0    0  501    0  0.00000000000E+00 -0.00000000000E+00 -0.14171925583E+03  0.14171925583E+03  0.00000000000E+00 0. -1.
         25    2    1    2    0    0 -0.17630824565E+01  0.38076657386E+02 -0.54438865980E+02  0.14164695093E+03  0.12508928124E+03 0.  0.
          5    1    3    3  502    0  0.15996964004E+02  0.66758086763E+02 -0.75127240746E+02  0.10185342266E+03  0.41800000000E+01 0.  1.
         -5    1    3    3    0  502 -0.17760046461E+02 -0.28681429377E+02  0.20688374766E+02  0.39793528266E+02  0.41800000000E+01 0.  1.
        -11    1    1    2    0    0 -0.14721485401E+02 -0.94743483491E+01  0.42591979634E+02  0.46049561759E+02  0.00000000000E+00 0.  1.
         11    1    1    2    0    0  0.16484567858E+02 -0.28602309036E+02 -0.35452344465E+02  0.48442768167E+02  0.00000000000E+00 0. -1.
</event>
<event>
 7    1  0.2619826E-009  0.3763657E+03  0.7561462E-02  0.1052285E+00
          1   -1    0    0  501    0  0.00000000000E+00  0.00000000000E+00  0.28461567777E+04  0.28461567777E+04  0.00000000000E+00 0. -1.
         -1   -1    0    0    0  501 -0.00000000000E+00 -0.00000000000E+00 -0.85462240631E+02  0.85462240631E+02  0.00000000000E+00 0.  1.
         25    2    1    2    0    0  0.25638571957E+03  0.27408955101E+03  0.22840250844E+04  0.23180325148E+04  0.12508171114E+03 0.  0.
          5    1    3    3  502    0  0.22345632667E+03  0.25077047049E+03  0.17164862780E+04  0.17490457895E+04  0.41800000000E+01 0. -1.
         -5    1    3    3    0  502  0.32929392896E+02  0.23319080522E+02  0.56753880635E+03  0.56898672529E+03  0.41800000000E+01 0. -1.
        -11    1    1    2    0    0 -0.43244980663E+01 -0.11403471744E+02  0.55751514186E+02  0.57069885100E+02  0.00000000000E+00 0.  1.
         11    1    1    2    0    0 -0.25206122150E+03 -0.26268607927E+03  0.42091793850E+03  0.55651661842E+03  0.00000000000E+00 0. -1.
</event>
<event>
 7    1  0.2619826E-009  0.2193288E+03  0.7561462E-02  0.1134384E+00
         -2   -1    0    0    0  501 -0.00000000000E+00  0.00000000000E+00  0.52548334770E+03  0.52548334770E+03  0.00000000000E+00 0.  1.
          2   -1    0    0  501    0  0.00000000000E+00 -0.00000000000E+00 -0.11689661233E+03  0.11689661233E+03  0.00000000000E+00 0. -1.
         25    2    1    2    0    0 -0.28259477241E+02  0.19178880293E+03  0.35237883827E+03  0.42118852099E+03  0.12508949424E+03 0.  0.
          5    1    3    3  502    0  0.48902198634E+02  0.94265127283E+02  0.16045927206E+03  0.19246295655E+03  0.41800000000E+01 0. -1.
         -5    1    3    3    0  502 -0.77161675875E+02  0.97523675648E+02  0.19191956621E+03  0.22872556444E+03  0.41800000000E+01 0. -1.
        -11    1    1    2    0    0 -0.11569803415E+02 -0.14917705686E+03  0.63241283587E+02  0.16244111115E+03  0.00000000000E+00 0. -1.
         11    1    1    2    0    0  0.39829280656E+02 -0.42611746075E+02 -0.70333864885E+01  0.58750327885E+02  0.00000000000E+00 0.  1.
</event>
<event>
 7    1  0.2619826E-009  0.1933024E+03  0.7561462E-02  0.1155516E+00
          2   -1    0    0  501    0  0.00000000000E+00  0.00000000000E+00  0.18523968612E+03  0.18523968612E+03  0.00000000000E+00 0. -1.
         -2   -1    0    0    0  501 -0.00000000000E+00 -0.00000000000E+00 -0.25138268643E+03  0.25138268643E+03  0.00000000000E+00 0.  1.
         25    2    1    2    0    0  0.24776150930E+02 -0.16178493254E+03  0.53548706124E+02  0.21284535751E+03  0.12508980867E+03 0.  0.
          5    1    3    3  502    0  0.61206371148E+02 -0.15740665640E+03  0.41018636573E+02  0.17384785387E+03  0.41800000000E+01 0. -1.
         -5    1    3    3    0  502 -0.36430220219E+02 -0.43782761429E+01  0.12530069551E+02  0.38997503640E+02  0.41800000000E+01 0. -1.
        -11    1    1    2    0    0  0.27868553390E+02  0.59159644675E+02 -0.13035573207E+02  0.66681676606E+02  0.00000000000E+00 0.  1.
         11    1    1    2    0    0 -0.52644704320E+02  0.10262528787E+03 -0.10665613323E+03  0.15709533844E+03  0.00000000000E+00 0. -1.
</event>
<event>
 7    1  0.2619826E-009  0.9366027E+02  0.7561462E-02  0.1294222E+00
          2   -1    0    0  501    0  0.00000000000E+00  0.00000000000E+00  0.19384769509E+03  0.19384769509E+03  0.00000000000E+00 0. -1.
         -2   -1    0    0    0  501 -0.00000000000E+00 -0.00000000000E+00 -0.10745650078E+03  0.10745650078E+03  0.00000000000E+00 0.  1.
         25    2    1    2    0    0  0.15806558242E+02  0.56787732848E+02 -0.31301188594E+02  0.14178065941E+03  0.12508915656E+03 0.  0.
          5    1    3    3  502    0 -0.19522538076E+02  0.81484258493E+02 -0.46456064511E+02  0.95898134523E+02  0.41800000000E+01 0.  1.
         -5    1    3    3    0  502  0.35329096318E+02 -0.24696525645E+02  0.15154875917E+02  0.45882524883E+02  0.41800000000E+01 0.  1.
        -11    1    1    2    0    0 -0.45627154544E+01 -0.37625434412E+02  0.12910000721E+03  0.13454851746E+03  0.00000000000E+00 0. -1.
         11    1    1    2    0    0 -0.11243842788E+02 -0.19162298436E+02 -0.11407624305E+02  0.24975019004E+02  0.00000000000E+00 0.  1.
</event>
<event>
 7    1  0.2619826E-009  0.1385769E+03  0.7561462E-02  0.1215257E+00
         -3   -1    0    0    0  501 -0.00000000000E+00  0.00000000000E+00  0.18737112909E+02  0.18737112909E+02  0.00000000000E+00 0.  1.
          3   -1    0    0  501    0  0.00000000000E+00 -0.00000000000E+00 -0.11340921619E+04  0.11340921619E+04  0.00000000000E+00 0. -1.
         25    2    1    2    0    0 -0.82067882338E+02  0.26561876074E+02 -0.43178406402E+03  0.45773997223E+03  0.12509090161E+03 0.  0.
          5    1    3    3  502    0 -0.67679699721E+01  0.65815614462E+02 -0.21012505359E+03  0.22033499738E+03  0.41800000000E+01 0. -1.
         -5    1    3    3    0  502 -0.75299912366E+02 -0.39253738388E+02 -0.22165901044E+03  0.23740497486E+03  0.41800000000E+01 0. -1.
        -11    1    1    2    0    0 -0.31100019464E+01 -0.39554116144E+02 -0.23294568065E+03  0.23630042393E+03  0.00000000000E+00 0.  1.
         11    1    1    2    0    0  0.85177884285E+02  0.12992240070E+02 -0.45062530428E+03  0.45878887860E+03  0.00000000000E+00 0. -1.
</event>
<event>
 7    1  0.2619826E-009  0.8124590E+02  0.7561462E-02  0.1325552E+00
         -1   -1    0    0    0  501 -0.00000000000E+00  0.00000000000E+00  0.15021499650E+03  0.15021499650E+03  0.00000000000E+00 0.  1.
          1   -1    0    0  501    0  0.00000000000E+00 -0.00000000000E+00 -0.87793242376E+02  0.87793242376E+02  0.00000000000E+00 0. -1.
         25    2    1    2    0    0 -0.23436469248E+01  0.29073798903E+02  0.66070435430E+02  0.14444273499E+03  0.12509045843E+03 0.  0.
          5    1    3    3  502    0 -0.47632018424E+02  0.21114312764E+02  0.80576856322E+02  0.96045434860E+02  0.41800000000E+01 0. -1.
         -5    1    3    3    0  502  0.45288371500E+02  0.79594861387E+01 -0.14506420892E+02  0.48397300129E+02  0.41800000000E+01 0. -1.
        -11    1    1    2    0    0 -0.24707525040E+02 -0.51396057138E+00 -0.35289456823E+02  0.43082150735E+02  0.00000000000E+00 0. -1.
         11    1    1    2    0    0  0.27051171965E+02 -0.28559838332E+02  0.31640775518E+02  0.50483353153E+02  0.00000000000E+00 0.  1.
</event>
<event>
 7    1  0.2619826E-009  0.1413988E+03  0.7561462E-02  0.1211459E+00
          1   -1    0    0  501    0  0.00000000000E+00  0.00000000000E+00  0.61614985120E+02  0.61614985120E+02  0.00000000000E+00 0. -1.
         -1   -1    0    0    0  501 -0.00000000000E+00 -0.00000000000E+00 -0.43358953320E+03  0.43358953320E+03  0.00000000000E+00 0.  1.
         25    2    1    2    0    0  0.11932125872E+03  0.67910860942E+01 -0.21890244008E+03  0.27901544259E+03  0.12509059636E+03 0.  0.
          5    1    3    3  502    0  0.70214135464E+02  0.34569400300E+02 -0.20681121495E+03  0.22116378384E+03  0.41800000000E+01 0.  1.
         -5    1    3    3    0  502  0.49107123257E+02 -0.27778314206E+02 -0.12091225134E+02  0.57851658748E+02  0.41800000000E+01 0.  1.
        -11    1    1    2    0    0 -0.90782226182E+02 -0.44059110375E+02 -0.12793595681E+03  0.16294240345E+03  0.00000000000E+00 0. -1.
         11    1    1    2    0    0 -0.28539032538E+02  0.37268024281E+02 -0.25136151190E+02  0.53246672278E+02  0.00000000000E+00 0.  1.
</event>
<event>
 7    1  0.2619826E-009  0.2110759E+03  0.7561462E-02  0.1140717E+00
          1   -1    0    0  501    0  0.00000000000E+00  0.00000000000E+00  0.16452510256E+04  0.16452510256E+04  0.00000000000E+00 0. -1.
         -1   -1    0    0    0  501 -0.00000000000E+00 -0.00000000000E+00 -0.30218861622E+02  0.30218861622E+02  0.00000000000E+00 0.  1.
         25    2    1    2    0    0 -0.16517129141E+03  0.77497138564E+02  0.10895467736E+04  0.11117806381E+04  0.12512654991E+03 0.  0.
          5    1    3    3  502    0 -0.18388195865E+03  0.56397368740E+02  0.92691014606E+03  0.94666421142E+03  0.41800000000E+01 0. -1.
         -5    1    3    3    0  502  0.18710667241E+02  0.21099769824E+02  0.16263662753E+03  0.16511642671E+03  0.41800000000E+01 0. -1.
        -11    1    1    2    0    0  0.12467116338E+03 -0.13329989163E+02  0.37020006453E+03  0.39085633597E+03  0.00000000000E+00 0.  1.
         11    1    1    2    0    0  0.40500128028E+02 -0.64167149401E+02  0.15528532589E+03  0.17283291315E+03  0.00000000000E+00 0. -1.
</event>
<event>
 7    1  0.2619826E-009  0.8452949E+02  0.7561462E-02  0.1316668E+00
         -1   -1    0    0    0  501 -0.00000000000E+00  0.00000000000E+00  0.13767403372E+02  0.13767403372E+02  0.00000000000E+00 0.  1.
          1   -1    0    0  501    0  0.00000000000E+00 -0.00000000000E+00 -0.11064274896E+04  0.11064274896E+04  0.00000000000E+00 0. -1.
         25    2    1    2    0    0  0.16720081141E+01 -0.55763400814E+02 -0.62623360151E+03  0.64103654199E+03  0.12508785725E+03 0.  0.
          5    1    3    3  502    0 -0.12623947973E+02 -0.15631439203E+02 -0.91500331522E+01  0.22470012476E+02  0.41800000000E+01 0.  1.
         -5    1    3    3    0  502  0.14295956087E+02 -0.40131961610E+02 -0.61708356835E+03  0.61856652951E+03  0.41800000000E+01 0.  1.
        -11    1    1    2    0    0  0.17420700655E+02 -0.20621333213E+02 -0.70766238178E+02  0.75740218251E+02  0.00000000000E+00 0.  1.
         11    1    1    2    0    0 -0.19092708770E+02  0.76384734026E+02 -0.39566024650E+03  0.40341813269E+03  0.00000000000E+00 0. -1.
</event>
<event>
 7    1  0.2619826E-009  0.1199054E+03  0.7561462E-02  0.1243253E+00
         -1   -1    0    0    0  501 -0.00000000000E+00  0.00000000000E+00  0.67439614114E+03  0.67439614114E+03  0.00000000000E+00 0.  1.
          1   -1    0    0  501    0  0.00000000000E+00 -0.00000000000E+00 -0.31986316107E+02  0.31986316107E+02  0.00000000000E+00 0. -1.
         25    2    1    2    0    0  0.41886876093E+02 -0.50909666058E+02  0.52712572204E+03  0.54576262122E+03  0.12509599275E+03 0.  0.
          5    1    3    3  502    0  0.13072282378E+02 -0.84668140877E+02  0.43551182559E+03  0.44387791257E+03  0.41800000000E+01 0. -1.
         -5    1    3    3    0  502  0.28814593714E+02  0.33758474819E+02  0.91613896453E+02  0.10188470865E+03  0.41800000000E+01 0. -1.
        -11    1    1    2    0    0 -0.29121137354E+02  0.75955078579E+02  0.98997049110E+02  0.12813130115E+03  0.00000000000E+00 0.  1.
         11    1    1    2    0    0 -0.12765738739E+02 -0.25045412521E+02  0.16287053886E+02  0.32488534873E+02  0.00000000000E+00 0. -1.
</event>
<event>
 7    1  0.2619826E-009  0.1154976E+03  0.7561462E-02  0.1250715E+00
          2   -1    0    0  501    0  0.00000000000E+00  0.00000000000E+00  0.10717258486E+03  0.10717258486E+03  0.00000000000E+00 0. -1.
         -2   -1    0    0    0  501 -0.00000000000E+00 -0.00000000000E+00 -0.15975652014E+03  0.15975652014E+03  0.00000000000E+00 0.  1.
         25    2    1    2    0    0  0.64140130181E+02  0.34551652159E+02 -0.20986600602E+02  0.14627199385E+03  0.12508911149E+03 0.  0.
          5    1    3    3  502    0  0.92230478816E+02  0.45939694465E+02  0.88917975487E+01  0.10350581246E+03  0.41800000000E+01 0. -1.
         -5    1    3    3    0  502 -0.28090348635E+02 -0.11388042306E+02 -0.29878398150E+02  0.42766181382E+02  0.41800000000E+01 0. -1.
        -11    1    1    2    0    0  0.32380192548E+01 -0.29532427973E+02 -0.42870070423E+02  0.52158335947E+02  0.00000000000E+00 0.  1.
         11    1    1    2    0    0 -0.67378149436E+02 -0.50192241868E+01  0.11272735743E+02  0.68498775201E+02  0.00000000000E+00 0. -1.
</event>
<event>
 7    1  0.2619826E-009  0.1054016E+03  0.7561462E-02  0.1269330E+00
         -2   -1    0    0    0  501 -0.00000000000E+00  0.00000000000E+00  0.14746707044E+02  0.14746707044E+02  0.00000000000E+00 0.  1.
          2   -1    0    0  501    0  0.00000000000E+00 -0.00000000000E+00 -0.98979548298E+03  0.98979548298E+03  0.00000000000E+00 0. -1.
         25    2    1    2    0    0 -0.29386117811E+02  0.49103099679E+01 -0.72754867119E+03  0.73882471198E+03  0.12508889241E+03 0.  0.
          5    1    3    3  502    0 -0.53805312593E+02 -0.45755456079E+02 -0.45864318025E+03  0.46406854302E+03  0.41800000000E+01 0.  1.
         -5    1    3    3    0  502  0.24419194782E+02  0.50665766047E+02 -0.26890549094E+03  0.27475616896E+03  0.41800000000E+01 0.  1.
        -11    1    1    2    0    0  0.44282746435E+02  0.24554504721E+02 -0.20877797676E+03  0.21483046551E+03  0.00000000000E+00 0.  1.
         11    1    1    2    0    0 -0.14896628624E+02 -0.29464814689E+02 -0.38722127982E+02  0.50887012533E+02  0.00000000000E+00 0. -1.
</event>
<event>
 7    1  0.2619826E-009  0.1570888E+03  0.7561462E-02  0.1192023E+00
         -2   -1    0    0    0  501 -0.00000000000E+00  0.00000000000E+00  0.12154065086E+03  0.12154065086E+03  0.00000000000E+00 0.  1.
          2   -1    0    0  501    0  0.00000000000E+00 -0.00000000000E+00 -0.31225938336E+03  0.31225938336E+03  0.00000000000E+00 0. -1.
         25    2    1    2    0    0 -0.47289351795E+02 -0.14382881646E+03 -0.16275042410E+03  0.25507901345E+03  0.12511830931E+03 0.  0.
          5    1    3    3  502    0 -0.32789361769E+02 -0.93220287781E+02 -0.17486303036E+03  0.20089727745E+03  0.41800000000E+01 0.  1.
         -5    1    3    3    0  502 -0.14499990026E+02 -0.50608528675E+02  0.12112606269E+02  0.54181736001E+02  0.41800000000E+01 0.  1.
        -11    1    1    2    0    0  0.12027027515E+02  0.11834127827E+03  0.12110364239E+02  0.11956574950E+03  0.00000000000E+00 0.  1.
         11    1    1    2    0    0  0.35262324281E+02  0.25487538189E+02 -0.40078672645E+02  0.59155271258E+02  0.00000000000E+00 0. -1.
</event>
<event>
 7    1  0.2619826E-009  0.1674540E+03  0.7561462E-02  0.1180529E+00
         -1   -1    0    0    0  501 -0.00000000000E+00  0.00000000000E+00  0.35424745540E+02  0.35424745540E+02  0.00000000000E+00 0.  1.
          1   -1    0    0  501    0  0.00000000000E+00 -0.00000000000E+00 -0.87217696660E+03  0.87217696660E+03  0.00000000000E+00 0. -1.
         25    2    1    2    0    0  0.16633831420E+02 -0.12650775843E+03 -0.30706512789E+03  0.35527104254E+03  0.12509046170E+03 0.  0.
          5    1    3    3  502    0 -0.54320532201E+02 -0.63836201515E+02 -0.14437702919E+03  0.16699694548E+03  0.41800000000E+01 0.  1.
         -5    1    3    3    0  502  0.70954363621E+02 -0.62671556918E+02 -0.16268809870E+03  0.18827409706E+03  0.41800000000E+01 0.  1.
        -11    1    1    2    0    0 -0.48613887675E+02  0.36760946838E+02 -0.22367761930E+03  0.23183260052E+03  0.00000000000E+00 0.  1.
         11    1    1    2    0    0  0.31980056255E+02  0.89746811596E+02 -0.30600947387E+03  0.32049806908E+03  0.00000000000E+00 0. -1.
</event>
<event>
 7    1  0.2619826E-009  0.1029476E+03  0.7561462E-02  0.1274217E+00
         -2   -1    0    0    0  501 -0.00000000000E+00  0.00000000000E+00  0.16230884468E+02  0.16230884468E+02  0.00000000000E+00 0. -1.
          2   -1    0    0  501    0  0.00000000000E+00 -0.00000000000E+00 -0.11786521342E+04  0.11786521342E+04  0.00000000000E+00 0.  1.
         25    2    1    2    0    0 -0.12406348873E+02  0.54340642821E+02 -0.92347261266E+03  0.93357158315E+03  0.12508961413E+03 0.  0.
          5    1    3    3  502    0  0.22281099985E+02  0.60567671534E+02 -0.84471969189E+03  0.84719166693E+03  0.41800000000E+01 0.  1.
         -5    1    3    3    0  502 -0.34687448858E+02 -0.62270287124E+01 -0.78752920779E+02  0.86379916220E+02  0.41800000000E+01 0.  1.
        -11    1    1    2    0    0  0.49114984454E+02 -0.47631718868E+02 -0.15139680761E+03  0.16613866406E+03  0.00000000000E+00 0. -1.
         11    1    1    2    0    0 -0.36708635581E+02 -0.67089239531E+01 -0.87551829453E+02  0.95172771460E+02  0.00000000000E+00 0.  1.
</event>
<event>
 7    1  0.2619826E-009  0.8320528E+02  0.7561462E-02  0.1320194E+00
         -1   -1    0    0    0  501 -0.00000000000E+00  0.00000000000E+00  0.31334898717E+03  0.31334898717E+03  0.00000000000E+00 0.  1.
          1   -1    0    0  501    0  0.00000000000E+00 -0.00000000000E+00 -0.51530228769E+02  0.51530228769E+02  0.00000000000E+00 0. -1.
         25    2    1    2    0    0  0.31436956678E+02  0.10569575951E+02  0.21646261539E+03  0.25219875367E+03  0.12509256296E+03 0.  0.
          5    1    3    3  502    0  0.68094403314E+02 -0.39155819059E+01  0.19604316842E+03  0.20761159849E+03  0.41800000000E+01 0.  1.
         -5    1    3    3    0  502 -0.36657446636E+02  0.14485157857E+02  0.20419446970E+02  0.44587155175E+02  0.41800000000E+01 0.  1.
        -11    1    1    2    0    0  0.37893620213E+01  0.14639360781E+02  0.63823814238E+02  0.65590772312E+02  0.00000000000E+00 0.  1.
         11    1    1    2    0    0 -0.35226318699E+02 -0.25208936732E+02 -0.18467671224E+02  0.47089689962E+02  0.00000000000E+00 0. -1.
</event>
<event>
 7    1  0.2619826E-009  0.1364114E+03  0.7561462E-02  0.1218241E+00
         -1   -1    0    0    0  501 -0.00000000000E+00  0.00000000000E+00  0.34697424739E+02  0.34697424739E+02  0.00000000000E+00 0.  1.
          1   -1    0    0  501    0  0.00000000000E+00 -0.00000000000E+00 -0.67823802341E+03  0.67823802341E+03  0.00000000000E+00 0. -1.
         25    2    1    2    0    0  0.33679979177E+02 -0.89547948355E+02 -0.22712123988E+03  0.27637708248E+03  0.12508820113E+03 0.  0.
          5    1    3    3  502    0 -0.46948050711E+02 -0.43771585129E+02 -0.84053475045E+02  0.10584200583E+03  0.41800000000E+01 0.  1.
         -5    1    3    3    0  502  0.80628029887E+02 -0.45776363226E+02 -0.14306776483E+03  0.17053507665E+03  0.41800000000E+01 0.  1.
        -11    1    1    2    0    0 -0.48025550798E+02  0.35373569225E+02 -0.31581295116E+03  0.32139627105E+03  0.00000000000E+00 0.  1.
         11    1    1    2    0    0  0.14345571622E+02  0.54174379130E+02 -0.10060640764E+03  0.11516209462E+03  0.00000000000E+00 0. -1.
</event>
<event>
 7    1  0.2619826E-009  0.1150682E+03  0.7561462E-02  0.1251462E+00
          1   -1    0    0  501    0  0.00000000000E+00  0.00000000000E+00  0.11006157025E+03  0.11006157025E+03  0.00000000000E+00 0. -1.
         -1   -1    0    0    0  501 -0.00000000000E+00 -0.00000000000E+00 -0.16473441899E+03  0.16473441899E+03  0.00000000000E+00 0.  1.
         25    2    1    2    0    0 -0.15369185585E+02  0.43027694104E+02  0.36035775036E+02  0.13795884287E+03  0.12508585419E+03 0.  0.
          5    1    3    3  502    0 -0.20897144579E+02 -0.42403213265E+02  0.12669731912E+02  0.49119422365E+02  0.41800000000E+01 0.  1.
         -5    1    3    3    0  502  0.55279589938E+01  0.85430907368E+02  0.23366043124E+02  0.88839420505E+02  0.41800000000E+01 0.  1.
        -11    1    1    2    0    0 -0.15276278338E+02  0.21008951667E+02 -0.46331553046E+02  0.53116414954E+02  0.00000000000E+00 0.  1.
         11    1    1    2    0    0  0.30645463923E+02 -0.64036645770E+02 -0.44377070730E+02  0.83720731406E+02  0.00000000000E+00 0. -1.
</event>
<event>
 7    1  0.2619826E-009  0.1007770E+03  0.7561462E-02  0.1278670E+00
         -2   -1    0    0    0  501 -0.00000000000E+00  0.00000000000E+00  0.70389232025E+03  0.70389232025E+03  0.00000000000E+00 0.  1.
          2   -1    0    0  501    0  0.00000000000E+00 -0.00000000000E+00 -0.20531885744E+02  0.20531885744E+02  0.00000000000E+00 0. -1.
         25    2    1    2    0    0 -0.38920955832E+02  0.26356709180E+02  0.32749262444E+03  0.35370696415E+03  0.12509068912E+03 0.  0.
          5    1    3    3  502    0 -0.61537084350E+01  0.57086057315E+02  0.28815559545E+03  0.29384997134E+03  0.41800000000E+01 0.  1.
         -5    1    3    3    0  502 -0.32767247397E+02 -0.30729348135E+02  0.39337028994E+02  0.59856992815E+02  0.41800000000E+01 0.  1.
        -11    1    1    2    0    0  0.32763722013E+02  0.28647362634E+02  0.10218994541E+03  0.11107167870E+03  0.00000000000E+00 0. -1.
         11    1    1    2    0    0  0.61572338194E+01 -0.55004071814E+02  0.25367786466E+03  0.25964556315E+03  0.00000000000E+00 0.  1.
</event>
<event>
 7    1  0.2619826E-009  0.9376606E+02  0.7561462E-02  0.1293980E+00
         -1   -1    0    0    0  501 -0.00000000000E+00  0.00000000000E+00  0.36390637344E+03  0.36390637344E+03  0.00000000000E+00 0.  1.
          1   -1    0    0  501    0  0.00000000000E+00 -0.00000000000E+00 -0.34224604456E+02  0.34224604456E+02  0.00000000000E+00 0. -1.
         25    2    1    2    0    0  0.23126666808E+02 -0.14854967406E+02  0.30177340615E+03  0.32782726920E+03  0.12509203412E+03 0.  0.
          5    1    3    3  502    0 -0.50525992690E+02 -0.12930137117E+02  0.15412544007E+03  0.16276421001E+03  0.41800000000E+01 0. -1.
         -5    1    3    3    0  502  0.73652659498E+02 -0.19248302893E+01  0.14764796608E+03  0.16506305919E+03  0.41800000000E+01 0. -1.
        -11    1    1    2    0    0 -0.26818742566E+02  0.33212867335E+02  0.28900906319E+02  0.51551933964E+02  0.00000000000E+00 0.  1.
         11    1    1    2    0    0  0.36920757579E+01 -0.18357899929E+02 -0.99254347865E+00  0.18751774736E+02  0.00000000000E+00 0. -1.
</event>
<event>
 7    1  0.2619826E-009  0.1055537E+03  0.7561462E-02  0.1269033E+00
         -2   -1    0    0    0  501 -0.00000000000E+00  0.00000000000E+00  0.19478680574E+02  0.19478680574E+02  0.00000000000E+00 0.  1.
          2   -1    0    0  501    0  0.00000000000E+00 -0.00000000000E+00 -0.66075969565E+03  0.66075969565E+03  0.00000000000E+00 0. -1.
         25    2    1    2    0    0 -0.11742242680E+02 -0.30309999945E+02 -0.35494819850E+03  0.37775485169E+03  0.12511565848E+03 0.  0.
          5    1    3    3  502    0 -0.50874635127E+02 -0.49068902176E+02 -0.29650326912E+03  0.30484036258E+03  0.41800000000E+01 0. -1.
         -5    1    3    3    0  502  0.39132392447E+02  0.18758902231E+02 -0.58444929376E+02  0.72914489104E+02  0.41800000000E+01 0. -1.
        -11    1    1    2    0    0 -0.31065561485E+02 -0.14890735735E+02 -0.12137584257E+03  0.12617011643E+03  0.00000000000E+00 0. -1.
         11    1    1    2    0    0  0.42807804166E+02  0.45200735680E+02 -0.16495697401E+03  0.17631340811E+03  0.00000000000E+00 0.  1.
</event>
<event>
 7    1  0.2619826E-009  0.9502840E+02  0.7561462E-02  0.1291112E+00
         -2   -1    0    0    0  501 -0.00000000000E+00  0.00000000000E+00  0.23037652975E+03  0.23037652975E+03  0.00000000000E+00 0.  1.
          2   -1    0    0  501    0  0.00000000000E+00 -0.00000000000E+00 -0.52402965609E+02  0.52402965609E+02  0.00000000000E+00 0. -1.
         25    2    1    2    0    0 -0.11335445872E+02  0.15780296122E+02  0.10019731500E+03  0.16144718610E+03  0.12509269319E+03 0.  0.
          5    1    3    3  502    0 -0.44265873985E+02  0.38990823281E+02  0.66532608796E+01  0.59510420769E+02  0.41800000000E+01 0. -1.
         -5    1    3    3    0  502  0.32930428113E+02 -0.23210527159E+02  0.93544054116E+02  0.10193676534E+03  0.41800000000E+01 0. -1.
        -11    1    1    2    0    0  0.19612324826E+02 -0.50787427314E+02  0.60618459415E+02  0.81477626868E+02  0.00000000000E+00 0.  1.
         11    1    1    2    0    0 -0.82768789545E+01  0.35007131192E+02  0.17157789728E+02  0.39854682383E+02  0.00000000000E+00 0. -1.
</event>
<event>
 7    1  0.2619826E-009  0.1152816E+03  0.7561462E-02  0.1251090E+00
         -1   -1    0    0    0  501 -0.00000000000E+00  0.00000000000E+00  0.92323430537E+03  0.92323430537E+03  0.00000000000E+00 0.  1.
          1   -1    0    0  501    0  0.00000000000E+00 -0.00000000000E+00 -0.21831164470E+02  0.21831164470E+02  0.00000000000E+00 0. -1.
         25    2    1    2    0    0 -0.44904952910E+02  0.51670070287E+02  0.69857252021E+03  0.71297734527E+03  0.12508748105E+03 0.  0.
          5    1    3    3  502    0 -0.36014870183E+02  0.91515940930E+02  0.55468645732E+03  0.56335315447E+03  0.41800000000E+01 0.  1.
         -5    1    3    3    0  502 -0.88900827271E+01 -0.39845870643E+02  0.14388606289E+03  0.14962419080E+03  0.41800000000E+01 0.  1.
        -11    1    1    2    0    0  0.39393441328E+02 -0.27126465570E+00  0.24442574583E+02  0.46361150293E+02  0.00000000000E+00 0. -1.
         11    1    1    2    0    0  0.55115115821E+01 -0.51398805632E+02  0.17838804611E+03  0.18572697428E+03  0.00000000000E+00 0.  1.
</event>
<event>
 7    1  0.2619826E-009  0.1971897E+03  0.7561462E-02  0.1152132E+00
          2   -1    0    0  501    0  0.00000000000E+00  0.00000000000E+00  0.14251585669E+03  0.14251585669E+03  0.00000000000E+00 0.  1.
         -2   -1    0    0    0  501 -0.00000000000E+00 -0.00000000000E+00 -0.33733802665E+03  0.33733802665E+03  0.00000000000E+00 0. -1.
         25    2    1    2    0    0  0.17881763242E+03  0.29333451625E+02 -0.43328782299E+02  0.22441544978E+03  0.12509481875E+03 0.  0.
          5    1    3    3  502    0  0.24478328934E+02  0.24155934932E+02  0.36671107067E+02  0.50447401056E+02  0.41800000000E+01 0. -1.
         -5    1    3    3    0  502  0.15433930349E+03  0.51775166928E+01 -0.79999889366E+02  0.17396804873E+03  0.41800000000E+01 0. -1.
        -11    1    1    2    0    0 -0.12589027755E+03  0.26146085398E+02 -0.86996244894E+02  0.15524279819E+03  0.00000000000E+00 0.  1.
         11    1    1    2    0    0 -0.52927354867E+02 -0.55479537023E+02 -0.64497142765E+02  0.10019563537E+03  0.00000000000E+00 0. -1.
</event>
<event>
 7    1  0.2619826E-009  0.1026379E+03  0.7561462E-02  0.1274845E+00
         -2   -1    0    0    0  501 -0.00000000000E+00  0.00000000000E+00  0.10858011980E+03  0.10858011980E+03  0.00000000000E+00 0.  1.
          2   -1    0    0  501    0  0.00000000000E+00 -0.00000000000E+00 -0.11950235185E+03  0.11950235185E+03  0.00000000000E+00 0. -1.
         25    2    1    2    0    0 -0.35474834952E+02  0.11249612505E+02 -0.39908504404E+01  0.13056949323E+03  0.12508975969E+03 0.  0.
          5    1    3    3  502    0 -0.49178506970E+02 -0.41197024421E+02 -0.29236729451E+02  0.70625626496E+02  0.41800000000E+01 0. -1.
         -5    1    3    3    0  502  0.13703672018E+02  0.52446636927E+02  0.25245879011E+02  0.59943866732E+02  0.41800000000E+01 0. -1.
        -11    1    1    2    0    0  0.22536023917E+02 -0.45079024062E+02  0.18028865244E+02  0.53525982162E+02  0.00000000000E+00 0.  1.
         11    1    1    2    0    0  0.12938811034E+02  0.33829411556E+02 -0.24960246849E+02  0.43986996260E+02  0.00000000000E+00 0. -1.
</event>
<event>
 7    1  0.2619826E-009  0.9717242E+02  0.7561462E-02  0.1286357E+00
          1   -1    0    0  501    0  0.00000000000E+00  0.00000000000E+00  0.24006738741E+03  0.24006738741E+03  0.00000000000E+00 0.  1.
         -1   -1    0    0    0  501 -0.00000000000E+00 -0.00000000000E+00 -0.70193814553E+02  0.70193814553E+02  0.00000000000E+00 0. -1.
         25    2    1    2    0    0  0.30636477371E+02  0.59578448923E+02  0.71253355973E+02  0.15878457128E+03  0.12508922422E+03 0.  0.
          5    1    3    3  502    0 -0.82871096433E+01  0.50390366770E+02 -0.23111620468E+02  0.56209293271E+02  0.41800000000E+01 0.  1.
         -5    1    3    3    0  502  0.38923587014E+02  0.91880821532E+01  0.94364976440E+02  0.10257527801E+03  0.41800000000E+01 0.  1.
        -11    1    1    2    0    0 -0.20562578670E+02  0.16369359120E+02  0.60375851923E+02  0.65848455221E+02  0.00000000000E+00 0.  1.
         11    1    1    2    0    0 -0.10073898701E+02 -0.75947808042E+02  0.38244364959E+02  0.85628175460E+02  0.00000000000E+00 0. -1.
</event>
<event>
 7    1  0.2619826E-009  0.9916334E+02  0.7561462E-02  0.1282065E+00
         -2   -1    0    0    0  501 -0.00000000000E+00  0.00000000000E+00  0.19631752252E+03  0.19631752252E+03  0.00000000000E+00 0.  1.
          2   -1    0    0  501    0  0.00000000000E+00 -0.00000000000E+00 -0.87078596057E+02  0.87078596057E+02  0.00000000000E+00 0. -1.
         25    2    1    2    0    0  0.24053805552E+02  0.68214779608E+02  0.73571626589E+02  0.16215090236E+03  0.12509312203E+03 0.  0.
          5    1    3    3  502    0  0.56966825972E+02  0.22562605443E+02  0.84707141060E+02  0.10462821117E+03  0.41800000000E+01 0. -1.
         -5    1    3    3    0  502 -0.32913020421E+02  0.45652174165E+02 -0.11135514471E+02  0.57522691190E+02  0.41800000000E+01 0. -1.
        -11    1    1    2    0    0 -0.22270458027E+02 -0.14154914137E+02  0.57226612150E+02  0.63017616847E+02  0.00000000000E+00 0.  1.
         11    1    1    2    0    0 -0.17833475243E+01 -0.54059865471E+02 -0.21559312274E+02  0.58227599374E+02  0.00000000000E+00 0. -1.
</event>
<event>
 7    1  0.2619826E-009  0.1130899E+03  0.7561462E-02  0.1254953E+00
         -2   -1    0    0    0  501 -0.00000000000E+00  0.00000000000E+00  0.34978844540E+02  0.34978844540E+02  0.00000000000E+00 0.  1.
          2   -1    0    0  501    0  0.00000000000E+00 -0.00000000000E+00 -0.64904136935E+03  0.64904136935E+03  0.00000000000E+00 0. -1.
         25    2    1    2    0    0  0.95046442643E+02 -0.31117539653E+02 -0.39847935427E+03  0.42945813163E+03  0.12508542486E+03 0.  0.
          5    1    3    3  502    0  0.67064585835E+02 -0.35781762672E+01 -0.64690783005E+02  0.93342550985E+02  0.41800000000E+01 0. -1.
         -5    1    3    3    0  502  0.27981856807E+02 -0.27539363386E+02 -0.33378857127E+03  0.33611558065E+03  0.41800000000E+01 0. -1.
        -11    1    1    2    0    0 -0.95242698368E+02  0.72275443043E+01 -0.10721341605E+03  0.14359013047E+03  0.00000000000E+00 0.  1.
         11    1    1    2    0    0  0.19625572495E+00  0.23889995349E+02 -0.10836975449E+03  0.11097195178E+03  0.00000000000E+00 0. -1.
</event>
<event>
 7    1  0.2619826E-009  0.8863773E+02  0.7561462E-02  0.1306185E+00
         -1   -1    0    0    0  501 -0.00000000000E+00  0.00000000000E+00  0.43188981443E+02  0.43188981443E+02  0.00000000000E+00 0. -1.
          1   -1    0    0  501    0  0.00000000000E+00 -0.00000000000E+00 -0.28778649144E+03  0.28778649144E+03  0.00000000000E+00 0.  1.
         25    2    1    2    0    0  0.24783842437E+02 -0.40672454532E+01 -0.17770004460E+03  0.21875821318E+03  0.12508824345E+03 0.  0.
          5    1    3    3  502    0 -0.27885456317E+02  0.45955900165E+02 -0.88713311550E+02  0.10381265568E+03  0.41800000000E+01 0. -1.
         -5    1    3    3    0  502  0.52669298754E+02 -0.50023145618E+02 -0.88986733047E+02  0.11494555749E+03  0.41800000000E+01 0. -1.
        -11    1    1    2    0    0  0.73298040923E+01 -0.12480362455E+02 -0.73997641537E+02  0.75399843688E+02  0.00000000000E+00 0.  1.
         11    1    1    2    0    0 -0.32113646529E+02  0.16547607909E+02  0.71001761406E+01  0.36817416017E+02  0.00000000000E+00 0. -1.
</event>
<event>
 7    1  0.2619826E-009  0.7965587E+02  0.7561462E-02  0.1330031E+00
         -1   -1    0    0    0  501 -0.00000000000E+00  0.00000000000E+00  0.69942087068E+02  0.69942087068E+02  0.00000000000E+00 0.  1.
          1   -1    0    0  501    0  0.00000000000E+00 -0.00000000000E+00 -0.14053783585E+03  0.14053783585E+03  0.00000000000E+00 0. -1.
         25    2    1    2    0    0 -0.20471782158E+02 -0.22182422518E+02 -0.31184316153E+02  0.13240665519E+03  0.12509159457E+03 0.  0.
          5    1    3    3  502    0  0.37442362992E+02 -0.23016040962E+01  0.28114774905E+02  0.47065283339E+02  0.41800000000E+01 0. -1.
         -5    1    3    3    0  502 -0.57914145150E+02 -0.19880818422E+02 -0.59299091057E+02  0.85341371853E+02  0.41800000000E+01 0. -1.
        -11    1    1    2    0    0  0.37247188671E+02  0.77094078406E+01 -0.67879950558E+01  0.38637610045E+02  0.00000000000E+00 0.  1.
         11    1    1    2    0    0 -0.16775406514E+02  0.14473014678E+02 -0.32623437573E+02  0.39435657680E+02  0.00000000000E+00 0. -1.
</event>
<event>
 7    1  0.2619826E-009  0.1097294E+03  0.7561462E-02  0.1261072E+00
          1   -1    0    0  501    0  0.00000000000E+00  0.00000000000E+00  0.31276890730E+03  0.31276890730E+03  0.00000000000E+00 0. -1.
         -1   -1    0    0    0  501 -0.00000000000E+00 -0.00000000000E+00 -0.49487395857E+02  0.49487395857E+02  0.00000000000E+00 0.  1.
         25    2    1    2    0    0 -0.27634912802E+02  0.40206246515E+02  0.95538311760E+02  0.16480023434E+03  0.12510522595E+03 0.  0.
          5    1    3    3  502    0 -0.49671899662E+02  0.69108139528E+02  0.95803655714E+02  0.12821484085E+03  0.41800000000E+01 0. -1.
         -5    1    3    3    0  502  0.22036986860E+02 -0.28901893013E+02 -0.26534395397E+00  0.36585393492E+02  0.41800000000E+01 0. -1.
        -11    1    1    2    0    0  0.31116160341E+02  0.20238993075E+02  0.32727707332E+02  0.49486716423E+02  0.00000000000E+00 0.  1.
         11    1    1    2    0    0 -0.34812475391E+01 -0.60445239590E+02  0.13501549235E+03  0.14796935240E+03  0.00000000000E+00 0. -1.
</event>
<event>
 7    1  0.2619826E-009  0.2048062E+03  0.7561462E-02  0.1145746E+00
         -2   -1    0    0    0  501 -0.00000000000E+00  0.00000000000E+00  0.96791121395E+02  0.96791121395E+02  0.00000000000E+00 0.  1.
          2   -1    0    0  501    0  0.00000000000E+00 -0.00000000000E+00 -0.65839444393E+03  0.65839444393E+03  0.00000000000E+00 0. -1.
         25    2    1    2    0    0 -0.12271078145E+03  0.13859281873E+03 -0.48361470684E+03  0.53272602603E+03  0.12509168180E+03 0.  0.
          5    1    3    3  502    0  0.20445043924E+02  0.36770865714E+02 -0.54144025888E+02  0.68696028457E+02  0.41800000000E+01 0.  1.
         -5    1    3    3    0  502 -0.14315582537E+03  0.10182195301E+03 -0.42947068095E+03  0.46402999758E+03  0.41800000000E+01 0.  1.
        -11    1    1    2    0    0  0.91823316601E+02 -0.67094287339E+02 -0.21404359470E+01  0.11374421450E+03  0.00000000000E+00 0.  1.
         11    1    1    2    0    0  0.30887464845E+02 -0.71498531386E+02 -0.75848179752E+02  0.10871532480E+03  0.00000000000E+00 0. -1.
</event>
<event>
 7    1  0.2619826E-009  0.9030054E+02  0.7561462E-02  0.1302126E+00
         -2   -1    0    0    0  501 -0.00000000000E+00  0.00000000000E+00  0.10412038544E+03  0.10412038544E+03  0.00000000000E+00 0.  1.
          2   -1    0    0  501    0  0.00000000000E+00 -0.00000000000E+00 -0.17430210782E+03  0.17430210782E+03  0.00000000000E+00 0. -1.
         25    2    1    2    0    0 -0.74574983915E+02 -0.29314586041E+02 -0.18731390455E+02  0.14972813587E+03  0.12508747541E+03 0.  0.
          5    1    3    3  502    0 -0.42754657482E+02 -0.22306436930E+01  0.51989688176E+02  0.67478415692E+02  0.41800000000E+01 0. -1.
         -5    1    3    3    0  502 -0.31820326433E+02 -0.27083942348E+02 -0.70721078631E+02  0.82249720183E+02  0.41800000000E+01 0. -1.
        -11    1    1    2    0    0  0.96245484342E+01 -0.14384575432E+02 -0.47226284298E+02  0.50297811797E+02  0.00000000000E+00 0. -1.
         11    1    1    2    0    0  0.64950435481E+02  0.43699161473E+02 -0.42240476289E+01  0.78396545593E+02  0.00000000000E+00 0.  1.
</event>
<event>
 7    1  0.2619826E-009  0.9915223E+02  0.7561462E-02  0.1282089E+00
         -1   -1    0    0    0  501 -0.00000000000E+00  0.00000000000E+00  0.37163972892E+02  0.37163972892E+02  0.00000000000E+00 0.  1.
          1   -1    0    0  501    0  0.00000000000E+00 -0.00000000000E+00 -0.49164902381E+03  0.49164902381E+03  0.00000000000E+00 0. -1.
         25    2    1    2    0    0  0.61702064389E+02 -0.65643005696E-01 -0.34855199714E+03  0.37542402020E+03  0.12509017219E+03 0.  0.
          5    1    3    3  502    0  0.78730230325E+01  0.32919392172E+02 -0.17409566809E+02  0.38291464964E+02  0.41800000000E+01 0. -1.
         -5    1    3    3    0  502  0.53829041357E+02 -0.32985035177E+02 -0.33114243033E+03  0.33713255524E+03  0.41800000000E+01 0. -1.
        -11    1    1    2    0    0 -0.51924589723E+02  0.36328975866E+02 -0.33224891383E+02  0.71553133493E+02  0.00000000000E+00 0.  1.
         11    1    1    2    0    0 -0.97774746663E+01 -0.36263332860E+02 -0.72708162398E+02  0.81835843004E+02  0.00000000000E+00 0. -1.
</event>
<event>
 7    1  0.2619826E-009  0.1159959E+03  0.7561462E-02  0.1249853E+00
         -3   -1    0    0    0  501 -0.00000000000E+00  0.00000000000E+00  0.24858142498E+03  0.24858142498E+03  0.00000000000E+00 0.  1.
          3   -1    0    0  501    0  0.00000000000E+00 -0.00000000000E+00 -0.58163875096E+02  0.58163875096E+02  0.00000000000E+00 0. -1.
         25    2    1    2    0    0  0.92215985946E+01  0.47038577421E+02  0.78698917597E+02  0.15536586994E+03  0.12508944107E+03 0.  0.
          5    1    3    3  502    0 -0.35943159443E+02  0.70182594730E+02  0.65931174092E+02  0.10286835972E+03  0.41800000000E+01 0.  1.
         -5    1    3    3    0  502  0.45164758038E+02 -0.23144017309E+02  0.12767743505E+02  0.52497510227E+02  0.41800000000E+01 0.  1.
        -11    1    1    2    0    0  0.34922394311E+02 -0.46254951573E+02  0.65547263776E+02  0.87495931094E+02  0.00000000000E+00 0.  1.
         11    1    1    2    0    0 -0.44143992906E+02 -0.78362584798E+00  0.46171368512E+02  0.63883499039E+02  0.00000000000E+00 0. -1.
</event>
<event>
 7    1  0.2619826E-009  0.8265839E+02  0.7561462E-02  0.1321672E+00
         -1   -1    0    0    0  501 -0.00000000000E+00  0.00000000000E+00  0.68010492209E+02  0.68010492209E+02  0.00000000000E+00 0.  1.
          1   -1    0    0  501    0  0.00000000000E+00 -0.00000000000E+00 -0.22953133810E+03  0.22953133810E+03  0.00000000000E+00 0. -1.
         25    2    1    2    0    0 -0.50560165948E+02  0.57293901410E+02 -0.87847775127E+02  0.17088964054E+03  0.12508843323E+03 0.  0.
          5    1    3    3  502    0 -0.43704127563E+02  0.39564334869E+02  0.19158152107E+02  0.62128049638E+02  0.41800000000E+01 0. -1.
         -5    1    3    3    0  502 -0.68560383857E+01  0.17729566541E+02 -0.10700592723E+03  0.10876159090E+03  0.41800000000E+01 0. -1.
        -11    1    1    2    0    0  0.13082723924E+02 -0.45681421830E+02 -0.52882344951E+01  0.47811247523E+02  0.00000000000E+00 0.  1.
         11    1    1    2    0    0  0.37477442025E+02 -0.11612479580E+02 -0.68384836266E+02  0.78840942244E+02  0.00000000000E+00 0. -1.
</event>
<event>
 7    1  0.2619826E-009  0.1019487E+03  0.7561462E-02  0.1276251E+00
         -1   -1    0    0    0  501 -0.00000000000E+00  0.00000000000E+00  0.22727947460E+02  0.22727947460E+02  0.00000000000E+00 0.  1.
          1   -1    0    0  501    0  0.00000000000E+00 -0.00000000000E+00 -0.61498916010E+03  0.61498916010E+03  0.00000000000E+00 0. -1.
         25    2    1    2    0    0 -0.85854424023E+01  0.49173026713E+02 -0.35470858311E+03  0.37942479791E+03  0.12511315662E+03 0.  0.
          5    1    3    3  502    0  0.51023731159E+02 -0.19219849023E+01 -0.19198613756E+03  0.19870396217E+03  0.41800000000E+01 0. -1.
         -5    1    3    3    0  502 -0.59609173561E+02  0.51095011616E+02 -0.16272244555E+03  0.18072083574E+03  0.41800000000E+01 0. -1.
        -11    1    1    2    0    0 -0.23164991920E+02 -0.16182990058E+02 -0.16871467074E+02  0.32911281031E+02  0.00000000000E+00 0. -1.
         11    1    1    2    0    0  0.31750434322E+02 -0.32990036655E+02 -0.22068116245E+03  0.22538102861E+03  0.00000000000E+00 0.  1.
</event>
<event>
 7    1  0.2619826E-009  0.9448144E+02  0.7561462E-02  0.1292348E+00
         -2   -1    0    0    0  501 -0.00000000000E+00  0.00000000000E+00  0.25248854694E+02  0.25248854694E+02  0.00000000000E+00 0.  1.
          2   -1    0    0  501    0  0.00000000000E+00 -0.00000000000E+00 -0.49795369780E+03  0.49795369780E+03  0.00000000000E+00 0. -1.
         25    2    1    2    0    0  0.17451086326E+02 -0.18792088699E+02 -0.29427800770E+03  0.32078019849E+03  0.12507080761E+03 0.  0.
          5    1    3    3  502    0 -0.20050311720E+02 -0.46196002668E+02 -0.25455046480E+03  0.25951781672E+03  0.41800000000E+01 0. -1.
         -5    1    3    3    0  502  0.37501398046E+02  0.27403913970E+02 -0.39727542902E+02  0.61262381779E+02  0.41800000000E+01 0. -1.
        -11    1    1    2    0    0  0.34502883602E+02  0.19898463282E+02 -0.50310345768E+02  0.64167972612E+02  0.00000000000E+00 0.  1.
         11    1    1    2    0    0 -0.51953969928E+02 -0.11063745837E+01 -0.12811648963E+03  0.13825438139E+03  0.00000000000E+00 0. -1.
</event>
<event>
 7    1  0.2619826E-009  0.9878424E+02  0.7561462E-02  0.1282873E+00
          2   -1    0    0  501    0  0.00000000000E+00  0.00000000000E+00  0.37081042078E+02  0.37081042078E+02  0.00000000000E+00 0. -1.
         -2   -1    0    0    0  501 -0.00000000000E+00 -0.00000000000E+00 -0.36217587377E+03  0.36217587377E+03  0.00000000000E+00 0.  1.
         25    2    1    2    0    0  0.15614857743E+02  0.26658070822E+01 -0.11968083464E+03  0.17384496725E+03  0.12509052781E+03 0.  0.
          5    1    3    3  502    0  0.67291136616E+02  0.17472137288E+02 -0.84324787605E+02  0.10936871058E+03  0.41800000000E+01 0.  1.
         -5    1    3    3    0  502 -0.51676278873E+02 -0.14806330206E+02 -0.35356047032E+02  0.64476256669E+02  0.41800000000E+01 0.  1.
        -11    1    1    2    0    0  0.95953101528E+01 -0.33111749064E+02 -0.16617950238E+03  0.16971766235E+03  0.00000000000E+00 0.  1.
         11    1    1    2    0    0 -0.25210167896E+02  0.30445941981E+02 -0.39234494674E+02  0.55694286249E+02  0.00000000000E+00 0. -1.
</event>
<event>
 7    1  0.2619826E-009  0.1156883E+03  0.7561462E-02  0.1250384E+00
         -3   -1    0    0    0  501 -0.00000000000E+00  0.00000000000E+00  0.17251736974E+03  0.17251736974E+03  0.00000000000E+00 0.  1.
          3   -1    0    0  501    0  0.00000000000E+00 -0.00000000000E+00 -0.12132094011E+03  0.12132094011E+03  0.00000000000E+00 0. -1.
         25    2    1    2    0    0 -0.70787737728E+02  0.22817166294E+01  0.92812656298E+02  0.17110760408E+03  0.12509001944E+03 0.  0.
          5    1    3    3  502    0 -0.31385375268E+02 -0.60270890219E+02  0.57302192576E+02  0.88986716214E+02  0.41800000000E+01 0. -1.
         -5    1    3    3    0  502 -0.39402362461E+02  0.62552606848E+02  0.35510463722E+02  0.82120887871E+02  0.41800000000E+01 0. -1.
        -11    1    1    2    0    0 -0.30861730416E+01  0.13381459373E+02 -0.45089824707E+02  0.47134702833E+02  0.00000000000E+00 0. -1.
         11    1    1    2    0    0  0.73873910770E+02 -0.15663176002E+02  0.34735980414E+01  0.75596002925E+02  0.00000000000E+00 0.  1.
</event>
<event>
 6    1  0.2619826E-009  0.9385901E+02  0.7561462E-02  0.1293767E+00
         -2   -1    0    0    0  501 -0.00000000000E+00  0.00000000000E+00  0.33990532990E+03  0.33990532990E+03  0.00000000000E+00 0. -1.
          2   -1    0    0  501    0  0.00000000000E+00 -0.00000000000E+00 -0.46049487633E+02  0.46049487633E+02  0.00000000000E+00 0.  1.
          5    1    1    2  502    0  0.84438121828E+02  0.94405359281E+01  0.40212364443E+02  0.94092650035E+02  0.41800000000E+01 0. -1.
         -5    1    1    2    0  502 -0.31862391820E+02 -0.23062745248E+02  0.73827749674E+02  0.83756260977E+02  0.41800000000E+01 0. -1.
        -11    1    1    2    0    0 -0.77124025241E-01  0.10504970294E+02 -0.79115532269E+01  0.13151160536E+02  0.00000000000E+00 0.  1.
         11    1    1    2    0    0 -0.52498605983E+02  0.31172390268E+01  0.18772728138E+03  0.19495474599E+03  0.00000000000E+00 0. -1.
</event>
<event>
 7    1  0.2619826E-009  0.1162588E+03  0.7561462E-02  0.1249400E+00
          3   -1    0    0  501    0  0.00000000000E+00  0.00000000000E+00  0.25514007764E+02  0.25514007764E+02  0.00000000000E+00 0. -1.
         -3   -1    0    0    0  501 -0.00000000000E+00 -0.00000000000E+00 -0.10533670493E+04  0.10533670493E+04  0.00000000000E+00 0.  1.
         25    2    1    2    0    0  0.24055332481E+02  0.69426886103E+02 -0.87220093181E+03  0.88418116633E+03  0.12507245067E+03 0.  0.
          5    1    3    3  502    0 -0.35822601668E+02 -0.13884291906E+01 -0.47098254484E+03  0.47236343685E+03  0.41800000000E+01 0.  1.
         -5    1    3    3    0  502  0.59877934150E+02  0.70815315294E+02 -0.40121838697E+03  0.41181772949E+03  0.41800000000E+01 0.  1.
        -11    1    1    2    0    0 -0.37985983062E+02 -0.57591440767E+01 -0.10605734199E+03  0.11280187251E+03  0.00000000000E+00 0.  1.
         11    1    1    2    0    0  0.13930650581E+02 -0.63667742026E+02 -0.49594767699E+02  0.81898018190E+02  0.00000000000E+00 0. -1.
</event>
<event>
 7    1  0.2619826E-009  0.1101207E+03  0.7561462E-02  0.1260347E+00
         -3   -1    0    0    0  501 -0.00000000000E+00  0.00000000000E+00  0.11990957860E+03  0.11990957860E+03  0.00000000000E+00 0.  1.
          3   -1    0    0  501    0  0.00000000000E+00 -0.00000000000E+00 -0.10316990377E+03  0.10316990377E+03  0.00000000000E+00 0. -1.
         25    2    1    2    0    0 -0.21326946852E+02 -0.12117294212E+02  0.63201979883E+01  0.12762274047E+03  0.12508377793E+03 0.  0.
          5    1    3    3  502    0 -0.73683359775E+02 -0.14587582964E+01  0.17883164184E+01  0.73837903269E+02  0.41800000000E+01 0. -1.
         -5    1    3    3    0  502  0.52356412923E+02 -0.10658535915E+02  0.45318815699E+01  0.53784837199E+02  0.41800000000E+01 0. -1.
        -11    1    1    2    0    0  0.44886653034E+02  0.37288719469E+02  0.16053414003E+02  0.60522494342E+02  0.00000000000E+00 0.  1.
         11    1    1    2    0    0 -0.23559706182E+02 -0.25171425257E+02 -0.56339371649E+01  0.34934247564E+02  0.00000000000E+00 0. -1.
</event>
<event>
 7    1  0.2619826E-009  0.9190119E+02  0.7561462E-02  0.1298312E+00
          1   -1    0    0  501    0  0.00000000000E+00  0.00000000000E+00  0.12783616372E+03  0.12783616372E+03  0.00000000000E+00 0. -1.
         -1   -1    0    0    0  501 -0.00000000000E+00 -0.00000000000E+00 -0.13126597089E+03  0.13126597089E+03  0.00000000000E+00 0.  1.
         25    2    1    2    0    0 -0.49693914542E+02  0.14889683491E+02 -0.49471593381E+02  0.14417365669E+03  0.12508963552E+03 0.  0.
          5    1    3    3  502    0 -0.45998809600E+02  0.58353073890E+02  0.46149725741E+01  0.74563678080E+02  0.41800000000E+01 0.  1.
         -5    1    3    3    0  502 -0.36951049422E+01 -0.43463390398E+02 -0.54086565955E+02  0.69609978611E+02  0.41800000000E+01 0.  1.
        -11    1    1    2    0    0  0.31983874010E+02  0.11321270595E+02 -0.21624080390E+02  0.40233570775E+02  0.00000000000E+00 0.  1.
         11    1    1    2    0    0  0.17710040533E+02 -0.26210954086E+02  0.67665866598E+02  0.74694907138E+02  0.00000000000E+00 0. -1.
</event>
<event>
 7    1  0.2619826E-009  0.2398307E+03  0.7561462E-02  0.1119906E+00
          3   -1    0    0  501    0  0.00000000000E+00  0.00000000000E+00  0.25458286775E+03  0.25458286775E+03  0.00000000000E+00 0. -1.
         -3   -1    0    0    0  501 -0.00000000000E+00 -0.00000000000E+00 -0.26039090237E+03  0.26039090237E+03  0.00000000000E+00 0.  1.
         25    2    1    2    0    0  0.18988410794E+03 -0.11618287963E+03  0.64909083381E+02  0.26345958833E+03  0.12507329695E+03 0.  0.
          5    1    3    3  502    0  0.59500453395E+02 -0.10937343004E+03  0.27489369246E+02  0.12757738426E+03  0.41800000000E+01 0. -1.
         -5    1    3    3    0  502  0.13038365455E+03 -0.68094495864E+01  0.37419714135E+02  0.13588220407E+03  0.41800000000E+01 0. -1.
        -11    1    1    2    0    0 -0.45413372850E+02  0.42839977999E+02 -0.63920362153E+02  0.89350158626E+02  0.00000000000E+00 0.  1.
         11    1    1    2    0    0 -0.14447073509E+03  0.73342901632E+02 -0.67967558478E+01  0.16216402316E+03  0.00000000000E+00 0. -1.
</event>
<event>
 7    1  0.2619826E-009  0.1066677E+03  0.7561462E-02  0.1266868E+00
          2   -1    0    0  501    0  0.00000000000E+00  0.00000000000E+00  0.13840234886E+03  0.13840234886E+03  0.00000000000E+00 0. -1.
         -2   -1    0    0    0  501 -0.00000000000E+00 -0.00000000000E+00 -0.91329438504E+02  0.91329438504E+02  0.00000000000E+00 0.  1.
         25    2    1    2    0    0  0.37272989384E+02  0.13299376098E+01  0.28597087409E+02  0.13362427657E+03  0.12508640777E+03 0.  0.
          5    1    3    3  502    0  0.77759921003E+02  0.26300202325E+02  0.24141877878E+02  0.85665679383E+02  0.41800000000E+01 0. -1.
         -5    1    3    3    0  502 -0.40486931619E+02 -0.24970264715E+02  0.44552095314E+01  0.47958597184E+02  0.41800000000E+01 0. -1.
        -11    1    1    2    0    0  0.98447334404E+00  0.32383366433E+02 -0.14380558713E+02  0.35446467781E+02  0.00000000000E+00 0.  1.
         11    1    1    2    0    0 -0.38257462728E+02 -0.33713304042E+02  0.32856381658E+02  0.60661043014E+02  0.00000000000E+00 0. -1.
</event>
<event>
 7    1  0.2983343E-009  0.2212555E+03  0.7561462E-02  0.1132951E+00
          1   -1    0    0  501    0  0.00000000000E+00  0.00000000000E+00  0.62236703487E+03  0.62236703487E+03  0.00000000000E+00 0. -1.
         -1   -1    0    0    0  501 -0.00000000000E+00 -0.00000000000E+00 -0.88060447784E+02  0.88060447784E+02  0.00000000000E+00 0.  1.
         25    2    1    2    0    0  0.74015851467E+02  0.17771043296E+03  0.16081291846E+03  0.28029893032E+03  0.12508937343E+03 0.  0.
          5    1    3    3  502    0 -0.33760692451E+02  0.64379638604E+02  0.57966177108E+02  0.93070254700E+02  0.41800000000E+01 0. -1.
         -5    1    3    3    0  502  0.10777654392E+03  0.11333079436E+03  0.10284674135E+03  0.18722867562E+03  0.41800000000E+01 0. -1.
        -11    1    1    2    0    0 -0.77780877446E+02 -0.67547331251E+02  0.18679872649E+03  0.21332198919E+03  0.00000000000E+00 0. -1.
         11    1    1    2    0    0  0.37650259781E+01 -0.11016310171E+03  0.18669494213E+03  0.21680656313E+03  0.00000000000E+00 0.  1.
</event>
<event>
 7    1  0.2752543E-009  0.9688522E+02  0.7561462E-02  0.1286986E+00
          2   -1    0    0  501    0  0.00000000000E+00  0.00000000000E+00  0.25755914744E+03  0.25755914744E+03  0.00000000000E+00 0. -1.
         -2   -1    0    0    0  501 -0.00000000000E+00 -0.00000000000E+00 -0.72470211498E+02  0.72470211498E+02  0.00000000000E+00 0.  1.
         25    2    1    2    0    0  0.35718786189E+02 -0.47556599530E+02  0.32040021763E+02  0.14216455672E+03  0.12508691518E+03 0.  0.
          5    1    3    3  502    0 -0.30291635381E+02 -0.32024397137E+02 -0.27248427904E+02  0.51991291668E+02  0.41800000000E+01 0. -1.
         -5    1    3    3    0  502  0.66010421570E+02 -0.15532202393E+02  0.59288449667E+02  0.90173265057E+02  0.41800000000E+01 0. -1.
        -11    1    1    2    0    0 -0.49841329441E+02  0.27218373976E+02  0.15289806246E+03  0.16310369556E+03  0.00000000000E+00 0. -1.
         11    1    1    2    0    0  0.14122543252E+02  0.20338225555E+02  0.15085172643E+00  0.24761106657E+02  0.00000000000E+00 0.  1.
</event>
<event>
 7    1  0.2619826E-009  0.2623869E+03  0.7561462E-02  0.1105718E+00
         -1   -1    0    0    0  501 -0.00000000000E+00  0.00000000000E+00  0.15570445782E+03  0.15570445782E+03  0.00000000000E+00 0.  1.
          1   -1    0    0  501    0  0.00000000000E+00 -0.00000000000E+00 -0.49626637077E+03  0.49626637077E+03  0.00000000000E+00 0. -1.
         25    2    1    2    0    0 -0.23113288380E+03  0.83001794783E+02 -0.91476159984E+02  0.29039116548E+03  0.12508970076E+03 0.  0.
          5    1    3    3  502    0 -0.20938654996E+03  0.23204376000E+02 -0.81140741513E+02  0.22579296424E+03  0.41800000000E+01 0.  1.
         -5    1    3    3    0  502 -0.21746333844E+02  0.59797418783E+02 -0.10335418471E+02  0.64598201242E+02  0.41800000000E+01 0.  1.
        -11    1    1    2    0    0  0.25841120318E+02 -0.27284765174E+02 -0.84974486034E+02  0.92913320824E+02  0.00000000000E+00 0. -1.
         11    1    1    2    0    0  0.20529176348E+03 -0.55717029609E+02 -0.16411126693E+03  0.26866634228E+03  0.00000000000E+00 0.  1.
</event>
<event>
 7    1  0.2619826E-009  0.1175290E+03  0.7561462E-02  0.1247230E+00
          1   -1    0    0  501    0  0.00000000000E+00  0.00000000000E+00  0.90181968319E+03  0.90181968319E+03  0.00000000000E+00 0. -1.
         -1   -1    0    0    0  501 -0.00000000000E+00 -0.00000000000E+00 -0.16898659798E+02  0.16898659798E+02  0.00000000000E+00 0.  1.
         25    2    1    2    0    0  0.36558204514E+02  0.42842968526E+02  0.51864654417E+03  0.53648281403E+03  0.12509016627E+03 0.  0.
          5    1    3    3  502    0  0.73097869449E+02  0.55306695147E+02  0.43036208472E+03  0.44003536836E+03  0.41800000000E+01 0. -1.
         -5    1    3    3    0  502 -0.36539664936E+02 -0.12463726621E+02  0.88284459454E+02  0.96447445668E+02  0.41800000000E+01 0. -1.
        -11    1    1    2    0    0 -0.64680247175E+02 -0.40351344339E+02  0.31051205738E+03  0.31973348768E+03  0.00000000000E+00 0. -1.
         11    1    1    2    0    0  0.28122042661E+02 -0.24916241875E+01  0.55762421837E+02  0.62502041276E+02  0.00000000000E+00 0.  1.
</event>
<event>
 7    1  0.2619826E-009  0.1277621E+03  0.7561462E-02  0.1230815E+00
          4   -1    0    0  501    0  0.00000000000E+00  0.00000000000E+00  0.84143527650E+02  0.84143527650E+02  0.00000000000E+00 0. -1.
         -4   -1    0    0    0  501 -0.00000000000E+00 -0.00000000000E+00 -0.33031930619E+03  0.33031930619E+03  0.00000000000E+00 0.  1.
         25    2    1    2    0    0  0.25814259210E+02 -0.93297875927E+02 -0.29458827199E+02  0.16089097628E+03  0.12508882491E+03 0.  0.
          5    1    3    3  502    0 -0.32089816938E+02  0.12435121116E+02  0.59584824604E+01  0.35176192254E+02  0.41800000000E+01 0. -1.
         -5    1    3    3    0  502  0.57904076148E+02 -0.10573299704E+03 -0.35417309659E+02  0.12571478402E+03  0.41800000000E+01 0. -1.
        -11    1    1    2    0    0 -0.44106681153E+01  0.62910950963E+02 -0.20518131742E+03  0.21465464068E+03  0.00000000000E+00 0.  1.
         11    1    1    2    0    0 -0.21403591095E+02  0.30386924964E+02 -0.11535633920E+02  0.38917216890E+02  0.00000000000E+00 0. -1.
</event>
<event>
 7    1  0.2619826E-009  0.1103117E+03  0.7561462E-02  0.1259994E+00
          2   -1    0    0  501    0  0.00000000000E+00  0.00000000000E+00  0.41873590686E+03  0.41873590686E+03  0.00000000000E+00 0. -1.
         -2   -1    0    0    0  501 -0.00000000000E+00 -0.00000000000E+00 -0.45808619394E+02  0.45808619394E+02  0.00000000000E+00 0.  1.
         25    2    1    2    0    0 -0.58434282130E+02 -0.41666368210E+02  0.28726298844E+03  0.32143483924E+03  0.12509868018E+03 0.  0.
          5    1    3    3  502    0 -0.22708595159E+02 -0.69793223837E+02  0.77740029163E+02  0.10699420041E+03  0.41800000000E+01 0. -1.
         -5    1    3    3    0  502 -0.35725686970E+02  0.28126855627E+02  0.20952295928E+03  0.21444063883E+03  0.41800000000E+01 0. -1.
        -11    1    1    2    0    0 -0.14067083033E+02  0.22367000184E+02 -0.34176389497E+01  0.26642931113E+02  0.00000000000E+00 0.  1.
         11    1    1    2    0    0  0.72501365163E+02  0.19299368026E+02  0.89081937976E+02  0.11646675590E+03  0.00000000000E+00 0. -1.
</event>
<event>
 7    1  0.2619826E-009  0.1037401E+03  0.7561462E-02  0.1272622E+00
          2   -1    0    0  501    0  0.00000000000E+00  0.00000000000E+00  0.26498104814E+03  0.26498104814E+03  0.00000000000E+00 0.  1.
         -2   -1    0    0    0  501 -0.00000000000E+00 -0.00000000000E+00 -0.46164646431E+02  0.46164646431E+02  0.00000000000E+00 0. -1.
         25    2    1    2    0    0 -0.21146387290E+01  0.19697621938E+02  0.14966392422E+03  0.19605911973E+03  0.12508964870E+03 0.  0.
          5    1    3    3  502    0 -0.52742652766E+02  0.44843997819E+02  0.72727169944E+02  0.10049619500E+03  0.41800000000E+01 0.  1.
         -5    1    3    3    0  502  0.50628014037E+02 -0.25146375881E+02  0.76936754273E+02  0.95562924732E+02  0.41800000000E+01 0.  1.
        -11    1    1    2    0    0  0.37715806972E+02 -0.25280501193E+02  0.64314516789E+02  0.78727015096E+02  0.00000000000E+00 0.  1.
         11    1    1    2    0    0 -0.35601168243E+02  0.55828792544E+01  0.48379607026E+01  0.36359559744E+02  0.00000000000E+00 0. -1.
</event>
<event>
 7    1  0.2619826E-009  0.9884047E+02  0.7561462E-02  0.1282753E+00
         -1   -1    0    0    0  501 -0.00000000000E+00  0.00000000000E+00  0.64838686356E+02  0.64838686356E+02  0.00000000000E+00 0.  1.
          1   -1    0    0  501    0  0.00000000000E+00 -0.00000000000E+00 -0.33597897379E+03  0.33597897379E+03  0.00000000000E+00 0. -1.
         25    2    1    2    0    0  0.28571613934E+02 -0.25687259449E+01 -0.17518408144E+02  0.12952683504E+03  0.12508945158E+03 0.  0.
          5    1    3    3  502    0 -0.31213485479E+02  0.37056662934E+02  0.14676044437E+02  0.50797013927E+02  0.41800000000E+01 0.  1.
         -5    1    3    3    0  502  0.59785099413E+02 -0.39625388879E+02 -0.32194452581E+02  0.78729821114E+02  0.41800000000E+01 0.  1.
        -11    1    1    2    0    0 -0.32649556179E+01 -0.33215349921E+02 -0.35169637792E+02  0.48485284654E+02  0.00000000000E+00 0.  1.
         11    1    1    2    0    0 -0.25306658316E+02  0.35784075866E+02 -0.21845224150E+03  0.22280554045E+03  0.00000000000E+00 0. -1.
</event>
<event>
 7    1  0.2619826E-009  0.7867099E+02  0.7561462E-02  0.1332866E+00
         -2   -1    0    0    0  501 -0.00000000000E+00  0.00000000000E+00  0.44774454720E+02  0.44774454720E+02  0.00000000000E+00 0.  1.
          2   -1    0    0  501    0  0.00000000000E+00 -0.00000000000E+00 -0.35250433015E+03  0.35250433015E+03  0.00000000000E+00 0. -1.
         25    2    1    2    0    0 -0.47315199121E+02 -0.82713818008E+01 -0.15010481809E+03  0.20121106383E+03  0.12508913609E+03 0.  0.
          5    1    3    3  502    0 -0.32405197302E+02 -0.18594362346E+02  0.10893565414E+02  0.39140634776E+02  0.41800000000E+01 0. -1.
         -5    1    3    3    0  502 -0.14910001820E+02  0.10322980545E+02 -0.16099838350E+03  0.16207042905E+03  0.41800000000E+01 0. -1.
        -11    1    1    2    0    0  0.22181082667E+02  0.48711060068E+02 -0.33547585006E+02  0.63168095278E+02  0.00000000000E+00 0.  1.
         11    1    1    2    0    0  0.25134116454E+02 -0.40439678268E+02 -0.12407747233E+03  0.13289962576E+03  0.00000000000E+00 0. -1.
</event>
<event>
 7    1  0.2619826E-009  0.3857522E+03  0.7561462E-02  0.1048828E+00
          1   -1    0    0  501    0  0.00000000000E+00  0.00000000000E+00  0.51043720942E+03  0.51043720942E+03  0.00000000000E+00 0. -1.
         -1   -1    0    0    0  501 -0.00000000000E+00 -0.00000000000E+00 -0.38743101083E+03  0.38743101083E+03  0.00000000000E+00 0.  1.
         25    2    1    2    0    0 -0.32324048566E+03  0.19931939575E+03  0.26731146958E+03  0.48095224085E+03  0.12508798151E+03 0.  0.
          5    1    3    3  502    0 -0.17475774529E+03  0.15601170142E+03  0.10514266524E+03  0.25681194087E+03  0.41800000000E+01 0. -1.
         -5    1    3    3    0  502 -0.14848274037E+03  0.43307694336E+02  0.16216880434E+03  0.22414029998E+03  0.41800000000E+01 0. -1.
        -11    1    1    2    0    0  0.23024631388E+03 -0.11693630434E+03 -0.55319481840E+02  0.26409791631E+03  0.00000000000E+00 0.  1.
         11    1    1    2    0    0  0.92994171781E+02 -0.82383091416E+02 -0.88985789154E+02  0.15281806309E+03  0.00000000000E+00 0. -1.
</event>
<event>
 7    1  0.2619826E-009  0.1212580E+03  0.7561462E-02  0.1241036E+00
          1   -1    0    0  501    0  0.00000000000E+00  0.00000000000E+00  0.75426872045E+03  0.75426872045E+03  0.00000000000E+00 0. -1.
         -1   -1    0    0    0  501 -0.00000000000E+00 -0.00000000000E+00 -0.20503901062E+02  0.20503901062E+02  0.00000000000E+00 0.  1.
         25    2    1    2    0    0 -0.56276785182E+02 -0.13243608945E+02  0.43214287687E+03  0.45358318155E+03  0.12509103418E+03 0.  0.
          5    1    3    3  502    0 -0.72436128848E+02  0.37739752715E+02  0.21839766819E+03  0.23320869531E+03  0.41800000000E+01 0.  1.
         -5    1    3    3    0  502  0.16159343665E+02 -0.50983361661E+02  0.21374520867E+03  0.22037448624E+03  0.41800000000E+01 0.  1.
        -11    1    1    2    0    0  0.64647002533E+02  0.42028539508E+02  0.17797747194E+03  0.19396291807E+03  0.00000000000E+00 0.  1.
         11    1    1    2    0    0 -0.83702173503E+01 -0.28784930563E+02  0.12364447058E+03  0.12722652188E+03  0.00000000000E+00 0. -1.
</event>
<event>
 7    1  0.2619826E-009  0.5936366E+02  0.7561462E-02  0.1400522E+00
         -1   -1    0    0    0  501 -0.00000000000E+00  0.00000000000E+00  0.16043710975E+03  0.16043710975E+03  0.00000000000E+00 0.  1.
          1   -1    0    0  501    0  0.00000000000E+00 -0.00000000000E+00 -0.76069853596E+02  0.76069853596E+02  0.00000000000E+00 0. -1.
         25    2    1    2    0    0  0.38925786735E+01  0.20052281894E+02  0.38874952624E+02  0.13257465121E+03  0.12509008763E+03 0.  0.
          5    1    3    3  502    0 -0.70745012507E+01 -0.17960137825E+02  0.75778939632E+02  0.78310505109E+02  0.41800000000E+01 0. -1.
         -5    1    3    3    0  502  0.10967079924E+02  0.38012419719E+02 -0.36903987009E+02  0.54264146101E+02  0.41800000000E+01 0. -1.
        -11    1    1    2    0    0  0.12190487747E+02 -0.35107356005E+02 -0.14600405977E+02  0.39928765219E+02  0.00000000000E+00 0. -1.
         11    1    1    2    0    0 -0.16083066421E+02  0.15055074112E+02  0.60092709505E+02  0.64003546915E+02  0.00000000000E+00 0.  1.
</event>
<event>
 7    1  0.2619826E-009  0.1104050E+03  0.7561462E-02  0.1259822E+00
         -1   -1    0    0    0  501 -0.00000000000E+00  0.00000000000E+00  0.49470700172E+03  0.49470700172E+03  0.00000000000E+00 0.  1.
          1   -1    0    0  501    0  0.00000000000E+00 -0.00000000000E+00 -0.32627903455E+02  0.32627903455E+02  0.00000000000E+00 0. -1.
         25    2    1    2    0    0 -0.44774447649E+02 -0.47608617697E+02  0.25066340492E+03  0.28766754675E+03  0.12509653572E+03 0.  0.
          5    1    3    3  502    0  0.16588382452E+02 -0.62287561712E+02  0.65447033915E+02  0.91954887987E+02  0.41800000000E+01 0.  1.
         -5    1    3    3    0  502 -0.61362830101E+02  0.14678944014E+02  0.18521637100E+03  0.19571265877E+03  0.41800000000E+01 0.  1.
        -11    1    1    2    0    0  0.61174263634E+02  0.27598793283E+02  0.20077205294E+03  0.21169175979E+03  0.00000000000E+00 0.  1.
         11    1    1    2    0    0 -0.16399815984E+02  0.20009824414E+02  0.10643640407E+02  0.27975598627E+02  0.00000000000E+00 0. -1.
</event>
<event>
 7    1  0.2619826E-009  0.1151518E+03  0.7561462E-02  0.1251316E+00
         -1   -1    0    0    0  501 -0.00000000000E+00  0.00000000000E+00  0.23329915274E+03  0.23329915274E+03  0.00000000000E+00 0.  1.
          1   -1    0    0  501    0  0.00000000000E+00 -0.00000000000E+00 -0.74676057974E+02  0.74676057974E+02  0.00000000000E+00 0. -1.
         25    2    1    2    0    0  0.58175876266E+02  0.28180508771E+02  0.41719844939E+02  0.14685405954E+03  0.12508795181E+03 0.  0.
          5    1    3    3  502    0 -0.16318985183E+02 -0.29102517975E+02 -0.15205983534E+02  0.36904744480E+02  0.41800000000E+01 0. -1.
         -5    1    3    3    0  502  0.74494861449E+02  0.57283026746E+02  0.56925828472E+02  0.10994931506E+03  0.41800000000E+01 0. -1.
        -11    1    1    2    0    0 -0.29034622271E+02 -0.55519944389E+02  0.39650098386E+02  0.74145828051E+02  0.00000000000E+00 0. -1.
         11    1    1    2    0    0 -0.29141253995E+02  0.27339435618E+02  0.77253151443E+02  0.86975323122E+02  0.00000000000E+00 0.  1.
</event>
<event>
 7    1  0.2619826E-009  0.8890608E+02  0.7561462E-02  0.1305523E+00
          2   -1    0    0  501    0  0.00000000000E+00  0.00000000000E+00  0.50396013503E+02  0.50396013503E+02  0.00000000000E+00 0. -1.
         -2   -1    0    0    0  501 -0.00000000000E+00 -0.00000000000E+00 -0.32790888068E+03  0.32790888068E+03  0.00000000000E+00 0.  1.
         25    2    1    2    0    0 -0.29101273139E+02  0.10998633302E+02 -0.63171093622E+02  0.14354765450E+03  0.12508991969E+03 0.  0.
          5    1    3    3  502    0 -0.69034465095E+02  0.42836645185E+01 -0.74045140955E+02  0.10141135268E+03  0.41800000000E+01 0.  1.
         -5    1    3    3    0  502  0.39933191956E+02  0.67149687837E+01  0.10874047333E+02  0.42136301819E+02  0.41800000000E+01 0.  1.
        -11    1    1    2    0    0  0.28724605147E+02 -0.34167570370E+02 -0.20494936015E+03  0.20975406083E+03  0.00000000000E+00 0.  1.
         11    1    1    2    0    0  0.37666799179E+00  0.23168937067E+02 -0.93924134018E+01  0.25003178860E+02  0.00000000000E+00 0. -1.
</event>
<event>
 7    1  0.2619826E-009  0.1735085E+03  0.7561462E-02  0.1174238E+00
         -2   -1    0    0    0  501 -0.00000000000E+00  0.00000000000E+00  0.47074511384E+03  0.47074511384E+03  0.00000000000E+00 0.  1.
          2   -1    0    0  501    0  0.00000000000E+00 -0.00000000000E+00 -0.89661294708E+02  0.89661294708E+02  0.00000000000E+00 0. -1.
         25    2    1    2    0    0 -0.14936813335E+03 -0.72324969989E+02  0.12509658802E+03  0.24256138523E+03  0.12508048898E+03 0.  0.
          5    1    3    3  502    0 -0.11524813624E+03 -0.68398312309E+02  0.14904705438E+03  0.20048181676E+03  0.41800000000E+01 0.  1.
         -5    1    3    3    0  502 -0.34119997114E+02 -0.39266576799E+01 -0.23950466358E+02  0.42079568467E+02  0.41800000000E+01 0.  1.
        -11    1    1    2    0    0  0.15392655484E+03  0.60020100778E+02  0.19554788570E+03  0.25599760230E+03  0.00000000000E+00 0. -1.
         11    1    1    2    0    0 -0.45584214869E+01  0.12304869211E+02  0.60439345410E+02  0.61847421016E+02  0.00000000000E+00 0.  1.
</event>
<event>
 7    1  0.2619826E-009  0.8154255E+02  0.7561462E-02  0.1324730E+00
          2   -1    0    0  501    0  0.00000000000E+00  0.00000000000E+00  0.34845578524E+03  0.34845578524E+03  0.00000000000E+00 0. -1.
         -2   -1    0    0    0  501 -0.00000000000E+00 -0.00000000000E+00 -0.38662217261E+02  0.38662217261E+02  0.00000000000E+00 0.  1.
         25    2    1    2    0    0  0.13323748632E+02  0.82661106545E+01  0.24333892070E+03  0.27405061797E+03  0.12507621684E+03 0.  0.
          5    1    3    3  502    0  0.57663507351E+02 -0.94664939107E+01  0.20336071697E+03  0.21163116073E+03  0.41800000000E+01 0. -1.
         -5    1    3    3    0  502 -0.44339758720E+02  0.17732604565E+02  0.39978203733E+02  0.62419457237E+02  0.41800000000E+01 0. -1.
        -11    1    1    2    0    0 -0.13870356054E+02 -0.30927654511E+02 -0.83455827989E+01  0.34907812060E+02  0.00000000000E+00 0.  1.
         11    1    1    2    0    0  0.54660742189E+00  0.22661543856E+02  0.74800230070E+02  0.78159572466E+02  0.00000000000E+00 0. -1.
</event>
<event>
 7    1  0.2619826E-009  0.1722616E+03  0.7561462E-02  0.1175510E+00
         -1   -1    0    0    0  501 -0.00000000000E+00  0.00000000000E+00  0.98750083294E+02  0.98750083294E+02  0.00000000000E+00 0.  1.
          1   -1    0    0  501    0  0.00000000000E+00 -0.00000000000E+00 -0.41969216985E+03  0.41969216985E+03  0.00000000000E+00 0. -1.
         25    2    1    2    0    0 -0.12791667068E+03 -0.80613300346E+02 -0.27007046917E+03  0.33382875554E+03  0.12506958414E+03 0.  0.
          5    1    3    3  502    0 -0.65881162874E+01 -0.68678437567E+02 -0.13607385322E+03  0.15262272764E+03  0.41800000000E+01 0.  1.
         -5    1    3    3    0  502 -0.12132855440E+03 -0.11934862779E+02 -0.13399661595E+03  0.18120602790E+03  0.41800000000E+01 0.  1.
        -11    1    1    2    0    0  0.77346645021E+01  0.14036559153E+02 -0.44250634762E+02  0.47063454024E+02  0.00000000000E+00 0. -1.
         11    1    1    2    0    0  0.12018200618E+03  0.66576741193E+02 -0.66209826239E+01  0.13755004358E+03  0.00000000000E+00 0.  1.
</event>
<event>
 7    1  0.2619826E-009  0.9959561E+02  0.7561462E-02  0.1281149E+00
          2   -1    0    0  501    0  0.00000000000E+00  0.00000000000E+00  0.80806889761E+03  0.80806889761E+03  0.00000000000E+00 0. -1.
         -2   -1    0    0    0  501 -0.00000000000E+00 -0.00000000000E+00 -0.20841643211E+02  0.20841643211E+02  0.00000000000E+00 0.  1.
         25    2    1    2    0    0 -0.40157434068E+02 -0.58274718361E+02  0.41446201992E+03  0.43867366512E+03  0.12508899312E+03 0.  0.
          5    1    3    3  502    0 -0.49412697743E+02 -0.74274596305E+01  0.50961364597E+02  0.71493460795E+02  0.41800000000E+01 0.  1.
         -5    1    3    3    0  502  0.92552636748E+01 -0.50847258731E+02  0.36350065532E+03  0.36718020432E+03  0.41800000000E+01 0.  1.
        -11    1    1    2    0    0  0.12974765178E+02  0.67312566004E+02  0.33943554088E+03  0.34628862599E+03  0.00000000000E+00 0. -1.
         11    1    1    2    0    0  0.27182668890E+02 -0.90378476427E+01  0.33329693602E+02  0.43948249722E+02  0.00000000000E+00 0.  1.
</event>
<event>
 7    1  0.2619826E-009  0.1770693E+03  0.7561462E-02  0.1170670E+00
         -2   -1    0    0    0  501 -0.00000000000E+00  0.00000000000E+00  0.52482004688E+02  0.52482004688E+02  0.00000000000E+00 0.  1.
          2   -1    0    0  501    0  0.00000000000E+00 -0.00000000000E+00 -0.72563035228E+03  0.72563035228E+03  0.00000000000E+00 0. -1.
         25    2    1    2    0    0  0.69396770117E+02 -0.14244642209E+03 -0.42778798482E+03  0.47302974497E+03  0.12509070628E+03 0.  0.
          5    1    3    3  502    0  0.41582522733E+02  0.78740618180E+01 -0.15018463790E+03  0.15608973351E+03  0.41800000000E+01 0.  1.
         -5    1    3    3    0  502  0.27814247384E+02 -0.15032048391E+03 -0.27760334692E+03  0.31694001146E+03  0.41800000000E+01 0.  1.
        -11    1    1    2    0    0 -0.21488887104E+02  0.35533869893E+02 -0.10824698662E+02  0.42913893783E+02  0.00000000000E+00 0.  1.
         11    1    1    2    0    0 -0.47907883013E+02  0.10691255220E+03 -0.23453566411E+03  0.26216871822E+03  0.00000000000E+00 0. -1.
</event>
<event>
 7    1  0.2619826E-009  0.1322146E+03  0.7561462E-02  0.1224206E+00
         -1   -1    0    0    0  501 -0.00000000000E+00  0.00000000000E+00  0.90851888097E+02  0.90851888097E+02  0.00000000000E+00 0.  1.
          1   -1    0    0  501    0  0.00000000000E+00 -0.00000000000E+00 -0.19382238597E+03  0.19382238597E+03  0.00000000000E+00 0. -1.
         25    2    1    2    0    0 -0.76676080136E+02  0.15237228778E+02 -0.49616781193E+02  0.15562993840E+03  0.12508980112E+03 0.  0.
          5    1    3    3  502    0  0.13058340912E+02  0.49203653642E+02 -0.22664285952E+02  0.55880784325E+02  0.41800000000E+01 0.  1.
         -5    1    3    3    0  502 -0.89734421048E+02 -0.33966424864E+02 -0.26952495241E+02  0.99749154075E+02  0.41800000000E+01 0.  1.
        -11    1    1    2    0    0  0.59341626489E+02 -0.50563447474E+02 -0.38857294380E+02  0.87109013204E+02  0.00000000000E+00 0.  1.
         11    1    1    2    0    0  0.17334453647E+02  0.35326218696E+02 -0.14496422301E+02  0.41935322463E+02  0.00000000000E+00 0. -1.
</event>
<event>
 7    1  0.2619826E-009  0.1175176E+03  0.7561462E-02  0.1247249E+00
         -2   -1    0    0    0  501 -0.00000000000E+00  0.00000000000E+00  0.39513838111E+02  0.39513838111E+02  0.00000000000E+00 0.  1.
          2   -1    0    0  501    0  0.00000000000E+00 -0.00000000000E+00 -0.64655090474E+03  0.64655090474E+03  0.00000000000E+00 0. -1.
         25    2    1    2    0    0 -0.95812573900E+02  0.49464609881E+02 -0.41243761436E+03  0.44427300607E+03  0.12508765421E+03 0.  0.
          5    1    3    3  502    0  0.43118336660E+00  0.10280658008E+02 -0.25707681227E+03  0.25731660976E+03  0.41800000000E+01 0.  1.
         -5    1    3    3    0  502 -0.96243757267E+02  0.39183951873E+02 -0.15536080209E+03  0.18695639632E+03  0.41800000000E+01 0.  1.
        -11    1    1    2    0    0  0.75864048848E+01 -0.28165739784E+02 -0.12236782041E+03  0.12579644632E+03  0.00000000000E+00 0. -1.
         11    1    1    2    0    0  0.88226169015E+02 -0.21298870097E+02 -0.72231631858E+02  0.11599529045E+03  0.00000000000E+00 0.  1.
</event>
<event>
 7    1  0.2619826E-009  0.1191483E+03  0.7561462E-02  0.1244509E+00
         -1   -1    0    0    0  501 -0.00000000000E+00  0.00000000000E+00  0.46928606474E+03  0.46928606474E+03  0.00000000000E+00 0.  1.
          1   -1    0    0  501    0  0.00000000000E+00 -0.00000000000E+00 -0.47556429504E+02  0.47556429504E+02  0.00000000000E+00 0. -1.
         25    2    1    2    0    0 -0.13235144697E+01 -0.57949898021E+02  0.37308417946E+03  0.39774528400E+03  0.12509821584E+03 0.  0.
          5    1    3    3  502    0  0.84253171296E+01 -0.93565034938E+02  0.31546201032E+03  0.32917951650E+03  0.41800000000E+01 0.  1.
         -5    1    3    3    0  502 -0.97488315993E+01  0.35615136916E+02  0.57622169145E+02  0.68565767494E+02  0.41800000000E+01 0.  1.
        -11    1    1    2    0    0 -0.18689394536E+02  0.77140228996E+02  0.26720144123E+02  0.83748877602E+02  0.00000000000E+00 0. -1.
         11    1    1    2    0    0  0.20012909006E+02 -0.19190330975E+02  0.21925311650E+02  0.35348332644E+02  0.00000000000E+00 0.  1.
</event>
<event>
 7    1  0.2619826E-009  0.2058194E+03  0.7561462E-02  0.1144920E+00
         -2   -1    0    0    0  501 -0.00000000000E+00  0.00000000000E+00  0.61009508213E+02  0.61009508213E+02  0.00000000000E+00 0.  1.
          2   -1    0    0  501    0  0.00000000000E+00 -0.00000000000E+00 -0.10299570424E+04  0.10299570424E+04  0.00000000000E+00 0. -1.
         25    2    1    2    0    0 -0.67306040203E+02  0.19402496640E+03 -0.29447372991E+03  0.38018352114E+03  0.12509572936E+03 0.  0.
          5    1    3    3  502    0 -0.48712193565E+02  0.12839151135E+03 -0.89129479573E+02  0.16376444827E+03  0.41800000000E+01 0.  1.
         -5    1    3    3    0  502 -0.18593846638E+02  0.65633455052E+02 -0.20534425034E+03  0.21641907287E+03  0.41800000000E+01 0.  1.
        -11    1    1    2    0    0  0.42051935354E+02 -0.98473461719E+02 -0.20787521284E+03  0.23383218778E+03  0.00000000000E+00 0.  1.
         11    1    1    2    0    0  0.25254104848E+02 -0.95551504685E+02 -0.46659859147E+03  0.47695084172E+03  0.00000000000E+00 0. -1.
</event>
<event>
 7    1  0.2619826E-009  0.1357992E+03  0.7561462E-02  0.1219096E+00
          1   -1    0    0  501    0  0.00000000000E+00  0.00000000000E+00  0.31189224440E+03  0.31189224440E+03  0.00000000000E+00 0. -1.
         -1   -1    0    0    0  501 -0.00000000000E+00 -0.00000000000E+00 -0.85979793109E+02  0.85979793109E+02  0.00000000000E+00 0.  1.
         25    2    1    2    0    0  0.11687133556E+03 -0.11175679135E+02  0.78488681895E+02  0.18865856141E+03  0.12509106574E+03 0.  0.
          5    1    3    3  502    0  0.77684635207E+02  0.18805848536E+02 -0.16331945082E+02  0.81687008248E+02  0.41800000000E+01 0. -1.
         -5    1    3    3    0  502  0.39186700358E+02 -0.29981527671E+02  0.94820626978E+02  0.10697155317E+03  0.41800000000E+01 0. -1.
        -11    1    1    2    0    0 -0.21607821095E+02  0.37438071012E+02  0.19117975449E+02  0.47265252340E+02  0.00000000000E+00 0.  1.
         11    1    1    2    0    0 -0.95263514470E+02 -0.26262391876E+02  0.12830579394E+03  0.16194822375E+03  0.00000000000E+00 0. -1.
</event>
<event>
 7    1  0.2619826E-009  0.9303752E+02  0.7561462E-02  0.1295658E+00
          2   -1    0    0  501    0  0.00000000000E+00  0.00000000000E+00  0.14205591467E+04  0.14205591467E+04  0.00000000000E+00 0. -1.
         -2   -1    0    0    0  501 -0.00000000000E+00 -0.00000000000E+00 -0.11334307775E+02  0.11334307775E+02  0.00000000000E+00 0.  1.
         25    2    1    2    0    0  0.21687746760E+02  0.39995608646E+02  0.11444659107E+04  0.11521767390E+04  0.12505602784E+03 0.  0.
          5    1    3    3  502    0 -0.26197066331E+02  0.41367672915E+02  0.96887431205E+03  0.97011982539E+03  0.41800000000E+01 0.  1.
         -5    1    3    3    0  502  0.47884813091E+02 -0.13720642692E+01  0.17559159866E+03  0.18205691364E+03  0.41800000000E+01 0.  1.
        -11    1    1    2    0    0 -0.25377775395E+01 -0.60636355525E+02  0.20224757801E+03  0.21115702862E+03  0.00000000000E+00 0.  1.
         11    1    1    2    0    0 -0.19149969221E+02  0.20640746879E+02  0.62511350152E+02  0.68559686775E+02  0.00000000000E+00 0. -1.
</event>
<event>
 7    1  0.2619826E-009  0.1383461E+03  0.7561462E-02  0.1215572E+00
          1   -1    0    0  501    0  0.00000000000E+00  0.00000000000E+00  0.13713760323E+03  0.13713760323E+03  0.00000000000E+00 0. -1.
         -1   -1    0    0    0  501 -0.00000000000E+00 -0.00000000000E+00 -0.18277249475E+03  0.18277249475E+03  0.00000000000E+00 0.  1.
         25    2    1    2    0    0  0.11177071070E+03  0.84638264369E+01 -0.54614645492E+02  0.17661982941E+03  0.12508987372E+03 0.  0.
          5    1    3    3  502    0  0.22765821035E+02  0.54803245993E+02  0.52118318929E+01  0.59718623314E+02  0.41800000000E+01 0. -1.
         -5    1    3    3    0  502  0.89004889668E+02 -0.46339419557E+02 -0.59826477385E+02  0.11690120609E+03  0.41800000000E+01 0. -1.
        -11    1    1    2    0    0 -0.88983635772E+02 -0.20036453257E+02 -0.30572880987E+02  0.96199001794E+02  0.00000000000E+00 0.  1.
         11    1    1    2    0    0 -0.22787074931E+02  0.11572626821E+02  0.39552634959E+02  0.47091266787E+02  0.00000000000E+00 0. -1.
</event>
<event>
 7    1  0.2619826E-009  0.1009508E+03  0.7561462E-02  0.1278309E+00
          1   -1    0    0  501    0  0.00000000000E+00  0.00000000000E+00  0.61418822888E+03  0.61418822888E+03  0.00000000000E+00 0. -1.
         -1   -1    0    0    0  501 -0.00000000000E+00 -0.00000000000E+00 -0.27573267327E+02  0.27573267327E+02  0.00000000000E+00 0.  1.
         25    2    1    2    0    0  0.21509322486E+02 -0.52792935349E+02  0.21846794767E+03  0.25811897752E+03  0.12508963753E+03 0.  0.
          5    1    3    3  502    0  0.71148013100E+01  0.35547968910E+02  0.11792629891E+03  0.12344376398E+03  0.41800000000E+01 0.  1.
         -5    1    3    3    0  502  0.14394521176E+02 -0.88340904258E+02  0.10054164876E+03  0.13467521354E+03  0.41800000000E+01 0.  1.
        -11    1    1    2    0    0 -0.18564862352E+02  0.62741136386E+02  0.36746564156E+03  0.37324536439E+03  0.00000000000E+00 0. -1.
         11    1    1    2    0    0 -0.29444601338E+01 -0.99482010375E+01  0.68137232143E+00  0.10397154303E+02  0.00000000000E+00 0.  1.
</event>
<event>
 7    1  0.2619826E-009  0.6658970E+02  0.7561462E-02  0.1372090E+00
          1   -1    0    0  501    0  0.00000000000E+00  0.00000000000E+00  0.28588771225E+03  0.28588771225E+03  0.00000000000E+00 0. -1.
         -1   -1    0    0    0  501 -0.00000000000E+00 -0.00000000000E+00 -0.45555933638E+02  0.45555933638E+02  0.00000000000E+00 0.  1.
         25    2    1    2    0    0 -0.11183882614E+02 -0.64541428767E+01  0.18683181194E+03  0.22520990948E+03  0.12508653879E+03 0.  0.
          5    1    3    3  502    0 -0.35504104749E+02 -0.20252728670E+02  0.19210487562E+03  0.19644966305E+03  0.41800000000E+01 0.  1.
         -5    1    3    3    0  502  0.24320222134E+02  0.13798585794E+02 -0.52730636829E+01  0.28760246438E+02  0.41800000000E+01 0.  1.
        -11    1    1    2    0    0  0.12253843875E+02  0.34057584059E+02 -0.95193319851E+01  0.37425838709E+02  0.00000000000E+00 0.  1.
         11    1    1    2    0    0 -0.10699612607E+01 -0.27603441182E+02  0.63019298657E+02  0.68807897696E+02  0.00000000000E+00 0. -1.
</event>
<event>
 7    1  0.2619826E-009  0.1177427E+03  0.7561462E-02  0.1246868E+00
         -2   -1    0    0    0  501 -0.00000000000E+00  0.00000000000E+00  0.22036589313E+02  0.22036589313E+02  0.00000000000E+00 0.  1.
          2   -1    0    0  501    0  0.00000000000E+00 -0.00000000000E+00 -0.10162416544E+04  0.10162416544E+04  0.00000000000E+00 0. -1.
         25    2    1    2    0    0 -0.77644209959E+01  0.86292679758E+02 -0.72930927681E+03  0.74501465964E+03  0.12509240192E+03 0.  0.
          5    1    3    3  502    0 -0.26435534299E+02  0.64146370298E+01 -0.29284558696E+02  0.40187595348E+02  0.41800000000E+01 0.  1.
         -5    1    3    3    0  502  0.18671113303E+02  0.79878042728E+02 -0.70002471812E+03  0.70482706429E+03  0.41800000000E+01 0.  1.
        -11    1    1    2    0    0 -0.29378947641E+02  0.25915146003E+01 -0.60854479342E+02  0.67624745238E+02  0.00000000000E+00 0.  1.
         11    1    1    2    0    0  0.37143368637E+02 -0.88884194358E+02 -0.20404130892E+03  0.22563883882E+03  0.00000000000E+00 0. -1.
</event>
<event>
 7    1  0.2619826E-009  0.1231136E+03  0.7561462E-02  0.1238047E+00
         -2   -1    0    0    0  501 -0.00000000000E+00  0.00000000000E+00  0.45057640142E+03  0.45057640142E+03  0.00000000000E+00 0.  1.
          2   -1    0    0  501    0  0.00000000000E+00 -0.00000000000E+00 -0.98233037645E+02  0.98233037645E+02  0.00000000000E+00 0. -1.
         25    2    1    2    0    0 -0.88762605286E+02  0.33286442643E+02 -0.15885001448E+02  0.15775434948E+03  0.12508922474E+03 0.  0.
          5    1    3    3  502    0 -0.16293478775E+02 -0.42153660212E+02 -0.26449397413E+02  0.52530482040E+02  0.41800000000E+01 0.  1.
         -5    1    3    3    0  502 -0.72469126510E+02  0.75440102855E+02  0.10564395964E+02  0.10522386744E+03  0.41800000000E+01 0.  1.
        -11    1    1    2    0    0  0.13948162781E+02  0.72393025104E+00  0.20605263188E+00  0.13968456524E+02  0.00000000000E+00 0. -1.
         11    1    1    2    0    0  0.74814442504E+02 -0.34010372894E+02  0.36802231259E+03  0.37708663306E+03  0.00000000000E+00 0.  1.
</event>
<event>
 7    1  0.2619826E-009  0.9888117E+02  0.7561462E-02  0.1282666E+00
         -3   -1    0    0    0  501 -0.00000000000E+00  0.00000000000E+00  0.12419621012E+03  0.12419621012E+03  0.00000000000E+00 0.  1.
          3   -1    0    0  501    0  0.00000000000E+00 -0.00000000000E+00 -0.11300754892E+03  0.11300754892E+03  0.00000000000E+00 0. -1.
         25    2    1    2    0    0  0.30654508792E+02  0.37613935572E+02 -0.25934451621E+01  0.13422021566E+03  0.12511527995E+03 0.  0.
          5    1    3    3  502    0  0.68514885601E+02  0.74998790542E+01 -0.33411497045E+02  0.76709440550E+02  0.41800000000E+01 0.  1.
         -5    1    3    3    0  502 -0.37860376809E+02  0.30114056518E+02  0.30818051883E+02  0.57510775112E+02  0.41800000000E+01 0.  1.
        -11    1    1    2    0    0 -0.46558405110E+02 -0.90028915254E+01 -0.23871587758E+02  0.53090393145E+02  0.00000000000E+00 0. -1.
         11    1    1    2    0    0  0.15903896318E+02 -0.28611044047E+02  0.37653694118E+02  0.49893150234E+02  0.00000000000E+00 0.  1.
</event>
<event>
 7    1  0.2619826E-009  0.9151026E+02  0.7561462E-02  0.1299235E+00
         -1   -1    0    0    0  501 -0.00000000000E+00  0.00000000000E+00  0.16526812567E+03  0.16526812567E+03  0.00000000000E+00 0.  1.
          1   -1    0    0  501    0  0.00000000000E+00 -0.00000000000E+00 -0.80931065239E+02  0.80931065239E+02  0.00000000000E+00 0. -1.
         25    2    1    2    0    0  0.23846949115E+02 -0.62917190085E+01  0.16920739309E+02  0.12862056583E+03  0.12509466745E+03 0.  0.
          5    1    3    3  502    0  0.32302935045E+02 -0.46301150149E+02  0.50253583514E+02  0.75697894117E+02  0.41800000000E+01 0.  1.
         -5    1    3    3    0  502 -0.84559859302E+01  0.40009431141E+02 -0.33332844205E+02  0.52922671711E+02  0.41800000000E+01 0.  1.
        -11    1    1    2    0    0  0.29034669477E+02 -0.87499023509E+01 -0.33506623641E+00  0.30326310230E+02  0.00000000000E+00 0.  1.
         11    1    1    2    0    0 -0.52881618592E+02  0.15041621359E+02  0.67751387358E+02  0.87252314852E+02  0.00000000000E+00 0. -1.
</event>
<event>
 7    1  0.2619826E-009  0.1167979E+03  0.7561462E-02  0.1248475E+00
         -1   -1    0    0    0  501 -0.00000000000E+00  0.00000000000E+00  0.72528694810E+02  0.72528694810E+02  0.00000000000E+00 0.  1.
          1   -1    0    0  501    0  0.00000000000E+00 -0.00000000000E+00 -0.20903356947E+03  0.20903356947E+03  0.00000000000E+00 0. -1.
         25    2    1    2    0    0  0.33107179817E+02 -0.33863022619E+02 -0.11714771171E+03  0.17780544212E+03  0.12509356191E+03 0.  0.
          5    1    3    3  502    0  0.78044789523E+02 -0.54451247692E+01 -0.54020353342E+02  0.95164644331E+02  0.41800000000E+01 0. -1.
         -5    1    3    3    0  502 -0.44937609706E+02 -0.28417897849E+02 -0.63127358365E+02  0.82640797784E+02  0.41800000000E+01 0. -1.
        -11    1    1    2    0    0  0.15271773656E+02  0.48920169291E+02 -0.87398182875E+01  0.51988406956E+02  0.00000000000E+00 0. -1.
         11    1    1    2    0    0 -0.48378953473E+02 -0.15057146673E+02 -0.10617344661E+02  0.51768415204E+02  0.00000000000E+00 0.  1.
</event>
<event>
 7    1  0.2619826E-009  0.1095257E+03  0.7561462E-02  0.1261451E+00
         -2   -1    0    0    0  501 -0.00000000000E+00  0.00000000000E+00  0.12212159162E+02  0.12212159162E+02  0.00000000000E+00 0.  1.
          2   -1    0    0  501    0  0.00000000000E+00 -0.00000000000E+00 -0.16105996188E+04  0.16105996188E+04  0.00000000000E+00 0. -1.
         25    2    1    2    0    0  0.14105332168E+02 -0.18347401533E+02 -0.13550906678E+04  0.13610489120E+04  0.12509130846E+03 0.  0.
          5    1    3    3  502    0  0.46402828876E+02  0.38180895994E+02 -0.53922473369E+03  0.54257883221E+03  0.41800000000E+01 0.  1.
         -5    1    3    3    0  502 -0.32297496708E+02 -0.56528297527E+02 -0.81586593409E+03  0.81847007980E+03  0.41800000000E+01 0.  1.
        -11    1    1    2    0    0  0.31579442839E+02 -0.16952982788E+02 -0.63415726767E+02  0.72843800264E+02  0.00000000000E+00 0.  1.
         11    1    1    2    0    0 -0.45684775007E+02  0.35300384322E+02 -0.17988106507E+03  0.18891906566E+03  0.00000000000E+00 0. -1.
</event>
<event>
 7    1  0.2619826E-009  0.1209029E+03  0.7561462E-02  0.1241615E+00
         -2   -1    0    0    0  501 -0.00000000000E+00  0.00000000000E+00  0.38302645460E+02  0.38302645460E+02  0.00000000000E+00 0.  1.
          2   -1    0    0  501    0  0.00000000000E+00 -0.00000000000E+00 -0.48053445807E+03  0.48053445807E+03  0.00000000000E+00 0. -1.
         25    2    1    2    0    0 -0.59024923301E+02  0.26722304790E+02 -0.15527886752E+03  0.20965815413E+03  0.12508793607E+03 0.  0.
          5    1    3    3  502    0 -0.96882303566E+02  0.29877276615E+02 -0.12432449112E+03  0.16047705099E+03  0.41800000000E+01 0. -1.
         -5    1    3    3    0  502  0.37857380265E+02 -0.31549718246E+01 -0.30954376401E+02  0.49181103140E+02  0.41800000000E+01 0. -1.
        -11    1    1    2    0    0  0.33172042852E+02 -0.54732222696E+02 -0.10258453088E+03  0.12091148252E+03  0.00000000000E+00 0.  1.
         11    1    1    2    0    0  0.25852880449E+02  0.28009917906E+02 -0.18436841421E+03  0.18826746689E+03  0.00000000000E+00 0. -1.
</event>
<event>
 7    1  0.2619826E-009  0.2893531E+03  0.7561462E-02  0.1090687E+00
         -2   -1    0    0    0  501 -0.00000000000E+00  0.00000000000E+00  0.98688766280E+02  0.98688766280E+02  0.00000000000E+00 0.  1.
          2   -1    0    0  501    0  0.00000000000E+00 -0.00000000000E+00 -0.10307011277E+04  0.10307011277E+04  0.00000000000E+00 0. -1.
         25    2    1    2    0    0 -0.10097740637E+03  0.25776051297E+03 -0.27197395205E+03  0.40774246501E+03  0.12508864273E+03 0.  0.
          5    1    3    3  502    0  0.14761986226E+02  0.19893576415E+02  0.40008238151E+01  0.25439135424E+02  0.41800000000E+01 0.  1.
         -5    1    3    3    0  502 -0.11573939259E+03  0.23786693655E+03 -0.27597477586E+03  0.38230332959E+03  0.41800000000E+01 0.  1.
        -11    1    1    2    0    0  0.10590946594E+03 -0.16459971796E+03 -0.49099791078E+03  0.52857244585E+03  0.00000000000E+00 0. -1.
         11    1    1    2    0    0 -0.49320595794E+01 -0.93160795009E+02 -0.16904049858E+03  0.19307498310E+03  0.00000000000E+00 0.  1.
</event>
<event>
 7    1  0.2619826E-009  0.1389277E+03  0.7561462E-02  0.1214779E+00
         -2   -1    0    0    0  501 -0.00000000000E+00  0.00000000000E+00  0.20618739533E+03  0.20618739533E+03  0.00000000000E+00 0.  1.
          2   -1    0    0  501    0  0.00000000000E+00 -0.00000000000E+00 -0.17851390833E+03  0.17851390833E+03  0.00000000000E+00 0. -1.
         25    2    1    2    0    0 -0.80013075953E+01  0.86652388378E+02  0.14672036910E+03  0.21153005306E+03  0.12508173050E+03 0.  0.
          5    1    3    3  502    0  0.51353834895E+02  0.58487142560E+01  0.54805023408E+02  0.75448570614E+02  0.41800000000E+01 0. -1.
         -5    1    3    3    0  502 -0.59355142491E+02  0.80803674122E+02  0.91915345688E+02  0.13608148245E+03  0.41800000000E+01 0. -1.
        -11    1    1    2    0    0  0.42316082541E+02 -0.12787161699E+02 -0.45362886341E+02  0.63339985816E+02  0.00000000000E+00 0.  1.
         11    1    1    2    0    0 -0.34314774946E+02 -0.73865226679E+02 -0.73683995756E+02  0.10983126478E+03  0.00000000000E+00 0. -1.
</event>
<event>
 7    1  0.2675269E-009  0.8954694E+02  0.7561462E-02  0.1303953E+00
         -2   -1    0    0    0  501 -0.00000000000E+00  0.00000000000E+00  0.77628264652E+02  0.77628264652E+02  0.00000000000E+00 0.  1.
          2   -1    0    0  501    0  0.00000000000E+00 -0.00000000000E+00 -0.16147102992E+03  0.16147102992E+03  0.00000000000E+00 0. -1.
         25    2    1    2    0    0  0.78397363310E+01 -0.17742652587E+02 -0.70833020717E+02  0.14505203200E+03  0.12508601831E+03 0.  0.
          5    1    3    3  502    0  0.31326155868E+02 -0.65507072908E+02 -0.46904074181E+02  0.86544608250E+02  0.41800000000E+01 0. -1.
         -5    1    3    3    0  502 -0.23486419537E+02  0.47764420321E+02 -0.23928946536E+02  0.58507423747E+02  0.41800000000E+01 0. -1.
        -11    1    1    2    0    0  0.15713306074E+02  0.23922043081E+02  0.31963557067E+02  0.42905024337E+02  0.00000000000E+00 0.  1.
         11    1    1    2    0    0 -0.23553042405E+02 -0.61793904941E+01 -0.44973301615E+02  0.51142238233E+02  0.00000000000E+00 0. -1.
</event>
<event>
 7    1  0.2619826E-009  0.9945121E+02  0.7561462E-02  0.1281454E+00
          2   -1    0    0  501    0  0.00000000000E+00  0.00000000000E+00  0.43067447712E+03  0.43067447712E+03  0.00000000000E+00 0. -1.
         -2   -1    0    0    0  501 -0.00000000000E+00 -0.00000000000E+00 -0.36645612305E+02  0.36645612305E+02  0.00000000000E+00 0.  1.
         25    2    1    2    0    0  0.29283345053E+02 -0.15882188164E+02  0.32056893659E+03  0.34571865042E+03  0.12508870431E+03 0.  0.
          5    1    3    3  502    0  0.69431509336E+02 -0.33098086444E+02  0.13895183763E+03  0.15887511887E+03  0.41800000000E+01 0. -1.
         -5    1    3    3    0  502 -0.40148164283E+02  0.17215898280E+02  0.18161709895E+03  0.18684353155E+03  0.41800000000E+01 0. -1.
        -11    1    1    2    0    0 -0.34991076458E+02  0.40034716113E+02  0.79887880779E+02  0.95964719670E+02  0.00000000000E+00 0. -1.
         11    1    1    2    0    0  0.57077314055E+01 -0.24152527949E+02 -0.64279525526E+01  0.25636719333E+02  0.00000000000E+00 0.  1.
</event>
<event>
 7    1  0.2619826E-009  0.6800053E+02  0.7561462E-02  0.1367027E+00
         -1   -1    0    0    0  501 -0.00000000000E+00  0.00000000000E+00  0.86978858120E+02  0.86978858120E+02  0.00000000000E+00 0.  1.
          1   -1    0    0  501    0  0.00000000000E+00 -0.00000000000E+00 -0.15990890049E+03  0.15990890049E+03  0.00000000000E+00 0. -1.
         25    2    1    2    0    0 -0.43798331967E+02 -0.34898854263E+01 -0.55894606212E+02  0.14388089509E+03  0.12508809609E+03 0.  0.
          5    1    3    3  502    0 -0.47779710345E+02  0.15674468039E+02 -0.90665600997E+02  0.10376084653E+03  0.41800000000E+01 0. -1.
         -5    1    3    3    0  502  0.39813783784E+01 -0.19164353465E+02  0.34770994786E+02  0.40120048553E+02  0.41800000000E+01 0. -1.
        -11    1    1    2    0    0 -0.62212725005E+01 -0.11701090796E+02  0.29929955014E+02  0.32732582613E+02  0.00000000000E+00 0.  1.
         11    1    1    2    0    0  0.50019604467E+02  0.15190976222E+02 -0.46965391173E+02  0.70274280912E+02  0.00000000000E+00 0. -1.
</event>
<event>
 7    1  0.2724043E-009  0.1114308E+03  0.7561462E-02  0.1257943E+00
         -1   -1    0    0    0  501 -0.00000000000E+00  0.00000000000E+00  0.25009609642E+02  0.25009609642E+02  0.00000000000E+00 0.  1.
          1   -1    0    0  501    0  0.00000000000E+00 -0.00000000000E+00 -0.59685481187E+03  0.59685481187E+03  0.00000000000E+00 0. -1.
         25    2    1    2    0    0 -0.44982558225E+02 -0.33251393143E+02 -0.30364799730E+03  0.33313434407E+03  0.12508916518E+03 0.  0.
          5    1    3    3  502    0 -0.75819752097E+02 -0.40445243014E+02 -0.12557917220E+03  0.15222369520E+03  0.41800000000E+01 0. -1.
         -5    1    3    3    0  502  0.30837193872E+02  0.71938498704E+01 -0.17806882510E+03  0.18091064887E+03  0.41800000000E+01 0. -1.
        -11    1    1    2    0    0  0.14043357759E+02  0.61444832718E+02 -0.13257237781E+03  0.14679277477E+03  0.00000000000E+00 0.  1.
         11    1    1    2    0    0  0.30939200466E+02 -0.28193439575E+02 -0.13562482712E+03  0.14193730268E+03  0.00000000000E+00 0. -1.
</event>
<event>
 7    1  0.2619826E-009  0.2328663E+03  0.7561462E-02  0.1124638E+00
         -2   -1    0    0    0  501 -0.00000000000E+00  0.00000000000E+00  0.89958514874E+03  0.89958514874E+03  0.00000000000E+00 0.  1.
          2   -1    0    0  501    0  0.00000000000E+00 -0.00000000000E+00 -0.83793118055E+02  0.83793118055E+02  0.00000000000E+00 0. -1.
         25    2    1    2    0    0  0.20322548160E+03  0.11334407834E+03  0.24482003865E+03  0.36018312836E+03  0.12509020010E+03 0.  0.
          5    1    3    3  502    0  0.60254284488E+02  0.37062951699E+02  0.16483439724E+03  0.17942154860E+03  0.41800000000E+01 0. -1.
         -5    1    3    3    0  502  0.14297119711E+03  0.76281126644E+02  0.79985641413E+02  0.18076157976E+03  0.41800000000E+01 0. -1.
        -11    1    1    2    0    0 -0.72471225164E+02 -0.37289244995E+02  0.10277238090E+03  0.13116679666E+03  0.00000000000E+00 0. -1.
         11    1    1    2    0    0 -0.13075425643E+03 -0.76054833347E+02  0.46819961113E+03  0.49202834178E+03  0.00000000000E+00 0.  1.
</event>
<event>
 7    1  0.3475744E-009  0.1662370E+03  0.7561462E-02  0.1181830E+00
         -1   -1    0    0    0  501 -0.00000000000E+00  0.00000000000E+00  0.48729899868E+02  0.48729899868E+02  0.00000000000E+00 0.  1.
          1   -1    0    0  501    0  0.00000000000E+00 -0.00000000000E+00 -0.76446314490E+03  0.76446314490E+03  0.00000000000E+00 0. -1.
         25    2    1    2    0    0 -0.13279851359E+03 -0.51523915157E+02 -0.22519065764E+03  0.29436571701E+03  0.12510069551E+03 0.  0.
          5    1    3    3  502    0 -0.10484465307E+03  0.20223004687E+02 -0.16482942793E+03  0.19643722638E+03  0.41800000000E+01 0. -1.
         -5    1    3    3    0  502 -0.27953860525E+02 -0.71746919844E+02 -0.60361229703E+02  0.97928490627E+02  0.41800000000E+01 0. -1.
        -11    1    1    2    0    0  0.49142340723E+02  0.41358101520E+02 -0.34258070365E+03  0.34854985401E+03  0.00000000000E+00 0. -1.
         11    1    1    2    0    0  0.83656172872E+02  0.10165813637E+02 -0.14796188375E+03  0.17027747376E+03  0.00000000000E+00 0.  1.
</event>
<event>
 7    1  0.2619826E-009  0.1146216E+03  0.7561462E-02  0.1252243E+00
         -1   -1    0    0    0  501 -0.00000000000E+00  0.00000000000E+00  0.78847483681E+02  0.78847483681E+02  0.00000000000E+00 0.  1.
          1   -1    0    0  501    0  0.00000000000E+00 -0.00000000000E+00 -0.23065547477E+03  0.23065547477E+03  0.00000000000E+00 0. -1.
         25    2    1    2    0    0 -0.61407971471E+02  0.42035767404E+02 -0.53044968914E+02  0.15491794321E+03  0.12509138940E+03 0.  0.
          5    1    3    3  502    0 -0.29070506407E+02 -0.40499244313E+02  0.27326566175E+01  0.50102125154E+02  0.41800000000E+01 0. -1.
         -5    1    3    3    0  502 -0.32337465064E+02  0.82535011717E+02 -0.55777625532E+02  0.10481581806E+03  0.41800000000E+01 0. -1.
        -11    1    1    2    0    0  0.48386269339E+02 -0.54198635026E+02 -0.22192558157E+02  0.75968629952E+02  0.00000000000E+00 0.  1.
         11    1    1    2    0    0  0.13021702132E+02  0.12162867622E+02 -0.76570464016E+02  0.78616385282E+02  0.00000000000E+00 0. -1.
</event>
<event>
 7    1  0.2619826E-009  0.6848651E+02  0.7561462E-02  0.1365317E+00
         -2   -1    0    0    0  501 -0.00000000000E+00  0.00000000000E+00  0.61764354746E+02  0.61764354746E+02  0.00000000000E+00 0. -1.
          2   -1    0    0  501    0  0.00000000000E+00 -0.00000000000E+00 -0.19688801983E+03  0.19688801983E+03  0.00000000000E+00 0.  1.
         25    2    1    2    0    0  0.26141863663E+02 -0.61155246962E+00 -0.70532750517E+02  0.14596603159E+03  0.12508973759E+03 0.  0.
          5    1    3    3  502    0  0.16028258901E+02  0.18600072850E+02  0.32297526084E+02  0.40785663959E+02  0.41800000000E+01 0.  1.
         -5    1    3    3    0  502  0.10113604762E+02 -0.19211625320E+02 -0.10283027660E+03  0.10518036763E+03  0.41800000000E+01 0.  1.
        -11    1    1    2    0    0 -0.24389227820E+02  0.41980261438E+02 -0.47404267964E+02  0.67855297547E+02  0.00000000000E+00 0.  1.
         11    1    1    2    0    0 -0.17526358429E+01 -0.41368708968E+02 -0.17186646607E+02  0.44831045445E+02  0.00000000000E+00 0. -1.
</event>
<event>
 7    1  0.2619826E-009  0.7132120E+02  0.7561462E-02  0.1355657E+00
         -2   -1    0    0    0  501 -0.00000000000E+00  0.00000000000E+00  0.44044492200E+02  0.44044492200E+02  0.00000000000E+00 0.  1.
          2   -1    0    0  501    0  0.00000000000E+00 -0.00000000000E+00 -0.44326321684E+03  0.44326321684E+03  0.00000000000E+00 0. -1.
         25    2    1    2    0    0  0.24834135624E+02  0.42002745997E+02 -0.34802766829E+03  0.37302929865E+03  0.12508650922E+03 0.  0.
          5    1    3    3  502    0  0.42250717645E+02  0.11144960311E+02 -0.30377531728E+02  0.53381645870E+02  0.41800000000E+01 0.  1.
         -5    1    3    3    0  502 -0.17416582021E+02  0.30857785686E+02 -0.31765013656E+03  0.31964765278E+03  0.41800000000E+01 0.  1.
        -11    1    1    2    0    0  0.76485681338E+01 -0.25521595679E+02  0.20664809019E+02  0.33717751590E+02  0.00000000000E+00 0.  1.
         11    1    1    2    0    0 -0.32482703758E+02 -0.16481150318E+02 -0.71855865367E+02  0.80560658804E+02  0.00000000000E+00 0. -1.
</event>
<event>
 7    1  0.2619826E-009  0.1422775E+03  0.7561462E-02  0.1210297E+00
          2   -1    0    0  501    0  0.00000000000E+00  0.00000000000E+00  0.18140467832E+03  0.18140467832E+03  0.00000000000E+00 0. -1.
         -2   -1    0    0    0  501 -0.00000000000E+00 -0.00000000000E+00 -0.14069220761E+03  0.14069220761E+03  0.00000000000E+00 0.  1.
         25    2    1    2    0    0 -0.13247133910E+02  0.10335796598E+03 -0.33047789592E+02  0.16612385412E+03  0.12508646138E+03 0.  0.
          5    1    3    3  502    0 -0.13406515847E+02 -0.26499762868E+02  0.57344843279E+01  0.30534059830E+02  0.41800000000E+01 0. -1.
         -5    1    3    3    0  502  0.15938193663E+00  0.12985772885E+03 -0.38782273920E+02  0.13558979429E+03  0.41800000000E+01 0. -1.
        -11    1    1    2    0    0  0.41074107660E+02 -0.52413665472E+02  0.61678951126E+01  0.66875388436E+02  0.00000000000E+00 0.  1.
         11    1    1    2    0    0 -0.27826973750E+02 -0.50944300512E+02  0.67592365191E+02  0.89097643375E+02  0.00000000000E+00 0. -1.
</event>
<event>
 7    1  0.2619826E-009  0.9147996E+02  0.7561462E-02  0.1299307E+00
         -3   -1    0    0    0  501 -0.00000000000E+00  0.00000000000E+00  0.14744246194E+03  0.14744246194E+03  0.00000000000E+00 0.  1.
          3   -1    0    0  501    0  0.00000000000E+00 -0.00000000000E+00 -0.10746985845E+03  0.10746985845E+03  0.00000000000E+00 0. -1.
         25    2    1    2    0    0 -0.42193799939E+02 -0.24783549117E+02 -0.18345638482E+02  0.13556615827E+03  0.12508828784E+03 0.  0.
          5    1    3    3  502    0  0.61281330137E+01 -0.64110885446E+02 -0.31402222811E+02  0.71772777878E+02  0.41800000000E+01 0.  1.
         -5    1    3    3    0  502 -0.48321932953E+02  0.39327336328E+02  0.13056584329E+02  0.63793380388E+02  0.41800000000E+01 0.  1.
        -11    1    1    2    0    0  0.82744772744E+01 -0.59617738326E+01 -0.23485188823E+02  0.25603980461E+02  0.00000000000E+00 0. -1.
         11    1    1    2    0    0  0.33919322665E+02  0.30745322950E+02  0.81803430790E+02  0.93742181660E+02  0.00000000000E+00 0.  1.
</event>
<event>
 6    1  0.2619826E-009  0.1433202E+03  0.7561462E-02  0.1208930E+00
         -1   -1    0    0    0  501 -0.00000000000E+00  0.00000000000E+00  0.33940082563E+03  0.33940082563E+03  0.00000000000E+00 0.  1.
          1   -1    0    0  501    0  0.00000000000E+00 -0.00000000000E+00 -0.87994002092E+02  0.87994002092E+02  0.00000000000E+00 0. -1.
          5    1    1    2  502    0 -0.55845570186E+02 -0.20267410776E+02  0.41037726707E+02  0.72326088393E+02  0.41800000000E+01 0.  1.
         -5    1    1    2    0  502 -0.22037366787E+02  0.88117199292E+02 -0.14085848884E+02  0.92011792096E+02  0.41800000000E+01 0.  1.
        -11    1    1    2    0    0  0.52242453795E+02  0.10874470771E+02  0.72651977900E+02  0.90143430076E+02  0.00000000000E+00 0. -1.
         11    1    1    2    0    0  0.25640483178E+02 -0.78724259287E+02  0.15180296781E+03  0.17291351715E+03  0.00000000000E+00 0.  1.
</event>
<event>
 7    1  0.2619826E-009  0.1229643E+03  0.7561462E-02  0.1238285E+00
          3   -1    0    0  501    0  0.00000000000E+00  0.00000000000E+00  0.58721445946E+03  0.58721445946E+03  0.00000000000E+00 0. -1.
         -3   -1    0    0    0  501 -0.00000000000E+00 -0.00000000000E+00 -0.40435329467E+02  0.40435329467E+02  0.00000000000E+00 0.  1.
         25    2    1    2    0    0 -0.95534393531E+02 -0.34837047232E+02  0.38004345049E+03  0.41282100090E+03  0.12509082426E+03 0.  0.
          5    1    3    3  502    0 -0.11024684055E+03 -0.19314550217E+02  0.18285040076E+03  0.21442751493E+03  0.41800000000E+01 0. -1.
         -5    1    3    3    0  502  0.14712447023E+02 -0.15522497015E+02  0.19719304973E+03  0.19839348596E+03  0.41800000000E+01 0. -1.
        -11    1    1    2    0    0  0.56654876756E+02  0.44533513313E+02  0.15822793744E+03  0.17386514618E+03  0.00000000000E+00 0. -1.
         11    1    1    2    0    0  0.38879516776E+02 -0.96964660806E+01  0.85077420657E+01  0.40963641857E+02  0.00000000000E+00 0.  1.
</event>
<event>
 7    1  0.2619826E-009  0.9306642E+02  0.7561462E-02  0.1295591E+00
          2   -1    0    0  501    0  0.00000000000E+00  0.00000000000E+00  0.42918191634E+03  0.42918191634E+03  0.00000000000E+00 0.  1.
         -2   -1    0    0    0  501 -0.00000000000E+00 -0.00000000000E+00 -0.33366293574E+02  0.33366293574E+02  0.00000000000E+00 0. -1.
         25    2    1    2    0    0 -0.71354452512E+01  0.44493907211E+01  0.31842710358E+03  0.34221937721E+03  0.12509024817E+03 0.  0.
          5    1    3    3  502    0  0.56609718233E+02  0.18869553284E+02  0.15752677993E+03  0.16850186656E+03  0.41800000000E+01 0. -1.
         -5    1    3    3    0  502 -0.63745163484E+02 -0.14420162563E+02  0.16090032364E+03  0.17371751065E+03  0.41800000000E+01 0. -1.
        -11    1    1    2    0    0  0.53235484967E+00  0.27851489675E+02 -0.78458585350E+01  0.28940393483E+02  0.00000000000E+00 0. -1.
         11    1    1    2    0    0  0.66030904015E+01 -0.32300880396E+02  0.85234377720E+02  0.91388439217E+02  0.00000000000E+00 0.  1.
</event>
<event>
 7    1  0.2619826E-009  0.1999873E+03  0.7561462E-02  0.1149750E+00
         -2   -1    0    0    0  501 -0.00000000000E+00  0.00000000000E+00  0.43974786209E+02  0.43974786209E+02  0.00000000000E+00 0.  1.
          2   -1    0    0  501    0  0.00000000000E+00 -0.00000000000E+00 -0.95677220696E+03  0.95677220696E+03  0.00000000000E+00 0. -1.
         25    2    1    2    0    0 -0.75325673695E+01 -0.16902343821E+03 -0.38257234239E+03  0.43661721847E+03  0.12508931236E+03 0.  0.
          5    1    3    3  502    0  0.56864477285E+02 -0.84471392741E+02 -0.21827668468E+03  0.24089659284E+03  0.41800000000E+01 0.  1.
         -5    1    3    3    0  502 -0.64397044655E+02 -0.84552045471E+02 -0.16429565771E+03  0.19572062562E+03  0.41800000000E+01 0.  1.
        -11    1    1    2    0    0  0.43813740737E+02  0.13509483761E+03 -0.41586646134E+03  0.43944871452E+03  0.00000000000E+00 0. -1.
         11    1    1    2    0    0 -0.36281173367E+02  0.33928600601E+02 -0.11435861702E+03  0.12468106017E+03  0.00000000000E+00 0.  1.
</event>
<event>
 7    1  0.2619826E-009  0.1079555E+03  0.7561462E-02  0.1264403E+00
          1   -1    0    0  501    0  0.00000000000E+00  0.00000000000E+00  0.21293721296E+03  0.21293721296E+03  0.00000000000E+00 0.  1.
         -1   -1    0    0    0  501 -0.00000000000E+00 -0.00000000000E+00 -0.76838114382E+02  0.76838114382E+02  0.00000000000E+00 0. -1.
         25    2    1    2    0    0 -0.59501584835E+02 -0.65679374885E+01  0.42432383144E+02  0.14502236079E+03  0.12508957427E+03 0.  0.
          5    1    3    3  502    0  0.13214707994E+02 -0.43608873029E+02  0.43735681593E+02  0.63298061254E+02  0.41800000000E+01 0.  1.
         -5    1    3    3    0  502 -0.72716292828E+02  0.37040935540E+02 -0.13032984483E+01  0.81724299540E+02  0.41800000000E+01 0.  1.
        -11    1    1    2    0    0  0.35571232086E+02  0.35930240625E+02  0.94154723590E+02  0.10687098165E+03  0.00000000000E+00 0.  1.
         11    1    1    2    0    0  0.23930352749E+02 -0.29362303136E+02 -0.48800815831E+00  0.37881984902E+02  0.00000000000E+00 0. -1.
</event>
<event>
 7    1  0.2619826E-009  0.1863995E+03  0.7561462E-02  0.1161749E+00
          2   -1    0    0  501    0  0.00000000000E+00  0.00000000000E+00  0.30670707855E+03  0.30670707855E+03  0.00000000000E+00 0. -1.
         -2   -1    0    0    0  501 -0.00000000000E+00 -0.00000000000E+00 -0.12198475056E+03  0.12198475056E+03  0.00000000000E+00 0.  1.
         25    2    1    2    0    0  0.10861504875E+03 -0.11626781655E+03  0.12032034897E+03  0.23545703391E+03  0.12509034519E+03 0.  0.
          5    1    3    3  502    0  0.16873304675E+02  0.24619763921E+02  0.27586369983E+01  0.30264230772E+02  0.41800000000E+01 0.  1.
         -5    1    3    3    0  502  0.91741744076E+02 -0.14088758047E+03  0.11756171197E+03  0.20519280314E+03  0.41800000000E+01 0.  1.
        -11    1    1    2    0    0 -0.35995603744E+02  0.90555243834E+02  0.80341482096E+01  0.97777723497E+02  0.00000000000E+00 0.  1.
         11    1    1    2    0    0 -0.72619445006E+02  0.25712572717E+02  0.56367830804E+02  0.95457071704E+02  0.00000000000E+00 0. -1.
</event>
<event>
 7    1  0.2619826E-009  0.1064723E+03  0.7561462E-02  0.1267246E+00
          1   -1    0    0  501    0  0.00000000000E+00  0.00000000000E+00  0.82420434653E+03  0.82420434653E+03  0.00000000000E+00 0. -1.
         -1   -1    0    0    0  501 -0.00000000000E+00 -0.00000000000E+00 -0.27891378340E+02  0.27891378340E+02  0.00000000000E+00 0.  1.
         25    2    1    2    0    0  0.47225227593E+02  0.34862486971E+02  0.67733236148E+03  0.69128284241E+03  0.12508886914E+03 0.  0.
          5    1    3    3  502    0  0.84381849650E+02  0.24188702574E+02  0.57744376285E+03  0.58409259672E+03  0.41800000000E+01 0. -1.
         -5    1    3    3    0  502 -0.37156622056E+02  0.10673784397E+02  0.99888598630E+02  0.10719024570E+03  0.41800000000E+01 0. -1.
        -11    1    1    2    0    0 -0.62061946514E+02 -0.20063268024E+02  0.34529168372E+02  0.73800294020E+02  0.00000000000E+00 0.  1.
         11    1    1    2    0    0  0.14836718921E+02 -0.14799218947E+02  0.84451438337E+02  0.87012588440E+02  0.00000000000E+00 0. -1.
</event>
<event>
 7    1  0.2619826E-009  0.9697938E+02  0.7561462E-02  0.1286779E+00
          1   -1    0    0  501    0  0.00000000000E+00  0.00000000000E+00  0.54393000315E+03  0.54393000315E+03  0.00000000000E+00 0. -1.
         -1   -1    0    0    0  501 -0.00000000000E+00 -0.00000000000E+00 -0.29532891812E+02  0.29532891812E+02  0.00000000000E+00 0.  1.
         25    2    1    2    0    0  0.47147912407E+02 -0.39503180768E+02  0.31461590073E+03  0.34411403024E+03  0.12509146207E+03 0.  0.
          5    1    3    3  502    0  0.24459795720E+02  0.23116430657E+02  0.14871708383E+02  0.37030947641E+02  0.41800000000E+01 0. -1.
         -5    1    3    3    0  502  0.22688116686E+02 -0.62619611425E+02  0.29974419235E+03  0.30708308260E+03  0.41800000000E+01 0. -1.
        -11    1    1    2    0    0 -0.16065017704E+02  0.55904163307E+02  0.17968314800E+03  0.18886342669E+03  0.00000000000E+00 0. -1.
         11    1    1    2    0    0 -0.31082894703E+02 -0.16400982539E+02  0.20098062613E+02  0.40485438026E+02  0.00000000000E+00 0.  1.
</event>
<event>
 7    1  0.2619826E-009  0.1236518E+03  0.7561462E-02  0.1237191E+00
          1   -1    0    0  501    0  0.00000000000E+00  0.00000000000E+00  0.65775356809E+02  0.65775356809E+02  0.00000000000E+00 0. -1.
         -1   -1    0    0    0  501 -0.00000000000E+00 -0.00000000000E+00 -0.30089861537E+03  0.30089861537E+03  0.00000000000E+00 0.  1.
         25    2    1    2    0    0 -0.73296680846E+01 -0.79290088132E+02 -0.87077352053E+02  0.17196217129E+03  0.12509149054E+03 0.  0.
          5    1    3    3  502    0  0.41317013657E+02 -0.82614984649E+02 -0.80473279025E+02  0.12257957555E+03  0.41800000000E+01 0. -1.
         -5    1    3    3    0  502 -0.48646681742E+02  0.33248965163E+01 -0.66040730282E+01  0.49382595739E+02  0.41800000000E+01 0. -1.
        -11    1    1    2    0    0  0.35378107442E+02  0.65950646802E+02 -0.14541217316E+03  0.16354142718E+03  0.00000000000E+00 0.  1.
         11    1    1    2    0    0 -0.28048439358E+02  0.13339441330E+02 -0.26337333389E+01  0.31170373702E+02  0.00000000000E+00 0. -1.
</event>
<event>
 7    1  0.2619826E-009  0.1127474E+03  0.7561462E-02  0.1255565E+00
         -2   -1    0    0    0  501 -0.00000000000E+00  0.00000000000E+00  0.20167027350E+02  0.20167027350E+02  0.00000000000E+00 0.  1.
          2   -1    0    0  501    0  0.00000000000E+00 -0.00000000000E+00 -0.68519830534E+03  0.68519830534E+03  0.00000000000E+00 0. -1.
         25    2    1    2    0    0  0.19911913617E+02  0.28996224298E+02 -0.31605232520E+03  0.34172510736E+03  0.12509880657E+03 0.  0.
          5    1    3    3  502    0 -0.50621382331E+02  0.28341128412E+01 -0.16904881953E+03  0.17653762298E+03  0.41800000000E+01 0. -1.
         -5    1    3    3    0  502  0.70533295948E+02  0.26162111456E+02 -0.14700350568E+03  0.16518748438E+03  0.41800000000E+01 0. -1.
        -11    1    1    2    0    0 -0.11327686447E+02  0.33928506743E+02 -0.86844716206E+02  0.93922653193E+02  0.00000000000E+00 0.  1.
         11    1    1    2    0    0 -0.85842271696E+01 -0.62924731040E+02 -0.26213423658E+03  0.26971757214E+03  0.00000000000E+00 0. -1.
</event>
<event>
 7    1  0.2619826E-009  0.1320808E+03  0.7561462E-02  0.1224400E+00
         -2   -1    0    0    0  501 -0.00000000000E+00  0.00000000000E+00  0.17901026553E+03  0.17901026553E+03  0.00000000000E+00 0.  1.
          2   -1    0    0  501    0  0.00000000000E+00 -0.00000000000E+00 -0.14625794630E+03  0.14625794630E+03  0.00000000000E+00 0. -1.
         25    2    1    2    0    0 -0.32325776130E+02 -0.92254478253E+02  0.84840512331E+02  0.18000547993E+03  0.12509282838E+03 0.  0.
          5    1    3    3  502    0 -0.46787604165E+02  0.15162262113E+02  0.35753002326E+02  0.60948532970E+02  0.41800000000E+01 0.  1.
         -5    1    3    3    0  502  0.14461828036E+02 -0.10741674037E+03  0.49087510005E+02  0.11905694696E+03  0.41800000000E+01 0.  1.
        -11    1    1    2    0    0 -0.76530380340E+01  0.39000850893E+02 -0.66180452091E+02  0.77197717586E+02  0.00000000000E+00 0. -1.
         11    1    1    2    0    0  0.39978814164E+02  0.53253627360E+02  0.14092258989E+02  0.68065014305E+02  0.00000000000E+00 0.  1.
</event>
<event>
 7    1  0.2619826E-009  0.1259965E+03  0.7561462E-02  0.1233520E+00
         -2   -1    0    0    0  501 -0.00000000000E+00  0.00000000000E+00  0.59803747251E+02  0.59803747251E+02  0.00000000000E+00 0.  1.
          2   -1    0    0  501    0  0.00000000000E+00 -0.00000000000E+00 -0.41158664735E+03  0.41158664735E+03  0.00000000000E+00 0. -1.
         25    2    1    2    0    0  0.32480396595E+02 -0.88645434484E+02 -0.28788652488E+03  0.32777919396E+03  0.12509020571E+03 0.  0.
          5    1    3    3  502    0  0.12188064542E+02 -0.11880966858E+03 -0.23213138211E+03  0.26108760450E+03  0.41800000000E+01 0. -1.
         -5    1    3    3    0  502  0.20292332053E+02  0.30164234092E+02 -0.55755142772E+02  0.66691589455E+02  0.41800000000E+01 0. -1.
        -11    1    1    2    0    0 -0.33775312444E+02  0.75830675264E+02 -0.48256450499E+01  0.83152569965E+02  0.00000000000E+00 0.  1.
         11    1    1    2    0    0  0.12949158496E+01  0.12814759220E+02 -0.59070730174E+02  0.60458630684E+02  0.00000000000E+00 0. -1.
</event>
<event>
 6    1  0.2619826E-009  0.1455239E+03  0.7561462E-02  0.1206084E+00
          2   -1    0    0  501    0  0.00000000000E+00  0.00000000000E+00  0.22896198626E+03  0.22896198626E+03  0.00000000000E+00 0. -1.
         -2   -1    0    0    0  501 -0.00000000000E+00 -0.00000000000E+00 -0.12398753942E+03  0.12398753942E+03  0.00000000000E+00 0.  1.
          5    1    1    2  502    0 -0.63961591446E+02 -0.14880782883E+02  0.41471914232E+02  0.77781199204E+02  0.41800000000E+01 0.  1.
         -5    1    1    2    0  502  0.12322966890E+02 -0.99165525256E+02 -0.15305379544E+02  0.10117995827E+03  0.41800000000E+01 0.  1.
        -11    1    1    2    0    0  0.40306954513E+02  0.91969638365E+02  0.10081618462E+02  0.10091929446E+03  0.00000000000E+00 0.  1.
         11    1    1    2    0    0  0.11331670043E+02  0.22076669775E+02  0.68726293687E+02  0.73069073747E+02  0.00000000000E+00 0. -1.
</event>
<event>
 7    1  0.2619826E-009  0.9230086E+02  0.7561462E-02  0.1297374E+00
         -2   -1    0    0    0  501 -0.00000000000E+00  0.00000000000E+00  0.83431976755E+02  0.83431976755E+02  0.00000000000E+00 0.  1.
          2   -1    0    0  501    0  0.00000000000E+00 -0.00000000000E+00 -0.18609212369E+03  0.18609212369E+03  0.00000000000E+00 0. -1.
         25    2    1    2    0    0  0.11810556654E+02 -0.15261807094E+02  0.63689092807E+01  0.12673187029E+03  0.12509193394E+03 0.  0.
          5    1    3    3  502    0 -0.25925345847E+02 -0.44410792939E+02 -0.35915786005E+02  0.62863806528E+02  0.41800000000E+01 0. -1.
         -5    1    3    3    0  502  0.37735902501E+02  0.29148985845E+02  0.42284695286E+02  0.63868063763E+02  0.41800000000E+01 0. -1.
        -11    1    1    2    0    0 -0.12354978784E+02  0.49439633055E+02 -0.36721925155E+02  0.62812599090E+02  0.00000000000E+00 0.  1.
         11    1    1    2    0    0  0.54442213014E+00 -0.34177825961E+02 -0.72307131065E+02  0.79979631068E+02  0.00000000000E+00 0. -1.
</event>
<event>
 7    1  0.2619826E-009  0.1293436E+03  0.7561462E-02  0.1228433E+00
          1   -1    0    0  501    0  0.00000000000E+00  0.00000000000E+00  0.14148709804E+03  0.14148709804E+03  0.00000000000E+00 0. -1.
         -1   -1    0    0    0  501 -0.00000000000E+00 -0.00000000000E+00 -0.13925118865E+03  0.13925118865E+03  0.00000000000E+00 0.  1.
         25    2    1    2    0    0 -0.82266651649E+01  0.86969109767E+02 -0.17053413582E+02  0.15354342436E+03  0.12511378892E+03 0.  0.
          5    1    3    3  502    0 -0.43821026881E+01  0.11058231471E+03 -0.42263158189E+02  0.11853817145E+03  0.41800000000E+01 0.  1.
         -5    1    3    3    0  502 -0.38445624768E+01 -0.23613204944E+02  0.25209744607E+02  0.35005252913E+02  0.41800000000E+01 0.  1.
        -11    1    1    2    0    0  0.41029973227E+01 -0.10503857071E+03  0.24512593745E+02  0.10793888630E+03  0.00000000000E+00 0. -1.
         11    1    1    2    0    0  0.41236678423E+01  0.18069460945E+02 -0.52232707750E+01  0.19255976031E+02  0.00000000000E+00 0.  1.
</event>
<event>
 7    1  0.2619826E-009  0.9989953E+02  0.7561462E-02  0.1280507E+00
          2   -1    0    0  501    0  0.00000000000E+00  0.00000000000E+00  0.33961902169E+03  0.33961902169E+03  0.00000000000E+00 0.  1.
         -2   -1    0    0    0  501 -0.00000000000E+00 -0.00000000000E+00 -0.37381976105E+02  0.37381976105E+02  0.00000000000E+00 0. -1.
         25    2    1    2    0    0  0.33663485381E+02  0.84747812029E+01  0.15862398923E+03  0.20497466656E+03  0.12509193342E+03 0.  0.
          5    1    3    3  502    0  0.71985128763E+02  0.29099477466E+02  0.13365374356E+03  0.15462675681E+03  0.41800000000E+01 0. -1.
         -5    1    3    3    0  502 -0.38321643382E+02 -0.20624696263E+02  0.24970245668E+02  0.50347909750E+02  0.41800000000E+01 0. -1.
        -11    1    1    2    0    0 -0.23602148466E+02 -0.39330098236E+02  0.12808153516E+03  0.13604704219E+03  0.00000000000E+00 0.  1.
         11    1    1    2    0    0 -0.10061336915E+02  0.30855317033E+02  0.15531521188E+02  0.35979289045E+02  0.00000000000E+00 0. -1.
</event>
<event>
 7    1  0.2619826E-009  0.3338055E+03  0.7561462E-02  0.1069465E+00
         -1   -1    0    0    0  501 -0.00000000000E+00  0.00000000000E+00  0.13262111690E+03  0.13262111690E+03  0.00000000000E+00 0.  1.
          1   -1    0    0  501    0  0.00000000000E+00 -0.00000000000E+00 -0.98262401817E+03  0.98262401817E+03  0.00000000000E+00 0. -1.
         25    2    1    2    0    0  0.17153011803E+03 -0.27909008360E+03 -0.26896539179E+03  0.44193204617E+03  0.12509074823E+03 0.  0.
          5    1    3    3  502    0  0.86552844829E+02 -0.16616855332E+03 -0.74885382093E+02  0.20181346811E+03  0.41800000000E+01 0. -1.
         -5    1    3    3    0  502  0.84977273197E+02 -0.11292153028E+03 -0.19408000970E+03  0.24011857805E+03  0.41800000000E+01 0. -1.
        -11    1    1    2    0    0 -0.17704267031E+02 -0.25719671912E+01 -0.46646892832E+02  0.49959870869E+02  0.00000000000E+00 0. -1.
         11    1    1    2    0    0 -0.15382585099E+03  0.28166205079E+03 -0.53439061664E+03  0.62335321804E+03  0.00000000000E+00 0.  1.
</event>
<event>
 7    1  0.2619826E-009  0.1091261E+03  0.7561462E-02  0.1262197E+00
          2   -1    0    0  501    0  0.00000000000E+00  0.00000000000E+00  0.13265609627E+04  0.13265609627E+04  0.00000000000E+00 0. -1.
         -2   -1    0    0    0  501 -0.00000000000E+00 -0.00000000000E+00 -0.17859290733E+02  0.17859290733E+02  0.00000000000E+00 0.  1.
         25    2    1    2    0    0 -0.33540248438E+02 -0.93565614634E+02  0.89762249119E+03  0.91173009698E+03  0.12508461351E+03 0.  0.
          5    1    3    3  502    0  0.26793227195E+01 -0.30445342160E+02  0.70658505090E+03  0.70725808881E+03  0.41800000000E+01 0.  1.
         -5    1    3    3    0  502 -0.36219571158E+02 -0.63120272474E+02  0.19103744029E+03  0.20447200817E+03  0.41800000000E+01 0.  1.
        -11    1    1    2    0    0 -0.52392522812E+01  0.67687298259E+02  0.34622158767E+03  0.35281497684E+03  0.00000000000E+00 0. -1.
         11    1    1    2    0    0  0.38779500720E+02  0.25878316375E+02  0.64857593052E+02  0.79875179568E+02  0.00000000000E+00 0.  1.
</event>
<event>
 7    1  0.2619826E-009  0.1527961E+03  0.7561462E-02  0.1197079E+00
         -1   -1    0    0    0  501 -0.00000000000E+00  0.00000000000E+00  0.29388720803E+03  0.29388720803E+03  0.00000000000E+00 0.  1.
          1   -1    0    0  501    0  0.00000000000E+00 -0.00000000000E+00 -0.10419807500E+03  0.10419807500E+03  0.00000000000E+00 0. -1.
         25    2    1    2    0    0  0.13734663854E+03 -0.42134119813E+00  0.10929114982E+03  0.21554334718E+03  0.12510036944E+03 0.  0.
          5    1    3    3  502    0  0.20869937107E+02  0.13870354889E+02  0.93706226436E+02  0.97088981313E+02  0.41800000000E+01 0. -1.
         -5    1    3    3    0  502  0.11647670144E+03 -0.14291696088E+02  0.15584923382E+02  0.11845436586E+03  0.41800000000E+01 0. -1.
        -11    1    1    2    0    0  0.11999406256E+02 -0.57140846648E+01  0.10952254303E+01  0.13335517718E+02  0.00000000000E+00 0.  1.
         11    1    1    2    0    0 -0.14934604480E+03  0.61354258630E+01  0.79302757780E+02  0.16920641814E+03  0.00000000000E+00 0. -1.
</event>
<event>
 7    1  0.2718472E-009  0.1821950E+03  0.7561462E-02  0.1165695E+00
         -2   -1    0    0    0  501 -0.00000000000E+00  0.00000000000E+00  0.30611071745E+02  0.30611071745E+02  0.00000000000E+00 0.  1.
          2   -1    0    0  501    0  0.00000000000E+00 -0.00000000000E+00 -0.15578817582E+04  0.15578817582E+04  0.00000000000E+00 0. -1.
         25    2    1    2    0    0 -0.14670827033E+03 -0.84642893748E+02 -0.48674907781E+03  0.53033973562E+03  0.12509130417E+03 0.  0.
          5    1    3    3  502    0 -0.12812744995E+03 -0.57953714807E+02 -0.21706346568E+03  0.25866831469E+03  0.41800000000E+01 0. -1.
         -5    1    3    3    0  502 -0.18580820377E+02 -0.26689178942E+02 -0.26968561213E+03  0.27167142093E+03  0.41800000000E+01 0. -1.
        -11    1    1    2    0    0  0.76618264559E+01  0.45952271916E+02 -0.20213722056E+03  0.20743618493E+03  0.00000000000E+00 0.  1.
         11    1    1    2    0    0  0.13904644387E+03  0.38690621832E+02 -0.83838438803E+03  0.85071690936E+03  0.00000000000E+00 0. -1.
</event>
<event>
 7    1  0.2619826E-009  0.8347287E+02  0.7561462E-02  0.1319475E+00
         -3   -1    0    0    0  501 -0.00000000000E+00  0.00000000000E+00  0.25303081256E+02  0.25303081256E+02  0.00000000000E+00 0.  1.
          3   -1    0    0  501    0  0.00000000000E+00 -0.00000000000E+00 -0.58181666791E+03  0.58181666791E+03  0.00000000000E+00 0. -1.
         25    2    1    2    0    0 -0.23638408260E+02  0.27311664854E+02 -0.41326996454E+03  0.43329433521E+03  0.12508883225E+03 0.  0.
          5    1    3    3  502    0  0.14936250742E+02  0.26254962100E+02 -0.16580099934E+02  0.34710037956E+02  0.41800000000E+01 0. -1.
         -5    1    3    3    0  502 -0.38574659002E+02  0.10567027544E+01 -0.39668986461E+03  0.39858429726E+03  0.41800000000E+01 0. -1.
        -11    1    1    2    0    0 -0.46816661656E+01 -0.56659734977E+02 -0.94347801164E+02  0.11015330749E+03  0.00000000000E+00 0.  1.
         11    1    1    2    0    0  0.28320074426E+02  0.29348070123E+02 -0.48895820947E+02  0.63672106463E+02  0.00000000000E+00 0. -1.
</event>
<event>
 7    1  0.2619826E-009  0.5804022E+02  0.7561462E-02  0.1406245E+00
         -2   -1    0    0    0  501 -0.00000000000E+00  0.00000000000E+00  0.29185956617E+02  0.29185956617E+02  0.00000000000E+00 0.  1.
          2   -1    0    0  501    0  0.00000000000E+00 -0.00000000000E+00 -0.39684722730E+03  0.39684722730E+03  0.00000000000E+00 0. -1.
         25    2    1    2    0    0  0.29401123227E+01  0.11133629698E+02 -0.17826200131E+03  0.21808140957E+03  0.12509819390E+03 0.  0.
          5    1    3    3  502    0 -0.15154704314E+02  0.11344534344E+02  0.14636288488E+02  0.24291086081E+02  0.41800000000E+01 0.  1.
         -5    1    3    3    0  502  0.18094816636E+02 -0.21090464564E+00 -0.19289828980E+03  0.19379032349E+03  0.41800000000E+01 0.  1.
        -11    1    1    2    0    0  0.19349759215E+02 -0.38342359383E+02 -0.59541719233E+02  0.73415025941E+02  0.00000000000E+00 0.  1.
         11    1    1    2    0    0 -0.22289871538E+02  0.27208729685E+02 -0.12985755014E+03  0.13453674841E+03  0.00000000000E+00 0. -1.
</event>
<event>
 7    1  0.2619826E-009  0.1705558E+03  0.7561462E-02  0.1177270E+00
          1   -1    0    0  501    0  0.00000000000E+00  0.00000000000E+00  0.10355396254E+03  0.10355396254E+03  0.00000000000E+00 0. -1.
         -1   -1    0    0    0  501 -0.00000000000E+00 -0.00000000000E+00 -0.29683468542E+03  0.29683468542E+03  0.00000000000E+00 0.  1.
         25    2    1    2    0    0 -0.13565755093E+03  0.12662501775E+02 -0.11594204770E+03  0.21829774534E+03  0.12509211455E+03 0.  0.
          5    1    3    3  502    0  0.94870882927E+00 -0.36061950545E+02 -0.73161038231E+01  0.37045405932E+02  0.41800000000E+01 0. -1.
         -5    1    3    3    0  502 -0.13660625976E+03  0.48724452320E+02 -0.10862594387E+03  0.18125233941E+03  0.41800000000E+01 0. -1.
        -11    1    1    2    0    0  0.56058800504E+02 -0.46861221809E+02 -0.58091031626E+02  0.93344154497E+02  0.00000000000E+00 0. -1.
         11    1    1    2    0    0  0.79598750422E+02  0.34198720034E+02 -0.19247643562E+02  0.88746748128E+02  0.00000000000E+00 0.  1.
</event>
<event>
 7    1  0.2619826E-009  0.1197329E+03  0.7561462E-02  0.1243538E+00
          2   -1    0    0  501    0  0.00000000000E+00  0.00000000000E+00  0.12327385928E+03  0.12327385928E+03  0.00000000000E+00 0. -1.
         -2   -1    0    0    0  501 -0.00000000000E+00 -0.00000000000E+00 -0.14958220647E+03  0.14958220647E+03  0.00000000000E+00 0.  1.
         25    2    1    2    0    0 -0.78256342088E+02 -0.86635708617E+01 -0.29834107264E+02  0.15078558072E+03  0.12508838819E+03 0.  0.
          5    1    3    3  502    0 -0.63053609879E+02  0.34164758056E+02 -0.62048063681E+02  0.94923248040E+02  0.41800000000E+01 0.  1.
         -5    1    3    3    0  502 -0.15202732208E+02 -0.42828328917E+02  0.32213956418E+02  0.55862332681E+02  0.41800000000E+01 0.  1.
        -11    1    1    2    0    0  0.58001651119E+02 -0.39208264507E+02  0.71732602969E+00  0.70014242086E+02  0.00000000000E+00 0.  1.
         11    1    1    2    0    0  0.20254690968E+02  0.47871835369E+02  0.28084340424E+01  0.52056242945E+02  0.00000000000E+00 0. -1.
</event>
<event>
 7    1  0.2619826E-009  0.2026661E+03  0.7561462E-02  0.1147509E+00
          1   -1    0    0  501    0  0.00000000000E+00  0.00000000000E+00  0.21866436463E+04  0.21866436463E+04  0.00000000000E+00 0. -1.
         -1   -1    0    0    0  501 -0.00000000000E+00 -0.00000000000E+00 -0.24151049558E+02  0.24151049558E+02  0.00000000000E+00 0.  1.
         25    2    1    2    0    0 -0.39333618923E+02 -0.19254839270E+03  0.13615535395E+04  0.13813389520E+04  0.12508893746E+03 0.  0.
          5    1    3    3  502    0 -0.27870765660E+02 -0.81846133364E+02  0.98131240943E+03  0.98512287884E+03  0.41800000000E+01 0. -1.
         -5    1    3    3    0  502 -0.11462853263E+02 -0.11070225933E+03  0.38024113005E+03  0.39621607313E+03  0.41800000000E+01 0. -1.
        -11    1    1    2    0    0 -0.18753177488E+02  0.40492881411E+02  0.94496719926E+02  0.10450351759E+03  0.00000000000E+00 0. -1.
         11    1    1    2    0    0  0.58086796411E+02  0.15205551129E+03  0.70644233738E+03  0.72495222633E+03  0.00000000000E+00 0.  1.
</event>
<event>
 7    1  0.2619826E-009  0.1521393E+03  0.7561462E-02  0.1197869E+00
          2   -1    0    0  501    0  0.00000000000E+00  0.00000000000E+00  0.13536461846E+04  0.13536461846E+04  0.00000000000E+00 0. -1.
         -2   -1    0    0    0  501 -0.00000000000E+00 -0.00000000000E+00 -0.27016322018E+02  0.27016322018E+02  0.00000000000E+00 0.  1.
         25    2    1    2    0    0 -0.85650896549E+01 -0.10558470346E+03  0.11115112837E+04  0.11235332491E+04  0.12509251699E+03 0.  0.
          5    1    3    3  502    0 -0.34675792617E+02 -0.12584022077E+03  0.87993609324E+03  0.88957471431E+03  0.41800000000E+01 0. -1.
         -5    1    3    3    0  502  0.26110702962E+02  0.20255517312E+02  0.23157519042E+03  0.23395853481E+03  0.41800000000E+01 0. -1.
        -11    1    1    2    0    0  0.49319680764E+02  0.73449134528E+02  0.12514033598E+03  0.15325570124E+03  0.00000000000E+00 0.  1.
         11    1    1    2    0    0 -0.40754591109E+02  0.32135568930E+02  0.89978242939E+02  0.10387355626E+03  0.00000000000E+00 0. -1.
</event>
<event>
 7    1  0.2619826E-009  0.3300885E+03  0.7561462E-02  0.1071098E+00
          1   -1    0    0  501    0  0.00000000000E+00  0.00000000000E+00  0.72161813532E+03  0.72161813532E+03  0.00000000000E+00 0. -1.
         -1   -1    0    0    0  501 -0.00000000000E+00 -0.00000000000E+00 -0.17134547494E+03  0.17134547494E+03  0.00000000000E+00 0.  1.
         25    2    1    2    0    0  0.29905920205E+03 -0.12430099398E+03  0.17457543027E+03  0.38860328189E+03  0.12509510943E+03 0.  0.
          5    1    3    3  502    0  0.28993938679E+03 -0.13642520907E+03  0.18471448839E+03  0.36988322523E+03  0.41800000000E+01 0. -1.
         -5    1    3    3    0  502  0.91198152565E+01  0.12124215087E+02 -0.10139058119E+02  0.18720056660E+02  0.41800000000E+01 0. -1.
        -11    1    1    2    0    0 -0.15415047252E+03  0.68805280521E+02  0.26326330191E+03  0.31273647203E+03  0.00000000000E+00 0. -1.
         11    1    1    2    0    0 -0.14490872953E+03  0.55495713461E+02  0.11243392820E+03  0.19162385634E+03  0.00000000000E+00 0.  1.
</event>
