<event>
 7    1  0.3265282E-009  0.1035279E+03  0.7561462E-02  0.1273047E+00
          2   -1    0    0  501    0  0.00000000000E+00  0.00000000000E+00  0.60572968762E+03  0.60572968762E+03  0.00000000000E+00 0.  1.
         -2   -1    0    0    0  501 -0.00000000000E+00 -0.00000000000E+00 -0.33927273724E+02  0.33927273724E+02  0.00000000000E+00 0. -1.
         25    2    1    2    0    0 -0.20810692831E+02 -0.56071350793E+02  0.46381008986E+03  0.48409120670E+03  0.12508963038E+03 0.  0.
          5    1    3    3  502    0 -0.77398190862E+01  0.26855074499E+02  0.28624409373E+03  0.28763562614E+03  0.41800000000E+01 0.  1.
         -5    1    3    3    0  502 -0.13070873745E+02 -0.82926425292E+02  0.17756599613E+03  0.19645558056E+03  0.41800000000E+01 0.  1.
        -11    1    1    2    0    0  0.28095377202E+02 -0.88171629011E+01  0.78646396453E+02  0.83978260621E+02  0.00000000000E+00 0.  1.
         11    1    1    2    0    0 -0.72846843705E+01  0.64888513694E+02  0.29345927585E+02  0.71587494031E+02  0.00000000000E+00 0. -1.
</event>
<event>
 7    1  0.3265282E-009  0.8888804E+02  0.7561462E-02  0.1305567E+00
          1   -1    0    0  501    0  0.00000000000E+00  0.00000000000E+00  0.16081471435E+03  0.16081471435E+03  0.00000000000E+00 0. -1.
         -1   -1    0    0    0  501 -0.00000000000E+00 -0.00000000000E+00 -0.80147212993E+02  0.80147212993E+02  0.00000000000E+00 0.  1.
         25    2    1    2    0    0 -0.16026459488E+02 -0.29150405290E+02  0.54771029765E+02  0.14054878698E+03  0.12508997677E+03 0.  0.
          5    1    3    3  502    0  0.42478301856E+02 -0.49775270887E+01  0.63330986553E+02  0.76534098036E+02  0.41800000000E+01 0. -1.
         -5    1    3    3    0  502 -0.58504761344E+02 -0.24172878202E+02 -0.85599567878E+01  0.64014688944E+02  0.41800000000E+01 0. -1.
        -11    1    1    2    0    0 -0.20683302767E+02  0.27772197216E+02  0.46744964495E+02  0.58173754024E+02  0.00000000000E+00 0. -1.
         11    1    1    2    0    0  0.36709762256E+02  0.13782080740E+01 -0.20848492899E+02  0.42239386342E+02  0.00000000000E+00 0.  1.
</event>
<event>
 7    1  0.3265282E-009  0.5141800E+02  0.7561462E-02  0.1437840E+00
         -1   -1    0    0    0  501 -0.00000000000E+00  0.00000000000E+00  0.78971629905E+02  0.78971629905E+02  0.00000000000E+00 0.  1.
          1   -1    0    0  501    0  0.00000000000E+00 -0.00000000000E+00 -0.15430422628E+03  0.15430422628E+03  0.00000000000E+00 0. -1.
         25    2    1    2    0    0 -0.17232261443E+02  0.14023922705E+02 -0.48776084655E+02  0.13608904094E+03  0.12508996517E+03 0.  0.
          5    1    3    3  502    0  0.25965131759E+02  0.11602324445E+02 -0.78389312605E+02  0.83493465197E+02  0.41800000000E+01 0.  1.
         -5    1    3    3    0  502 -0.43197393203E+02  0.24215982602E+01  0.29613227951E+02  0.52595575739E+02  0.41800000000E+01 0.  1.
        -11    1    1    2    0    0  0.17460924800E+02 -0.88489488513E+00  0.32382440450E+02  0.36800670963E+02  0.00000000000E+00 0.  1.
         11    1    1    2    0    0 -0.22866335644E+00 -0.13139027820E+02 -0.58938952174E+02  0.60386144291E+02  0.00000000000E+00 0. -1.
</event>
<event>
 7    1  0.3265282E-009  0.1764282E+03  0.7561462E-02  0.1171305E+00
         -3   -1    0    0    0  501 -0.00000000000E+00  0.00000000000E+00  0.35847158529E+02  0.35847158529E+02  0.00000000000E+00 0.  1.
          3   -1    0    0  501    0  0.00000000000E+00 -0.00000000000E+00 -0.92616682407E+03  0.92616682407E+03  0.00000000000E+00 0. -1.
         25    2    1    2    0    0 -0.12593022845E+03 -0.74683118013E+02 -0.46784844541E+03  0.50593043843E+03  0.12508976819E+03 0.  0.
          5    1    3    3  502    0 -0.10634597091E+03 -0.10540595210E+03 -0.31583023018E+03  0.34955126514E+03  0.41800000000E+01 0.  1.
         -5    1    3    3    0  502 -0.19584257537E+02  0.30722834084E+02 -0.15201821523E+03  0.15637917329E+03  0.41800000000E+01 0.  1.
        -11    1    1    2    0    0  0.10883338552E+03  0.22040008435E+02 -0.33143014214E+03  0.34953741845E+03  0.00000000000E+00 0. -1.
         11    1    1    2    0    0  0.17096842926E+02  0.52643109578E+02 -0.91041077993E+02  0.10654612572E+03  0.00000000000E+00 0.  1.
</event>
<event>
 7    1  0.3265282E-009  0.3009759E+03  0.7561462E-02  0.1084754E+00
         -1   -1    0    0    0  501 -0.00000000000E+00  0.00000000000E+00  0.61956423858E+02  0.61956423858E+02  0.00000000000E+00 0. -1.
          1   -1    0    0  501    0  0.00000000000E+00 -0.00000000000E+00 -0.16804120390E+04  0.16804120390E+04  0.00000000000E+00 0.  1.
         25    2    1    2    0    0 -0.18819936182E+02 -0.29556388779E+03 -0.64352510619E+03  0.71936376689E+03  0.12508982793E+03 0.  0.
          5    1    3    3  502    0  0.94701666793E+00 -0.35504952997E+02 -0.21302330744E+03  0.21600439912E+03  0.41800000000E+01 0.  1.
         -5    1    3    3    0  502 -0.19766952850E+02 -0.26005893479E+03 -0.43050179875E+03  0.50335936776E+03  0.41800000000E+01 0.  1.
        -11    1    1    2    0    0  0.47378086900E+02  0.20415752366E+03 -0.74526163727E+03  0.77417044995E+03  0.00000000000E+00 0.  1.
         11    1    1    2    0    0 -0.28558150717E+02  0.91406364126E+02 -0.22966887172E+03  0.24883424606E+03  0.00000000000E+00 0. -1.
</event>
<event>
 7    1  0.3265282E-009  0.1505062E+03  0.7561462E-02  0.1199852E+00
         -1   -1    0    0    0  501 -0.00000000000E+00  0.00000000000E+00  0.46062043168E+02  0.46062043168E+02  0.00000000000E+00 0.  1.
          1   -1    0    0  501    0  0.00000000000E+00 -0.00000000000E+00 -0.10921527306E+04  0.10921527306E+04  0.00000000000E+00 0. -1.
         25    2    1    2    0    0  0.82126531001E+02  0.91425080828E+02 -0.92806369928E+03  0.94448651633E+03  0.12509691085E+03 0.  0.
          5    1    3    3  502    0 -0.21396305327E+02  0.10749278593E+02 -0.38523366755E+03  0.38599974078E+03  0.41800000000E+01 0.  1.
         -5    1    3    3    0  502  0.10352283633E+03  0.80675802235E+02 -0.54283003173E+03  0.55848677554E+03  0.41800000000E+01 0.  1.
        -11    1    1    2    0    0 -0.30032411928E+02  0.97653740337E+01 -0.26949392467E+01  0.31694967957E+02  0.00000000000E+00 0.  1.
         11    1    1    2    0    0 -0.52094119073E+02 -0.10119045486E+03 -0.11533204892E+03  0.16203328949E+03  0.00000000000E+00 0. -1.
</event>
<event>
 7    1  0.3265282E-009  0.2117220E+03  0.7561462E-02  0.1140210E+00
          2   -1    0    0  501    0  0.00000000000E+00  0.00000000000E+00  0.24225220343E+03  0.24225220343E+03  0.00000000000E+00 0. -1.
         -2   -1    0    0    0  501 -0.00000000000E+00 -0.00000000000E+00 -0.25418525696E+03  0.25418525696E+03  0.00000000000E+00 0.  1.
         25    2    1    2    0    0  0.14539634231E+03 -0.15157445685E+03  0.37459160136E+02  0.24731591556E+03  0.12508821322E+03 0.  0.
          5    1    3    3  502    0  0.11128402759E+03 -0.12105722410E+03  0.81577760141E+02  0.18360661658E+03  0.41800000000E+01 0.  1.
         -5    1    3    3    0  502  0.34112314715E+02 -0.30517232750E+02 -0.44118600005E+02  0.63709298978E+02  0.41800000000E+01 0.  1.
        -11    1    1    2    0    0 -0.59621199842E+02  0.87708041973E+02 -0.85524502594E+02  0.13624180211E+03  0.00000000000E+00 0.  1.
         11    1    1    2    0    0 -0.85775142464E+02  0.63866414878E+02  0.36132288933E+02  0.11287974272E+03  0.00000000000E+00 0. -1.
</event>
<event>
 7    1  0.3265282E-009  0.2303648E+03  0.7561462E-02  0.1126383E+00
          2   -1    0    0  501    0  0.00000000000E+00  0.00000000000E+00  0.33533567062E+03  0.33533567062E+03  0.00000000000E+00 0. -1.
         -2   -1    0    0    0  501 -0.00000000000E+00 -0.00000000000E+00 -0.17450624164E+03  0.17450624164E+03  0.00000000000E+00 0.  1.
         25    2    1    2    0    0  0.11788586537E+03  0.17779355057E+03  0.45345342549E+02  0.25141819186E+03  0.12508910117E+03 0.  0.
          5    1    3    3  502    0  0.11666302169E+03  0.99438932465E+02  0.70818989510E+02  0.16891170355E+03  0.41800000000E+01 0.  1.
         -5    1    3    3    0  502  0.12228436747E+01  0.78354618101E+02 -0.25473646961E+02  0.82506488314E+02  0.41800000000E+01 0.  1.
        -11    1    1    2    0    0 -0.72836037936E+02 -0.16756268172E+03  0.10610846435E+03  0.21128498985E+03  0.00000000000E+00 0.  1.
         11    1    1    2    0    0 -0.45049827430E+02 -0.10230868844E+02  0.93756220802E+01  0.47138730553E+02  0.00000000000E+00 0. -1.
</event>
<event>
 7    1  0.3265282E-009  0.1375057E+03  0.7561462E-02  0.1216725E+00
          3   -1    0    0  501    0  0.00000000000E+00  0.00000000000E+00  0.54530260916E+03  0.54530260916E+03  0.00000000000E+00 0. -1.
         -3   -1    0    0    0  501 -0.00000000000E+00 -0.00000000000E+00 -0.49375241216E+02  0.49375241216E+02  0.00000000000E+00 0.  1.
         25    2    1    2    0    0 -0.52584785977E+01 -0.11269031912E+03  0.35019431830E+03  0.38860106816E+03  0.12509184618E+03 0.  0.
          5    1    3    3  502    0 -0.66197281124E+01  0.16989462711E+02  0.14239122490E+03  0.14361474845E+03  0.41800000000E+01 0. -1.
         -5    1    3    3    0  502  0.13612495147E+01 -0.12967978183E+03  0.20780309340E+03  0.24498631971E+03  0.41800000000E+01 0. -1.
        -11    1    1    2    0    0  0.28006040805E+02  0.31113589547E+02  0.54534676071E+01  0.42215329976E+02  0.00000000000E+00 0.  1.
         11    1    1    2    0    0 -0.22747562207E+02  0.81576729577E+02  0.14027958204E+03  0.16386145224E+03  0.00000000000E+00 0. -1.
</event>
<event>
 7    1  0.3265282E-009  0.1178640E+03  0.7561462E-02  0.1246663E+00
         -3   -1    0    0    0  501 -0.00000000000E+00  0.00000000000E+00  0.29130887119E+03  0.29130887119E+03  0.00000000000E+00 0.  1.
          3   -1    0    0  501    0  0.00000000000E+00 -0.00000000000E+00 -0.66758153033E+02  0.66758153033E+02  0.00000000000E+00 0. -1.
         25    2    1    2    0    0  0.17093011064E+02 -0.82309354581E+02  0.12093723195E+03  0.19323541062E+03  0.12508840461E+03 0.  0.
          5    1    3    3  502    0  0.27536284840E+02 -0.11313063257E+03  0.10464088145E+03  0.15660132017E+03  0.41800000000E+01 0. -1.
         -5    1    3    3    0  502 -0.10443273776E+02  0.30821277986E+02  0.16296350495E+02  0.36634090452E+02  0.41800000000E+01 0. -1.
        -11    1    1    2    0    0 -0.21373441399E+02  0.59999936835E+02  0.12065423546E+03  0.13643409014E+03  0.00000000000E+00 0.  1.
         11    1    1    2    0    0  0.42804303355E+01  0.22309417746E+02 -0.17040749247E+02  0.28397523464E+02  0.00000000000E+00 0. -1.
</event>
<event>
 7    1  0.3265282E-009  0.1195417E+03  0.7561462E-02  0.1243855E+00
         -2   -1    0    0    0  501 -0.00000000000E+00  0.00000000000E+00  0.13058259243E+02  0.13058259243E+02  0.00000000000E+00 0.  1.
          2   -1    0    0  501    0  0.00000000000E+00 -0.00000000000E+00 -0.12320724989E+04  0.12320724989E+04  0.00000000000E+00 0. -1.
         25    2    1    2    0    0  0.45788236294E+02  0.30165809432E+02 -0.82570751839E+03  0.83692675504E+03  0.12508776409E+03 0.  0.
          5    1    3    3  502    0  0.73344648802E+02  0.56014572717E+02 -0.45557825571E+03  0.46485060970E+03  0.41800000000E+01 0. -1.
         -5    1    3    3    0  502 -0.27556412507E+02 -0.25848763285E+02 -0.37012926268E+03  0.37207614533E+03  0.41800000000E+01 0. -1.
        -11    1    1    2    0    0 -0.51561033029E+02 -0.59533735017E+02 -0.26520547715E+03  0.27665276222E+03  0.00000000000E+00 0. -1.
         11    1    1    2    0    0  0.57727967345E+01  0.29367925586E+02 -0.12810124410E+03  0.13155124087E+03  0.00000000000E+00 0.  1.
</event>
<event>
 7    1  0.3265282E-009  0.9354362E+02  0.7561462E-02  0.1294490E+00
          4   -1    0    0  501    0  0.00000000000E+00  0.00000000000E+00  0.15737325805E+02  0.15737325805E+02  0.00000000000E+00 0. -1.
         -4   -1    0    0    0  501 -0.00000000000E+00 -0.00000000000E+00 -0.83239867467E+03  0.83239867467E+03  0.00000000000E+00 0.  1.
         25    2    1    2    0    0  0.19788238812E+02  0.34489404694E+02 -0.43573677137E+03  0.45507718125E+03  0.12509042146E+03 0.  0.
          5    1    3    3  502    0 -0.20372916096E+02 -0.17846987609E+02 -0.19525537306E+02  0.33649512389E+02  0.41800000000E+01 0. -1.
         -5    1    3    3    0  502  0.40161154908E+02  0.52336392303E+02 -0.41621123406E+03  0.42142766886E+03  0.41800000000E+01 0. -1.
        -11    1    1    2    0    0  0.32366909643E+02 -0.24214685042E+02 -0.11565442018E+03  0.12251494896E+03  0.00000000000E+00 0. -1.
         11    1    1    2    0    0 -0.52155148456E+02 -0.10274719652E+02 -0.26527015731E+03  0.27054387026E+03  0.00000000000E+00 0.  1.
</event>
<event>
 7    1  0.3265282E-009  0.1224689E+03  0.7561462E-02  0.1239079E+00
          1   -1    0    0  501    0  0.00000000000E+00  0.00000000000E+00  0.32533382851E+03  0.32533382851E+03  0.00000000000E+00 0. -1.
         -1   -1    0    0    0  501 -0.00000000000E+00 -0.00000000000E+00 -0.57014493305E+02  0.57014493305E+02  0.00000000000E+00 0.  1.
         25    2    1    2    0    0 -0.51693819105E+02 -0.37693313093E+02  0.81658302496E+02  0.16250628065E+03  0.12508867294E+03 0.  0.
          5    1    3    3  502    0 -0.59616067217E+02 -0.77705428305E+02  0.67935906834E+02  0.11926847402E+03  0.41800000000E+01 0.  1.
         -5    1    3    3    0  502  0.79222481112E+01  0.40012115212E+02  0.13722395662E+02  0.43237806623E+02  0.41800000000E+01 0.  1.
        -11    1    1    2    0    0 -0.22860362259E+02  0.11793477528E+01  0.10672578846E+02  0.25256503379E+02  0.00000000000E+00 0.  1.
         11    1    1    2    0    0  0.74554181364E+02  0.36513965340E+02  0.17598845386E+03  0.19458553779E+03  0.00000000000E+00 0. -1.
</event>
<event>
 7    1  0.3265282E-009  0.1310618E+03  0.7561462E-02  0.1225889E+00
          1   -1    0    0  501    0  0.00000000000E+00  0.00000000000E+00  0.70255341708E+03  0.70255341708E+03  0.00000000000E+00 0. -1.
         -1   -1    0    0    0  501 -0.00000000000E+00 -0.00000000000E+00 -0.28883156407E+02  0.28883156407E+02  0.00000000000E+00 0.  1.
         25    2    1    2    0    0 -0.38686812622E+02  0.89306140297E+02  0.36727171353E+03  0.40000935262E+03  0.12508682768E+03 0.  0.
          5    1    3    3  502    0 -0.61341972755E+02  0.10657970569E+03  0.33435279494E+03  0.35627424152E+03  0.41800000000E+01 0. -1.
         -5    1    3    3    0  502  0.22655160133E+02 -0.17273565391E+02  0.32918918587E+02  0.43735111100E+02  0.41800000000E+01 0. -1.
        -11    1    1    2    0    0  0.46972255708E+02 -0.44444442549E+02  0.93421847068E+02  0.11361928881E+03  0.00000000000E+00 0.  1.
         11    1    1    2    0    0 -0.82854430856E+01 -0.44861697748E+02  0.21297670008E+03  0.21780793206E+03  0.00000000000E+00 0. -1.
</event>
<event>
 7    1  0.3265282E-009  0.2158163E+03  0.7561462E-02  0.1137041E+00
         -1   -1    0    0    0  501 -0.00000000000E+00  0.00000000000E+00  0.90547336899E+02  0.90547336899E+02  0.00000000000E+00 0.  1.
          1   -1    0    0  501    0  0.00000000000E+00 -0.00000000000E+00 -0.59287635011E+03  0.59287635011E+03  0.00000000000E+00 0. -1.
         25    2    1    2    0    0 -0.63080983791E+01  0.18214319772E+03 -0.19035273933E+03  0.29171423759E+03  0.12508834663E+03 0.  0.
          5    1    3    3  502    0 -0.44902205574E+02  0.11172234859E+03 -0.17070012068E+03  0.20893562367E+03  0.41800000000E+01 0. -1.
         -5    1    3    3    0  502  0.38594107195E+02  0.70420849129E+02 -0.19652618648E+02  0.82778613916E+02  0.41800000000E+01 0. -1.
        -11    1    1    2    0    0 -0.64205711653E+02 -0.51603297887E+02 -0.71139288682E+02  0.10883966261E+03  0.00000000000E+00 0. -1.
         11    1    1    2    0    0  0.70513810033E+02 -0.13053989983E+03 -0.24083698520E+03  0.28286978681E+03  0.00000000000E+00 0.  1.
</event>
<event>
 7    1  0.3265282E-009  0.1431306E+03  0.7561462E-02  0.1209178E+00
          1   -1    0    0  501    0  0.00000000000E+00  0.00000000000E+00  0.25200404707E+03  0.25200404707E+03  0.00000000000E+00 0. -1.
         -1   -1    0    0    0  501 -0.00000000000E+00 -0.00000000000E+00 -0.97035123184E+02  0.97035123184E+02  0.00000000000E+00 0.  1.
         25    2    1    2    0    0 -0.60885618266E+02 -0.93314817830E+02  0.89127394826E+02  0.18975586051E+03  0.12509548493E+03 0.  0.
          5    1    3    3  502    0 -0.88082004293E+02 -0.10498391159E+03  0.67200605828E+02  0.15268744217E+03  0.41800000000E+01 0.  1.
         -5    1    3    3    0  502  0.27196386027E+02  0.11669093759E+02  0.21926788998E+02  0.37068418335E+02  0.41800000000E+01 0.  1.
        -11    1    1    2    0    0  0.48979069948E+02  0.36143500805E+02 -0.11928018161E+02  0.62028860708E+02  0.00000000000E+00 0.  1.
         11    1    1    2    0    0  0.11906548318E+02  0.57171317025E+02  0.77769547226E+02  0.97254449044E+02  0.00000000000E+00 0. -1.
</event>
<event>
 7    1  0.3265282E-009  0.1068253E+03  0.7561462E-02  0.1266564E+00
         -2   -1    0    0    0  501 -0.00000000000E+00  0.00000000000E+00  0.20626235210E+03  0.20626235210E+03  0.00000000000E+00 0.  1.
          2   -1    0    0  501    0  0.00000000000E+00 -0.00000000000E+00 -0.79496650152E+02  0.79496650152E+02  0.00000000000E+00 0. -1.
         25    2    1    2    0    0 -0.57532981052E+01 -0.65100799264E+02  0.54190570561E+02  0.15118033208E+03  0.12509060863E+03 0.  0.
          5    1    3    3  502    0  0.48517475911E+02 -0.47807676288E+02  0.63616130793E+02  0.93295251101E+02  0.41800000000E+01 0. -1.
         -5    1    3    3    0  502 -0.54270774016E+02 -0.17293122975E+02 -0.94255602315E+01  0.57885080982E+02  0.41800000000E+01 0. -1.
        -11    1    1    2    0    0 -0.26350440512E+02  0.38226645037E+02 -0.47251142442E+01  0.46668499125E+02  0.00000000000E+00 0. -1.
         11    1    1    2    0    0  0.32103738617E+02  0.26874154226E+02  0.77300245635E+02  0.87910171049E+02  0.00000000000E+00 0.  1.
</event>
<event>
 7    1  0.3299933E-009  0.1922369E+03  0.7561462E-02  0.1156459E+00
         -2   -1    0    0    0  501 -0.00000000000E+00  0.00000000000E+00  0.49293081947E+02  0.49293081947E+02  0.00000000000E+00 0. -1.
          2   -1    0    0  501    0  0.00000000000E+00 -0.00000000000E+00 -0.82546727113E+03  0.82546727113E+03  0.00000000000E+00 0.  1.
         25    2    1    2    0    0 -0.13836082428E+03  0.90369788334E+02 -0.48870269237E+03  0.53083676420E+03  0.12508769867E+03 0.  0.
          5    1    3    3  502    0 -0.23281288885E+02  0.89008783820E+02 -0.21723936914E+03  0.23595549986E+03  0.41800000000E+01 0. -1.
         -5    1    3    3    0  502 -0.11507953540E+03  0.13610045141E+01 -0.27146332323E+03  0.29488126434E+03  0.41800000000E+01 0. -1.
        -11    1    1    2    0    0  0.58356812581E+02 -0.76174292547E+02 -0.21336947958E+03  0.23395421611E+03  0.00000000000E+00 0.  1.
         11    1    1    2    0    0  0.80004011701E+02 -0.14195495787E+02 -0.74102017238E+02  0.10996937277E+03  0.00000000000E+00 0. -1.
</event>
<event>
 7    1  0.3265282E-009  0.9860276E+02  0.7561462E-02  0.1283262E+00
         -2   -1    0    0    0  501 -0.00000000000E+00  0.00000000000E+00  0.28077460427E+02  0.28077460427E+02  0.00000000000E+00 0. -1.
          2   -1    0    0  501    0  0.00000000000E+00 -0.00000000000E+00 -0.59938464697E+03  0.59938464697E+03  0.00000000000E+00 0.  1.
         25    2    1    2    0    0 -0.36285019991E+02 -0.22489486131E+02 -0.45668158614E+03  0.47542350858E+03  0.12508821579E+03 0.  0.
          5    1    3    3  502    0 -0.33848454205E+01  0.37493571775E+02 -0.32282185656E+03  0.32503638039E+03  0.41800000000E+01 0.  1.
         -5    1    3    3    0  502 -0.32900174570E+02 -0.59983057906E+02 -0.13385972958E+03  0.15038712820E+03  0.41800000000E+01 0.  1.
        -11    1    1    2    0    0 -0.10420820709E+02  0.39674414508E+02 -0.84325158626E+02  0.93773050756E+02  0.00000000000E+00 0.  1.
         11    1    1    2    0    0  0.46705840700E+02 -0.17184928377E+02 -0.30300441772E+02  0.58265548057E+02  0.00000000000E+00 0. -1.
</event>
<event>
 7    1  0.3265282E-009  0.1614734E+03  0.7561462E-02  0.1187043E+00
          4   -1    0    0  501    0  0.00000000000E+00  0.00000000000E+00  0.97174638061E+02  0.97174638061E+02  0.00000000000E+00 0. -1.
         -4   -1    0    0    0  501 -0.00000000000E+00 -0.00000000000E+00 -0.33373129044E+03  0.33373129044E+03  0.00000000000E+00 0.  1.
         25    2    1    2    0    0  0.52345904490E+01 -0.13923206499E+03 -0.16857960971E+03  0.25195045008E+03  0.12508787162E+03 0.  0.
          5    1    3    3  502    0 -0.19956258224E+02  0.16160988466E+02 -0.84362303893E+01  0.27350908096E+02  0.41800000000E+01 0.  1.
         -5    1    3    3    0  502  0.25190848673E+02 -0.15539305346E+03 -0.16014337932E+03  0.22459954199E+03  0.41800000000E+01 0.  1.
        -11    1    1    2    0    0 -0.21081419373E+01  0.11501740851E+03 -0.90011755952E+02  0.14606698714E+03  0.00000000000E+00 0.  1.
         11    1    1    2    0    0 -0.31264485117E+01  0.24214656483E+02  0.22034713286E+02  0.32888491277E+02  0.00000000000E+00 0. -1.
</event>
<event>
 7    1  0.3265282E-009  0.1554188E+03  0.7561462E-02  0.1193968E+00
          1   -1    0    0  501    0  0.00000000000E+00  0.00000000000E+00  0.15602972630E+03  0.15602972630E+03  0.00000000000E+00 0. -1.
         -1   -1    0    0    0  501 -0.00000000000E+00 -0.00000000000E+00 -0.17074046370E+03  0.17074046370E+03  0.00000000000E+00 0.  1.
         25    2    1    2    0    0 -0.12140474153E+03 -0.13200222198E+02 -0.19175651805E+02  0.17586503187E+03  0.12508975451E+03 0.  0.
          5    1    3    3  502    0 -0.11221812739E+03  0.35013091295E+02 -0.37265933993E+02  0.12338981690E+03  0.41800000000E+01 0. -1.
         -5    1    3    3    0  502 -0.91866141330E+01 -0.48213313493E+02  0.18090282188E+02  0.52475214977E+02  0.41800000000E+01 0. -1.
        -11    1    1    2    0    0  0.87084354637E+02  0.44239386359E+02  0.24149254724E+02  0.10061806315E+03  0.00000000000E+00 0. -1.
         11    1    1    2    0    0  0.34320386889E+02 -0.31039164161E+02 -0.19684340319E+02  0.50287094983E+02  0.00000000000E+00 0.  1.
</event>
<event>
 7    1  0.3265282E-009  0.7716097E+02  0.7561462E-02  0.1337307E+00
         -1   -1    0    0    0  501 -0.00000000000E+00  0.00000000000E+00  0.15939008905E+02  0.15939008905E+02  0.00000000000E+00 0.  1.
          1   -1    0    0  501    0  0.00000000000E+00 -0.00000000000E+00 -0.78550776444E+03  0.78550776444E+03  0.00000000000E+00 0. -1.
         25    2    1    2    0    0  0.10698522029E+02  0.30965828459E+01 -0.35990015428E+03  0.38118268561E+03  0.12509225219E+03 0.  0.
          5    1    3    3  502    0 -0.32629985148E+01  0.31301745372E+02 -0.15512775736E+02  0.35335039743E+02  0.41800000000E+01 0.  1.
         -5    1    3    3    0  502  0.13961520544E+02 -0.28205162526E+02 -0.34438737855E+03  0.34584764587E+03  0.41800000000E+01 0.  1.
        -11    1    1    2    0    0 -0.28501978388E+02 -0.40429134852E+02 -0.27405801432E+03  0.27848639631E+03  0.00000000000E+00 0.  1.
         11    1    1    2    0    0  0.17803456359E+02  0.37332552006E+02 -0.13561058694E+03  0.14177769143E+03  0.00000000000E+00 0. -1.
</event>
<event>
 7    1  0.3265282E-009  0.1666659E+03  0.7561462E-02  0.1181370E+00
         -2   -1    0    0    0  501 -0.00000000000E+00  0.00000000000E+00  0.13944734725E+03  0.13944734725E+03  0.00000000000E+00 0.  1.
          2   -1    0    0  501    0  0.00000000000E+00 -0.00000000000E+00 -0.41113909461E+03  0.41113909461E+03  0.00000000000E+00 0. -1.
         25    2    1    2    0    0  0.96253745879E+02 -0.11869341865E+03  0.38697228702E+02  0.20121605045E+03  0.12505003887E+03 0.  0.
          5    1    3    3  502    0  0.13262224284E+02 -0.92275385748E+02  0.60656574088E+02  0.11129836382E+03  0.41800000000E+01 0. -1.
         -5    1    3    3    0  502  0.82991521595E+02 -0.26418032906E+02 -0.21959345386E+02  0.89917686631E+02  0.41800000000E+01 0. -1.
        -11    1    1    2    0    0 -0.65514717895E+02  0.81476470386E+02 -0.15749497540E+03  0.18903772312E+03  0.00000000000E+00 0.  1.
         11    1    1    2    0    0 -0.30739027984E+02  0.37216948268E+02 -0.15289400066E+03  0.16033266828E+03  0.00000000000E+00 0. -1.
</event>
<event>
 7    1  0.3265282E-009  0.1453752E+03  0.7561462E-02  0.1206274E+00
          2   -1    0    0  501    0  0.00000000000E+00  0.00000000000E+00  0.85131986258E+02  0.85131986258E+02  0.00000000000E+00 0. -1.
         -2   -1    0    0    0  501 -0.00000000000E+00 -0.00000000000E+00 -0.28519837850E+03  0.28519837850E+03  0.00000000000E+00 0.  1.
         25    2    1    2    0    0  0.10258441359E+03 -0.41260025647E+02 -0.12175591084E+03  0.20663449155E+03  0.12508940661E+03 0.  0.
          5    1    3    3  502    0  0.28198447038E-01 -0.62024784800E+02 -0.42540092450E+02  0.75327329637E+02  0.41800000000E+01 0. -1.
         -5    1    3    3    0  502  0.10255621514E+03  0.20764759153E+02 -0.79215818391E+02  0.13130716192E+03  0.41800000000E+01 0. -1.
        -11    1    1    2    0    0 -0.37166026491E+02  0.44970328185E+02  0.40140310994E+01  0.58478683192E+02  0.00000000000E+00 0. -1.
         11    1    1    2    0    0 -0.65418387100E+02 -0.37103025381E+01 -0.82324512502E+02  0.10521719001E+03  0.00000000000E+00 0.  1.
</event>
<event>
 7    1  0.4449176E-009  0.2001689E+03  0.7561462E-02  0.1149597E+00
          1   -1    0    0  501    0  0.00000000000E+00  0.00000000000E+00  0.80187784118E+03  0.80187784118E+03  0.00000000000E+00 0. -1.
         -1   -1    0    0    0  501 -0.00000000000E+00 -0.00000000000E+00 -0.56899930605E+02  0.56899930605E+02  0.00000000000E+00 0.  1.
         25    2    1    2    0    0 -0.23473438685E+01  0.17173380962E+03  0.51719112337E+03  0.55913724051E+03  0.12509909765E+03 0.  0.
          5    1    3    3  502    0 -0.56504286133E+02  0.66923605067E+02  0.29197565681E+03  0.30485858990E+03  0.41800000000E+01 0.  1.
         -5    1    3    3    0  502  0.54156942265E+02  0.10481020455E+03  0.22521546657E+03  0.25427865061E+03  0.41800000000E+01 0.  1.
        -11    1    1    2    0    0 -0.43778642686E+02 -0.65465588292E+02  0.88220138234E+02  0.11825863857E+03  0.00000000000E+00 0.  1.
         11    1    1    2    0    0  0.46125986554E+02 -0.10626822133E+03  0.13956664897E+03  0.18138189272E+03  0.00000000000E+00 0. -1.
</event>
<event>
 7    1  0.3265282E-009  0.1375036E+03  0.7561462E-02  0.1216728E+00
          1   -1    0    0  501    0  0.00000000000E+00  0.00000000000E+00  0.49283566495E+03  0.49283566495E+03  0.00000000000E+00 0. -1.
         -1   -1    0    0    0  501 -0.00000000000E+00 -0.00000000000E+00 -0.42546162756E+02  0.42546162756E+02  0.00000000000E+00 0.  1.
         25    2    1    2    0    0 -0.57525144571E+02  0.68603128839E+02  0.23592271217E+03  0.28163838187E+03  0.12508045604E+03 0.  0.
          5    1    3    3  502    0 -0.13238069223E+02 -0.35757734202E+02  0.80966166739E+02  0.89592715041E+02  0.41800000000E+01 0.  1.
         -5    1    3    3    0  502 -0.44287075348E+02  0.10436086304E+03  0.15495654543E+03  0.19204566683E+03  0.41800000000E+01 0.  1.
        -11    1    1    2    0    0  0.77228710237E+02 -0.36228490128E+02  0.19109306752E+03  0.20926857775E+03  0.00000000000E+00 0. -1.
         11    1    1    2    0    0 -0.19703565667E+02 -0.32374638711E+02  0.23273722515E+02  0.44474868087E+02  0.00000000000E+00 0.  1.
</event>
<event>
 7    1  0.3265282E-009  0.1415064E+03  0.7561462E-02  0.1211316E+00
         -1   -1    0    0    0  501 -0.00000000000E+00  0.00000000000E+00  0.14985423736E+04  0.14985423736E+04  0.00000000000E+00 0.  1.
          1   -1    0    0  501    0  0.00000000000E+00 -0.00000000000E+00 -0.19525305351E+02  0.19525305351E+02  0.00000000000E+00 0. -1.
         25    2    1    2    0    0  0.46092257570E+01  0.12672587635E+03  0.61908437267E+03  0.64420010685E+03  0.12509046521E+03 0.  0.
          5    1    3    3  502    0 -0.14125162351E+01  0.96607218948E+02  0.60011792396E+03  0.60786013606E+03  0.41800000000E+01 0.  1.
         -5    1    3    3    0  502  0.60217419921E+01  0.30118657404E+02  0.18966448709E+02  0.36339970791E+02  0.41800000000E+01 0.  1.
        -11    1    1    2    0    0 -0.47171794378E+02 -0.69144770525E+02  0.44568043060E+03  0.45347240676E+03  0.00000000000E+00 0.  1.
         11    1    1    2    0    0  0.42562568621E+02 -0.57581105827E+02  0.41425226498E+03  0.42039516533E+03  0.00000000000E+00 0. -1.
</event>
<event>
 6    1  0.3265282E-009  0.9022169E+02  0.7561462E-02  0.1302316E+00
          4   -1    0    0  501    0  0.00000000000E+00  0.00000000000E+00  0.37994732854E+02  0.37994732854E+02  0.00000000000E+00 0. -1.
         -4   -1    0    0    0  501 -0.00000000000E+00 -0.00000000000E+00 -0.48090785174E+03  0.48090785174E+03  0.00000000000E+00 0.  1.
          5    1    1    2  502    0 -0.52170472145E+02  0.18312913351E+02 -0.18242545235E+03  0.19066630280E+03  0.41800000000E+01 0.  1.
         -5    1    1    2    0  502  0.72998814672E+02  0.35400657577E+01 -0.20605493826E+03  0.21867205810E+03  0.41800000000E+01 0.  1.
        -11    1    1    2    0    0  0.52120784565E+01 -0.25020817925E+02  0.18830793759E+02  0.31745958563E+02  0.00000000000E+00 0. -1.
         11    1    1    2    0    0 -0.26040420984E+02  0.31678388164E+01 -0.73263522039E+02  0.77818265139E+02  0.00000000000E+00 0.  1.
</event>
<event>
 7    1  0.3265282E-009  0.1010432E+03  0.7561462E-02  0.1278117E+00
          3   -1    0    0  501    0  0.00000000000E+00  0.00000000000E+00  0.40311579229E+03  0.40311579229E+03  0.00000000000E+00 0. -1.
         -3   -1    0    0    0  501 -0.00000000000E+00 -0.00000000000E+00 -0.37431459429E+02  0.37431459429E+02  0.00000000000E+00 0.  1.
         25    2    1    2    0    0  0.72496724819E+01 -0.40429572719E+02  0.25560735418E+03  0.28752335693E+03  0.12508978043E+03 0.  0.
          5    1    3    3  502    0 -0.41792180250E+02 -0.40176501704E+00  0.26197046286E+02  0.49502579522E+02  0.41800000000E+01 0.  1.
         -5    1    3    3    0  502  0.49041852732E+02 -0.40027807702E+02  0.22941030790E+03  0.23802077741E+03  0.41800000000E+01 0.  1.
        -11    1    1    2    0    0  0.37422868681E+02  0.16063952490E+01  0.13620071825E+02  0.39856717909E+02  0.00000000000E+00 0.  1.
         11    1    1    2    0    0 -0.44672541163E+02  0.38823177470E+02  0.96456906849E+02  0.11316717687E+03  0.00000000000E+00 0. -1.
</event>
<event>
 7    1  0.3265282E-009  0.1032082E+03  0.7561462E-02  0.1273691E+00
         -2   -1    0    0    0  501 -0.00000000000E+00  0.00000000000E+00  0.24562623446E+02  0.24562623446E+02  0.00000000000E+00 0. -1.
          2   -1    0    0  501    0  0.00000000000E+00 -0.00000000000E+00 -0.52998737912E+03  0.52998737912E+03  0.00000000000E+00 0.  1.
         25    2    1    2    0    0 -0.11026266525E+02  0.22148229712E+02 -0.22114114210E+03  0.25526660263E+03  0.12508201732E+03 0.  0.
          5    1    3    3  502    0 -0.44142531650E+02  0.51953175534E+02 -0.70669969333E+02  0.98282310280E+02  0.41800000000E+01 0. -1.
         -5    1    3    3    0  502  0.33116265125E+02 -0.29804945822E+02 -0.15047117277E+03  0.15698429235E+03  0.41800000000E+01 0. -1.
        -11    1    1    2    0    0 -0.39819559026E+02 -0.84471045946E+01 -0.13358057016E+03  0.13964497693E+03  0.00000000000E+00 0.  1.
         11    1    1    2    0    0  0.50845825551E+02 -0.13701125117E+02 -0.15070304342E+03  0.15963842301E+03  0.00000000000E+00 0. -1.
</event>
<event>
 7    1  0.3265282E-009  0.1128430E+03  0.7561462E-02  0.1255394E+00
          1   -1    0    0  501    0  0.00000000000E+00  0.00000000000E+00  0.51842900693E+03  0.51842900693E+03  0.00000000000E+00 0. -1.
         -1   -1    0    0    0  501 -0.00000000000E+00 -0.00000000000E+00 -0.51540758158E+02  0.51540758158E+02  0.00000000000E+00 0.  1.
         25    2    1    2    0    0 -0.33340916515E+02 -0.94061130030E+01  0.44166463645E+03  0.46034016941E+03  0.12508128881E+03 0.  0.
          5    1    3    3  502    0 -0.58187017056E+02  0.35138486555E+02  0.33726304263E+03  0.34407015929E+03  0.41800000000E+01 0. -1.
         -5    1    3    3    0  502  0.24846100541E+02 -0.44544599558E+02  0.10440159382E+03  0.11627001012E+03  0.41800000000E+01 0. -1.
        -11    1    1    2    0    0 -0.34745944364E+02 -0.89683168288E+01  0.12289029986E+02  0.37930615793E+02  0.00000000000E+00 0.  1.
         11    1    1    2    0    0  0.68086860879E+02  0.18374429832E+02  0.12934582339E+02  0.71698979883E+02  0.00000000000E+00 0. -1.
</event>
<event>
 7    1  0.3265282E-009  0.1518062E+03  0.7561462E-02  0.1198271E+00
          3   -1    0    0  501    0  0.00000000000E+00  0.00000000000E+00  0.80040718431E+02  0.80040718431E+02  0.00000000000E+00 0.  1.
         -3   -1    0    0    0  501 -0.00000000000E+00 -0.00000000000E+00 -0.38938209023E+03  0.38938209023E+03  0.00000000000E+00 0. -1.
         25    2    1    2    0    0  0.13851608296E+03 -0.12044895219E+02 -0.16639184829E+03  0.25033158641E+03  0.12509145150E+03 0.  0.
          5    1    3    3  502    0  0.12975945189E+03 -0.26202890384E+02 -0.18336327353E+03  0.22619387547E+03  0.41800000000E+01 0. -1.
         -5    1    3    3    0  502  0.87566310708E+01  0.14157995165E+02  0.16971425242E+02  0.24137710943E+02  0.41800000000E+01 0. -1.
        -11    1    1    2    0    0 -0.34263911133E+02  0.33107023685E+02 -0.86319913318E+02  0.98596237549E+02  0.00000000000E+00 0. -1.
         11    1    1    2    0    0 -0.10425217183E+03 -0.21062128466E+02 -0.56629610192E+02  0.12049498470E+03  0.00000000000E+00 0.  1.
</event>
<event>
 7    1  0.3265282E-009  0.1062928E+03  0.7561462E-02  0.1267593E+00
         -2   -1    0    0    0  501 -0.00000000000E+00  0.00000000000E+00  0.31117362622E+02  0.31117362622E+02  0.00000000000E+00 0.  1.
          2   -1    0    0  501    0  0.00000000000E+00 -0.00000000000E+00 -0.41356248839E+03  0.41356248839E+03  0.00000000000E+00 0. -1.
         25    2    1    2    0    0  0.18796717093E+02 -0.25986840844E+02 -0.20900498400E+03  0.24567801730E+03  0.12508386137E+03 0.  0.
          5    1    3    3  502    0 -0.29794115963E+02  0.37560938612E+02 -0.92829716961E+02  0.10456262337E+03  0.41800000000E+01 0.  1.
         -5    1    3    3    0  502  0.48590833056E+02 -0.63547779456E+02 -0.11617526704E+03  0.14111539393E+03  0.41800000000E+01 0.  1.
        -11    1    1    2    0    0 -0.41090435479E+02 -0.97535208036E+01 -0.36799650822E+02  0.56015795599E+02  0.00000000000E+00 0.  1.
         11    1    1    2    0    0  0.22293718387E+02  0.35740361648E+02 -0.13664049095E+03  0.14298603812E+03  0.00000000000E+00 0. -1.
</event>
<event>
 7    1  0.3265282E-009  0.1950877E+03  0.7561462E-02  0.1153951E+00
         -2   -1    0    0    0  501 -0.00000000000E+00  0.00000000000E+00  0.29438974649E+02  0.29438974649E+02  0.00000000000E+00 0.  1.
          2   -1    0    0  501    0  0.00000000000E+00 -0.00000000000E+00 -0.14750659708E+04  0.14750659708E+04  0.00000000000E+00 0. -1.
         25    2    1    2    0    0 -0.95187372559E+02  0.14974334523E+03 -0.74253379437E+03  0.77361794243E+03  0.12507829437E+03 0.  0.
          5    1    3    3  502    0 -0.87080891836E+02  0.43682440919E+02 -0.22455520111E+03  0.24481370083E+03  0.41800000000E+01 0.  1.
         -5    1    3    3    0  502 -0.81064807227E+01  0.10606090431E+03 -0.51797859326E+03  0.52880424160E+03  0.41800000000E+01 0.  1.
        -11    1    1    2    0    0  0.61249987022E+02 -0.13680461155E+03 -0.64644783256E+03  0.66359766642E+03  0.00000000000E+00 0. -1.
         11    1    1    2    0    0  0.33937385537E+02 -0.12938733681E+02 -0.56645369178E+02  0.67289336567E+02  0.00000000000E+00 0.  1.
</event>
<event>
 7    1  0.3265282E-009  0.8046128E+02  0.7561462E-02  0.1327747E+00
         -2   -1    0    0    0  501 -0.00000000000E+00  0.00000000000E+00  0.17770500534E+03  0.17770500534E+03  0.00000000000E+00 0.  1.
          2   -1    0    0  501    0  0.00000000000E+00 -0.00000000000E+00 -0.67601274388E+02  0.67601274388E+02  0.00000000000E+00 0. -1.
         25    2    1    2    0    0 -0.17555707526E+02  0.69989767198E+01  0.70025557456E+02  0.14459485508E+03  0.12508758882E+03 0.  0.
          5    1    3    3  502    0  0.13599039870E+01  0.54737272479E+02 -0.32627099166E+01  0.55010326424E+02  0.41800000000E+01 0. -1.
         -5    1    3    3    0  502 -0.18915611513E+02 -0.47738295759E+02  0.73288267373E+02  0.89584528661E+02  0.41800000000E+01 0. -1.
        -11    1    1    2    0    0 -0.68205633578E+01  0.18196437895E+02 -0.22039952808E+02  0.29383498028E+02  0.00000000000E+00 0. -1.
         11    1    1    2    0    0  0.24376270884E+02 -0.25195414615E+02  0.62118126303E+02  0.71327926615E+02  0.00000000000E+00 0.  1.
</event>
<event>
 7    1  0.3265282E-009  0.9450548E+02  0.7561462E-02  0.1292294E+00
         -2   -1    0    0    0  501 -0.00000000000E+00  0.00000000000E+00  0.21845233107E+02  0.21845233107E+02  0.00000000000E+00 0.  1.
          2   -1    0    0  501    0  0.00000000000E+00 -0.00000000000E+00 -0.64644129452E+03  0.64644129452E+03  0.00000000000E+00 0. -1.
         25    2    1    2    0    0  0.37554952798E+02  0.16388949226E+02 -0.28995206871E+03  0.31843196141E+03  0.12509092596E+03 0.  0.
          5    1    3    3  502    0  0.48321472089E+02 -0.22228212858E+02 -0.26652183456E+03  0.27180952670E+03  0.41800000000E+01 0. -1.
         -5    1    3    3    0  502 -0.10766519290E+02  0.38617162084E+02 -0.23430234158E+02  0.46622434704E+02  0.41800000000E+01 0. -1.
        -11    1    1    2    0    0  0.27094489635E+02 -0.14371166098E+02 -0.56485167912E+02  0.64274535997E+02  0.00000000000E+00 0.  1.
         11    1    1    2    0    0 -0.64649442433E+02 -0.20177831283E+01 -0.27815882479E+03  0.28558003023E+03  0.00000000000E+00 0. -1.
</event>
<event>
 7    1  0.3265282E-009  0.1069850E+03  0.7561462E-02  0.1266257E+00
         -1   -1    0    0    0  501 -0.00000000000E+00  0.00000000000E+00  0.16977428253E+03  0.16977428253E+03  0.00000000000E+00 0.  1.
          1   -1    0    0  501    0  0.00000000000E+00 -0.00000000000E+00 -0.90388376212E+02  0.90388376212E+02  0.00000000000E+00 0. -1.
         25    2    1    2    0    0  0.13446780118E+02  0.37359028050E+02  0.88787729190E+02  0.15845873208E+03  0.12509754612E+03 0.  0.
          5    1    3    3  502    0 -0.13113366014E+02  0.75548380362E+02  0.80079215942E+02  0.11094895840E+03  0.41800000000E+01 0. -1.
         -5    1    3    3    0  502  0.26560146132E+02 -0.38189352312E+02  0.87085132487E+01  0.47509773685E+02  0.41800000000E+01 0. -1.
        -11    1    1    2    0    0 -0.46438934058E+02 -0.97461345884E+01  0.17939338689E+02  0.50728508833E+02  0.00000000000E+00 0.  1.
         11    1    1    2    0    0  0.32992153940E+02 -0.27612893462E+02 -0.27341161563E+02  0.50975417826E+02  0.00000000000E+00 0. -1.
</event>
<event>
 7    1  0.3265282E-009  0.1253968E+03  0.7561462E-02  0.1234450E+00
          2   -1    0    0  501    0  0.00000000000E+00  0.00000000000E+00  0.21369425511E+03  0.21369425511E+03  0.00000000000E+00 0. -1.
         -2   -1    0    0    0  501 -0.00000000000E+00 -0.00000000000E+00 -0.89280566391E+02  0.89280566391E+02  0.00000000000E+00 0.  1.
         25    2    1    2    0    0 -0.29106348003E+02 -0.79534107686E+02  0.64238226018E+02  0.16415736535E+03  0.12509291401E+03 0.  0.
          5    1    3    3  502    0 -0.33799409881E+00  0.27414870897E+02 -0.11391357784E+02  0.29982074953E+02  0.41800000000E+01 0. -1.
         -5    1    3    3    0  502 -0.28768353905E+02 -0.10694897858E+03  0.75629583802E+02  0.13417529039E+03  0.41800000000E+01 0. -1.
        -11    1    1    2    0    0  0.44699168661E+02  0.84727515515E+02  0.23511629639E+02  0.98638553784E+02  0.00000000000E+00 0.  1.
         11    1    1    2    0    0 -0.15592820658E+02 -0.51934078287E+01  0.36663833066E+02  0.40178902375E+02  0.00000000000E+00 0. -1.
</event>
<event>
 6    1  0.3265282E-009  0.1178835E+03  0.7561462E-02  0.1246630E+00
          2   -1    0    0  501    0  0.00000000000E+00  0.00000000000E+00  0.51928787914E+03  0.51928787914E+03  0.00000000000E+00 0. -1.
         -2   -1    0    0    0  501 -0.00000000000E+00 -0.00000000000E+00 -0.36583920206E+02  0.36583920206E+02  0.00000000000E+00 0.  1.
          5    1    1    2  502    0  0.13409016904E+02 -0.50791803508E+02  0.26418452643E+03  0.26938920811E+03  0.41800000000E+01 0.  1.
         -5    1    1    2    0  502  0.55095224525E+02  0.39841860578E+02  0.92514656755E+02  0.11488817056E+03  0.41800000000E+01 0.  1.
        -11    1    1    2    0    0 -0.47431068101E+02  0.51028575768E+02  0.89574514900E+02  0.11347781936E+03  0.00000000000E+00 0. -1.
         11    1    1    2    0    0 -0.21073173328E+02 -0.40078632838E+02  0.36430260848E+02  0.58116601326E+02  0.00000000000E+00 0.  1.
</event>
<event>
 7    1  0.3265282E-009  0.8921332E+02  0.7561462E-02  0.1304768E+00
          2   -1    0    0  501    0  0.00000000000E+00  0.00000000000E+00  0.61163479320E+03  0.61163479320E+03  0.00000000000E+00 0. -1.
         -2   -1    0    0    0  501 -0.00000000000E+00 -0.00000000000E+00 -0.35045275047E+02  0.35045275047E+02  0.00000000000E+00 0.  1.
         25    2    1    2    0    0 -0.23069325847E+02  0.79025707209E+02  0.20100282051E+03  0.25065309018E+03  0.12509029366E+03 0.  0.
          5    1    3    3  502    0 -0.12397637622E+02  0.12635158439E+02  0.17879057054E+03  0.17971335277E+03  0.41800000000E+01 0.  1.
         -5    1    3    3    0  502 -0.10671688225E+02  0.66390548769E+02  0.22212249968E+02  0.70939737412E+02  0.41800000000E+01 0.  1.
        -11    1    1    2    0    0  0.26199854631E+02 -0.18064071621E+02  0.25839777835E+02  0.40993135825E+02  0.00000000000E+00 0.  1.
         11    1    1    2    0    0 -0.31305287832E+01 -0.60961635587E+02  0.34974691981E+03  0.35503384225E+03  0.00000000000E+00 0. -1.
</event>
<event>
 7    1  0.3265282E-009  0.7111384E+02  0.7561462E-02  0.1356346E+00
          2   -1    0    0  501    0  0.00000000000E+00  0.00000000000E+00  0.11435890582E+04  0.11435890582E+04  0.00000000000E+00 0. -1.
         -2   -1    0    0    0  501 -0.00000000000E+00 -0.00000000000E+00 -0.12885352250E+02  0.12885352250E+02  0.00000000000E+00 0.  1.
         25    2    1    2    0    0  0.46126666030E+02 -0.28821357832E+02  0.91153439864E+03  0.92168328394E+03  0.12508707370E+03 0.  0.
          5    1    3    3  502    0 -0.49497965120E+01 -0.14292347441E+02  0.10067482823E+02  0.18643988073E+02  0.41800000000E+01 0. -1.
         -5    1    3    3    0  502  0.51076462542E+02 -0.14529010390E+02  0.90146691581E+03  0.90303929586E+03  0.41800000000E+01 0. -1.
        -11    1    1    2    0    0 -0.44742232061E+02  0.41194490783E+02  0.21172061989E+03  0.22028271446E+03  0.00000000000E+00 0. -1.
         11    1    1    2    0    0 -0.13844339690E+01 -0.12373132952E+02  0.74486874497E+01  0.14508412083E+02  0.00000000000E+00 0.  1.
</event>
<event>
 7    1  0.3265282E-009  0.2682556E+03  0.7561462E-02  0.1102282E+00
         -1   -1    0    0    0  501 -0.00000000000E+00  0.00000000000E+00  0.96090746291E+02  0.96090746291E+02  0.00000000000E+00 0.  1.
          1   -1    0    0  501    0  0.00000000000E+00 -0.00000000000E+00 -0.94695853732E+03  0.94695853732E+03  0.00000000000E+00 0. -1.
         25    2    1    2    0    0 -0.11258694541E+03  0.23450384800E+03 -0.24997690082E+03  0.38184183301E+03  0.12508740741E+03 0.  0.
          5    1    3    3  502    0 -0.75790882337E+02  0.12096073859E+03 -0.54666990415E+02  0.15291079218E+03  0.41800000000E+01 0. -1.
         -5    1    3    3    0  502 -0.36796063072E+02  0.11354310941E+03 -0.19530991041E+03  0.22893104083E+03  0.41800000000E+01 0. -1.
        -11    1    1    2    0    0  0.22272038868E+02 -0.14647342739E+03 -0.36008912384E+03  0.38937730514E+03  0.00000000000E+00 0.  1.
         11    1    1    2    0    0  0.90314906541E+02 -0.88030420606E+02 -0.24080176636E+03  0.27183014545E+03  0.00000000000E+00 0. -1.
</event>
<event>
 7    1  0.3265282E-009  0.1161866E+03  0.7561462E-02  0.1249524E+00
          1   -1    0    0  501    0  0.00000000000E+00  0.00000000000E+00  0.31371585059E+03  0.31371585059E+03  0.00000000000E+00 0. -1.
         -1   -1    0    0    0  501 -0.00000000000E+00 -0.00000000000E+00 -0.58245846741E+02  0.58245846741E+02  0.00000000000E+00 0.  1.
         25    2    1    2    0    0 -0.73317858513E+02 -0.31688454279E+02  0.15265466254E+03  0.21291020979E+03  0.12509054691E+03 0.  0.
          5    1    3    3  502    0 -0.79720145763E+02  0.22794753663E+02  0.12812872130E+03  0.15267397963E+03  0.41800000000E+01 0.  1.
         -5    1    3    3    0  502  0.64022872499E+01 -0.54483207942E+02  0.24525941239E+02  0.60236230155E+02  0.41800000000E+01 0.  1.
        -11    1    1    2    0    0  0.43844849436E+02  0.44254004545E+02  0.10981662982E+03  0.12625561344E+03  0.00000000000E+00 0. -1.
         11    1    1    2    0    0  0.29473009077E+02 -0.12565550266E+02 -0.70012885068E+01  0.32795874105E+02  0.00000000000E+00 0.  1.
</event>
<event>
 7    1  0.3265282E-009  0.9133897E+02  0.7561462E-02  0.1299641E+00
          1   -1    0    0  501    0  0.00000000000E+00  0.00000000000E+00  0.25831818170E+03  0.25831818170E+03  0.00000000000E+00 0.  1.
         -1   -1    0    0    0  501 -0.00000000000E+00 -0.00000000000E+00 -0.49702313077E+02  0.49702313077E+02  0.00000000000E+00 0. -1.
         25    2    1    2    0    0  0.32696728647E+02  0.38675444004E+01  0.10867749741E+03  0.16893689472E+03  0.12507934279E+03 0.  0.
          5    1    3    3  502    0  0.62323747314E+02 -0.41063626670E+02  0.54964739740E+02  0.92785052295E+02  0.41800000000E+01 0. -1.
         -5    1    3    3    0  502 -0.29627018667E+02  0.44931171071E+02  0.53712757670E+02  0.76151842430E+02  0.41800000000E+01 0. -1.
        -11    1    1    2    0    0  0.44000636545E+01  0.12607231604E+02 -0.13265728441E+02  0.18822390920E+02  0.00000000000E+00 0. -1.
         11    1    1    2    0    0 -0.37096792301E+02 -0.16474776004E+02  0.11320409965E+03  0.12026120913E+03  0.00000000000E+00 0.  1.
</event>
<event>
 7    1  0.3265282E-009  0.9122981E+02  0.7561462E-02  0.1299901E+00
         -2   -1    0    0    0  501 -0.00000000000E+00  0.00000000000E+00  0.14284203757E+03  0.14284203757E+03  0.00000000000E+00 0.  1.
          2   -1    0    0  501    0  0.00000000000E+00 -0.00000000000E+00 -0.11165077176E+03  0.11165077176E+03  0.00000000000E+00 0. -1.
         25    2    1    2    0    0  0.52537282776E+02 -0.32397093022E+02  0.44347417537E+02  0.14635382004E+03  0.12507201717E+03 0.  0.
          5    1    3    3  502    0  0.61072654677E+02 -0.11480574957E+02  0.81559382068E+02  0.10262104050E+03  0.41800000000E+01 0. -1.
         -5    1    3    3    0  502 -0.85353719010E+01 -0.20916518065E+02 -0.37211964531E+02  0.43732779533E+02  0.41800000000E+01 0. -1.
        -11    1    1    2    0    0 -0.71225179361E+02  0.33013648669E+02  0.91464272228E+01  0.79035335796E+02  0.00000000000E+00 0.  1.
         11    1    1    2    0    0  0.18687896584E+02 -0.61655564620E+00 -0.22302578950E+02  0.29103653507E+02  0.00000000000E+00 0. -1.
</event>
<event>
 7    1  0.3265282E-009  0.1386615E+03  0.7561462E-02  0.1215141E+00
         -1   -1    0    0    0  501 -0.00000000000E+00  0.00000000000E+00  0.15055957664E+03  0.15055957664E+03  0.00000000000E+00 0.  1.
          1   -1    0    0  501    0  0.00000000000E+00 -0.00000000000E+00 -0.19510738144E+03  0.19510738144E+03  0.00000000000E+00 0. -1.
         25    2    1    2    0    0 -0.64685054971E+02  0.11171040865E+03  0.54782433191E+01  0.17983675488E+03  0.12509146861E+03 0.  0.
          5    1    3    3  502    0  0.21052496645E+00  0.45736895706E+02  0.57501819039E+02  0.73592387802E+02  0.41800000000E+01 0.  1.
         -5    1    3    3    0  502 -0.64895579938E+02  0.65973512949E+02 -0.52023575720E+02  0.10624436708E+03  0.41800000000E+01 0.  1.
        -11    1    1    2    0    0  0.69672796669E+02 -0.77609425728E+02  0.94701869622E+00  0.10429965677E+03  0.00000000000E+00 0.  1.
         11    1    1    2    0    0 -0.49877416978E+01 -0.34100982927E+02 -0.50973066812E+02  0.61530546430E+02  0.00000000000E+00 0. -1.
</event>
<event>
 7    1  0.3265282E-009  0.1277838E+03  0.7561462E-02  0.1230782E+00
         -2   -1    0    0    0  501 -0.00000000000E+00  0.00000000000E+00  0.13399985269E+02  0.13399985269E+02  0.00000000000E+00 0.  1.
          2   -1    0    0  501    0  0.00000000000E+00 -0.00000000000E+00 -0.24654199541E+04  0.24654199541E+04  0.00000000000E+00 0. -1.
         25    2    1    2    0    0  0.47789975582E+01  0.10879057452E+03 -0.18628037474E+04  0.18701719913E+04  0.12508895885E+03 0.  0.
          5    1    3    3  502    0 -0.16808582431E+01  0.80412981220E+02 -0.17877696444E+04  0.17895828695E+04  0.41800000000E+01 0.  1.
         -5    1    3    3    0  502  0.64598558012E+01  0.28377593296E+02 -0.75034102989E+02  0.80589121782E+02  0.41800000000E+01 0.  1.
        -11    1    1    2    0    0 -0.49864861852E+02 -0.42854955278E+02 -0.17821725840E+03  0.18995905567E+03  0.00000000000E+00 0.  1.
         11    1    1    2    0    0  0.45085864294E+02 -0.65935619238E+02 -0.41099896304E+03  0.41868889245E+03  0.00000000000E+00 0. -1.
</event>
<event>
 7    1  0.3265282E-009  0.1048031E+03  0.7561462E-02  0.1270508E+00
          1   -1    0    0  501    0  0.00000000000E+00  0.00000000000E+00  0.62322137029E+03  0.62322137029E+03  0.00000000000E+00 0. -1.
         -1   -1    0    0    0  501 -0.00000000000E+00 -0.00000000000E+00 -0.28908948480E+02  0.28908948480E+02  0.00000000000E+00 0.  1.
         25    2    1    2    0    0 -0.67134420153E+02 -0.37058667009E+02  0.34543257966E+03  0.37530191310E+03  0.12508990254E+03 0.  0.
          5    1    3    3  502    0 -0.86420412683E+02 -0.16472423883E+02  0.12431632245E+03  0.15235435309E+03  0.41800000000E+01 0. -1.
         -5    1    3    3    0  502  0.19285992530E+02 -0.20586243125E+02  0.22111625721E+03  0.22294756002E+03  0.41800000000E+01 0. -1.
        -11    1    1    2    0    0  0.30065167854E+02 -0.11267958301E+02  0.15539450762E+02  0.35670095771E+02  0.00000000000E+00 0.  1.
         11    1    1    2    0    0  0.37069252299E+02  0.48326625309E+02  0.23334039138E+03  0.24115830989E+03  0.00000000000E+00 0. -1.
</event>
<event>
 7    1  0.3265282E-009  0.1007850E+03  0.7561462E-02  0.1278654E+00
          1   -1    0    0  501    0  0.00000000000E+00  0.00000000000E+00  0.79167240433E+03  0.79167240433E+03  0.00000000000E+00 0. -1.
         -1   -1    0    0    0  501 -0.00000000000E+00 -0.00000000000E+00 -0.23060455480E+02  0.23060455480E+02  0.00000000000E+00 0.  1.
         25    2    1    2    0    0  0.50708896203E+02  0.61357690964E+02  0.39505877495E+03  0.42196563940E+03  0.12508959499E+03 0.  0.
          5    1    3    3  502    0  0.29483314370E+02  0.24374609839E+02  0.18005732602E+02  0.42486071101E+02  0.41800000000E+01 0. -1.
         -5    1    3    3    0  502  0.21225581833E+02  0.36983081125E+02  0.37705304235E+03  0.37947956830E+03  0.41800000000E+01 0. -1.
        -11    1    1    2    0    0  0.60711844797E+01 -0.63143110443E+02  0.22323304086E+03  0.23207089910E+03  0.00000000000E+00 0. -1.
         11    1    1    2    0    0 -0.56780080683E+02  0.17854194796E+01  0.15032013304E+03  0.16069632131E+03  0.00000000000E+00 0.  1.
</event>
<event>
 7    1  0.3265282E-009  0.1005105E+03  0.7561462E-02  0.1279226E+00
          2   -1    0    0  501    0  0.00000000000E+00  0.00000000000E+00  0.59609238196E+03  0.59609238196E+03  0.00000000000E+00 0. -1.
         -2   -1    0    0    0  501 -0.00000000000E+00 -0.00000000000E+00 -0.29293901708E+02  0.29293901708E+02  0.00000000000E+00 0.  1.
         25    2    1    2    0    0  0.26173509674E+02  0.68075183830E+02  0.28410474846E+03  0.31887665066E+03  0.12509007543E+03 0.  0.
          5    1    3    3  502    0  0.36783000846E+02  0.21352648225E+02  0.26283934405E+03  0.26629103987E+03  0.41800000000E+01 0. -1.
         -5    1    3    3    0  502 -0.10609491172E+02  0.46722535605E+02  0.21265404418E+02  0.52585610783E+02  0.41800000000E+01 0. -1.
        -11    1    1    2    0    0 -0.29197014005E+02  0.10894388084E+02  0.36766541821E+02  0.48196804002E+02  0.00000000000E+00 0. -1.
         11    1    1    2    0    0  0.30235043313E+01 -0.78969571915E+02  0.24592718997E+03  0.25831282901E+03  0.00000000000E+00 0.  1.
</event>
<event>
 7    1  0.3265282E-009  0.9760027E+02  0.7561462E-02  0.1285425E+00
         -2   -1    0    0    0  501 -0.00000000000E+00  0.00000000000E+00  0.68989861585E+02  0.68989861585E+02  0.00000000000E+00 0.  1.
          2   -1    0    0  501    0  0.00000000000E+00 -0.00000000000E+00 -0.18489738904E+03  0.18489738904E+03  0.00000000000E+00 0. -1.
         25    2    1    2    0    0  0.95234387286E+01  0.13633068466E+00 -0.29694199157E+02  0.12891100847E+03  0.12508232557E+03 0.  0.
          5    1    3    3  502    0  0.53664013899E+01  0.54499497172E+02  0.16480148848E+02  0.57341618062E+02  0.41800000000E+01 0.  1.
         -5    1    3    3    0  502  0.41570373387E+01 -0.54363166488E+02 -0.46174348005E+02  0.71569390410E+02  0.41800000000E+01 0.  1.
        -11    1    1    2    0    0  0.11501431306E+02 -0.39407256472E+02 -0.61765787203E+02  0.74163516998E+02  0.00000000000E+00 0. -1.
         11    1    1    2    0    0 -0.21024870035E+02  0.39270925787E+02 -0.24447541096E+02  0.50812725156E+02  0.00000000000E+00 0.  1.
</event>
<event>
 7    1  0.3265282E-009  0.1212467E+03  0.7561462E-02  0.1241054E+00
          2   -1    0    0  501    0  0.00000000000E+00  0.00000000000E+00  0.20992252112E+03  0.20992252112E+03  0.00000000000E+00 0.  1.
         -2   -1    0    0    0  501 -0.00000000000E+00 -0.00000000000E+00 -0.15117344325E+03  0.15117344325E+03  0.00000000000E+00 0. -1.
         25    2    1    2    0    0  0.66294572803E+02 -0.20457931528E+02  0.15501505125E+03  0.21092476791E+03  0.12508434857E+03 0.  0.
          5    1    3    3  502    0  0.35319834069E+02 -0.69478456040E+02  0.55857209944E+02  0.95980450275E+02  0.41800000000E+01 0.  1.
         -5    1    3    3    0  502  0.30974738734E+02  0.49020524512E+02  0.99157841311E+02  0.11494431763E+03  0.41800000000E+01 0.  1.
        -11    1    1    2    0    0 -0.44518275722E+02 -0.28404733211E+02 -0.76883547930E+02  0.93272641671E+02  0.00000000000E+00 0.  1.
         11    1    1    2    0    0 -0.21776297081E+02  0.48862664739E+02 -0.19382425452E+02  0.56898554783E+02  0.00000000000E+00 0. -1.
</event>
<event>
 7    1  0.3265282E-009  0.8469252E+02  0.7561462E-02  0.1316239E+00
          1   -1    0    0  501    0  0.00000000000E+00  0.00000000000E+00  0.51515020595E+02  0.51515020595E+02  0.00000000000E+00 0. -1.
         -1   -1    0    0    0  501 -0.00000000000E+00 -0.00000000000E+00 -0.29818423406E+03  0.29818423406E+03  0.00000000000E+00 0.  1.
         25    2    1    2    0    0 -0.63540573491E+02  0.14424436547E+02 -0.13174216568E+03  0.19299860605E+03  0.12508794853E+03 0.  0.
          5    1    3    3  502    0 -0.61168008147E+02  0.11339706632E+02 -0.12311257642E+01  0.62362667020E+02  0.41800000000E+01 0.  1.
         -5    1    3    3    0  502 -0.23725653439E+01  0.30847299151E+01 -0.13051103992E+03  0.13063593903E+03  0.41800000000E+01 0.  1.
        -11    1    1    2    0    0  0.50512043515E+01 -0.37946625128E+02 -0.68272889848E+02  0.78272910462E+02  0.00000000000E+00 0.  1.
         11    1    1    2    0    0  0.58489369140E+02  0.23522188581E+02 -0.46654157931E+02  0.78427738144E+02  0.00000000000E+00 0. -1.
</event>
<event>
 7    1  0.3265282E-009  0.1663547E+03  0.7561462E-02  0.1181703E+00
          2   -1    0    0  501    0  0.00000000000E+00  0.00000000000E+00  0.68654695344E+03  0.68654695344E+03  0.00000000000E+00 0. -1.
         -2   -1    0    0    0  501 -0.00000000000E+00 -0.00000000000E+00 -0.59778877950E+02  0.59778877950E+02  0.00000000000E+00 0.  1.
         25    2    1    2    0    0 -0.14794617516E+03 -0.55655947725E+02  0.46237655681E+03  0.50440632486E+03  0.12509198620E+03 0.  0.
          5    1    3    3  502    0 -0.80509950058E+02  0.80664232325E+00  0.86057108310E+02  0.11792286047E+03  0.41800000000E+01 0. -1.
         -5    1    3    3    0  502 -0.67436225100E+02 -0.56462590048E+02  0.37631944850E+03  0.38648346440E+03  0.41800000000E+01 0. -1.
        -11    1    1    2    0    0  0.25565226253E+02  0.29231713090E+02  0.85578815821E+02  0.93977697146E+02  0.00000000000E+00 0. -1.
         11    1    1    2    0    0  0.12238094890E+03  0.26424234635E+02  0.78812702853E+02  0.14794180938E+03  0.00000000000E+00 0.  1.
</event>
<event>
 6    1  0.3265282E-009  0.7234685E+02  0.7561462E-02  0.1352290E+00
         -2   -1    0    0    0  501 -0.00000000000E+00  0.00000000000E+00  0.77320895825E+02  0.77320895825E+02  0.00000000000E+00 0.  1.
          2   -1    0    0  501    0  0.00000000000E+00 -0.00000000000E+00 -0.16015542597E+03  0.16015542597E+03  0.00000000000E+00 0. -1.
          5    1    1    2  502    0 -0.24901612891E+02  0.28716192851E+02  0.39563783526E+02  0.55022499246E+02  0.41800000000E+01 0. -1.
         -5    1    1    2    0  502  0.28355023329E+02 -0.11366042792E+02 -0.67849804782E+02  0.74526925911E+02  0.41800000000E+01 0. -1.
        -11    1    1    2    0    0 -0.38503983004E+02 -0.76827088857E+01  0.35136173655E+01  0.39419871004E+02  0.00000000000E+00 0.  1.
         11    1    1    2    0    0  0.35050572566E+02 -0.96674411731E+01 -0.58062126253E+02  0.68507025633E+02  0.00000000000E+00 0. -1.
</event>
<event>
 7    1  0.3265282E-009  0.6728691E+02  0.7561462E-02  0.1369570E+00
          1   -1    0    0  501    0  0.00000000000E+00  0.00000000000E+00  0.32949521996E+02  0.32949521996E+02  0.00000000000E+00 0. -1.
         -1   -1    0    0    0  501 -0.00000000000E+00 -0.00000000000E+00 -0.49150859308E+03  0.49150859308E+03  0.00000000000E+00 0.  1.
         25    2    1    2    0    0  0.31995002691E+02 -0.31228607365E+02 -0.33137014298E+03  0.35700499821E+03  0.12508993153E+03 0.  0.
          5    1    3    3  502    0  0.16170682834E+02 -0.50250539134E+00  0.60667614763E+01  0.17776993272E+02  0.41800000000E+01 0.  1.
         -5    1    3    3    0  502  0.15824319857E+02 -0.30726101973E+02 -0.33743690446E+03  0.33922800493E+03  0.41800000000E+01 0.  1.
        -11    1    1    2    0    0 -0.15839567799E+02  0.53353581565E+02 -0.23859796582E+02  0.60553996291E+02  0.00000000000E+00 0. -1.
         11    1    1    2    0    0 -0.16155434892E+02 -0.22124974200E+02 -0.10332913152E+03  0.10689912058E+03  0.00000000000E+00 0.  1.
</event>
<event>
 7    1  0.3265282E-009  0.7864638E+02  0.7561462E-02  0.1332937E+00
         -2   -1    0    0    0  501 -0.00000000000E+00  0.00000000000E+00  0.53905896477E+02  0.53905896477E+02  0.00000000000E+00 0.  1.
          2   -1    0    0  501    0  0.00000000000E+00 -0.00000000000E+00 -0.30530662272E+03  0.30530662272E+03  0.00000000000E+00 0. -1.
         25    2    1    2    0    0  0.30063642662E+02 -0.33833806086E+02 -0.21093263816E+03  0.24938050021E+03  0.12509798960E+03 0.  0.
          5    1    3    3  502    0  0.20956021762E+02 -0.48930306764E+02 -0.22187776626E+03  0.22821162400E+03  0.41800000000E+01 0. -1.
         -5    1    3    3    0  502  0.91076209000E+01  0.15096500678E+02  0.10945128097E+02  0.21168876216E+02  0.41800000000E+01 0. -1.
        -11    1    1    2    0    0  0.13241868838E+02  0.39910874537E+02 -0.49737076664E+02  0.65130651706E+02  0.00000000000E+00 0. -1.
         11    1    1    2    0    0 -0.43305511501E+02 -0.60770684503E+01  0.92689885808E+01  0.44701367279E+02  0.00000000000E+00 0.  1.
</event>
<event>
 7    1  0.3265282E-009  0.9757663E+02  0.7561462E-02  0.1285476E+00
         -1   -1    0    0    0  501 -0.00000000000E+00  0.00000000000E+00  0.62100272693E+02  0.62100272693E+02  0.00000000000E+00 0.  1.
          1   -1    0    0  501    0  0.00000000000E+00 -0.00000000000E+00 -0.18217633579E+03  0.18217633579E+03  0.00000000000E+00 0. -1.
         25    2    1    2    0    0 -0.50822460961E+02 -0.24093883728E+02 -0.12464208204E+03  0.18532807709E+03  0.12508960696E+03 0.  0.
          5    1    3    3  502    0  0.39527944762E+02 -0.23320972871E+02 -0.50564122103E+02  0.68414392030E+02  0.41800000000E+01 0.  1.
         -5    1    3    3    0  502 -0.90350405722E+02 -0.77291085665E+00 -0.74077959941E+02  0.11691368506E+03  0.41800000000E+01 0.  1.
        -11    1    1    2    0    0  0.36410197515E+02  0.85098212114E+01  0.49541002762E+01  0.37718200509E+02  0.00000000000E+00 0. -1.
         11    1    1    2    0    0  0.14412263446E+02  0.15584062516E+02 -0.38808132541E+00  0.21230330880E+02  0.00000000000E+00 0.  1.
</event>
<event>
 7    1  0.3265282E-009  0.1314168E+03  0.7561462E-02  0.1225369E+00
         -1   -1    0    0    0  501 -0.00000000000E+00  0.00000000000E+00  0.19813142356E+02  0.19813142356E+02  0.00000000000E+00 0.  1.
          1   -1    0    0  501    0  0.00000000000E+00 -0.00000000000E+00 -0.11270998664E+04  0.11270998664E+04  0.00000000000E+00 0. -1.
         25    2    1    2    0    0  0.78628496676E+02 -0.63134834868E+02 -0.64548041756E+03  0.66517760591E+03  0.12509128701E+03 0.  0.
          5    1    3    3  502    0 -0.16695611841E+02 -0.30824318249E+00 -0.10852819861E+02  0.20349313687E+02  0.41800000000E+01 0. -1.
         -5    1    3    3    0  502  0.95324108517E+02 -0.62826591686E+02 -0.63462759770E+03  0.64482829222E+03  0.41800000000E+01 0. -1.
        -11    1    1    2    0    0 -0.12312824706E+02 -0.20942800918E+02 -0.42323275158E+02  0.48800268264E+02  0.00000000000E+00 0.  1.
         11    1    1    2    0    0 -0.66315671970E+02  0.84077635786E+02 -0.41948303137E+03  0.43293513463E+03  0.00000000000E+00 0. -1.
</event>
<event>
 7    1  0.3265282E-009  0.1047519E+03  0.7561462E-02  0.1270609E+00
          2   -1    0    0  501    0  0.00000000000E+00  0.00000000000E+00  0.39524450619E+02  0.39524450619E+02  0.00000000000E+00 0. -1.
         -2   -1    0    0    0  501 -0.00000000000E+00 -0.00000000000E+00 -0.32632742771E+03  0.32632742771E+03  0.00000000000E+00 0.  1.
         25    2    1    2    0    0 -0.16547951769E+02 -0.19802907083E+02 -0.19714754986E+03  0.23490836698E+03  0.12509514230E+03 0.  0.
          5    1    3    3  502    0 -0.33120391218E+02 -0.65108936682E+02 -0.15204510702E+03  0.16873446867E+03  0.41800000000E+01 0. -1.
         -5    1    3    3    0  502  0.16572439449E+02  0.45306029599E+02 -0.45102442844E+02  0.66173898312E+02  0.41800000000E+01 0. -1.
        -11    1    1    2    0    0 -0.26968682679E+02 -0.16176707349E+02 -0.58592470102E+02  0.66498671105E+02  0.00000000000E+00 0.  1.
         11    1    1    2    0    0  0.43516634448E+02  0.35979614431E+02 -0.31062957134E+02  0.64444840245E+02  0.00000000000E+00 0. -1.
</event>
<event>
 7    1  0.3265282E-009  0.1143128E+03  0.7561462E-02  0.1252785E+00
          2   -1    0    0  501    0  0.00000000000E+00  0.00000000000E+00  0.28657064452E+03  0.28657064452E+03  0.00000000000E+00 0. -1.
         -2   -1    0    0    0  501 -0.00000000000E+00 -0.00000000000E+00 -0.10854554392E+03  0.10854554392E+03  0.00000000000E+00 0.  1.
         25    2    1    2    0    0 -0.10761567013E+02  0.64787447366E+02  0.23178454108E+03  0.27144377795E+03  0.12507768163E+03 0.  0.
          5    1    3    3  502    0  0.28758328300E+02 -0.25469260904E+02  0.97162731294E+02  0.10456478112E+03  0.41800000000E+01 0.  1.
         -5    1    3    3    0  502 -0.39519895313E+02  0.90256708270E+02  0.13462180979E+03  0.16687899683E+03  0.41800000000E+01 0.  1.
        -11    1    1    2    0    0  0.35711869270E+02 -0.22326583225E+02  0.98234469904E+01  0.43247127489E+02  0.00000000000E+00 0. -1.
         11    1    1    2    0    0 -0.24950302256E+02 -0.42460864141E+02 -0.63582887468E+02  0.80425282996E+02  0.00000000000E+00 0.  1.
</event>
<event>
 7    1  0.3265282E-009  0.1946873E+03  0.7561462E-02  0.1154300E+00
          4   -1    0    0  501    0  0.00000000000E+00  0.00000000000E+00  0.11740325234E+03  0.11740325234E+03  0.00000000000E+00 0. -1.
         -4   -1    0    0    0  501 -0.00000000000E+00 -0.00000000000E+00 -0.39913839649E+03  0.39913839649E+03  0.00000000000E+00 0.  1.
         25    2    1    2    0    0 -0.10597443961E+03 -0.14921210443E+03 -0.10144497213E+03  0.24380281831E+03  0.12511553815E+03 0.  0.
          5    1    3    3  502    0 -0.10630312403E+03 -0.10269058743E+03 -0.19043872988E+02  0.14908337407E+03  0.41800000000E+01 0.  1.
         -5    1    3    3    0  502  0.32868442215E+00 -0.46521517002E+02 -0.82401099145E+02  0.94719444244E+02  0.41800000000E+01 0.  1.
        -11    1    1    2    0    0  0.94376473309E+02  0.77389166915E+02 -0.15137768025E+03  0.19445103226E+03  0.00000000000E+00 0.  1.
         11    1    1    2    0    0  0.11597966302E+02  0.71822937514E+02 -0.28912491779E+02  0.78287798260E+02  0.00000000000E+00 0. -1.
</event>
<event>
 7    1  0.3265282E-009  0.1259025E+03  0.7561462E-02  0.1233666E+00
          2   -1    0    0  501    0  0.00000000000E+00  0.00000000000E+00  0.14592387985E+04  0.14592387985E+04  0.00000000000E+00 0.  1.
         -2   -1    0    0    0  501 -0.00000000000E+00 -0.00000000000E+00 -0.16375493956E+02  0.16375493956E+02  0.00000000000E+00 0. -1.
         25    2    1    2    0    0 -0.54212136024E+02  0.91365940993E+02  0.81877517194E+03  0.83506029245E+03  0.12508484709E+03 0.  0.
          5    1    3    3  502    0 -0.62055753914E+02  0.58495451610E+02  0.23058352216E+03  0.24588384970E+03  0.41800000000E+01 0.  1.
         -5    1    3    3    0  502  0.78436178895E+01  0.32870489383E+02  0.58819164978E+03  0.58917644274E+03  0.41800000000E+01 0.  1.
        -11    1    1    2    0    0  0.37936766179E+02  0.16209733092E+01  0.82743689711E+02  0.91040342539E+02  0.00000000000E+00 0.  1.
         11    1    1    2    0    0  0.16275369846E+02 -0.92986914302E+02  0.54134444287E+03  0.54951365745E+03  0.00000000000E+00 0. -1.
</event>
<event>
 7    1  0.3265282E-009  0.7906436E+02  0.7561462E-02  0.1331728E+00
         -1   -1    0    0    0  501 -0.00000000000E+00  0.00000000000E+00  0.16118743124E+03  0.16118743124E+03  0.00000000000E+00 0.  1.
          1   -1    0    0  501    0  0.00000000000E+00 -0.00000000000E+00 -0.75779798553E+02  0.75779798553E+02  0.00000000000E+00 0. -1.
         25    2    1    2    0    0  0.88375946934E+01  0.12817322200E+02  0.70216518118E+02  0.14429275679E+03  0.12509058085E+03 0.  0.
          5    1    3    3  502    0  0.36633540816E+02  0.35411925505E+02  0.89742500095E+02  0.10328218387E+03  0.41800000000E+01 0. -1.
         -5    1    3    3    0  502 -0.27795946122E+02 -0.22594603306E+02 -0.19525981977E+02  0.41010572924E+02  0.41800000000E+01 0. -1.
        -11    1    1    2    0    0  0.66163079418E+00 -0.41100969917E+02 -0.20681405250E+02  0.46015736510E+02  0.00000000000E+00 0. -1.
         11    1    1    2    0    0 -0.94992254876E+01  0.28283647718E+02  0.35872519817E+02  0.46658736493E+02  0.00000000000E+00 0.  1.
</event>
<event>
 7    1  0.3265282E-009  0.1178599E+03  0.7561462E-02  0.1246670E+00
          1   -1    0    0  501    0  0.00000000000E+00  0.00000000000E+00  0.28268251508E+03  0.28268251508E+03  0.00000000000E+00 0. -1.
         -1   -1    0    0    0  501 -0.00000000000E+00 -0.00000000000E+00 -0.10854415517E+03  0.10854415517E+03  0.00000000000E+00 0.  1.
         25    2    1    2    0    0  0.45035181673E+02 -0.81337192705E+02 -0.18262958559E+02  0.15693084317E+03  0.12509935003E+03 0.  0.
          5    1    3    3  502    0  0.56765395505E+01  0.21328131170E+02  0.29417782743E+02  0.37013384363E+02  0.41800000000E+01 0.  1.
         -5    1    3    3    0  502  0.39358642123E+02 -0.10266532388E+03 -0.47680741302E+02  0.11991745881E+03  0.41800000000E+01 0.  1.
        -11    1    1    2    0    0  0.35810307726E+01  0.37787258475E+02  0.15391101276E+03  0.15852223987E+03  0.00000000000E+00 0. -1.
         11    1    1    2    0    0 -0.48616212446E+02  0.43549934231E+02  0.38490305709E+02  0.75773587203E+02  0.00000000000E+00 0.  1.
</event>
<event>
 7    1  0.3265282E-009  0.1194708E+03  0.7561462E-02  0.1243973E+00
          2   -1    0    0  501    0  0.00000000000E+00  0.00000000000E+00  0.55599582378E+03  0.55599582378E+03  0.00000000000E+00 0. -1.
         -2   -1    0    0    0  501 -0.00000000000E+00 -0.00000000000E+00 -0.39672474711E+02  0.39672474711E+02  0.00000000000E+00 0.  1.
         25    2    1    2    0    0 -0.97472331358E+02 -0.28438663776E+02  0.28433848331E+03  0.32681045562E+03  0.12508832015E+03 0.  0.
          5    1    3    3  502    0 -0.57437966502E+01 -0.18500060954E+02 -0.71283147674E+01  0.21060121716E+02  0.41800000000E+01 0. -1.
         -5    1    3    3    0  502 -0.91728534708E+02 -0.99386028219E+01  0.29146679807E+03  0.30575033391E+03  0.41800000000E+01 0. -1.
        -11    1    1    2    0    0  0.24659227237E+02  0.45704426403E+02  0.14551109125E+03  0.15450064646E+03  0.00000000000E+00 0.  1.
         11    1    1    2    0    0  0.72813104121E+02 -0.17265762627E+02  0.86473774517E+02  0.11435719641E+03  0.00000000000E+00 0. -1.
</event>
<event>
 7    1  0.3265282E-009  0.1546517E+03  0.7561462E-02  0.1194871E+00
          1   -1    0    0  501    0  0.00000000000E+00  0.00000000000E+00  0.48964358570E+03  0.48964358570E+03  0.00000000000E+00 0. -1.
         -1   -1    0    0    0  501 -0.00000000000E+00 -0.00000000000E+00 -0.53957269570E+02  0.53957269570E+02  0.00000000000E+00 0.  1.
         25    2    1    2    0    0  0.97858166489E+02  0.64226413424E+02  0.18167810633E+03  0.24971289446E+03  0.12509333479E+03 0.  0.
          5    1    3    3  502    0  0.94317471608E+02 -0.10508625608E+02  0.85632559105E+02  0.12789301874E+03  0.41800000000E+01 0. -1.
         -5    1    3    3    0  502  0.35406948810E+01  0.74735039033E+02  0.96045547229E+02  0.12181987573E+03  0.41800000000E+01 0. -1.
        -11    1    1    2    0    0 -0.35600183657E+02 -0.68260625492E+02  0.90119823215E+02  0.11852623594E+03  0.00000000000E+00 0.  1.
         11    1    1    2    0    0 -0.62257982833E+02  0.40342120679E+01  0.16388838658E+03  0.17536172487E+03  0.00000000000E+00 0. -1.
</event>
<event>
 7    1  0.4086320E-009  0.1265462E+03  0.7561462E-02  0.1232672E+00
          2   -1    0    0  501    0  0.00000000000E+00  0.00000000000E+00  0.90432081658E+03  0.90432081658E+03  0.00000000000E+00 0. -1.
         -2   -1    0    0    0  501 -0.00000000000E+00 -0.00000000000E+00 -0.19420112031E+02  0.19420112031E+02  0.00000000000E+00 0.  1.
         25    2    1    2    0    0  0.37238152593E+02  0.60330768744E+02  0.39856501325E+03  0.42370747492E+03  0.12508985910E+03 0.  0.
          5    1    3    3  502    0 -0.43845255742E+02  0.21568499772E+02  0.19633515293E+03  0.20236741662E+03  0.41800000000E+01 0. -1.
         -5    1    3    3    0  502  0.81083408334E+02  0.38762268973E+02  0.20222986033E+03  0.22134005831E+03  0.41800000000E+01 0. -1.
        -11    1    1    2    0    0  0.21996361877E+02 -0.49085763159E+02  0.27766654412E+03  0.28282850246E+03  0.00000000000E+00 0. -1.
         11    1    1    2    0    0 -0.59234514469E+02 -0.11245005585E+02  0.20866914718E+03  0.21720495123E+03  0.00000000000E+00 0.  1.
</event>
<event>
 7    1  0.3265282E-009  0.1340526E+03  0.7561462E-02  0.1221563E+00
         -1   -1    0    0    0  501 -0.00000000000E+00  0.00000000000E+00  0.47735868906E+03  0.47735868906E+03  0.00000000000E+00 0.  1.
          1   -1    0    0  501    0  0.00000000000E+00 -0.00000000000E+00 -0.44973458796E+02  0.44973458796E+02  0.00000000000E+00 0. -1.
         25    2    1    2    0    0 -0.68727294308E+02 -0.63197113350E+02  0.17949673160E+03  0.23787474863E+03  0.12509197920E+03 0.  0.
          5    1    3    3  502    0  0.34823636530E+02 -0.32977954288E+02  0.55187555494E+02  0.73235031315E+02  0.41800000000E+01 0. -1.
         -5    1    3    3    0  502 -0.10355093084E+03 -0.30219159062E+02  0.12430917611E+03  0.16463971731E+03  0.41800000000E+01 0. -1.
        -11    1    1    2    0    0  0.48404949409E+01  0.45447914537E+02  0.18090469322E+03  0.18658899044E+03  0.00000000000E+00 0.  1.
         11    1    1    2    0    0  0.63886799367E+02  0.17749198813E+02  0.71983805439E+02  0.97868408781E+02  0.00000000000E+00 0. -1.
</event>
<event>
 7    1  0.3265282E-009  0.1650949E+03  0.7561462E-02  0.1183062E+00
         -1   -1    0    0    0  501 -0.00000000000E+00  0.00000000000E+00  0.10308531973E+03  0.10308531973E+03  0.00000000000E+00 0.  1.
          1   -1    0    0  501    0  0.00000000000E+00 -0.00000000000E+00 -0.50166698540E+03  0.50166698540E+03  0.00000000000E+00 0. -1.
         25    2    1    2    0    0  0.70999747739E+02 -0.14646652680E+03 -0.35918026061E+03  0.41370439157E+03  0.12508979312E+03 0.  0.
          5    1    3    3  502    0  0.34100537331E+02 -0.10334812298E+03 -0.98367892503E+02  0.14675624636E+03  0.41800000000E+01 0.  1.
         -5    1    3    3    0  502  0.36899210409E+02 -0.43118403826E+02 -0.26081236810E+03  0.26694814521E+03  0.41800000000E+01 0.  1.
        -11    1    1    2    0    0 -0.12704019939E+02  0.50647019795E+02  0.28947858501E+02  0.59703360446E+02  0.00000000000E+00 0.  1.
         11    1    1    2    0    0 -0.58295727801E+02  0.95819507010E+02 -0.68349263564E+02  0.13134455312E+03  0.00000000000E+00 0. -1.
</event>
<event>
 7    1  0.3448592E-009  0.1540134E+03  0.7561462E-02  0.1195626E+00
          2   -1    0    0  501    0  0.00000000000E+00  0.00000000000E+00  0.39374058997E+03  0.39374058997E+03  0.00000000000E+00 0. -1.
         -2   -1    0    0    0  501 -0.00000000000E+00 -0.00000000000E+00 -0.91097468184E+02  0.91097468184E+02  0.00000000000E+00 0.  1.
         25    2    1    2    0    0  0.13548289659E+03  0.26482033073E+02  0.24821632938E+03  0.31034645353E+03  0.12508661680E+03 0.  0.
          5    1    3    3  502    0  0.85799108658E+02 -0.33292674212E+02  0.69460359077E+02  0.11537808755E+03  0.41800000000E+01 0. -1.
         -5    1    3    3    0  502  0.49683787930E+02  0.59774707285E+02  0.17875597030E+03  0.19496836598E+03  0.41800000000E+01 0. -1.
        -11    1    1    2    0    0 -0.40583238728E+02 -0.88451642741E+01 -0.25870831770E+02  0.48933997724E+02  0.00000000000E+00 0.  1.
         11    1    1    2    0    0 -0.94899657860E+02 -0.17636868799E+02  0.80297624179E+02  0.12555760691E+03  0.00000000000E+00 0. -1.
</event>
<event>
 7    1  0.3265282E-009  0.1006877E+03  0.7561462E-02  0.1278856E+00
         -2   -1    0    0    0  501 -0.00000000000E+00  0.00000000000E+00  0.70816416378E+02  0.70816416378E+02  0.00000000000E+00 0.  1.
          2   -1    0    0  501    0  0.00000000000E+00 -0.00000000000E+00 -0.29229738180E+03  0.29229738180E+03  0.00000000000E+00 0. -1.
         25    2    1    2    0    0  0.20942688942E+02 -0.26705378320E+02 -0.22272177271E+03  0.25768884815E+03  0.12508709356E+03 0.  0.
          5    1    3    3  502    0 -0.15218110662E+02  0.27265953253E+02 -0.68840273256E+01  0.32247253079E+02  0.41800000000E+01 0. -1.
         -5    1    3    3    0  502  0.36160799604E+02 -0.53971331572E+02 -0.21583774538E+03  0.22544159508E+03  0.41800000000E+01 0. -1.
        -11    1    1    2    0    0 -0.60716513794E+02  0.22601460325E+02  0.64282720091E+01  0.65104867231E+02  0.00000000000E+00 0.  1.
         11    1    1    2    0    0  0.39773824852E+02  0.41039179947E+01 -0.51874647285E+01  0.40320082795E+02  0.00000000000E+00 0. -1.
</event>
<event>
 7    1  0.3265282E-009  0.2437608E+03  0.7561462E-02  0.1117313E+00
         -2   -1    0    0    0  501 -0.00000000000E+00  0.00000000000E+00  0.55576378517E+03  0.55576378517E+03  0.00000000000E+00 0.  1.
          2   -1    0    0  501    0  0.00000000000E+00 -0.00000000000E+00 -0.11856183197E+03  0.11856183197E+03  0.00000000000E+00 0. -1.
         25    2    1    2    0    0 -0.18109114311E+03  0.13794407610E+03  0.28590617235E+03  0.38628078808E+03  0.12509171676E+03 0.  0.
          5    1    3    3  502    0 -0.72166259596E+02  0.13201822699E+03  0.16122717433E+03  0.22056394861E+03  0.41800000000E+01 0. -1.
         -5    1    3    3    0  502 -0.10892488352E+03  0.59258491163E+01  0.12467899802E+03  0.16571683947E+03  0.41800000000E+01 0. -1.
        -11    1    1    2    0    0  0.99541778204E+02 -0.69891985685E+02  0.27073580492E+02  0.12460511238E+03  0.00000000000E+00 0. -1.
         11    1    1    2    0    0  0.81549364908E+02 -0.68052090418E+02  0.12422220036E+03  0.16343971668E+03  0.00000000000E+00 0.  1.
</event>
<event>
 7    1  0.3265282E-009  0.1417721E+03  0.7561462E-02  0.1210964E+00
         -2   -1    0    0    0  501 -0.00000000000E+00  0.00000000000E+00  0.38841129160E+03  0.38841129160E+03  0.00000000000E+00 0.  1.
          2   -1    0    0  501    0  0.00000000000E+00 -0.00000000000E+00 -0.10843556319E+03  0.10843556319E+03  0.00000000000E+00 0. -1.
         25    2    1    2    0    0  0.13756049739E+03  0.22180550972E+02  0.76343124569E+01  0.18739913508E+03  0.12508111695E+03 0.  0.
          5    1    3    3  502    0  0.10090025973E+03  0.27638810447E+01  0.62267951571E+02  0.11867296088E+03  0.41800000000E+01 0. -1.
         -5    1    3    3    0  502  0.36660237663E+02  0.19416669928E+02 -0.54633639114E+02  0.68726174194E+02  0.41800000000E+01 0. -1.
        -11    1    1    2    0    0 -0.85633184663E+02 -0.37210461139E+01  0.20652016890E+03  0.22360113743E+03  0.00000000000E+00 0.  1.
         11    1    1    2    0    0 -0.51927312727E+02 -0.18459504858E+02  0.65821247047E+02  0.85846582282E+02  0.00000000000E+00 0. -1.
</event>
<event>
 7    1  0.3265282E-009  0.1346596E+03  0.7561462E-02  0.1220701E+00
         -2   -1    0    0    0  501 -0.00000000000E+00  0.00000000000E+00  0.77807668246E+02  0.77807668246E+02  0.00000000000E+00 0. -1.
          2   -1    0    0  501    0  0.00000000000E+00 -0.00000000000E+00 -0.49206541770E+03  0.49206541770E+03  0.00000000000E+00 0.  1.
         25    2    1    2    0    0  0.22526326246E+02  0.12450467118E+03 -0.68466050047E+02  0.19063491242E+03  0.12508085907E+03 0.  0.
          5    1    3    3  502    0 -0.17231017646E+02  0.66830708954E+02  0.25205005676E+02  0.73593588984E+02  0.41800000000E+01 0.  1.
         -5    1    3    3    0  502  0.39757343892E+02  0.57673962224E+02 -0.93671055723E+02  0.11704132344E+03  0.41800000000E+01 0.  1.
        -11    1    1    2    0    0 -0.29354619309E+02 -0.85355777648E+02 -0.31846498505E+03  0.33100943968E+03  0.00000000000E+00 0.  1.
         11    1    1    2    0    0  0.68282930628E+01 -0.39148893530E+02 -0.27326714355E+02  0.48228733845E+02  0.00000000000E+00 0. -1.
</event>
<event>
 7    1  0.3265282E-009  0.9009101E+02  0.7561462E-02  0.1302631E+00
         -2   -1    0    0    0  501 -0.00000000000E+00  0.00000000000E+00  0.15928450763E+03  0.15928450763E+03  0.00000000000E+00 0.  1.
          2   -1    0    0  501    0  0.00000000000E+00 -0.00000000000E+00 -0.91573530747E+02  0.91573530747E+02  0.00000000000E+00 0. -1.
         25    2    1    2    0    0  0.87247729067E+00  0.51958719515E+02  0.48746095176E+02  0.14395926731E+03  0.12509044367E+03 0.  0.
          5    1    3    3  502    0 -0.11058329140E+02 -0.11064975829E+02  0.73362190978E+02  0.75127916240E+02  0.41800000000E+01 0.  1.
         -5    1    3    3    0  502  0.11930806431E+02  0.63023695344E+02 -0.24616095802E+02  0.68831351065E+02  0.41800000000E+01 0.  1.
        -11    1    1    2    0    0  0.14255927517E+01  0.23837206398E+02  0.19865660389E+02  0.31062665472E+02  0.00000000000E+00 0.  1.
         11    1    1    2    0    0 -0.22980700424E+01 -0.75795925913E+02 -0.90077867746E+00  0.75836105604E+02  0.00000000000E+00 0. -1.
</event>
<event>
 7    1  0.3265282E-009  0.1253292E+03  0.7561462E-02  0.1234556E+00
          4   -1    0    0  501    0  0.00000000000E+00  0.00000000000E+00  0.33382816964E+03  0.33382816964E+03  0.00000000000E+00 0. -1.
         -4   -1    0    0    0  501 -0.00000000000E+00 -0.00000000000E+00 -0.57575620252E+02  0.57575620252E+02  0.00000000000E+00 0.  1.
         25    2    1    2    0    0 -0.32096351885E+02  0.70160402840E+02  0.21074596720E+03  0.25693159035E+03  0.12508925412E+03 0.  0.
          5    1    3    3  502    0  0.32527653465E+02  0.73561245599E+02  0.13518498677E+03  0.15735869262E+03  0.41800000000E+01 0. -1.
         -5    1    3    3    0  502 -0.64624005350E+02 -0.34008427590E+01  0.75560980430E+02  0.99572897731E+02  0.41800000000E+01 0. -1.
        -11    1    1    2    0    0 -0.23159840497E+02 -0.18798598325E+02  0.48814810813E+02  0.57207091042E+02  0.00000000000E+00 0. -1.
         11    1    1    2    0    0  0.55256192382E+02 -0.51361804515E+02  0.16691771368E+02  0.77265108496E+02  0.00000000000E+00 0.  1.
</event>
<event>
 7    1  0.3265282E-009  0.8870682E+02  0.7561462E-02  0.1306014E+00
         -2   -1    0    0    0  501 -0.00000000000E+00  0.00000000000E+00  0.17735036030E+02  0.17735036030E+02  0.00000000000E+00 0.  1.
          2   -1    0    0  501    0  0.00000000000E+00 -0.00000000000E+00 -0.10134617033E+04  0.10134617033E+04  0.00000000000E+00 0. -1.
         25    2    1    2    0    0  0.20857539243E+02 -0.56287152866E+02 -0.73998229052E+03  0.75287759801E+03  0.12509039446E+03 0.  0.
          5    1    3    3  502    0 -0.57313697997E+01 -0.31069076327E+02 -0.36604681516E+02  0.48533609102E+02  0.41800000000E+01 0.  1.
         -5    1    3    3    0  502  0.26588909043E+02 -0.25218076540E+02 -0.70337760901E+03  0.70434398891E+03  0.41800000000E+01 0.  1.
        -11    1    1    2    0    0  0.35828100983E+02  0.16753448285E+02 -0.11306867551E+03  0.11978671141E+03  0.00000000000E+00 0. -1.
         11    1    1    2    0    0 -0.56685640226E+02  0.39533704581E+02 -0.14267570122E+03  0.15853242988E+03  0.00000000000E+00 0.  1.
</event>
<event>
 7    1  0.3265282E-009  0.2067483E+03  0.7561462E-02  0.1144167E+00
          2   -1    0    0  501    0  0.00000000000E+00  0.00000000000E+00  0.15403427880E+04  0.15403427880E+04  0.00000000000E+00 0. -1.
         -2   -1    0    0    0  501 -0.00000000000E+00 -0.00000000000E+00 -0.32888492408E+02  0.32888492408E+02  0.00000000000E+00 0.  1.
         25    2    1    2    0    0 -0.87018542895E+01 -0.18725823204E+03  0.57018922356E+03  0.61311076299E+03  0.12509072429E+03 0.  0.
          5    1    3    3  502    0 -0.23288712167E+02  0.66394002076E+01  0.12343239803E+03  0.12585497620E+03  0.41800000000E+01 0.  1.
         -5    1    3    3    0  502  0.14586857878E+02 -0.19389763225E+03  0.44675682552E+03  0.48725578679E+03  0.41800000000E+01 0.  1.
        -11    1    1    2    0    0  0.29270333393E+02  0.13765831492E+03  0.80770292510E+03  0.81987229450E+03  0.00000000000E+00 0. -1.
         11    1    1    2    0    0 -0.20568479103E+02  0.49599917125E+02  0.12956214698E+03  0.14024822295E+03  0.00000000000E+00 0.  1.
</event>
<event>
 7    1  0.3265282E-009  0.9241987E+02  0.7561462E-02  0.1297095E+00
         -3   -1    0    0    0  501 -0.00000000000E+00  0.00000000000E+00  0.67427855034E+02  0.67427855034E+02  0.00000000000E+00 0.  1.
          3   -1    0    0  501    0  0.00000000000E+00 -0.00000000000E+00 -0.20041743691E+03  0.20041743691E+03  0.00000000000E+00 0. -1.
         25    2    1    2    0    0  0.18390528908E+02 -0.32742141064E+02 -0.94990407365E+02  0.16149527776E+03  0.12508911980E+03 0.  0.
          5    1    3    3  502    0  0.14189602428E+02 -0.80264257539E+02 -0.69752394471E+02  0.10736184047E+03  0.41800000000E+01 0.  1.
         -5    1    3    3    0  502  0.42009264803E+01  0.47522116475E+02 -0.25238012894E+02  0.54133437286E+02  0.41800000000E+01 0.  1.
        -11    1    1    2    0    0 -0.31062803286E+02  0.18030310583E+02 -0.64304222077E+02  0.73654754257E+02  0.00000000000E+00 0. -1.
         11    1    1    2    0    0  0.12672274378E+02  0.14711830481E+02  0.26305047568E+02  0.32695259925E+02  0.00000000000E+00 0.  1.
</event>
<event>
 7    1  0.3265282E-009  0.1094030E+03  0.7561462E-02  0.1261680E+00
         -1   -1    0    0    0  501 -0.00000000000E+00  0.00000000000E+00  0.18951997259E+03  0.18951997259E+03  0.00000000000E+00 0.  1.
          1   -1    0    0  501    0  0.00000000000E+00 -0.00000000000E+00 -0.11443138182E+03  0.11443138182E+03  0.00000000000E+00 0. -1.
         25    2    1    2    0    0  0.32534149884E+02 -0.58673797003E+02  0.11594267701E+03  0.18327909840E+03  0.12508972057E+03 0.  0.
          5    1    3    3  502    0 -0.95006657160E+01 -0.62551327478E+02  0.39588164316E+01  0.63530117628E+02  0.41800000000E+01 0. -1.
         -5    1    3    3    0  502  0.42034815600E+02  0.38775304751E+01  0.11198386058E+03  0.11974898077E+03  0.41800000000E+01 0. -1.
        -11    1    1    2    0    0 -0.27111158063E+02  0.83384281694E+02 -0.26563291323E+02  0.91616383748E+02  0.00000000000E+00 0.  1.
         11    1    1    2    0    0 -0.54229918209E+01 -0.24710484692E+02 -0.14290794910E+02  0.29055872266E+02  0.00000000000E+00 0. -1.
</event>
<event>
 7    1  0.3265282E-009  0.9886034E+02  0.7561462E-02  0.1282711E+00
         -1   -1    0    0    0  501 -0.00000000000E+00  0.00000000000E+00  0.49968528543E+02  0.49968528543E+02  0.00000000000E+00 0.  1.
          1   -1    0    0  501    0  0.00000000000E+00 -0.00000000000E+00 -0.24937039793E+03  0.24937039793E+03  0.00000000000E+00 0. -1.
         25    2    1    2    0    0 -0.22472659008E+02 -0.11850148720E+02 -0.12891045313E+03  0.18141602232E+03  0.12509365211E+03 0.  0.
          5    1    3    3  502    0 -0.71069246614E+02  0.13813834707E+02 -0.74467474182E+02  0.10394487460E+03  0.41800000000E+01 0. -1.
         -5    1    3    3    0  502  0.48596587606E+02 -0.25663983427E+02 -0.54442978949E+02  0.77471147720E+02  0.41800000000E+01 0. -1.
        -11    1    1    2    0    0  0.19616621198E+02 -0.25753213359E+02 -0.73275819044E+02  0.80108585570E+02  0.00000000000E+00 0. -1.
         11    1    1    2    0    0  0.28560378095E+01  0.37603362078E+02  0.27844027858E+01  0.37814318590E+02  0.00000000000E+00 0.  1.
</event>
<event>
 7    1  0.3265282E-009  0.8536308E+02  0.7561462E-02  0.1314486E+00
         -2   -1    0    0    0  501 -0.00000000000E+00  0.00000000000E+00  0.13403553070E+02  0.13403553070E+02  0.00000000000E+00 0.  1.
          2   -1    0    0  501    0  0.00000000000E+00 -0.00000000000E+00 -0.13544469309E+04  0.13544469309E+04  0.00000000000E+00 0. -1.
         25    2    1    2    0    0 -0.42993484792E+02 -0.51048666602E+01 -0.10764385320E+04  0.10845468736E+04  0.12509000129E+03 0.  0.
          5    1    3    3  502    0 -0.41763755851E+01  0.28327333001E+02 -0.90752039040E+03  0.90798161397E+03  0.41800000000E+01 0. -1.
         -5    1    3    3    0  502 -0.38817109207E+02 -0.33432199661E+02 -0.16891814160E+03  0.17656525961E+03  0.41800000000E+01 0. -1.
        -11    1    1    2    0    0  0.25225570274E+02 -0.36947330696E+02 -0.67488999332E+02  0.80970362923E+02  0.00000000000E+00 0.  1.
         11    1    1    2    0    0  0.17767914518E+02  0.42052197356E+02 -0.19711584649E+03  0.20233324745E+03  0.00000000000E+00 0. -1.
</event>
<event>
 7    1  0.3265282E-009  0.1066323E+03  0.7561462E-02  0.1266936E+00
         -1   -1    0    0    0  501 -0.00000000000E+00  0.00000000000E+00  0.52033796724E+02  0.52033796724E+02  0.00000000000E+00 0.  1.
          1   -1    0    0  501    0  0.00000000000E+00 -0.00000000000E+00 -0.35567551095E+03  0.35567551095E+03  0.00000000000E+00 0. -1.
         25    2    1    2    0    0  0.45412015254E+02 -0.63031779322E+02 -0.12946885878E+03  0.19607924954E+03  0.12509848270E+03 0.  0.
          5    1    3    3  502    0 -0.16878725930E+02 -0.66194916277E+02 -0.22246740282E+02  0.71965604167E+02  0.41800000000E+01 0. -1.
         -5    1    3    3    0  502  0.62290741184E+02  0.31631369555E+01 -0.10722211850E+03  0.12411364537E+03  0.41800000000E+01 0. -1.
        -11    1    1    2    0    0 -0.21816265114E+02  0.94676403259E+01 -0.14367521133E+03  0.14563018914E+03  0.00000000000E+00 0. -1.
         11    1    1    2    0    0 -0.23595750140E+02  0.53564138996E+02 -0.30497644112E+02  0.65999868995E+02  0.00000000000E+00 0.  1.
</event>
<event>
 7    1  0.3265282E-009  0.1126688E+03  0.7561462E-02  0.1255706E+00
         -1   -1    0    0    0  501 -0.00000000000E+00  0.00000000000E+00  0.15167202451E+03  0.15167202451E+03  0.00000000000E+00 0.  1.
          1   -1    0    0  501    0  0.00000000000E+00 -0.00000000000E+00 -0.21251022711E+03  0.21251022711E+03  0.00000000000E+00 0. -1.
         25    2    1    2    0    0  0.37429831126E+02  0.19646543321E+02  0.10641142378E+03  0.16958134658E+03  0.12508982002E+03 0.  0.
          5    1    3    3  502    0 -0.30668552993E+02  0.47035824757E+02  0.61717403120E+02  0.83543038017E+02  0.41800000000E+01 0.  1.
         -5    1    3    3    0  502  0.68098384119E+02 -0.27389281435E+02  0.44694020664E+02  0.86038308562E+02  0.41800000000E+01 0.  1.
        -11    1    1    2    0    0 -0.22205230159E+02  0.33520676112E+02 -0.98345194748E+02  0.10624728375E+03  0.00000000000E+00 0.  1.
         11    1    1    2    0    0 -0.15224600967E+02 -0.53167219433E+02 -0.68904431631E+02  0.88353621291E+02  0.00000000000E+00 0. -1.
</event>
<event>
 7    1  0.3265282E-009  0.8133529E+02  0.7561462E-02  0.1325304E+00
         -2   -1    0    0    0  501 -0.00000000000E+00  0.00000000000E+00  0.19534891094E+02  0.19534891094E+02  0.00000000000E+00 0.  1.
          2   -1    0    0  501    0  0.00000000000E+00 -0.00000000000E+00 -0.63712419183E+03  0.63712419183E+03  0.00000000000E+00 0. -1.
         25    2    1    2    0    0 -0.11438107006E+02  0.28977529425E+02 -0.36246554390E+03  0.38470469347E+03  0.12508358468E+03 0.  0.
          5    1    3    3  502    0 -0.19310980981E+02  0.56122377312E+02 -0.74584750617E+02  0.95409604581E+02  0.41800000000E+01 0.  1.
         -5    1    3    3    0  502  0.78728739747E+01 -0.27144847887E+02 -0.28788079329E+03  0.28929508889E+03  0.41800000000E+01 0.  1.
        -11    1    1    2    0    0  0.33103239581E+02 -0.38638035059E+02 -0.23617654817E+03  0.24159487604E+03  0.00000000000E+00 0. -1.
         11    1    1    2    0    0 -0.21665132575E+02  0.96605056338E+01 -0.18947208660E+02  0.30359513412E+02  0.00000000000E+00 0.  1.
</event>
<event>
 7    1  0.3265282E-009  0.9959961E+02  0.7561462E-02  0.1281140E+00
          4   -1    0    0  501    0  0.00000000000E+00  0.00000000000E+00  0.63403875593E+02  0.63403875593E+02  0.00000000000E+00 0. -1.
         -4   -1    0    0    0  501 -0.00000000000E+00 -0.00000000000E+00 -0.23944030274E+03  0.23944030274E+03  0.00000000000E+00 0.  1.
         25    2    1    2    0    0 -0.48902385687E+02 -0.33429504480E+02 -0.11440998632E+03  0.17957421621E+03  0.12509308159E+03 0.  0.
          5    1    3    3  502    0 -0.80765424947E+02 -0.11340514070E+02 -0.11442569861E+03  0.14057871115E+03  0.41800000000E+01 0. -1.
         -5    1    3    3    0  502  0.31863039261E+02 -0.22088990410E+02  0.15712288567E-01  0.38995505063E+02  0.41800000000E+01 0. -1.
        -11    1    1    2    0    0 -0.53265842870E+01  0.22625721648E+02  0.15814745856E+02  0.28114088404E+02  0.00000000000E+00 0. -1.
         11    1    1    2    0    0  0.54228969974E+02  0.10803782831E+02 -0.77441186682E+02  0.95155873716E+02  0.00000000000E+00 0.  1.
</event>
<event>
 6    1  0.3265282E-009  0.1995235E+03  0.7561462E-02  0.1150142E+00
         -1   -1    0    0    0  501 -0.00000000000E+00  0.00000000000E+00  0.16587491404E+03  0.16587491404E+03  0.00000000000E+00 0.  1.
          1   -1    0    0  501    0  0.00000000000E+00 -0.00000000000E+00 -0.28534751334E+03  0.28534751334E+03  0.00000000000E+00 0. -1.
          5    1    1    2  502    0  0.14093755614E+03 -0.71201364890E+02  0.31890383273E+02  0.16114433915E+03  0.41800000000E+01 0.  1.
         -5    1    1    2    0  502  0.74970458551E+01 -0.37070362687E+02 -0.48580723688E+02  0.61708804885E+02  0.41800000000E+01 0.  1.
        -11    1    1    2    0    0 -0.77298296011E+02  0.47665629962E+01 -0.28934533587E+02  0.82673780142E+02  0.00000000000E+00 0. -1.
         11    1    1    2    0    0 -0.71136305986E+02  0.10350516458E+03 -0.73847725292E+02  0.14569550321E+03  0.00000000000E+00 0.  1.
</event>
<event>
 7    1  0.3265282E-009  0.8407415E+02  0.7561462E-02  0.1317872E+00
         -2   -1    0    0    0  501 -0.00000000000E+00  0.00000000000E+00  0.34961972731E+02  0.34961972731E+02  0.00000000000E+00 0. -1.
          2   -1    0    0  501    0  0.00000000000E+00 -0.00000000000E+00 -0.49112300610E+03  0.49112300610E+03  0.00000000000E+00 0.  1.
         25    2    1    2    0    0 -0.37845902031E+02 -0.91141748695E+01 -0.12678418551E+03  0.18231234014E+03  0.12509268240E+03 0.  0.
          5    1    3    3  502    0 -0.46241565348E+02  0.11073657139E+02  0.56090319236E+01  0.48060814468E+02  0.41800000000E+01 0.  1.
         -5    1    3    3    0  502  0.83956633167E+01 -0.20187832009E+02 -0.13239321743E+03  0.13425152568E+03  0.41800000000E+01 0.  1.
        -11    1    1    2    0    0  0.64092191922E+02 -0.11076122259E+02 -0.23030320524E+03  0.23931162925E+03  0.00000000000E+00 0. -1.
         11    1    1    2    0    0 -0.26246289891E+02  0.20190297129E+02 -0.99073642609E+02  0.10446100943E+03  0.00000000000E+00 0.  1.
</event>
<event>
 7    1  0.3265282E-009  0.1052472E+03  0.7561462E-02  0.1269633E+00
          2   -1    0    0  501    0  0.00000000000E+00  0.00000000000E+00  0.30644519488E+02  0.30644519488E+02  0.00000000000E+00 0.  1.
         -2   -1    0    0    0  501 -0.00000000000E+00 -0.00000000000E+00 -0.44688382510E+03  0.44688382510E+03  0.00000000000E+00 0. -1.
         25    2    1    2    0    0 -0.15512312897E+02 -0.24088581791E+02 -0.30183552869E+03  0.32797707247E+03  0.12507350665E+03 0.  0.
          5    1    3    3  502    0 -0.50100413265E+02  0.23302997289E+02 -0.72688108474E+02  0.91400845759E+02  0.41800000000E+01 0. -1.
         -5    1    3    3    0  502  0.34588100368E+02 -0.47391579080E+02 -0.22914742022E+03  0.23657622672E+03  0.41800000000E+01 0. -1.
        -11    1    1    2    0    0  0.54343767116E+02  0.15127496466E+02 -0.64494515602E+02  0.85683304771E+02  0.00000000000E+00 0.  1.
         11    1    1    2    0    0 -0.38831454219E+02  0.89610853252E+01 -0.49909261320E+02  0.63867967343E+02  0.00000000000E+00 0. -1.
</event>
<event>
 7    1  0.3265282E-009  0.1435055E+03  0.7561462E-02  0.1208688E+00
          1   -1    0    0  501    0  0.00000000000E+00  0.00000000000E+00  0.31299746376E+02  0.31299746376E+02  0.00000000000E+00 0. -1.
         -1   -1    0    0    0  501 -0.00000000000E+00 -0.00000000000E+00 -0.74753718023E+03  0.74753718023E+03  0.00000000000E+00 0.  1.
         25    2    1    2    0    0 -0.14861935656E+02  0.10234755000E+03 -0.48278970573E+03  0.50934205112E+03  0.12509007539E+03 0.  0.
          5    1    3    3  502    0 -0.19708851925E+02  0.13120024016E+03 -0.39746052765E+03  0.41903971805E+03  0.41800000000E+01 0. -1.
         -5    1    3    3    0  502  0.48469162687E+01 -0.28852690161E+02 -0.85329178081E+02  0.90302333075E+02  0.41800000000E+01 0. -1.
        -11    1    1    2    0    0 -0.10943508454E+02 -0.97928176565E+02 -0.13199888725E+03  0.16472217330E+03  0.00000000000E+00 0. -1.
         11    1    1    2    0    0  0.25805444111E+02 -0.44193734344E+01 -0.10144884087E+03  0.10477270218E+03  0.00000000000E+00 0.  1.
</event>
<event>
 7    1  0.3265282E-009  0.8753700E+02  0.7561462E-02  0.1308928E+00
         -2   -1    0    0    0  501 -0.00000000000E+00  0.00000000000E+00  0.47203140545E+02  0.47203140545E+02  0.00000000000E+00 0.  1.
          2   -1    0    0  501    0  0.00000000000E+00 -0.00000000000E+00 -0.26029794877E+03  0.26029794877E+03  0.00000000000E+00 0. -1.
         25    2    1    2    0    0  0.13089803933E+01 -0.10894110143E+02 -0.90912763842E+02  0.15501525181E+03  0.12507678682E+03 0.  0.
          5    1    3    3  502    0  0.45174558085E+01 -0.55571910698E+02 -0.94588712496E+02  0.10987784853E+03  0.41800000000E+01 0. -1.
         -5    1    3    3    0  502 -0.32084754152E+01  0.44677800555E+02  0.36759486543E+01  0.45137403286E+02  0.41800000000E+01 0. -1.
        -11    1    1    2    0    0 -0.34964812244E+02  0.18663133679E+02 -0.19542224697E+02  0.44189921929E+02  0.00000000000E+00 0.  1.
         11    1    1    2    0    0  0.33655831851E+02 -0.77690235357E+01 -0.10263981968E+03  0.10829591557E+03  0.00000000000E+00 0. -1.
</event>
<event>
 7    1  0.3265282E-009  0.1071086E+03  0.7561462E-02  0.1266020E+00
          2   -1    0    0  501    0  0.00000000000E+00  0.00000000000E+00  0.47657512164E+02  0.47657512164E+02  0.00000000000E+00 0. -1.
         -2   -1    0    0    0  501 -0.00000000000E+00 -0.00000000000E+00 -0.29455323025E+03  0.29455323025E+03  0.00000000000E+00 0.  1.
         25    2    1    2    0    0  0.12667969311E+02  0.43456503269E+02 -0.10670728824E+03  0.17054025138E+03  0.12509431184E+03 0.  0.
          5    1    3    3  502    0  0.32679493235E+02 -0.29411974371E+02 -0.77925083616E+02  0.89570109809E+02  0.41800000000E+01 0. -1.
         -5    1    3    3    0  502 -0.20011523923E+02  0.72868477641E+02 -0.28782204621E+02  0.80970141573E+02  0.41800000000E+01 0. -1.
        -11    1    1    2    0    0 -0.33885889474E+02 -0.59020778078E+02 -0.12194521622E+03  0.13965078414E+03  0.00000000000E+00 0.  1.
         11    1    1    2    0    0  0.21217920163E+02  0.15564274808E+02 -0.18243213624E+02  0.32019706896E+02  0.00000000000E+00 0. -1.
</event>
<event>
 7    1  0.3265282E-009  0.1159043E+03  0.7561462E-02  0.1250011E+00
          2   -1    0    0  501    0  0.00000000000E+00  0.00000000000E+00  0.66829250527E+03  0.66829250527E+03  0.00000000000E+00 0.  1.
         -2   -1    0    0    0  501 -0.00000000000E+00 -0.00000000000E+00 -0.22014532629E+02  0.22014532629E+02  0.00000000000E+00 0. -1.
         25    2    1    2    0    0 -0.49363162774E+01  0.49461818688E+02  0.43501251079E+03  0.45536156294E+03  0.12508968678E+03 0.  0.
          5    1    3    3  502    0  0.31249336051E+02  0.80630535291E+02  0.27202647650E+03  0.28547098021E+03  0.41800000000E+01 0. -1.
         -5    1    3    3    0  502 -0.36185652328E+02 -0.31168716604E+02  0.16298603429E+03  0.16989058274E+03  0.41800000000E+01 0. -1.
        -11    1    1    2    0    0 -0.36769292361E+02 -0.63585596381E+01  0.46611495774E+02  0.59707986733E+02  0.00000000000E+00 0.  1.
         11    1    1    2    0    0  0.41705608638E+02 -0.43103259049E+02  0.16465396608E+03  0.17523748822E+03  0.00000000000E+00 0. -1.
</event>
<event>
 7    1  0.3265282E-009  0.1372153E+03  0.7561462E-02  0.1217126E+00
          4   -1    0    0  501    0  0.00000000000E+00  0.00000000000E+00  0.35757173220E+02  0.35757173220E+02  0.00000000000E+00 0. -1.
         -4   -1    0    0    0  501 -0.00000000000E+00 -0.00000000000E+00 -0.97726202427E+03  0.97726202427E+03  0.00000000000E+00 0.  1.
         25    2    1    2    0    0 -0.13077457097E+03  0.39160387999E+02 -0.67371955303E+03  0.69869975878E+03  0.12509113629E+03 0.  0.
          5    1    3    3  502    0 -0.60199447554E+02  0.23528704583E+02 -0.56101129830E+03  0.56473774679E+03  0.41800000000E+01 0. -1.
         -5    1    3    3    0  502 -0.70575123417E+02  0.15631683416E+02 -0.11270825473E+03  0.13396201199E+03  0.41800000000E+01 0. -1.
        -11    1    1    2    0    0  0.25075335594E+02 -0.17711042436E+01 -0.14850778016E+03  0.15062028427E+03  0.00000000000E+00 0.  1.
         11    1    1    2    0    0  0.10569923538E+03 -0.37389283755E+02 -0.11927751786E+03  0.16369915444E+03  0.00000000000E+00 0. -1.
</event>
<event>
 7    1  0.3265282E-009  0.1001175E+03  0.7561462E-02  0.1280049E+00
         -1   -1    0    0    0  501 -0.00000000000E+00  0.00000000000E+00  0.10276820161E+02  0.10276820161E+02  0.00000000000E+00 0.  1.
          1   -1    0    0  501    0  0.00000000000E+00 -0.00000000000E+00 -0.13201827529E+04  0.13201827529E+04  0.00000000000E+00 0. -1.
         25    2    1    2    0    0 -0.52211574543E+01 -0.39892934913E+02 -0.84577674955E+03  0.85592310953E+03  0.12508937843E+03 0.  0.
          5    1    3    3  502    0 -0.47958175082E+02 -0.35539127813E+02 -0.20136315912E+03  0.21006572879E+03  0.41800000000E+01 0.  1.
         -5    1    3    3    0  502  0.42737017628E+02 -0.43538071000E+01 -0.64441359043E+03  0.64585738073E+03  0.41800000000E+01 0.  1.
        -11    1    1    2    0    0  0.30474791491E+02 -0.17067804010E+02 -0.12794967928E+03  0.13263160739E+03  0.00000000000E+00 0.  1.
         11    1    1    2    0    0 -0.25253634036E+02  0.56960738924E+02 -0.33617950395E+03  0.34190485619E+03  0.00000000000E+00 0. -1.
</event>
<event>
 7    1  0.3265282E-009  0.9162634E+02  0.7561462E-02  0.1298960E+00
         -2   -1    0    0    0  501 -0.00000000000E+00  0.00000000000E+00  0.56854570042E+01  0.56854570042E+01  0.00000000000E+00 0.  1.
          2   -1    0    0  501    0  0.00000000000E+00 -0.00000000000E+00 -0.32956467024E+04  0.32956467024E+04  0.00000000000E+00 0. -1.
         25    2    1    2    0    0  0.25900424818E+02 -0.46119248734E+01 -0.27787355977E+04  0.27816740993E+04  0.12508865119E+03 0.  0.
          5    1    3    3  502    0 -0.25087663967E+01  0.38216228482E+02 -0.22710325412E+04  0.22713592956E+04  0.41800000000E+01 0.  1.
         -5    1    3    3    0  502  0.28409191215E+02 -0.42828153355E+02 -0.50770305649E+03  0.51031480366E+03  0.41800000000E+01 0.  1.
        -11    1    1    2    0    0 -0.25450490217E+02  0.45573888652E+02 -0.29653938019E+03  0.30109850678E+03  0.00000000000E+00 0. -1.
         11    1    1    2    0    0 -0.44993460157E+00 -0.40961963778E+02 -0.21468626754E+03  0.21855955341E+03  0.00000000000E+00 0.  1.
</event>
<event>
 7    1  0.3265282E-009  0.4371629E+03  0.7561462E-02  0.1031621E+00
         -1   -1    0    0    0  501 -0.00000000000E+00  0.00000000000E+00  0.20664657263E+03  0.20664657263E+03  0.00000000000E+00 0.  1.
          1   -1    0    0  501    0  0.00000000000E+00 -0.00000000000E+00 -0.14300156787E+04  0.14300156787E+04  0.00000000000E+00 0. -1.
         25    2    1    2    0    0  0.33880813428E+03 -0.26441872496E+03 -0.14214039419E+03  0.46963942880E+03  0.12509631272E+03 0.  0.
          5    1    3    3  502    0  0.27824295798E+03 -0.25968694330E+03 -0.14817453554E+03  0.40844781499E+03  0.41800000000E+01 0. -1.
         -5    1    3    3    0  502  0.60565176304E+02 -0.47317816563E+01  0.60341413554E+01  0.61191613806E+02  0.41800000000E+01 0. -1.
        -11    1    1    2    0    0 -0.93389077879E+02  0.45258816282E+02 -0.18230113471E+03  0.20977031257E+03  0.00000000000E+00 0.  1.
         11    1    1    2    0    0 -0.24541905641E+03  0.21915990868E+03 -0.89892757718E+03  0.95725250996E+03  0.00000000000E+00 0. -1.
</event>
<event>
 7    1  0.3265282E-009  0.1048092E+03  0.7561462E-02  0.1270496E+00
         -2   -1    0    0    0  501 -0.00000000000E+00  0.00000000000E+00  0.55316271603E+03  0.55316271603E+03  0.00000000000E+00 0.  1.
          2   -1    0    0  501    0  0.00000000000E+00 -0.00000000000E+00 -0.26155264153E+02  0.26155264153E+02  0.00000000000E+00 0. -1.
         25    2    1    2    0    0  0.45661810971E+02  0.19677318676E+02  0.32325207577E+03  0.35015926492E+03  0.12508960176E+03 0.  0.
          5    1    3    3  502    0  0.11397420513E+02 -0.41767132740E+02  0.22546358209E+03  0.22962076087E+03  0.41800000000E+01 0.  1.
         -5    1    3    3    0  502  0.34264390459E+02  0.61444451416E+02  0.97788493678E+02  0.12053850405E+03  0.41800000000E+01 0.  1.
        -11    1    1    2    0    0 -0.25301051086E+02 -0.51780291234E+02  0.73102717973E+02  0.93087857003E+02  0.00000000000E+00 0. -1.
         11    1    1    2    0    0 -0.20360759886E+02  0.32102972558E+02  0.13065265813E+03  0.13607085826E+03  0.00000000000E+00 0.  1.
</event>
<event>
 7    1  0.3265282E-009  0.1076959E+03  0.7561462E-02  0.1264897E+00
          1   -1    0    0  501    0  0.00000000000E+00  0.00000000000E+00  0.51581568853E+03  0.51581568853E+03  0.00000000000E+00 0. -1.
         -1   -1    0    0    0  501 -0.00000000000E+00 -0.00000000000E+00 -0.24583321276E+02  0.24583321276E+02  0.00000000000E+00 0.  1.
         25    2    1    2    0    0  0.20483834775E+02 -0.68838440822E+01  0.35203686521E+03  0.37422481838E+03  0.12508910995E+03 0.  0.
          5    1    3    3  502    0  0.66320566578E+02 -0.30725389548E+02  0.17346582919E+03  0.18828258924E+03  0.41800000000E+01 0. -1.
         -5    1    3    3    0  502 -0.45836731804E+02  0.23841545466E+02  0.17857103602E+03  0.18594222914E+03  0.41800000000E+01 0. -1.
        -11    1    1    2    0    0 -0.76616055576E+01 -0.40519756164E+02  0.55626892455E+02  0.69245230908E+02  0.00000000000E+00 0.  1.
         11    1    1    2    0    0 -0.12822229217E+02  0.47403600246E+02  0.83568609583E+02  0.96928960512E+02  0.00000000000E+00 0. -1.
</event>
<event>
 7    1  0.3265282E-009  0.1272085E+03  0.7561462E-02  0.1231658E+00
         -1   -1    0    0    0  501 -0.00000000000E+00  0.00000000000E+00  0.11001277283E+03  0.11001277283E+03  0.00000000000E+00 0.  1.
          1   -1    0    0  501    0  0.00000000000E+00 -0.00000000000E+00 -0.22205633751E+03  0.22205633751E+03  0.00000000000E+00 0. -1.
         25    2    1    2    0    0  0.99416997241E+02  0.56225165002E+01 -0.11521355726E+03  0.19706345006E+03  0.12507792587E+03 0.  0.
          5    1    3    3  502    0  0.18613290185E+02 -0.29261767787E+02 -0.10218934300E+03  0.10799462879E+03  0.41800000000E+01 0.  1.
         -5    1    3    3    0  502  0.80803707056E+02  0.34884284287E+02 -0.13024214264E+02  0.89068821265E+02  0.41800000000E+01 0.  1.
        -11    1    1    2    0    0 -0.31704245514E+02 -0.43469169235E+02  0.16545235925E+02  0.56289188033E+02  0.00000000000E+00 0. -1.
         11    1    1    2    0    0 -0.67712751727E+02  0.37846652734E+02 -0.13375243340E+02  0.78716472254E+02  0.00000000000E+00 0.  1.
</event>
<event>
 7    1  0.3265282E-009  0.9637019E+02  0.7561462E-02  0.1288120E+00
         -2   -1    0    0    0  501 -0.00000000000E+00  0.00000000000E+00  0.11228048668E+03  0.11228048668E+03  0.00000000000E+00 0.  1.
          2   -1    0    0  501    0  0.00000000000E+00 -0.00000000000E+00 -0.14183409579E+03  0.14183409579E+03  0.00000000000E+00 0. -1.
         25    2    1    2    0    0 -0.37150664828E+02 -0.49717245589E+02 -0.16328410456E+02  0.14059034960E+03  0.12508818093E+03 0.  0.
          5    1    3    3  502    0  0.15648857611E+02 -0.53005478590E+02 -0.52520638809E+02  0.76356777080E+02  0.41800000000E+01 0. -1.
         -5    1    3    3    0  502 -0.52799522439E+02  0.32882330012E+01  0.36192228353E+02  0.64233572524E+02  0.41800000000E+01 0. -1.
        -11    1    1    2    0    0  0.36262359522E+02  0.17830501293E+01  0.31419467308E+02  0.48013757526E+02  0.00000000000E+00 0.  1.
         11    1    1    2    0    0  0.88830530640E+00  0.47934195460E+02 -0.44644665960E+02  0.65510475341E+02  0.00000000000E+00 0. -1.
</event>
<event>
 7    1  0.3265282E-009  0.1726607E+03  0.7561462E-02  0.1175101E+00
         -4   -1    0    0    0  501 -0.00000000000E+00  0.00000000000E+00  0.14266328078E+03  0.14266328078E+03  0.00000000000E+00 0.  1.
          4   -1    0    0  501    0  0.00000000000E+00 -0.00000000000E+00 -0.29682444651E+03  0.29682444651E+03  0.00000000000E+00 0. -1.
         25    2    1    2    0    0 -0.16339364133E+03  0.18230820525E+02 -0.14428593462E+03  0.25198496851E+03  0.12509256005E+03 0.  0.
          5    1    3    3  502    0 -0.49890910194E+02 -0.10171859484E+02 -0.12273171943E+03  0.13294027606E+03  0.41800000000E+01 0. -1.
         -5    1    3    3    0  502 -0.11350273114E+03  0.28402680009E+02 -0.21554215188E+02  0.11904469245E+03  0.41800000000E+01 0. -1.
        -11    1    1    2    0    0  0.87156183365E+02  0.23466752750E+02  0.25329163478E+02  0.93746761576E+02  0.00000000000E+00 0.  1.
         11    1    1    2    0    0  0.76237457966E+02 -0.41697573275E+02 -0.35204394588E+02  0.93755997208E+02  0.00000000000E+00 0. -1.
</event>
<event>
 7    1  0.3265282E-009  0.1467451E+03  0.7561462E-02  0.1204531E+00
         -1   -1    0    0    0  501 -0.00000000000E+00  0.00000000000E+00  0.60108688289E+02  0.60108688289E+02  0.00000000000E+00 0.  1.
          1   -1    0    0  501    0  0.00000000000E+00 -0.00000000000E+00 -0.50961420685E+03  0.50961420685E+03  0.00000000000E+00 0. -1.
         25    2    1    2    0    0  0.98771412005E+02 -0.23385446394E+02 -0.38860198982E+03  0.42067019312E+03  0.12509689827E+03 0.  0.
          5    1    3    3  502    0  0.24780194507E+02  0.48272866285E+02 -0.94841945763E+02  0.10934712952E+03  0.41800000000E+01 0. -1.
         -5    1    3    3    0  502  0.73991217498E+02 -0.71658312679E+02 -0.29376004406E+03  0.31132306360E+03  0.41800000000E+01 0. -1.
        -11    1    1    2    0    0 -0.10147918134E+03 -0.10468660829E+02 -0.47629593784E+02  0.11258861092E+03  0.00000000000E+00 0. -1.
         11    1    1    2    0    0  0.27077693311E+01  0.33854107222E+02 -0.13273934958E+02  0.36464091101E+02  0.00000000000E+00 0.  1.
</event>
<event>
 7    1  0.3265282E-009  0.1191787E+03  0.7561462E-02  0.1244458E+00
         -4   -1    0    0    0  501 -0.00000000000E+00  0.00000000000E+00  0.29498178435E+03  0.29498178435E+03  0.00000000000E+00 0.  1.
          4   -1    0    0  501    0  0.00000000000E+00 -0.00000000000E+00 -0.74263754050E+02  0.74263754050E+02  0.00000000000E+00 0. -1.
         25    2    1    2    0    0  0.36153232377E+02 -0.63018841126E+02  0.33844046367E+02  0.14856263749E+03  0.12508799797E+03 0.  0.
          5    1    3    3  502    0 -0.98399873985E+01  0.31948881525E+02 -0.85676197452E+01  0.34762521353E+02  0.41800000000E+01 0. -1.
         -5    1    3    3    0  502  0.45993219775E+02 -0.94967722651E+02  0.42411666112E+02  0.11380011614E+03  0.41800000000E+01 0. -1.
        -11    1    1    2    0    0  0.14022853619E+02  0.42678934221E+02  0.14625237541E+03  0.15299636977E+03  0.00000000000E+00 0.  1.
         11    1    1    2    0    0 -0.50176085996E+02  0.20339906905E+02  0.40621608531E+02  0.67686531145E+02  0.00000000000E+00 0. -1.
</event>
<event>
 7    1  0.3265282E-009  0.1246808E+03  0.7561462E-02  0.1235569E+00
          1   -1    0    0  501    0  0.00000000000E+00  0.00000000000E+00  0.34191883685E+03  0.34191883685E+03  0.00000000000E+00 0. -1.
         -1   -1    0    0    0  501 -0.00000000000E+00 -0.00000000000E+00 -0.51205649656E+02  0.51205649656E+02  0.00000000000E+00 0.  1.
         25    2    1    2    0    0 -0.54696417437E+02  0.42623033850E+02  0.20463898087E+03  0.24966902718E+03  0.12509632107E+03 0.  0.
          5    1    3    3  502    0 -0.56132066441E+02 -0.34020806642E+02  0.84197806818E+02  0.10684085005E+03  0.41800000000E+01 0.  1.
         -5    1    3    3    0  502  0.14356490038E+01  0.76643840492E+02  0.12044117405E+03  0.14282817712E+03  0.41800000000E+01 0.  1.
        -11    1    1    2    0    0 -0.19625085700E+01 -0.49684411478E+02  0.66630100359E+02  0.83138212981E+02  0.00000000000E+00 0.  1.
         11    1    1    2    0    0  0.56658926007E+02  0.70613776286E+01  0.19444105968E+02  0.60317246349E+02  0.00000000000E+00 0. -1.
</event>
<event>
 7    1  0.3265282E-009  0.8735999E+02  0.7561462E-02  0.1309374E+00
         -1   -1    0    0    0  501 -0.00000000000E+00  0.00000000000E+00  0.21332682210E+03  0.21332682210E+03  0.00000000000E+00 0.  1.
          1   -1    0    0  501    0  0.00000000000E+00 -0.00000000000E+00 -0.12151059747E+03  0.12151059747E+03  0.00000000000E+00 0. -1.
         25    2    1    2    0    0  0.76365911290E+02 -0.30196982849E+02  0.13796455040E+03  0.20353179519E+03  0.12508942524E+03 0.  0.
          5    1    3    3  502    0  0.10312498293E+02  0.10144995291E+02 -0.21487484934E+02  0.26238387132E+02  0.41800000000E+01 0. -1.
         -5    1    3    3    0  502  0.66053412997E+02 -0.40341978140E+02  0.15945203534E+03  0.17729340806E+03  0.41800000000E+01 0. -1.
        -11    1    1    2    0    0 -0.59038514040E+02  0.24359000559E+02  0.16566319764E+02  0.65979921179E+02  0.00000000000E+00 0.  1.
         11    1    1    2    0    0 -0.17327397250E+02  0.58379822901E+01 -0.62714645542E+02  0.65325703197E+02  0.00000000000E+00 0. -1.
</event>
<event>
 7    1  0.3265282E-009  0.1246792E+03  0.7561462E-02  0.1235571E+00
          4   -1    0    0  501    0  0.00000000000E+00  0.00000000000E+00  0.25308538604E+02  0.25308538604E+02  0.00000000000E+00 0. -1.
         -4   -1    0    0    0  501 -0.00000000000E+00 -0.00000000000E+00 -0.63233211750E+03  0.63233211750E+03  0.00000000000E+00 0.  1.
         25    2    1    2    0    0  0.55507746344E+02  0.29153649722E+02 -0.31132660498E+03  0.34132088064E+03  0.12507854890E+03 0.  0.
          5    1    3    3  502    0  0.49441229628E+02  0.75967198470E+02 -0.17741400612E+03  0.19927029984E+03  0.41800000000E+01 0. -1.
         -5    1    3    3    0  502  0.60665167162E+01 -0.46813548749E+02 -0.13391259885E+03  0.14205058079E+03  0.41800000000E+01 0. -1.
        -11    1    1    2    0    0 -0.26451636057E+02 -0.61983689910E+02 -0.20024050777E+03  0.21127689845E+03  0.00000000000E+00 0.  1.
         11    1    1    2    0    0 -0.29056110287E+02  0.32830040188E+02 -0.95456466142E+02  0.10504287702E+03  0.00000000000E+00 0. -1.
</event>
<event>
 7    1  0.3265282E-009  0.1295466E+03  0.7561462E-02  0.1228130E+00
          2   -1    0    0  501    0  0.00000000000E+00  0.00000000000E+00  0.12860617848E+04  0.12860617848E+04  0.00000000000E+00 0. -1.
         -2   -1    0    0    0  501 -0.00000000000E+00 -0.00000000000E+00 -0.13720163651E+02  0.13720163651E+02  0.00000000000E+00 0.  1.
         25    2    1    2    0    0 -0.70400924846E+02  0.11054491841E+02  0.83257859074E+03  0.84493378635E+03  0.12508997386E+03 0.  0.
          5    1    3    3  502    0  0.30833902164E+02 -0.20972775110E+02  0.19928388389E+03  0.20278591074E+03  0.41800000000E+01 0.  1.
         -5    1    3    3    0  502 -0.10123482701E+03  0.32027266951E+02  0.63329470685E+03  0.64214787561E+03  0.41800000000E+01 0.  1.
        -11    1    1    2    0    0  0.29338649856E+02  0.40114823678E+02  0.16258754644E+03  0.17001372213E+03  0.00000000000E+00 0.  1.
         11    1    1    2    0    0  0.41062274990E+02 -0.51169315519E+02  0.27717548392E+03  0.28483443992E+03  0.00000000000E+00 0. -1.
</event>
<event>
 7    1  0.3714549E-009  0.2269165E+03  0.7561462E-02  0.1128829E+00
         -3   -1    0    0    0  501 -0.00000000000E+00  0.00000000000E+00  0.52575003807E+02  0.52575003807E+02  0.00000000000E+00 0.  1.
          3   -1    0    0  501    0  0.00000000000E+00 -0.00000000000E+00 -0.10389249978E+04  0.10389249978E+04  0.00000000000E+00 0. -1.
         25    2    1    2    0    0  0.19327844968E+03  0.60610131720E+02 -0.60476999834E+03  0.64994350762E+03  0.12509862121E+03 0.  0.
          5    1    3    3  502    0  0.15960478092E+03 -0.95509343831E+01 -0.39412710260E+03  0.42534521490E+03  0.41800000000E+01 0. -1.
         -5    1    3    3    0  502  0.33673668761E+02  0.70161066103E+02 -0.21064289574E+03  0.22459829271E+03  0.41800000000E+01 0. -1.
        -11    1    1    2    0    0 -0.55049040386E+02 -0.54687878458E+02 -0.90112113243E+02  0.11891742450E+03  0.00000000000E+00 0.  1.
         11    1    1    2    0    0 -0.13822940930E+03 -0.59222532614E+01 -0.29146788242E+03  0.32263906949E+03  0.00000000000E+00 0. -1.
</event>
<event>
 7    1  0.3265282E-009  0.1167022E+03  0.7561462E-02  0.1248639E+00
         -2   -1    0    0    0  501 -0.00000000000E+00  0.00000000000E+00  0.38912829974E+02  0.38912829974E+02  0.00000000000E+00 0.  1.
          2   -1    0    0  501    0  0.00000000000E+00 -0.00000000000E+00 -0.37345826967E+03  0.37345826967E+03  0.00000000000E+00 0. -1.
         25    2    1    2    0    0 -0.32854985360E+02 -0.62026223871E+02 -0.23244452642E+03  0.27313855761E+03  0.12509001272E+03 0.  0.
          5    1    3    3  502    0 -0.62215110560E+02  0.79864990514E+01 -0.13982432619E+03  0.15330629062E+03  0.41800000000E+01 0.  1.
         -5    1    3    3    0  502  0.29360125200E+02 -0.70012722923E+02 -0.92620200230E+02  0.11983226700E+03  0.41800000000E+01 0.  1.
        -11    1    1    2    0    0  0.26344894284E+02 -0.52932745257E+01 -0.32735329474E+02  0.42351788697E+02  0.00000000000E+00 0.  1.
         11    1    1    2    0    0  0.65100910759E+01  0.67319498397E+02 -0.69365583810E+02  0.96880753339E+02  0.00000000000E+00 0. -1.
</event>
<event>
 7    1  0.3265282E-009  0.1412355E+03  0.7561462E-02  0.1211676E+00
         -2   -1    0    0    0  501 -0.00000000000E+00  0.00000000000E+00  0.63564553921E+02  0.63564553921E+02  0.00000000000E+00 0.  1.
          2   -1    0    0  501    0  0.00000000000E+00 -0.00000000000E+00 -0.32337554570E+03  0.32337554570E+03  0.00000000000E+00 0. -1.
         25    2    1    2    0    0  0.90213218897E+02  0.21965249035E+02 -0.12641491200E+03  0.20061837055E+03  0.12508438590E+03 0.  0.
          5    1    3    3  502    0 -0.29026087109E+02 -0.62700956492E+01 -0.42613878671E+02  0.52107992551E+02  0.41800000000E+01 0.  1.
         -5    1    3    3    0  502  0.11923930601E+03  0.28235344685E+02 -0.83801033331E+02  0.14851037800E+03  0.41800000000E+01 0.  1.
        -11    1    1    2    0    0 -0.73461306920E+02  0.26889303536E+02 -0.75161393276E+02  0.10848425369E+03  0.00000000000E+00 0.  1.
         11    1    1    2    0    0 -0.16751911977E+02 -0.48854552572E+02 -0.58234686497E+02  0.77837475379E+02  0.00000000000E+00 0. -1.
</event>
<event>
 7    1  0.3265282E-009  0.9994326E+02  0.7561462E-02  0.1280415E+00
          1   -1    0    0  501    0  0.00000000000E+00  0.00000000000E+00  0.23503182563E+02  0.23503182563E+02  0.00000000000E+00 0. -1.
         -1   -1    0    0    0  501 -0.00000000000E+00 -0.00000000000E+00 -0.61500362787E+03  0.61500362787E+03  0.00000000000E+00 0.  1.
         25    2    1    2    0    0 -0.47500968128E+01 -0.47807450517E+02 -0.28981036957E+03  0.31928998699E+03  0.12509168532E+03 0.  0.
          5    1    3    3  502    0  0.47740185065E+02 -0.43600823041E+02 -0.80066563697E+02  0.10299652451E+03  0.41800000000E+01 0. -1.
         -5    1    3    3    0  502 -0.52490281878E+02 -0.42066274761E+01 -0.20974380588E+03  0.21629346248E+03  0.41800000000E+01 0. -1.
        -11    1    1    2    0    0  0.13617548844E+02  0.63123348734E+02 -0.29196929777E+03  0.29902519230E+03  0.00000000000E+00 0.  1.
         11    1    1    2    0    0 -0.88674520314E+01 -0.15315898217E+02 -0.97207779592E+01  0.20191631134E+02  0.00000000000E+00 0. -1.
</event>
<event>
 7    1  0.3265282E-009  0.1210930E+03  0.7561462E-02  0.1241305E+00
          1   -1    0    0  501    0  0.00000000000E+00  0.00000000000E+00  0.60995257723E+03  0.60995257723E+03  0.00000000000E+00 0. -1.
         -1   -1    0    0    0  501 -0.00000000000E+00 -0.00000000000E+00 -0.28606499965E+02  0.28606499965E+02  0.00000000000E+00 0.  1.
         25    2    1    2    0    0  0.45377124205E+02 -0.34508772733E+02  0.20223181294E+03  0.24452767977E+03  0.12508453626E+03 0.  0.
          5    1    3    3  502    0  0.55504235624E+02  0.35330995599E+02  0.84133022964E+02  0.10688703090E+03  0.41800000000E+01 0.  1.
         -5    1    3    3    0  502 -0.10127111419E+02 -0.69839768332E+02  0.11809878998E+03  0.13764064887E+03  0.41800000000E+01 0.  1.
        -11    1    1    2    0    0 -0.42282940677E+02  0.63565078085E+02  0.23879236679E+03  0.25069934316E+03  0.00000000000E+00 0. -1.
         11    1    1    2    0    0 -0.30941835278E+01 -0.29056305352E+02  0.14032189753E+03  0.14333205426E+03  0.00000000000E+00 0.  1.
</event>
<event>
 7    1  0.3361793E-009  0.1209284E+03  0.7561462E-02  0.1241573E+00
          2   -1    0    0  501    0  0.00000000000E+00  0.00000000000E+00  0.69171176452E+03  0.69171176452E+03  0.00000000000E+00 0. -1.
         -2   -1    0    0    0  501 -0.00000000000E+00 -0.00000000000E+00 -0.45682513588E+02  0.45682513588E+02  0.00000000000E+00 0.  1.
         25    2    1    2    0    0 -0.41352834591E+02 -0.76060688844E+02  0.57237150337E+03  0.59224357721E+03  0.12509209231E+03 0.  0.
          5    1    3    3  502    0  0.42405793988E+02 -0.21906817731E+02  0.12496601631E+03  0.13383623448E+03  0.41800000000E+01 0. -1.
         -5    1    3    3    0  502 -0.83758628579E+02 -0.54153871112E+02  0.44740548706E+03  0.45840734273E+03  0.41800000000E+01 0. -1.
        -11    1    1    2    0    0 -0.64856983319E-01  0.37583847756E+02 -0.14616373545E+02  0.40326023783E+02  0.00000000000E+00 0.  1.
         11    1    1    2    0    0  0.41417691574E+02  0.38476841088E+02  0.88274121110E+02  0.10482467712E+03  0.00000000000E+00 0. -1.
</event>
<event>
 7    1  0.3265282E-009  0.9104481E+02  0.7561462E-02  0.1300341E+00
          1   -1    0    0  501    0  0.00000000000E+00  0.00000000000E+00  0.19100659016E+03  0.19100659016E+03  0.00000000000E+00 0. -1.
         -1   -1    0    0    0  501 -0.00000000000E+00 -0.00000000000E+00 -0.15636125825E+03  0.15636125825E+03  0.00000000000E+00 0.  1.
         25    2    1    2    0    0  0.48746585690E+02  0.97167781178E+01 -0.10693440377E+03  0.17192418998E+03  0.12510921228E+03 0.  0.
          5    1    3    3  502    0  0.62381110819E+02  0.56012205338E+02 -0.52277022130E+02  0.98889481628E+02  0.41800000000E+01 0.  1.
         -5    1    3    3    0  502 -0.13634525129E+02 -0.46295427220E+02 -0.54657381637E+02  0.73034708354E+02  0.41800000000E+01 0.  1.
        -11    1    1    2    0    0 -0.13937993699E+02 -0.27909857304E+01 -0.11512155814E+02  0.18291719470E+02  0.00000000000E+00 0.  1.
         11    1    1    2    0    0 -0.34808591991E+02 -0.69257923873E+01  0.15309189149E+03  0.15715193896E+03  0.00000000000E+00 0. -1.
</event>
<event>
 7    1  0.3265282E-009  0.1419256E+03  0.7561462E-02  0.1210761E+00
          3   -1    0    0  501    0  0.00000000000E+00  0.00000000000E+00  0.52619596595E+02  0.52619596595E+02  0.00000000000E+00 0. -1.
         -3   -1    0    0    0  501 -0.00000000000E+00 -0.00000000000E+00 -0.45722027604E+03  0.45722027604E+03  0.00000000000E+00 0.  1.
         25    2    1    2    0    0  0.76074870342E+02 -0.74335453866E+02 -0.16010694138E+03  0.22933675382E+03  0.12509183977E+03 0.  0.
          5    1    3    3  502    0  0.94801097076E+02 -0.14027969010E+02 -0.67994160482E+02  0.11757852772E+03  0.41800000000E+01 0.  1.
         -5    1    3    3    0  502 -0.18726226735E+02 -0.60307484856E+02 -0.92112780894E+02  0.11175822610E+03  0.41800000000E+01 0.  1.
        -11    1    1    2    0    0 -0.11235168085E+02 -0.12150018997E+02 -0.92643809670E+02  0.94110187725E+02  0.00000000000E+00 0.  1.
         11    1    1    2    0    0 -0.64839702256E+02  0.86485472862E+02 -0.15184992840E+03  0.18639293109E+03  0.00000000000E+00 0. -1.
</event>
<event>
 7    1  0.3265282E-009  0.1765213E+03  0.7561462E-02  0.1171213E+00
         -2   -1    0    0    0  501 -0.00000000000E+00  0.00000000000E+00  0.25044835772E+02  0.25044835772E+02  0.00000000000E+00 0.  1.
          2   -1    0    0  501    0  0.00000000000E+00 -0.00000000000E+00 -0.17182092101E+04  0.17182092101E+04  0.00000000000E+00 0. -1.
         25    2    1    2    0    0 -0.16573297711E+03 -0.49585045510E+02 -0.10329756846E+04  0.10548041116E+04  0.12508737931E+03 0.  0.
          5    1    3    3  502    0 -0.10533408516E+03 -0.55198424895E+02 -0.90862973545E+03  0.91638834789E+03  0.41800000000E+01 0.  1.
         -5    1    3    3    0  502 -0.60398891951E+02  0.56133793846E+01 -0.12434594915E+03  0.13841576372E+03  0.41800000000E+01 0.  1.
        -11    1    1    2    0    0  0.50221473529E+02  0.10559927566E+02 -0.76207705196E+02  0.91876671712E+02  0.00000000000E+00 0.  1.
         11    1    1    2    0    0  0.11551150358E+03  0.39025117944E+02 -0.58398098453E+03  0.59657326254E+03  0.00000000000E+00 0. -1.
</event>
<event>
 7    1  0.3265282E-009  0.1191605E+03  0.7561462E-02  0.1244488E+00
         -2   -1    0    0    0  501 -0.00000000000E+00  0.00000000000E+00  0.27111698884E+02  0.27111698884E+02  0.00000000000E+00 0.  1.
          2   -1    0    0  501    0  0.00000000000E+00 -0.00000000000E+00 -0.10598502592E+04  0.10598502592E+04  0.00000000000E+00 0. -1.
         25    2    1    2    0    0  0.24536715584E+02  0.87105934801E+02 -0.85584381148E+03  0.86965865781E+03  0.12509219471E+03 0.  0.
          5    1    3    3  502    0  0.23264069148E+01 -0.11902647231E+02 -0.67165423846E+01  0.14479969676E+02  0.41800000000E+01 0. -1.
         -5    1    3    3    0  502  0.22210308669E+02  0.99008582031E+02 -0.84912726909E+03  0.85517868814E+03  0.41800000000E+01 0. -1.
        -11    1    1    2    0    0  0.30115960391E+02 -0.48260700200E+02 -0.10191037793E+03  0.11671243029E+03  0.00000000000E+00 0. -1.
         11    1    1    2    0    0 -0.54652675974E+02 -0.38845234601E+02 -0.74984370895E+02  0.10059086997E+03  0.00000000000E+00 0.  1.
</event>
<event>
 7    1  0.3265282E-009  0.4417681E+03  0.7561462E-02  0.1030206E+00
          3   -1    0    0  501    0  0.00000000000E+00  0.00000000000E+00  0.27868367739E+03  0.27868367739E+03  0.00000000000E+00 0. -1.
         -3   -1    0    0    0  501 -0.00000000000E+00 -0.00000000000E+00 -0.78954976922E+03  0.78954976922E+03  0.00000000000E+00 0.  1.
         25    2    1    2    0    0 -0.42418558606E+03  0.78334459307E+02 -0.88551784838E+02  0.45777611047E+03  0.12509136574E+03 0.  0.
          5    1    3    3  502    0 -0.33163119041E+03  0.62281747642E+01 -0.66891006916E+02  0.33839313796E+03  0.41800000000E+01 0. -1.
         -5    1    3    3    0  502 -0.92554395653E+02  0.72106284543E+02 -0.21660777923E+02  0.11938297251E+03  0.41800000000E+01 0. -1.
        -11    1    1    2    0    0  0.67104037487E+02  0.64391530129E+01 -0.31750089511E+02  0.74514983208E+02  0.00000000000E+00 0.  1.
         11    1    1    2    0    0  0.35708154858E+03 -0.84773612320E+02 -0.39056421748E+03  0.53594235292E+03  0.00000000000E+00 0. -1.
</event>
<event>
 7    1  0.3461054E-009  0.1084198E+03  0.7561462E-02  0.1263525E+00
         -1   -1    0    0    0  501 -0.00000000000E+00  0.00000000000E+00  0.25562165873E+03  0.25562165873E+03  0.00000000000E+00 0.  1.
          1   -1    0    0  501    0  0.00000000000E+00 -0.00000000000E+00 -0.89255623406E+02  0.89255623406E+02  0.00000000000E+00 0. -1.
         25    2    1    2    0    0 -0.80598917259E+02 -0.21492098417E+02  0.17280527900E+02  0.15133823666E+03  0.12508616820E+03 0.  0.
          5    1    3    3  502    0 -0.69392454928E+02 -0.59482732656E+02 -0.23366972378E+02  0.94429847417E+02  0.41800000000E+01 0. -1.
         -5    1    3    3    0  502 -0.11206462331E+02  0.37990634239E+02  0.40647500277E+02  0.56908389246E+02  0.41800000000E+01 0. -1.
        -11    1    1    2    0    0  0.37049588391E+02  0.21932438061E+00  0.29266390977E+00  0.37051393432E+02  0.00000000000E+00 0. -1.
         11    1    1    2    0    0  0.43549328868E+02  0.21272774037E+02  0.14879284351E+03  0.15648765204E+03  0.00000000000E+00 0.  1.
</event>
<event>
 7    1  0.3265282E-009  0.3541107E+03  0.7561462E-02  0.1060940E+00
          2   -1    0    0  501    0  0.00000000000E+00  0.00000000000E+00  0.17617413995E+04  0.17617413995E+04  0.00000000000E+00 0. -1.
         -2   -1    0    0    0  501 -0.00000000000E+00 -0.00000000000E+00 -0.96129959955E+02  0.96129959955E+02  0.00000000000E+00 0.  1.
         25    2    1    2    0    0 -0.21740318426E+03 -0.27124336971E+03  0.12714098528E+04  0.13239984427E+04  0.12510696343E+03 0.  0.
          5    1    3    3  502    0 -0.20488935112E+03 -0.20122508531E+03  0.11262614208E+04  0.11623052274E+04  0.41800000000E+01 0.  1.
         -5    1    3    3    0  502 -0.12513833140E+02 -0.70018284402E+02  0.14514843196E+03  0.16169321529E+03  0.41800000000E+01 0.  1.
        -11    1    1    2    0    0  0.54846747569E+02  0.97239497711E+02  0.18910949665E+03  0.21960438829E+03  0.00000000000E+00 0.  1.
         11    1    1    2    0    0  0.16255643670E+03  0.17400387200E+03  0.20509209015E+03  0.31426852853E+03  0.00000000000E+00 0. -1.
</event>
<event>
 7    1  0.3265282E-009  0.1560255E+03  0.7561462E-02  0.1193258E+00
          2   -1    0    0  501    0  0.00000000000E+00  0.00000000000E+00  0.30711763492E+03  0.30711763492E+03  0.00000000000E+00 0. -1.
         -2   -1    0    0    0  501 -0.00000000000E+00 -0.00000000000E+00 -0.86554722568E+02  0.86554722568E+02  0.00000000000E+00 0.  1.
         25    2    1    2    0    0 -0.89774066667E+02 -0.79109388120E+02  0.92505841738E+02  0.19627278354E+03  0.12509195205E+03 0.  0.
          5    1    3    3  502    0 -0.36202509206E+02 -0.98948225315E+02  0.26200546318E+02  0.10865226179E+03  0.41800000000E+01 0. -1.
         -5    1    3    3    0  502 -0.53571557461E+02  0.19838837194E+02  0.66305295420E+02  0.87620521745E+02  0.41800000000E+01 0. -1.
        -11    1    1    2    0    0  0.10690133409E+03  0.56357033454E+02  0.94648598080E+02  0.15350038296E+03  0.00000000000E+00 0.  1.
         11    1    1    2    0    0 -0.17127267427E+02  0.22752354666E+02  0.33408472538E+02  0.43899190991E+02  0.00000000000E+00 0. -1.
</event>
<event>
 7    1  0.3265282E-009  0.7668020E+02  0.7561462E-02  0.1338746E+00
         -1   -1    0    0    0  501 -0.00000000000E+00  0.00000000000E+00  0.97344620955E+02  0.97344620955E+02  0.00000000000E+00 0.  1.
          1   -1    0    0  501    0  0.00000000000E+00 -0.00000000000E+00 -0.18644591105E+03  0.18644591105E+03  0.00000000000E+00 0. -1.
         25    2    1    2    0    0 -0.17310047379E+02 -0.60965178250E+02 -0.98439342039E+02  0.17133072270E+03  0.12509005468E+03 0.  0.
          5    1    3    3  502    0 -0.34882856682E+02 -0.32498910296E+02 -0.12143217632E+03  0.13052294322E+03  0.41800000000E+01 0. -1.
         -5    1    3    3    0  502  0.17572809304E+02 -0.28466267954E+02  0.22992834280E+02  0.40807779482E+02  0.41800000000E+01 0. -1.
        -11    1    1    2    0    0  0.27377877632E+02  0.39279978023E+02  0.47489015333E+02  0.67436425131E+02  0.00000000000E+00 0.  1.
         11    1    1    2    0    0 -0.10067830254E+02  0.21685200227E+02 -0.38150963389E+02  0.45023384173E+02  0.00000000000E+00 0. -1.
</event>
<event>
 7    1  0.3265282E-009  0.9120782E+02  0.7561462E-02  0.1299953E+00
         -2   -1    0    0    0  501 -0.00000000000E+00  0.00000000000E+00  0.48606136067E+02  0.48606136067E+02  0.00000000000E+00 0.  1.
          2   -1    0    0  501    0  0.00000000000E+00 -0.00000000000E+00 -0.39552732740E+03  0.39552732740E+03  0.00000000000E+00 0. -1.
         25    2    1    2    0    0  0.24703207624E+02  0.29167707466E+02 -0.32340250388E+03  0.34885471000E+03  0.12509766404E+03 0.  0.
          5    1    3    3  502    0  0.42321053792E+02  0.72164156324E+02 -0.22035197243E+03  0.23573544749E+03  0.41800000000E+01 0.  1.
         -5    1    3    3    0  502 -0.17617846168E+02 -0.42996448858E+02 -0.10305053146E+03  0.11311926251E+03  0.41800000000E+01 0.  1.
        -11    1    1    2    0    0 -0.21844077493E+02  0.83557386116E+00  0.28041766351E+02  0.35555626352E+02  0.00000000000E+00 0.  1.
         11    1    1    2    0    0 -0.28591301308E+01 -0.30003281327E+02 -0.51560453799E+02  0.59723127107E+02  0.00000000000E+00 0. -1.
</event>
<event>
 7    1  0.3265282E-009  0.1853880E+03  0.7561462E-02  0.1162688E+00
         -1   -1    0    0    0  501 -0.00000000000E+00  0.00000000000E+00  0.65390558668E+03  0.65390558668E+03  0.00000000000E+00 0.  1.
          1   -1    0    0  501    0  0.00000000000E+00 -0.00000000000E+00 -0.15801686576E+03  0.15801686576E+03  0.00000000000E+00 0. -1.
         25    2    1    2    0    0  0.18450718447E+03  0.13236878583E+02 -0.49658977824E+02  0.22876184272E+03  0.12509136872E+03 0.  0.
          5    1    3    3  502    0  0.69884157158E+02 -0.70001110063E+00 -0.82922665617E+02  0.10852615496E+03  0.41800000000E+01 0. -1.
         -5    1    3    3    0  502  0.11462302732E+03  0.13936889683E+02  0.33263687792E+02  0.12023568776E+03  0.41800000000E+01 0. -1.
        -11    1    1    2    0    0 -0.10166078418E+03 -0.11984943197E+02  0.42315090155E+03  0.43535645095E+03  0.00000000000E+00 0.  1.
         11    1    1    2    0    0 -0.82846400291E+02 -0.12519353853E+01  0.12239679720E+03  0.14780415876E+03  0.00000000000E+00 0. -1.
</event>
<event>
 7    1  0.3265282E-009  0.1048164E+03  0.7561462E-02  0.1270482E+00
          2   -1    0    0  501    0  0.00000000000E+00  0.00000000000E+00  0.12238493262E+04  0.12238493262E+04  0.00000000000E+00 0. -1.
         -2   -1    0    0    0  501 -0.00000000000E+00 -0.00000000000E+00 -0.17702877567E+02  0.17702877567E+02  0.00000000000E+00 0.  1.
         25    2    1    2    0    0 -0.17378843099E+02 -0.21279689491E+01  0.10386929380E+04  0.10463444482E+04  0.12508849813E+03 0.  0.
          5    1    3    3  502    0 -0.44109814801E+02 -0.44599602965E+02  0.79619278639E+03  0.79867091211E+03  0.41800000000E+01 0. -1.
         -5    1    3    3    0  502  0.26730971702E+02  0.42471634016E+02  0.24250015164E+03  0.24767353611E+03  0.41800000000E+01 0. -1.
        -11    1    1    2    0    0  0.42248126836E+02 -0.32831848865E+02  0.11908789541E+03  0.13055558722E+03  0.00000000000E+00 0.  1.
         11    1    1    2    0    0 -0.24869283737E+02  0.34959817814E+02  0.48365615146E+02  0.64652168283E+02  0.00000000000E+00 0. -1.
</event>
<event>
 7    1  0.3265282E-009  0.1645573E+03  0.7561462E-02  0.1183646E+00
         -1   -1    0    0    0  501 -0.00000000000E+00  0.00000000000E+00  0.23143804170E+02  0.23143804170E+02  0.00000000000E+00 0.  1.
          1   -1    0    0  501    0  0.00000000000E+00 -0.00000000000E+00 -0.15860646564E+04  0.15860646564E+04  0.00000000000E+00 0. -1.
         25    2    1    2    0    0  0.25217609981E+02  0.14303587066E+03 -0.10798770752E+04  0.10967571754E+04  0.12508643466E+03 0.  0.
          5    1    3    3  502    0  0.67685232202E+02  0.85876229369E+02 -0.81998289497E+03  0.82725173791E+03  0.41800000000E+01 0.  1.
         -5    1    3    3    0  502 -0.42467622221E+02  0.57159641288E+02 -0.25989418026E+03  0.26950543753E+03  0.41800000000E+01 0.  1.
        -11    1    1    2    0    0 -0.77650758939E+00 -0.89555158117E+02 -0.40472626163E+03  0.41451667778E+03  0.00000000000E+00 0. -1.
         11    1    1    2    0    0 -0.24441102392E+02 -0.53480712539E+02 -0.78317515348E+02  0.97934607316E+02  0.00000000000E+00 0.  1.
</event>
<event>
 7    1  0.3265282E-009  0.1076625E+03  0.7561462E-02  0.1264961E+00
          1   -1    0    0  501    0  0.00000000000E+00  0.00000000000E+00  0.69409441676E+02  0.69409441676E+02  0.00000000000E+00 0. -1.
         -1   -1    0    0    0  501 -0.00000000000E+00 -0.00000000000E+00 -0.24665057585E+03  0.24665057585E+03  0.00000000000E+00 0.  1.
         25    2    1    2    0    0 -0.36851459583E+02 -0.22495977571E+02 -0.16537798117E+03  0.21180197908E+03  0.12508438194E+03 0.  0.
          5    1    3    3  502    0 -0.15256551336E+02 -0.72400157652E+02 -0.11911189939E+03  0.14028421922E+03  0.41800000000E+01 0. -1.
         -5    1    3    3    0  502 -0.21594908247E+02  0.49904180081E+02 -0.46266081779E+02  0.71517759857E+02  0.41800000000E+01 0. -1.
        -11    1    1    2    0    0 -0.10349888705E+02 -0.20415236883E+02 -0.30190375509E+02  0.37886156661E+02  0.00000000000E+00 0.  1.
         11    1    1    2    0    0  0.47201348288E+02  0.42911214453E+02  0.18327222510E+02  0.66371881780E+02  0.00000000000E+00 0. -1.
</event>
<event>
 7    1  0.3265282E-009  0.2804474E+03  0.7561462E-02  0.1095445E+00
          2   -1    0    0  501    0  0.00000000000E+00  0.00000000000E+00  0.87937335922E+03  0.87937335922E+03  0.00000000000E+00 0.  1.
         -2   -1    0    0    0  501 -0.00000000000E+00 -0.00000000000E+00 -0.11607857836E+03  0.11607857836E+03  0.00000000000E+00 0. -1.
         25    2    1    2    0    0 -0.25937834844E+03 -0.65595198447E+02  0.17750912292E+03  0.34458455600E+03  0.12509664191E+03 0.  0.
          5    1    3    3  502    0 -0.16856640863E+03 -0.78360964512E+02  0.59812295418E+02  0.19532039822E+03  0.41800000000E+01 0. -1.
         -5    1    3    3    0  502 -0.90811939810E+02  0.12765766065E+02  0.11769682750E+03  0.14926415778E+03  0.41800000000E+01 0. -1.
        -11    1    1    2    0    0  0.17058162715E+03  0.87478481312E+02  0.37745194929E+03  0.42334448176E+03  0.00000000000E+00 0. -1.
         11    1    1    2    0    0  0.88796721288E+02 -0.21883282865E+02  0.20833370865E+03  0.22752289981E+03  0.00000000000E+00 0.  1.
</event>
<event>
 7    1  0.3265282E-009  0.1799009E+03  0.7561462E-02  0.1167899E+00
         -2   -1    0    0    0  501 -0.00000000000E+00  0.00000000000E+00  0.16855132263E+02  0.16855132263E+02  0.00000000000E+00 0.  1.
          2   -1    0    0  501    0  0.00000000000E+00 -0.00000000000E+00 -0.21989094025E+04  0.21989094025E+04  0.00000000000E+00 0. -1.
         25    2    1    2    0    0  0.15023594496E+03  0.17864407027E+02 -0.14227940152E+04  0.14362732265E+04  0.12509194767E+03 0.  0.
          5    1    3    3  502    0  0.45607217568E+01 -0.29767204456E+02 -0.49178615358E+03  0.49272505507E+03  0.41800000000E+01 0. -1.
         -5    1    3    3    0  502  0.14567522320E+03  0.47631611482E+02 -0.93100786161E+03  0.94354817145E+03  0.41800000000E+01 0. -1.
        -11    1    1    2    0    0 -0.37354973830E+02 -0.46475085030E+02 -0.28122920621E+03  0.28748077157E+03  0.00000000000E+00 0. -1.
         11    1    1    2    0    0 -0.11288097113E+03  0.28610678004E+02 -0.47803104883E+03  0.49201053666E+03  0.00000000000E+00 0.  1.
</event>
<event>
 7    1  0.3265282E-009  0.1789277E+03  0.7561462E-02  0.1168845E+00
          2   -1    0    0  501    0  0.00000000000E+00  0.00000000000E+00  0.17945462048E+03  0.17945462048E+03  0.00000000000E+00 0.  1.
         -2   -1    0    0    0  501 -0.00000000000E+00 -0.00000000000E+00 -0.18468360600E+03  0.18468360600E+03  0.00000000000E+00 0. -1.
         25    2    1    2    0    0 -0.14484468530E+03 -0.19264631451E+02  0.24514506925E+01  0.19236734851E+03  0.12509227906E+03 0.  0.
          5    1    3    3  502    0 -0.71461469245E+02  0.51121029447E+02 -0.14642262928E+02  0.89173816236E+02  0.41800000000E+01 0. -1.
         -5    1    3    3    0  502 -0.73383216050E+02 -0.70385660899E+02  0.17093713620E+02  0.10319353227E+03  0.41800000000E+01 0. -1.
        -11    1    1    2    0    0  0.89718135613E+02 -0.29582718210E+02 -0.21366327839E+02  0.96855567935E+02  0.00000000000E+00 0.  1.
         11    1    1    2    0    0  0.55126549682E+02  0.48847349662E+02  0.13685891625E+02  0.74915310040E+02  0.00000000000E+00 0. -1.
</event>
<event>
 7    1  0.3265282E-009  0.1622248E+03  0.7561462E-02  0.1186208E+00
         -2   -1    0    0    0  501 -0.00000000000E+00  0.00000000000E+00  0.64483276167E+02  0.64483276167E+02  0.00000000000E+00 0.  1.
          2   -1    0    0  501    0  0.00000000000E+00 -0.00000000000E+00 -0.46648154678E+03  0.46648154678E+03  0.00000000000E+00 0. -1.
         25    2    1    2    0    0 -0.48938477989E+02  0.12292098193E+03 -0.25990131705E+03  0.31733561999E+03  0.12509459894E+03 0.  0.
          5    1    3    3  502    0  0.37598791680E+02  0.10687575351E+02 -0.43583210071E+02  0.58692946789E+02  0.41800000000E+01 0.  1.
         -5    1    3    3    0  502 -0.86537269669E+02  0.11223340658E+03 -0.21631810698E+03  0.25864267321E+03  0.41800000000E+01 0.  1.
        -11    1    1    2    0    0  0.56534490270E+02 -0.70411373132E+02 -0.40400687213E+02  0.98924848161E+02  0.00000000000E+00 0.  1.
         11    1    1    2    0    0 -0.75960122807E+01 -0.52509608803E+02 -0.10169626635E+03  0.11470435480E+03  0.00000000000E+00 0. -1.
</event>
<event>
 7    1  0.3265282E-009  0.9762090E+02  0.7561462E-02  0.1285380E+00
         -2   -1    0    0    0  501 -0.00000000000E+00  0.00000000000E+00  0.18275393056E+02  0.18275393056E+02  0.00000000000E+00 0.  1.
          2   -1    0    0  501    0  0.00000000000E+00 -0.00000000000E+00 -0.94269341286E+03  0.94269341286E+03  0.00000000000E+00 0. -1.
         25    2    1    2    0    0  0.39011435028E+02 -0.31113642455E+02 -0.76784651654E+03  0.77956777796E+03  0.12509075371E+03 0.  0.
          5    1    3    3  502    0  0.74027194176E+02 -0.10527061201E+02 -0.27443452420E+03  0.28446902286E+03  0.41800000000E+01 0. -1.
         -5    1    3    3    0  502 -0.35015759148E+02 -0.20586581254E+02 -0.49341199234E+03  0.49509875510E+03  0.41800000000E+01 0. -1.
        -11    1    1    2    0    0 -0.44426849541E+02  0.45835687349E+02 -0.75694002239E+02  0.99016347993E+02  0.00000000000E+00 0.  1.
         11    1    1    2    0    0  0.54154145134E+01 -0.14722044893E+02 -0.80877501030E+02  0.82384679966E+02  0.00000000000E+00 0. -1.
</event>
<event>
 7    1  0.3265282E-009  0.2053043E+03  0.7561462E-02  0.1145339E+00
          1   -1    0    0  501    0  0.00000000000E+00  0.00000000000E+00  0.51418228047E+03  0.51418228047E+03  0.00000000000E+00 0. -1.
         -1   -1    0    0    0  501 -0.00000000000E+00 -0.00000000000E+00 -0.90213359119E+02  0.90213359119E+02  0.00000000000E+00 0.  1.
         25    2    1    2    0    0  0.56013169257E+02  0.16590756129E+03  0.30618001270E+03  0.37424286412E+03  0.12509487256E+03 0.  0.
          5    1    3    3  502    0  0.94855569882E+02  0.13065485914E+03  0.24623775750E+03  0.29448052053E+03  0.41800000000E+01 0. -1.
         -5    1    3    3    0  502 -0.38842400625E+02  0.35252702152E+02  0.59942255206E+02  0.79762343587E+02  0.41800000000E+01 0. -1.
        -11    1    1    2    0    0 -0.39975910304E+02 -0.12003098868E+02  0.36053402456E+02  0.55154289187E+02  0.00000000000E+00 0.  1.
         11    1    1    2    0    0 -0.16037258953E+02 -0.15390446243E+03  0.81735506192E+02  0.17499848628E+03  0.00000000000E+00 0. -1.
</event>
<event>
 7    1  0.3265282E-009  0.1331411E+03  0.7561462E-02  0.1222868E+00
          1   -1    0    0  501    0  0.00000000000E+00  0.00000000000E+00  0.30100017541E+02  0.30100017541E+02  0.00000000000E+00 0. -1.
         -1   -1    0    0    0  501 -0.00000000000E+00 -0.00000000000E+00 -0.63910907864E+03  0.63910907864E+03  0.00000000000E+00 0.  1.
         25    2    1    2    0    0  0.25978873795E+02  0.92553202430E+02 -0.40607206953E+03  0.43564101804E+03  0.12509026255E+03 0.  0.
          5    1    3    3  502    0 -0.35307357419E+02 -0.11118483964E+02 -0.97354785606E+02  0.10423846149E+03  0.41800000000E+01 0.  1.
         -5    1    3    3    0  502  0.61286231214E+02  0.10367168639E+03 -0.30871728392E+03  0.33140255655E+03  0.41800000000E+01 0.  1.
        -11    1    1    2    0    0 -0.52383407083E+01 -0.86860660586E+02 -0.18863684565E+03  0.20774040076E+03  0.00000000000E+00 0.  1.
         11    1    1    2    0    0 -0.20740533087E+02 -0.56925418440E+01 -0.14300145916E+02  0.25827677375E+02  0.00000000000E+00 0. -1.
</event>
<event>
 7    1  0.3265282E-009  0.1313880E+03  0.7561462E-02  0.1225411E+00
         -2   -1    0    0    0  501 -0.00000000000E+00  0.00000000000E+00  0.13709368379E+03  0.13709368379E+03  0.00000000000E+00 0.  1.
          2   -1    0    0  501    0  0.00000000000E+00 -0.00000000000E+00 -0.13265096222E+03  0.13265096222E+03  0.00000000000E+00 0. -1.
         25    2    1    2    0    0 -0.71991790296E+02 -0.29011471329E+02 -0.13531640882E+01  0.14721763171E+03  0.12508683662E+03 0.  0.
          5    1    3    3  502    0  0.41710488724E+01  0.42347228483E+02 -0.44689760017E-01  0.42756985465E+02  0.41800000000E+01 0. -1.
         -5    1    3    3    0  502 -0.76162839169E+02 -0.71358699812E+02 -0.13084743282E+01  0.10446064625E+03  0.41800000000E+01 0. -1.
        -11    1    1    2    0    0  0.87504376083E+02  0.58624702036E+01 -0.13359374868E+02  0.88712216111E+02  0.00000000000E+00 0. -1.
         11    1    1    2    0    0 -0.15512585786E+02  0.23149001125E+02  0.19155260526E+02  0.33814798191E+02  0.00000000000E+00 0.  1.
</event>
<event>
 7    1  0.3265282E-009  0.7271230E+02  0.7561462E-02  0.1351105E+00
         -1   -1    0    0    0  501 -0.00000000000E+00  0.00000000000E+00  0.13118836707E+03  0.13118836707E+03  0.00000000000E+00 0.  1.
          1   -1    0    0  501    0  0.00000000000E+00 -0.00000000000E+00 -0.90928953957E+02  0.90928953957E+02  0.00000000000E+00 0. -1.
         25    2    1    2    0    0  0.43050044365E+01 -0.27240442019E+01  0.38450734903E+02  0.13096488882E+03  0.12508952638E+03 0.  0.
          5    1    3    3  502    0 -0.23194957698E+00 -0.54161952697E+02 -0.15173692274E+02  0.56402874552E+02  0.41800000000E+01 0. -1.
         -5    1    3    3    0  502  0.45369540135E+01  0.51437908495E+02  0.53624427177E+02  0.74562014271E+02  0.41800000000E+01 0. -1.
        -11    1    1    2    0    0 -0.21158902308E+02  0.62768191378E+01  0.41988952091E+02  0.47435953696E+02  0.00000000000E+00 0.  1.
         11    1    1    2    0    0  0.16853897871E+02 -0.35527749359E+01 -0.40180273885E+02  0.43716478503E+02  0.00000000000E+00 0. -1.
</event>
<event>
 7    1  0.3265282E-009  0.1026734E+03  0.7561462E-02  0.1274773E+00
          3   -1    0    0  501    0  0.00000000000E+00  0.00000000000E+00  0.13686221984E+03  0.13686221984E+03  0.00000000000E+00 0. -1.
         -3   -1    0    0    0  501 -0.00000000000E+00 -0.00000000000E+00 -0.13806477027E+03  0.13806477027E+03  0.00000000000E+00 0.  1.
         25    2    1    2    0    0 -0.52035961261E+01  0.83712376535E+02  0.21947843547E+02  0.15219714572E+03  0.12508966357E+03 0.  0.
          5    1    3    3  502    0  0.37060576776E+02  0.53602296214E+02 -0.35780657065E+02  0.74460864422E+02  0.41800000000E+01 0. -1.
         -5    1    3    3    0  502 -0.42264172902E+02  0.30110080321E+02  0.57728500612E+02  0.77736281303E+02  0.41800000000E+01 0. -1.
        -11    1    1    2    0    0  0.16143380794E+02 -0.50492223233E+02 -0.54306690822E+02  0.75889986286E+02  0.00000000000E+00 0.  1.
         11    1    1    2    0    0 -0.10939784668E+02 -0.33220153302E+02  0.31156296837E+02  0.46839858098E+02  0.00000000000E+00 0. -1.
</event>
<event>
 7    1  0.3265282E-009  0.1628836E+03  0.7561462E-02  0.1185479E+00
          1   -1    0    0  501    0  0.00000000000E+00  0.00000000000E+00  0.10888259680E+04  0.10888259680E+04  0.00000000000E+00 0. -1.
         -1   -1    0    0    0  501 -0.00000000000E+00 -0.00000000000E+00 -0.32174393608E+02  0.32174393608E+02  0.00000000000E+00 0.  1.
         25    2    1    2    0    0 -0.14902945205E+03  0.20863654429E+01  0.65051170017E+03  0.67898863582E+03  0.12508383196E+03 0.  0.
          5    1    3    3  502    0 -0.15275696209E+03  0.17394834615E+02  0.64282201675E+03  0.66096511811E+03  0.41800000000E+01 0.  1.
         -5    1    3    3    0  502  0.37275100433E+01 -0.15308469172E+02  0.76896834158E+01  0.18023517708E+02  0.41800000000E+01 0.  1.
        -11    1    1    2    0    0  0.28949848892E+02 -0.18667103152E+02  0.26417047455E+02  0.43409847814E+02  0.00000000000E+00 0.  1.
         11    1    1    2    0    0  0.12007960316E+03  0.16580737709E+02  0.37972282679E+03  0.39860187799E+03  0.00000000000E+00 0. -1.
</event>
<event>
 7    1  0.3739243E-009  0.9967870E+02  0.7561462E-02  0.1280973E+00
         -2   -1    0    0    0  501 -0.00000000000E+00  0.00000000000E+00  0.11199277754E+02  0.11199277754E+02  0.00000000000E+00 0.  1.
          2   -1    0    0  501    0  0.00000000000E+00 -0.00000000000E+00 -0.15819963469E+04  0.15819963469E+04  0.00000000000E+00 0. -1.
         25    2    1    2    0    0  0.58345227526E+02  0.45425642366E+02 -0.98294556013E+03  0.99362817201E+03  0.12508923009E+03 0.  0.
          5    1    3    3  502    0  0.27898298771E+01  0.19651067394E+02 -0.19199812650E+02  0.27929425455E+02  0.41800000000E+01 0. -1.
         -5    1    3    3    0  502  0.55555397648E+02  0.25774574973E+02 -0.96374574748E+03  0.96569874656E+03  0.41800000000E+01 0. -1.
        -11    1    1    2    0    0  0.10895282643E+02 -0.47183801763E+02 -0.22253986476E+03  0.22774768877E+03  0.00000000000E+00 0. -1.
         11    1    1    2    0    0 -0.69240510169E+02  0.17581593971E+01 -0.36531164423E+03  0.37181976384E+03  0.00000000000E+00 0.  1.
</event>
<event>
 7    1  0.3265282E-009  0.1264065E+03  0.7561462E-02  0.1232887E+00
         -2   -1    0    0    0  501 -0.00000000000E+00  0.00000000000E+00  0.47123119192E+02  0.47123119192E+02  0.00000000000E+00 0.  1.
          2   -1    0    0  501    0  0.00000000000E+00 -0.00000000000E+00 -0.60751670135E+03  0.60751670135E+03  0.00000000000E+00 0. -1.
         25    2    1    2    0    0 -0.52303220035E+02 -0.93332235421E+02 -0.42684494490E+03  0.45748274920E+03  0.12508927147E+03 0.  0.
          5    1    3    3  502    0 -0.76040614005E+02 -0.38072371169E+02 -0.13598306443E+03  0.16043860707E+03  0.41800000000E+01 0.  1.
         -5    1    3    3    0  502  0.23737393969E+02 -0.55259864253E+02 -0.29086188046E+03  0.29704414213E+03  0.41800000000E+01 0.  1.
        -11    1    1    2    0    0  0.23386833540E+02  0.32626813271E+02  0.75582095233E+01  0.40848249148E+02  0.00000000000E+00 0.  1.
         11    1    1    2    0    0  0.28916386496E+02  0.60705422150E+02 -0.14110684679E+03  0.15630882220E+03  0.00000000000E+00 0. -1.
</event>
<event>
 7    1  0.3265282E-009  0.1203163E+03  0.7561462E-02  0.1242576E+00
         -1   -1    0    0    0  501 -0.00000000000E+00  0.00000000000E+00  0.11000747549E+03  0.11000747549E+03  0.00000000000E+00 0.  1.
          1   -1    0    0  501    0  0.00000000000E+00 -0.00000000000E+00 -0.13453342423E+03  0.13453342423E+03  0.00000000000E+00 0. -1.
         25    2    1    2    0    0  0.11236489601E+02  0.51534220998E+02 -0.27470530808E+02  0.13850549205E+03  0.12508839527E+03 0.  0.
          5    1    3    3  502    0 -0.10376996220E+02  0.90065310335E+02 -0.24620750458E+02  0.94037736730E+02  0.41800000000E+01 0. -1.
         -5    1    3    3    0  502  0.21613485820E+02 -0.38531089337E+02 -0.28497803499E+01  0.44467755316E+02  0.41800000000E+01 0. -1.
        -11    1    1    2    0    0  0.37045589212E+02 -0.32044637852E+01  0.59374845109E+01  0.37654986264E+02  0.00000000000E+00 0.  1.
         11    1    1    2    0    0 -0.48282078813E+02 -0.48329757213E+02 -0.29929024401E+01  0.68380421407E+02  0.00000000000E+00 0. -1.
</event>
<event>
 7    1  0.3265282E-009  0.1330429E+03  0.7561462E-02  0.1223009E+00
         -2   -1    0    0    0  501 -0.00000000000E+00  0.00000000000E+00  0.51441859792E+03  0.51441859792E+03  0.00000000000E+00 0.  1.
          2   -1    0    0  501    0  0.00000000000E+00 -0.00000000000E+00 -0.48162768957E+02  0.48162768957E+02  0.00000000000E+00 0. -1.
         25    2    1    2    0    0  0.66661424955E+02 -0.91417077338E+02  0.26974046654E+03  0.31813263688E+03  0.12509047826E+03 0.  0.
          5    1    3    3  502    0  0.85634687828E+02 -0.34852925983E+02  0.91579440754E+02  0.13020096996E+03  0.41800000000E+01 0. -1.
         -5    1    3    3    0  502 -0.18973262874E+02 -0.56564151355E+02  0.17816102579E+03  0.18793166692E+03  0.41800000000E+01 0. -1.
        -11    1    1    2    0    0 -0.34436114455E+02  0.37482498593E+02  0.16066997336E+02  0.53375388364E+02  0.00000000000E+00 0. -1.
         11    1    1    2    0    0 -0.32225310500E+02  0.53934578745E+02  0.18044836509E+03  0.19107334164E+03  0.00000000000E+00 0.  1.
</event>
<event>
 7    1  0.3265282E-009  0.9637263E+02  0.7561462E-02  0.1288114E+00
         -2   -1    0    0    0  501 -0.00000000000E+00  0.00000000000E+00  0.69842081221E+02  0.69842081221E+02  0.00000000000E+00 0.  1.
          2   -1    0    0  501    0  0.00000000000E+00 -0.00000000000E+00 -0.29791185412E+03  0.29791185412E+03  0.00000000000E+00 0. -1.
         25    2    1    2    0    0  0.21204787271E+01 -0.36168981172E+02 -0.13100380551E+02  0.13093115877E+03  0.12513455453E+03 0.  0.
          5    1    3    3  502    0 -0.48918565620E+02 -0.53878077509E+02 -0.21730119664E+02  0.76062762236E+02  0.41800000000E+01 0. -1.
         -5    1    3    3    0  502  0.51039044347E+02  0.17709096337E+02  0.86297391138E+01  0.54868396533E+02  0.41800000000E+01 0. -1.
        -11    1    1    2    0    0 -0.83829026045E+01  0.49887413788E+02 -0.21586772486E+03  0.22171581303E+03  0.00000000000E+00 0. -1.
         11    1    1    2    0    0  0.62624238774E+01 -0.13718432616E+02  0.89833251057E+00  0.15106963545E+02  0.00000000000E+00 0.  1.
</event>
<event>
 7    1  0.3265282E-009  0.2280992E+03  0.7561462E-02  0.1127985E+00
         -4   -1    0    0    0  501 -0.00000000000E+00  0.00000000000E+00  0.46265809182E+03  0.46265809182E+03  0.00000000000E+00 0.  1.
          4   -1    0    0  501    0  0.00000000000E+00 -0.00000000000E+00 -0.13391731992E+03  0.13391731992E+03  0.00000000000E+00 0. -1.
         25    2    1    2    0    0  0.19486012036E+03 -0.69072981064E+02  0.27113001143E+03  0.36317739863E+03  0.12507916116E+03 0.  0.
          5    1    3    3  502    0 -0.76676598650E+01 -0.23012425363E+02  0.42563181079E+01  0.24979058684E+02  0.41800000000E+01 0.  1.
         -5    1    3    3    0  502  0.20252778023E+03 -0.46060555701E+02  0.26687369332E+03  0.33819833994E+03  0.41800000000E+01 0.  1.
        -11    1    1    2    0    0 -0.79909666823E+02 -0.15158923400E+02  0.49995446759E+01  0.81488301353E+02  0.00000000000E+00 0. -1.
         11    1    1    2    0    0 -0.11495045354E+03  0.84231904464E+02  0.52611215797E+02  0.15190971176E+03  0.00000000000E+00 0.  1.
</event>
<event>
 7    1  0.3265282E-009  0.7460266E+02  0.7561462E-02  0.1345106E+00
         -1   -1    0    0    0  501 -0.00000000000E+00  0.00000000000E+00  0.22832771636E+02  0.22832771636E+02  0.00000000000E+00 0.  1.
          1   -1    0    0  501    0  0.00000000000E+00 -0.00000000000E+00 -0.70899237586E+03  0.70899237586E+03  0.00000000000E+00 0. -1.
         25    2    1    2    0    0  0.45365417425E+02  0.22439881891E+02 -0.49613155383E+03  0.51415590797E+03  0.12509280391E+03 0.  0.
          5    1    3    3  502    0  0.56430347954E+02  0.11611047663E+01 -0.83892423555E+02  0.10119853489E+03  0.41800000000E+01 0.  1.
         -5    1    3    3    0  502 -0.11064930529E+02  0.21278777125E+02 -0.41223913028E+03  0.41295737308E+03  0.41800000000E+01 0.  1.
        -11    1    1    2    0    0 -0.24607300944E+02  0.12516742494E+02 -0.47875335843E+01  0.28019789082E+02  0.00000000000E+00 0.  1.
         11    1    1    2    0    0 -0.20758116481E+02 -0.34956624385E+02 -0.18524051681E+03  0.18964945045E+03  0.00000000000E+00 0. -1.
</event>
<event>
 7    1  0.3265282E-009  0.1351784E+03  0.7561462E-02  0.1219968E+00
          2   -1    0    0  501    0  0.00000000000E+00  0.00000000000E+00  0.51277154849E+03  0.51277154849E+03  0.00000000000E+00 0. -1.
         -2   -1    0    0    0  501 -0.00000000000E+00 -0.00000000000E+00 -0.39232127215E+02  0.39232127215E+02  0.00000000000E+00 0.  1.
         25    2    1    2    0    0 -0.75725790936E+02  0.45276434652E+02  0.27132625932E+03  0.31152769240E+03  0.12508882121E+03 0.  0.
          5    1    3    3  502    0 -0.76307054082E+02  0.80860949205E+02  0.16238330891E+03  0.19684275710E+03  0.41800000000E+01 0.  1.
         -5    1    3    3    0  502  0.58126314627E+00 -0.35584514553E+02  0.10894295041E+03  0.11468493531E+03  0.41800000000E+01 0.  1.
        -11    1    1    2    0    0  0.57229433904E+02  0.15862949834E+02  0.59237576777E+02  0.83880461282E+02  0.00000000000E+00 0.  1.
         11    1    1    2    0    0  0.18496357032E+02 -0.61139384486E+02  0.14297558518E+03  0.15659552201E+03  0.00000000000E+00 0. -1.
</event>
<event>
 7    1  0.3265282E-009  0.1297032E+03  0.7561462E-02  0.1227897E+00
          2   -1    0    0  501    0  0.00000000000E+00  0.00000000000E+00  0.63759587755E+03  0.63759587755E+03  0.00000000000E+00 0. -1.
         -2   -1    0    0    0  501 -0.00000000000E+00 -0.00000000000E+00 -0.40889960496E+02  0.40889960496E+02  0.00000000000E+00 0.  1.
         25    2    1    2    0    0 -0.59783608288E+02  0.53154844270E+02  0.13242379814E+03  0.19894386250E+03  0.12507230239E+03 0.  0.
          5    1    3    3  502    0 -0.36113271521E+01  0.79689517604E+02  0.10224893966E+03  0.12975276090E+03  0.41800000000E+01 0.  1.
         -5    1    3    3    0  502 -0.56172281136E+02 -0.26534673334E+02  0.30174858479E+02  0.69191101604E+02  0.41800000000E+01 0.  1.
        -11    1    1    2    0    0  0.91082401019E+01 -0.64658131318E+02  0.30805568511E+03  0.31489988744E+03  0.00000000000E+00 0. -1.
         11    1    1    2    0    0  0.50675368186E+02  0.11503287048E+02  0.15622643381E+03  0.16464208810E+03  0.00000000000E+00 0.  1.
</event>
<event>
 7    1  0.3265282E-009  0.1722876E+03  0.7561462E-02  0.1175483E+00
         -3   -1    0    0    0  501 -0.00000000000E+00  0.00000000000E+00  0.48415572847E+03  0.48415572847E+03  0.00000000000E+00 0.  1.
          3   -1    0    0  501    0  0.00000000000E+00 -0.00000000000E+00 -0.81115196404E+02  0.81115196404E+02  0.00000000000E+00 0. -1.
         25    2    1    2    0    0 -0.15908517526E+03  0.19447553307E+02  0.15237920158E+03  0.25406962741E+03  0.12508258944E+03 0.  0.
          5    1    3    3  502    0 -0.78934997180E+02  0.12009560296E+02 -0.19313063167E+01  0.79976031800E+02  0.41800000000E+01 0.  1.
         -5    1    3    3    0  502 -0.80150178083E+02  0.74379930112E+01  0.15431050789E+03  0.17409359561E+03  0.41800000000E+01 0.  1.
        -11    1    1    2    0    0  0.13282464901E+03 -0.51609090810E+02  0.18509420683E+03  0.23359313141E+03  0.00000000000E+00 0. -1.
         11    1    1    2    0    0  0.26260526255E+02  0.32161537503E+02  0.65567123656E+02  0.77608166054E+02  0.00000000000E+00 0.  1.
</event>
<event>
 7    1  0.3265282E-009  0.1087263E+03  0.7561462E-02  0.1262947E+00
          1   -1    0    0  501    0  0.00000000000E+00  0.00000000000E+00  0.59534621586E+03  0.59534621586E+03  0.00000000000E+00 0. -1.
         -1   -1    0    0    0  501 -0.00000000000E+00 -0.00000000000E+00 -0.25466074565E+02  0.25466074565E+02  0.00000000000E+00 0.  1.
         25    2    1    2    0    0 -0.26575698418E+02 -0.42420972888E+02  0.24957172953E+03  0.28361684376E+03  0.12508660677E+03 0.  0.
          5    1    3    3  502    0  0.43342643963E+02  0.83674968231E+01  0.11889868256E+03  0.12689747398E+03  0.41800000000E+01 0. -1.
         -5    1    3    3    0  502 -0.69918342382E+02 -0.50788469711E+02  0.13067304698E+03  0.15671936978E+03  0.41800000000E+01 0. -1.
        -11    1    1    2    0    0 -0.24326522455E+02  0.10395031811E+02  0.27055836306E+02  0.37839855434E+02  0.00000000000E+00 0.  1.
         11    1    1    2    0    0  0.50902220873E+02  0.32025941077E+02  0.29325257545E+03  0.29935559123E+03  0.00000000000E+00 0. -1.
</event>
<event>
 7    1  0.3265282E-009  0.8986093E+02  0.7561462E-02  0.1303189E+00
          2   -1    0    0  501    0  0.00000000000E+00  0.00000000000E+00  0.92662240387E+03  0.92662240387E+03  0.00000000000E+00 0. -1.
         -2   -1    0    0    0  501 -0.00000000000E+00 -0.00000000000E+00 -0.14123932185E+02  0.14123932185E+02  0.00000000000E+00 0.  1.
         25    2    1    2    0    0  0.27580407577E+02 -0.59421173140E+01  0.61257234254E+03  0.62585055431E+03  0.12509218139E+03 0.  0.
          5    1    3    3  502    0  0.52386094668E+02  0.13530712269E+02  0.57065180181E+03  0.57322625062E+03  0.41800000000E+01 0. -1.
         -5    1    3    3    0  502 -0.24805687091E+02 -0.19472829583E+02  0.41920540730E+02  0.52624303692E+02  0.41800000000E+01 0. -1.
        -11    1    1    2    0    0  0.87359314231E+01  0.41743243375E+02  0.17130662333E+03  0.17653547536E+03  0.00000000000E+00 0. -1.
         11    1    1    2    0    0 -0.36316339000E+02 -0.35801126061E+02  0.12861950582E+03  0.13836030639E+03  0.00000000000E+00 0.  1.
</event>
<event>
 7    1  0.3265282E-009  0.1016758E+03  0.7561462E-02  0.1276811E+00
          2   -1    0    0  501    0  0.00000000000E+00  0.00000000000E+00  0.41649540261E+03  0.41649540261E+03  0.00000000000E+00 0. -1.
         -2   -1    0    0    0  501 -0.00000000000E+00 -0.00000000000E+00 -0.37734922984E+02  0.37734922984E+02  0.00000000000E+00 0.  1.
         25    2    1    2    0    0 -0.48849601423E+02 -0.24762190298E+02  0.26980122419E+03  0.30239090841E+03  0.12509241099E+03 0.  0.
          5    1    3    3  502    0 -0.36035725510E+02 -0.55314675389E+02  0.58007705549E+02  0.87980981635E+02  0.41800000000E+01 0.  1.
         -5    1    3    3    0  502 -0.12813875914E+02  0.30552485091E+02  0.21179351864E+03  0.21440992677E+03  0.41800000000E+01 0.  1.
        -11    1    1    2    0    0  0.61259419518E+01 -0.32102961484E+02  0.48528204924E+02  0.58507383927E+02  0.00000000000E+00 0.  1.
         11    1    1    2    0    0  0.42723659472E+02  0.56865151782E+02  0.60431050510E+02  0.93332033256E+02  0.00000000000E+00 0. -1.
</event>
<event>
 7    1  0.3265282E-009  0.1144667E+03  0.7561462E-02  0.1252515E+00
          1   -1    0    0  501    0  0.00000000000E+00  0.00000000000E+00  0.67175955609E+02  0.67175955609E+02  0.00000000000E+00 0. -1.
         -1   -1    0    0    0  501 -0.00000000000E+00 -0.00000000000E+00 -0.26142774666E+03  0.26142774666E+03  0.00000000000E+00 0.  1.
         25    2    1    2    0    0 -0.20046382535E+02  0.57958874214E+02 -0.49701299012E+02  0.14791619312E+03  0.12509153653E+03 0.  0.
          5    1    3    3  502    0 -0.49481683140E+02 -0.21481943275E+02 -0.14000268100E+02  0.55887304105E+02  0.41800000000E+01 0.  1.
         -5    1    3    3    0  502  0.29435300605E+02  0.79440817489E+02 -0.35701030912E+02  0.92028889015E+02  0.41800000000E+01 0.  1.
        -11    1    1    2    0    0  0.41472040535E+02 -0.54211293678E+02 -0.52523484619E+02  0.86124972830E+02  0.00000000000E+00 0. -1.
         11    1    1    2    0    0 -0.21425658000E+02 -0.37475805363E+01 -0.92027007423E+02  0.94562536323E+02  0.00000000000E+00 0.  1.
</event>
<event>
 7    1  0.3364262E-009  0.2576126E+03  0.7561462E-02  0.1108586E+00
         -1   -1    0    0    0  501 -0.00000000000E+00  0.00000000000E+00  0.11594145350E+03  0.11594145350E+03  0.00000000000E+00 0.  1.
          1   -1    0    0  501    0  0.00000000000E+00 -0.00000000000E+00 -0.59711759412E+03  0.59711759412E+03  0.00000000000E+00 0. -1.
         25    2    1    2    0    0 -0.93614321355E+02  0.21396744647E+03 -0.17660458428E+03  0.31840397753E+03  0.12508478887E+03 0.  0.
          5    1    3    3  502    0 -0.80645095179E+02  0.40245186052E+02 -0.69193136322E+02  0.11370342515E+03  0.41800000000E+01 0.  1.
         -5    1    3    3    0  502 -0.12969226176E+02  0.17372226042E+03 -0.10741144796E+03  0.20470055238E+03  0.41800000000E+01 0.  1.
        -11    1    1    2    0    0 -0.13371906297E+02 -0.70609563438E+02 -0.95094423936E+02  0.11919508291E+03  0.00000000000E+00 0.  1.
         11    1    1    2    0    0  0.10698622765E+03 -0.14335788303E+03 -0.20947713240E+03  0.27545998717E+03  0.00000000000E+00 0. -1.
</event>
<event>
 7    1  0.3265282E-009  0.1478931E+03  0.7561462E-02  0.1203086E+00
          2   -1    0    0  501    0  0.00000000000E+00  0.00000000000E+00  0.30057996411E+03  0.30057996411E+03  0.00000000000E+00 0. -1.
         -2   -1    0    0    0  501 -0.00000000000E+00 -0.00000000000E+00 -0.86703808970E+02  0.86703808970E+02  0.00000000000E+00 0.  1.
         25    2    1    2    0    0 -0.37456158266E+01  0.11610649990E+03  0.13705054993E+03  0.21891702814E+03  0.12508822092E+03 0.  0.
          5    1    3    3  502    0 -0.46056234408E+02  0.11505906394E+03  0.12157401959E+03  0.17365909007E+03  0.41800000000E+01 0. -1.
         -5    1    3    3    0  502  0.42310618581E+02  0.10474359590E+01  0.15476530340E+02  0.45257938068E+02  0.41800000000E+01 0. -1.
        -11    1    1    2    0    0 -0.16682141276E+02 -0.10436526971E+03  0.20977429756E+02  0.10775182559E+03  0.00000000000E+00 0. -1.
         11    1    1    2    0    0  0.20427757103E+02 -0.11741230193E+02  0.55848175456E+02  0.60614919355E+02  0.00000000000E+00 0.  1.
</event>
<event>
 7    1  0.3265282E-009  0.1972895E+03  0.7561462E-02  0.1152046E+00
          1   -1    0    0  501    0  0.00000000000E+00  0.00000000000E+00  0.54738334254E+03  0.54738334254E+03  0.00000000000E+00 0. -1.
         -1   -1    0    0    0  501 -0.00000000000E+00 -0.00000000000E+00 -0.10087817420E+03  0.10087817420E+03  0.00000000000E+00 0.  1.
         25    2    1    2    0    0 -0.81003016633E+02  0.16535262754E+03  0.36520647798E+03  0.42769827076E+03  0.12508820533E+03 0.  0.
          5    1    3    3  502    0 -0.67134980597E+02  0.16093180106E+03  0.21557153345E+03  0.27729895176E+03  0.41800000000E+01 0. -1.
         -5    1    3    3    0  502 -0.13868036036E+02  0.44208264798E+01  0.14963494454E+03  0.15039931900E+03  0.41800000000E+01 0. -1.
        -11    1    1    2    0    0  0.99049522377E+02 -0.11640489635E+03  0.62015148452E+02  0.16494479808E+03  0.00000000000E+00 0.  1.
         11    1    1    2    0    0 -0.18046505745E+02 -0.48947731194E+02  0.19283541908E+02  0.55618447903E+02  0.00000000000E+00 0. -1.
</event>
<event>
 7    1  0.3265282E-009  0.1074040E+03  0.7561462E-02  0.1265454E+00
          2   -1    0    0  501    0  0.00000000000E+00  0.00000000000E+00  0.17216370925E+04  0.17216370925E+04  0.00000000000E+00 0. -1.
         -2   -1    0    0    0  501 -0.00000000000E+00 -0.00000000000E+00 -0.12340266362E+02  0.12340266362E+02  0.00000000000E+00 0.  1.
         25    2    1    2    0    0 -0.98733287041E+01  0.14738110482E+02  0.14985747619E+04  0.15038919066E+04  0.12509938139E+03 0.  0.
          5    1    3    3  502    0  0.47028005909E+02 -0.24507347255E+02  0.84106220590E+03  0.84274275434E+03  0.41800000000E+01 0.  1.
         -5    1    3    3    0  502 -0.56901334613E+02  0.39245457737E+02  0.65751255596E+03  0.66114915222E+03  0.41800000000E+01 0.  1.
        -11    1    1    2    0    0  0.45506656322E+02  0.12864435384E+02  0.10525568538E+03  0.11539111219E+03  0.00000000000E+00 0. -1.
         11    1    1    2    0    0 -0.35633327618E+02 -0.27602545866E+02  0.10546637891E+03  0.11469434012E+03  0.00000000000E+00 0.  1.
</event>
<event>
 7    1  0.3265282E-009  0.1870491E+03  0.7561462E-02  0.1161150E+00
          1   -1    0    0  501    0  0.00000000000E+00  0.00000000000E+00  0.62427645016E+03  0.62427645016E+03  0.00000000000E+00 0. -1.
         -1   -1    0    0    0  501 -0.00000000000E+00 -0.00000000000E+00 -0.82177886573E+02  0.82177886573E+02  0.00000000000E+00 0.  1.
         25    2    1    2    0    0  0.18057269435E+03 -0.17603739347E+02  0.15425235624E+03  0.26899232632E+03  0.12508674042E+03 0.  0.
          5    1    3    3  502    0  0.21779820382E+02  0.19513164708E+02  0.88173733667E+02  0.92990342948E+02  0.41800000000E+01 0. -1.
         -5    1    3    3    0  502  0.15879287397E+03 -0.37116904055E+02  0.66078622571E+02  0.17600198337E+03  0.41800000000E+01 0. -1.
        -11    1    1    2    0    0 -0.84456139311E+02  0.77157880958E+01  0.28047177064E+03  0.29301328806E+03  0.00000000000E+00 0. -1.
         11    1    1    2    0    0 -0.96116555037E+02  0.98879512512E+01  0.10737443671E+03  0.14444872236E+03  0.00000000000E+00 0.  1.
</event>
<event>
 7    1  0.3265282E-009  0.1533679E+03  0.7561462E-02  0.1196395E+00
         -1   -1    0    0    0  501 -0.00000000000E+00  0.00000000000E+00  0.36848675179E+03  0.36848675179E+03  0.00000000000E+00 0.  1.
          1   -1    0    0  501    0  0.00000000000E+00 -0.00000000000E+00 -0.17706635354E+03  0.17706635354E+03  0.00000000000E+00 0. -1.
         25    2    1    2    0    0 -0.10817739410E+03  0.28460076183E+02  0.31405518665E+03  0.35607616718E+03  0.12508897650E+03 0.  0.
          5    1    3    3  502    0 -0.12016971354E+03 -0.13021332894E+02  0.19611313003E+03  0.23040865290E+03  0.41800000000E+01 0. -1.
         -5    1    3    3    0  502  0.11992319441E+02  0.41481409077E+02  0.11794205662E+03  0.12566751428E+03  0.41800000000E+01 0. -1.
        -11    1    1    2    0    0  0.77651686076E+02 -0.60288222285E+02 -0.69338706366E+02  0.12030091561E+03  0.00000000000E+00 0.  1.
         11    1    1    2    0    0  0.30525708024E+02  0.31828146102E+02 -0.53296082035E+02  0.69176022544E+02  0.00000000000E+00 0. -1.
</event>
<event>
 7    1  0.3265282E-009  0.1968524E+03  0.7561462E-02  0.1152422E+00
         -1   -1    0    0    0  501 -0.00000000000E+00  0.00000000000E+00  0.17117054321E+03  0.17117054321E+03  0.00000000000E+00 0.  1.
          1   -1    0    0  501    0  0.00000000000E+00 -0.00000000000E+00 -0.28296855192E+03  0.28296855192E+03  0.00000000000E+00 0. -1.
         25    2    1    2    0    0  0.99808186986E+01 -0.18965262410E+03 -0.76946885078E+02  0.24007541412E+03  0.12509055428E+03 0.  0.
          5    1    3    3  502    0 -0.22663043547E+01 -0.19063694999E+03 -0.32088248728E+02  0.19337712104E+03  0.41800000000E+01 0. -1.
         -5    1    3    3    0  502  0.12247123053E+02  0.98432589330E+00 -0.44858636350E+02  0.46698293071E+02  0.41800000000E+01 0. -1.
        -11    1    1    2    0    0  0.29895423760E+00  0.49652159287E+02 -0.52874858101E+02  0.72533970763E+02  0.00000000000E+00 0. -1.
         11    1    1    2    0    0 -0.10279772936E+02  0.14000046481E+03  0.18023734463E+02  0.14152971025E+03  0.00000000000E+00 0.  1.
</event>
<event>
 7    1  0.3265282E-009  0.7851533E+02  0.7561462E-02  0.1333318E+00
         -2   -1    0    0    0  501 -0.00000000000E+00  0.00000000000E+00  0.49004889721E+02  0.49004889721E+02  0.00000000000E+00 0.  1.
          2   -1    0    0  501    0  0.00000000000E+00 -0.00000000000E+00 -0.44594147607E+03  0.44594147607E+03  0.00000000000E+00 0. -1.
         25    2    1    2    0    0 -0.37395255182E+02 -0.64952555761E+02 -0.94716828394E+02  0.17388411867E+03  0.12508864671E+03 0.  0.
          5    1    3    3  502    0 -0.21882484575E+02 -0.13697611216E+02 -0.11388751779E+03  0.11685164438E+03  0.41800000000E+01 0. -1.
         -5    1    3    3    0  502 -0.15512770608E+02 -0.51254944544E+02  0.19170689401E+02  0.57032474296E+02  0.41800000000E+01 0. -1.
        -11    1    1    2    0    0  0.46998399168E+01  0.25478439276E+02 -0.16354908460E+02  0.30638576891E+02  0.00000000000E+00 0.  1.
         11    1    1    2    0    0  0.32695415266E+02  0.39474116485E+02 -0.28586484949E+03  0.29042367022E+03  0.00000000000E+00 0. -1.
</event>
<event>
 7    1  0.3265282E-009  0.1016923E+03  0.7561462E-02  0.1276777E+00
          1   -1    0    0  501    0  0.00000000000E+00  0.00000000000E+00  0.15275365843E+03  0.15275365843E+03  0.00000000000E+00 0. -1.
         -1   -1    0    0    0  501 -0.00000000000E+00 -0.00000000000E+00 -0.10852704056E+03  0.10852704056E+03  0.00000000000E+00 0.  1.
         25    2    1    2    0    0  0.32224745361E+01 -0.99627989640E+01  0.94038759240E+02  0.15684801163E+03  0.12509344031E+03 0.  0.
          5    1    3    3  502    0 -0.51507997060E+02  0.11787726363E+02  0.96818794438E+01  0.53881680036E+02  0.41800000000E+01 0. -1.
         -5    1    3    3    0  502  0.54730471596E+02 -0.21750525327E+02  0.84356879796E+02  0.10296633159E+03  0.41800000000E+01 0. -1.
        -11    1    1    2    0    0 -0.29702785390E+02 -0.30761425631E+02 -0.18183073436E+02  0.46466600116E+02  0.00000000000E+00 0.  1.
         11    1    1    2    0    0  0.26480310854E+02  0.40724224594E+02 -0.31629067933E+02  0.57966087241E+02  0.00000000000E+00 0. -1.
</event>
<event>
 7    1  0.3265282E-009  0.1184240E+03  0.7561462E-02  0.1245720E+00
          3   -1    0    0  501    0  0.00000000000E+00  0.00000000000E+00  0.22863460953E+03  0.22863460953E+03  0.00000000000E+00 0. -1.
         -3   -1    0    0    0  501 -0.00000000000E+00 -0.00000000000E+00 -0.98780751165E+02  0.98780751165E+02  0.00000000000E+00 0.  1.
         25    2    1    2    0    0 -0.75321961986E+02 -0.56350928318E+02  0.11603949392E+03  0.19483762978E+03  0.12509081800E+03 0.  0.
          5    1    3    3  502    0 -0.54488904923E+02 -0.11945380202E+02  0.13177472765E+03  0.14315650217E+03  0.41800000000E+01 0. -1.
         -5    1    3    3    0  502 -0.20833057063E+02 -0.44405548116E+02 -0.15735233726E+02  0.51681127605E+02  0.41800000000E+01 0. -1.
        -11    1    1    2    0    0  0.61162581693E+02  0.82050946637E+02  0.78838923960E+01  0.10264197486E+03  0.00000000000E+00 0. -1.
         11    1    1    2    0    0  0.14159380293E+02 -0.25700018319E+02  0.59304720434E+01  0.29935756054E+02  0.00000000000E+00 0.  1.
</event>
<event>
 7    1  0.3265282E-009  0.1231526E+03  0.7561462E-02  0.1237985E+00
         -4   -1    0    0    0  501 -0.00000000000E+00  0.00000000000E+00  0.45191897073E+03  0.45191897073E+03  0.00000000000E+00 0. -1.
          4   -1    0    0  501    0  0.00000000000E+00 -0.00000000000E+00 -0.36990721914E+02  0.36990721914E+02  0.00000000000E+00 0.  1.
         25    2    1    2    0    0 -0.27907679598E+02  0.64541811187E+02  0.26193707457E+03  0.29866977946E+03  0.12509245443E+03 0.  0.
          5    1    3    3  502    0 -0.53254968382E+02  0.88308446120E+02  0.22628816383E+03  0.24871324613E+03  0.41800000000E+01 0. -1.
         -5    1    3    3    0  502  0.25347288784E+02 -0.23766634933E+02  0.35648910742E+02  0.49956533324E+02  0.41800000000E+01 0. -1.
        -11    1    1    2    0    0  0.40750027596E+02  0.15424413499E+01  0.32215309419E+02  0.51968933368E+02  0.00000000000E+00 0.  1.
         11    1    1    2    0    0 -0.12842347999E+02 -0.66084252537E+02  0.12077586483E+03  0.13827097982E+03  0.00000000000E+00 0. -1.
</event>
<event>
 7    1  0.3722574E-009  0.1402112E+03  0.7561462E-02  0.1213045E+00
          2   -1    0    0  501    0  0.00000000000E+00  0.00000000000E+00  0.35086330514E+03  0.35086330514E+03  0.00000000000E+00 0. -1.
         -2   -1    0    0    0  501 -0.00000000000E+00 -0.00000000000E+00 -0.73621316002E+02  0.73621316002E+02  0.00000000000E+00 0.  1.
         25    2    1    2    0    0 -0.11008417794E+03  0.32325662216E+02  0.11119053376E+03  0.20291791160E+03  0.12509544109E+03 0.  0.
          5    1    3    3  502    0 -0.16077799217E+02 -0.42148121241E+02  0.52455411857E+02  0.69310911009E+02  0.41800000000E+01 0. -1.
         -5    1    3    3    0  502 -0.94006378722E+02  0.74473783458E+02  0.58735121906E+02  0.13360700060E+03  0.41800000000E+01 0. -1.
        -11    1    1    2    0    0  0.69808461187E+02 -0.25172437373E+02  0.30942235932E+02  0.80400838435E+02  0.00000000000E+00 0.  1.
         11    1    1    2    0    0  0.40275716751E+02 -0.71532248438E+01  0.13510921944E+03  0.14116587110E+03  0.00000000000E+00 0. -1.
</event>
<event>
 7    1  0.3265282E-009  0.1977825E+03  0.7561462E-02  0.1151623E+00
          2   -1    0    0  501    0  0.00000000000E+00  0.00000000000E+00  0.24769236878E+03  0.24769236878E+03  0.00000000000E+00 0. -1.
         -2   -1    0    0    0  501 -0.00000000000E+00 -0.00000000000E+00 -0.40737133637E+03  0.40737133637E+03  0.00000000000E+00 0.  1.
         25    2    1    2    0    0 -0.52167896766E+02  0.16798931060E+03  0.16708852390E+03  0.27295335633E+03  0.12507222706E+03 0.  0.
          5    1    3    3  502    0  0.42744165916E+01  0.14107274665E+03  0.70517994484E+02  0.15782918117E+03  0.41800000000E+01 0.  1.
         -5    1    3    3    0  502 -0.56442313357E+02  0.26916563951E+02  0.96570529419E+02  0.11512417515E+03  0.41800000000E+01 0.  1.
        -11    1    1    2    0    0  0.66192192176E+02 -0.86049590315E+02 -0.23136985494E+03  0.25557376249E+03  0.00000000000E+00 0.  1.
         11    1    1    2    0    0 -0.14024295411E+02 -0.81939720284E+02 -0.95397636561E+02  0.12653658634E+03  0.00000000000E+00 0. -1.
</event>
<event>
 7    1  0.3265282E-009  0.1147502E+03  0.7561462E-02  0.1252018E+00
         -1   -1    0    0    0  501 -0.00000000000E+00  0.00000000000E+00  0.32509756803E+03  0.32509756803E+03  0.00000000000E+00 0.  1.
          1   -1    0    0  501    0  0.00000000000E+00 -0.00000000000E+00 -0.81318704022E+02  0.81318704022E+02  0.00000000000E+00 0. -1.
         25    2    1    2    0    0  0.72301273781E+02 -0.29845281019E+02  0.24534434985E+03  0.28628534910E+03  0.12508891284E+03 0.  0.
          5    1    3    3  502    0 -0.10309805311E+02  0.32784088642E+02  0.24896477677E+02  0.42642649477E+02  0.41800000000E+01 0. -1.
         -5    1    3    3    0  502  0.82611079093E+02 -0.62629369662E+02  0.22044787217E+03  0.24364269962E+03  0.41800000000E+01 0. -1.
        -11    1    1    2    0    0  0.58044562530E+01  0.82582363627E+01  0.31148060299E+02  0.32742813572E+02  0.00000000000E+00 0.  1.
         11    1    1    2    0    0 -0.78105730035E+02  0.21587044657E+02 -0.32713546137E+02  0.87388109386E+02  0.00000000000E+00 0. -1.
</event>
<event>
 7    1  0.3265282E-009  0.7563085E+02  0.7561462E-02  0.1341929E+00
          1   -1    0    0  501    0  0.00000000000E+00  0.00000000000E+00  0.74982980221E+02  0.74982980221E+02  0.00000000000E+00 0. -1.
         -1   -1    0    0    0  501 -0.00000000000E+00 -0.00000000000E+00 -0.19269941805E+03  0.19269941805E+03  0.00000000000E+00 0.  1.
         25    2    1    2    0    0 -0.33728381879E+02 -0.28442864344E+02 -0.94315875808E+02  0.16274574884E+03  0.12507635292E+03 0.  0.
          5    1    3    3  502    0 -0.14019724255E+02 -0.30291193837E+02  0.24883123160E+02  0.41841980240E+02  0.41800000000E+01 0. -1.
         -5    1    3    3    0  502 -0.19708657623E+02  0.18483294930E+01 -0.11919899897E+03  0.12090376860E+03  0.41800000000E+01 0. -1.
        -11    1    1    2    0    0 -0.21356163518E+02  0.35932280422E+02 -0.26101293122E+02  0.49279732134E+02  0.00000000000E+00 0.  1.
         11    1    1    2    0    0  0.55084545396E+02 -0.74894160783E+01  0.27007310981E+01  0.55656917299E+02  0.00000000000E+00 0. -1.
</event>
<event>
 7    1  0.3265282E-009  0.1497228E+03  0.7561462E-02  0.1200814E+00
         -1   -1    0    0    0  501 -0.00000000000E+00  0.00000000000E+00  0.55502568816E+02  0.55502568816E+02  0.00000000000E+00 0.  1.
          1   -1    0    0  501    0  0.00000000000E+00 -0.00000000000E+00 -0.77458134394E+03  0.77458134394E+03  0.00000000000E+00 0. -1.
         25    2    1    2    0    0  0.13899315949E+03 -0.21461991597E+02 -0.16282905644E+03  0.24888013093E+03  0.12509317521E+03 0.  0.
          5    1    3    3  502    0  0.16022298855E+02  0.22294728996E+02  0.12340067763E+02  0.30389450044E+02  0.41800000000E+01 0. -1.
         -5    1    3    3    0  502  0.12297086063E+03 -0.43756720593E+02 -0.17516912420E+03  0.21849068089E+03  0.41800000000E+01 0. -1.
        -11    1    1    2    0    0 -0.62934126967E+02  0.15351866851E+02 -0.10372999202E+03  0.12229593369E+03  0.00000000000E+00 0.  1.
         11    1    1    2    0    0 -0.76059032522E+02  0.61101247460E+01 -0.45251972667E+03  0.45890784813E+03  0.00000000000E+00 0. -1.
</event>
<event>
 7    1  0.3265282E-009  0.1904532E+03  0.7561462E-02  0.1158053E+00
          2   -1    0    0  501    0  0.00000000000E+00  0.00000000000E+00  0.90679438655E+03  0.90679438655E+03  0.00000000000E+00 0. -1.
         -2   -1    0    0    0  501 -0.00000000000E+00 -0.00000000000E+00 -0.49737529108E+02  0.49737529108E+02  0.00000000000E+00 0.  1.
         25    2    1    2    0    0  0.13845381305E+03 -0.76505980541E+02  0.23752015459E+03  0.31158667668E+03  0.12509120610E+03 0.  0.
          5    1    3    3  502    0  0.13053814360E+03 -0.10765453711E+03  0.19853516277E+03  0.26088961181E+03  0.41800000000E+01 0.  1.
         -5    1    3    3    0  502  0.79156694421E+01  0.31148556569E+02  0.38984991818E+02  0.50697064866E+02  0.41800000000E+01 0.  1.
        -11    1    1    2    0    0 -0.97542676634E+01 -0.17384775745E+02  0.67879907425E+02  0.70746434521E+02  0.00000000000E+00 0.  1.
         11    1    1    2    0    0 -0.12869954538E+03  0.93890756286E+02  0.55165679542E+03  0.57419880445E+03  0.00000000000E+00 0. -1.
</event>
<event>
 7    1  0.3265282E-009  0.1347396E+03  0.7561462E-02  0.1220588E+00
         -2   -1    0    0    0  501 -0.00000000000E+00  0.00000000000E+00  0.35511162924E+02  0.35511162924E+02  0.00000000000E+00 0.  1.
          2   -1    0    0  501    0  0.00000000000E+00 -0.00000000000E+00 -0.81196889020E+03  0.81196889020E+03  0.00000000000E+00 0. -1.
         25    2    1    2    0    0 -0.40265784126E+02  0.98195672397E+02 -0.24647055307E+03  0.29607168518E+03  0.12508791223E+03 0.  0.
          5    1    3    3  502    0 -0.17960179169E+02 -0.12290373600E+01  0.93219643512E+01  0.20699033503E+02  0.41800000000E+01 0. -1.
         -5    1    3    3    0  502 -0.22305604957E+02  0.99424709757E+02 -0.25579251742E+03  0.27537265168E+03  0.41800000000E+01 0. -1.
        -11    1    1    2    0    0  0.50430385376E+02 -0.11713060375E+03 -0.40550808591E+03  0.42508776722E+03  0.00000000000E+00 0.  1.
         11    1    1    2    0    0 -0.10164601250E+02  0.18934931350E+02 -0.12447908830E+03  0.12632060072E+03  0.00000000000E+00 0. -1.
</event>
<event>
 6    1  0.3669123E-009  0.1141953E+03  0.7561462E-02  0.1252992E+00
          2   -1    0    0  501    0  0.00000000000E+00  0.00000000000E+00  0.82007624281E+02  0.82007624281E+02  0.00000000000E+00 0. -1.
         -2   -1    0    0    0  501 -0.00000000000E+00 -0.00000000000E+00 -0.23047193137E+03  0.23047193137E+03  0.00000000000E+00 0.  1.
          5    1    1    2  502    0  0.94533833396E+01  0.40091976010E+01 -0.80982942458E+02  0.81738298802E+02  0.41800000000E+01 0.  1.
         -5    1    1    2    0  502 -0.83704746795E+02 -0.42025649567E+02 -0.10810989435E+02  0.94376849651E+02  0.41800000000E+01 0.  1.
        -11    1    1    2    0    0  0.15677976470E+02  0.59216252946E+02 -0.34109150608E+02  0.70112750012E+02  0.00000000000E+00 0.  1.
         11    1    1    2    0    0  0.58573386985E+02 -0.21199800979E+02 -0.22561224584E+02  0.66251657181E+02  0.00000000000E+00 0. -1.
</event>
<event>
 7    1  0.3265282E-009  0.1239826E+03  0.7561462E-02  0.1236668E+00
          1   -1    0    0  501    0  0.00000000000E+00  0.00000000000E+00  0.22337992027E+02  0.22337992027E+02  0.00000000000E+00 0. -1.
         -1   -1    0    0    0  501 -0.00000000000E+00 -0.00000000000E+00 -0.77041085436E+03  0.77041085436E+03  0.00000000000E+00 0.  1.
         25    2    1    2    0    0 -0.52098081142E+02  0.46770851130E+02 -0.48161315107E+03  0.50249388918E+03  0.12508860381E+03 0.  0.
          5    1    3    3  502    0 -0.80060424060E+02  0.23352522386E+01 -0.37621607100E+03  0.38467015660E+03  0.41800000000E+01 0.  1.
         -5    1    3    3    0  502  0.27962342918E+02  0.44435598892E+02 -0.10539708007E+03  0.11782373257E+03  0.41800000000E+01 0.  1.
        -11    1    1    2    0    0 -0.12875163245E+02 -0.48417186670E+02 -0.11691497148E+03  0.12719710826E+03  0.00000000000E+00 0. -1.
         11    1    1    2    0    0  0.64973244387E+02  0.16463355393E+01 -0.14954473978E+03  0.16305784895E+03  0.00000000000E+00 0.  1.
</event>
<event>
 7    1  0.3265282E-009  0.1166587E+03  0.7561462E-02  0.1248713E+00
          3   -1    0    0  501    0  0.00000000000E+00  0.00000000000E+00  0.18380571644E+03  0.18380571644E+03  0.00000000000E+00 0. -1.
         -3   -1    0    0    0  501 -0.00000000000E+00 -0.00000000000E+00 -0.10568731277E+03  0.10568731277E+03  0.00000000000E+00 0.  1.
         25    2    1    2    0    0  0.41731913178E+02  0.65364376970E+02  0.83700138238E+02  0.16933142306E+03  0.12511340192E+03 0.  0.
          5    1    3    3  502    0 -0.94354033366E+01  0.64979668317E+02 -0.59075341480E+01  0.66058727587E+02  0.41800000000E+01 0.  1.
         -5    1    3    3    0  502  0.51167316514E+02  0.38470865247E+00  0.89607672387E+02  0.10327269547E+03  0.41800000000E+01 0.  1.
        -11    1    1    2    0    0  0.26837371410E+02 -0.24640037450E+02  0.12257364698E+02  0.38439809301E+02  0.00000000000E+00 0. -1.
         11    1    1    2    0    0 -0.68569284588E+02 -0.40724339520E+02 -0.17839099267E+02  0.81721796853E+02  0.00000000000E+00 0.  1.
</event>
<event>
 7    1  0.3265282E-009  0.1345825E+03  0.7561462E-02  0.1220810E+00
          2   -1    0    0  501    0  0.00000000000E+00  0.00000000000E+00  0.71494706190E+03  0.71494706190E+03  0.00000000000E+00 0.  1.
         -2   -1    0    0    0  501 -0.00000000000E+00 -0.00000000000E+00 -0.25783040566E+02  0.25783040566E+02  0.00000000000E+00 0. -1.
         25    2    1    2    0    0 -0.38181363858E+02 -0.71450548856E+02  0.37275727694E+03  0.40144596556E+03  0.12509147960E+03 0.  0.
          5    1    3    3  502    0 -0.47777754845E+02  0.23217588447E+02  0.14990006733E+03  0.15908888351E+03  0.41800000000E+01 0.  1.
         -5    1    3    3    0  502  0.95963909867E+01 -0.94668137302E+02  0.22285720961E+03  0.24235708204E+03  0.41800000000E+01 0.  1.
        -11    1    1    2    0    0  0.60358440470E+02  0.76939038389E+02  0.23037575707E+03  0.25027134556E+03  0.00000000000E+00 0.  1.
         11    1    1    2    0    0 -0.22177076612E+02 -0.54884895334E+01  0.86030987322E+02  0.89012791351E+02  0.00000000000E+00 0. -1.
</event>
<event>
 7    1  0.3265282E-009  0.7461378E+02  0.7561462E-02  0.1345071E+00
         -2   -1    0    0    0  501 -0.00000000000E+00  0.00000000000E+00  0.10944634365E+03  0.10944634365E+03  0.00000000000E+00 0.  1.
          2   -1    0    0  501    0  0.00000000000E+00 -0.00000000000E+00 -0.12179896157E+03  0.12179896157E+03  0.00000000000E+00 0. -1.
         25    2    1    2    0    0  0.36772806693E+02  0.11669812441E+02  0.66067638136E+01  0.13107135123E+03  0.12509047107E+03 0.  0.
          5    1    3    3  502    0  0.44302232104E+02  0.15095806575E+01  0.60746987522E+02  0.75316900468E+02  0.41800000000E+01 0.  1.
         -5    1    3    3    0  502 -0.75294254113E+01  0.10160231783E+02 -0.54140223708E+02  0.55754450765E+02  0.41800000000E+01 0.  1.
        -11    1    1    2    0    0  0.23638200947E+02  0.11989866197E+02  0.11018394464E+02  0.28704119077E+02  0.00000000000E+00 0.  1.
         11    1    1    2    0    0 -0.60411007639E+02 -0.23659678637E+02 -0.29977776195E+02  0.71469834915E+02  0.00000000000E+00 0. -1.
</event>
<event>
 7    1  0.3265282E-009  0.8344534E+02  0.7561462E-02  0.1319549E+00
          1   -1    0    0  501    0  0.00000000000E+00  0.00000000000E+00  0.55815210458E+03  0.55815210458E+03  0.00000000000E+00 0. -1.
         -1   -1    0    0    0  501 -0.00000000000E+00 -0.00000000000E+00 -0.30077697210E+02  0.30077697210E+02  0.00000000000E+00 0.  1.
         25    2    1    2    0    0  0.64821526157E+02 -0.17588453577E+02  0.32574654660E+03  0.35534540298E+03  0.12509340046E+03 0.  0.
          5    1    3    3  502    0  0.29304230981E+02  0.25597863298E+01  0.30993809696E+03  0.31135893565E+03  0.41800000000E+01 0.  1.
         -5    1    3    3    0  502  0.35517295177E+02 -0.20148239907E+02  0.15808449644E+02  0.43986467330E+02  0.41800000000E+01 0.  1.
        -11    1    1    2    0    0 -0.47820794167E+02 -0.22305046595E+02  0.17214208232E+03  0.18004788242E+03  0.00000000000E+00 0. -1.
         11    1    1    2    0    0 -0.17000731990E+02  0.39893500172E+02  0.30185778444E+02  0.52836516392E+02  0.00000000000E+00 0.  1.
</event>
<event>
 7    1  0.3265282E-009  0.1037653E+03  0.7561462E-02  0.1272572E+00
         -2   -1    0    0    0  501 -0.00000000000E+00  0.00000000000E+00  0.28991579122E+03  0.28991579122E+03  0.00000000000E+00 0.  1.
          2   -1    0    0  501    0  0.00000000000E+00 -0.00000000000E+00 -0.68757445204E+02  0.68757445204E+02  0.00000000000E+00 0. -1.
         25    2    1    2    0    0 -0.39137027628E+02  0.61311915171E+02  0.54980337802E+02  0.15480147735E+03  0.12509916855E+03 0.  0.
          5    1    3    3  502    0 -0.69168670474E+02  0.78405994251E+01 -0.36790070325E+01  0.69833999364E+02  0.41800000000E+01 0. -1.
         -5    1    3    3    0  502  0.30031642846E+02  0.53471315746E+02  0.58659344835E+02  0.84967477991E+02  0.41800000000E+01 0. -1.
        -11    1    1    2    0    0  0.16013433833E+02 -0.45696863273E+02  0.16902567409E+03  0.17582466231E+03  0.00000000000E+00 0.  1.
         11    1    1    2    0    0  0.23123593796E+02 -0.15615051899E+02 -0.28476658712E+01  0.28047096761E+02  0.00000000000E+00 0. -1.
</event>
<event>
 7    1  0.3265282E-009  0.1236029E+03  0.7561462E-02  0.1237269E+00
         -2   -1    0    0    0  501 -0.00000000000E+00  0.00000000000E+00  0.17192441381E+03  0.17192441381E+03  0.00000000000E+00 0.  1.
          2   -1    0    0  501    0  0.00000000000E+00 -0.00000000000E+00 -0.12734568380E+03  0.12734568380E+03  0.00000000000E+00 0. -1.
         25    2    1    2    0    0  0.76291272831E+02  0.51829476391E+02 -0.95442860490E+01  0.15570907355E+03  0.12509024445E+03 0.  0.
          5    1    3    3  502    0  0.10742233559E+03  0.53547589871E+02  0.67326230992E+01  0.12029007930E+03  0.41800000000E+01 0.  1.
         -5    1    3    3    0  502 -0.31131062756E+02 -0.17181134804E+01 -0.16276909148E+02  0.35418994250E+02  0.41800000000E+01 0.  1.
        -11    1    1    2    0    0 -0.17366487885E+02 -0.29996803034E+00  0.62469734638E+02  0.64839437289E+02  0.00000000000E+00 0.  1.
         11    1    1    2    0    0 -0.58924784946E+02 -0.51529508361E+02 -0.83467185780E+01  0.78721586772E+02  0.00000000000E+00 0. -1.
</event>
<event>
 7    1  0.3265282E-009  0.1676479E+03  0.7561462E-02  0.1180323E+00
         -2   -1    0    0    0  501 -0.00000000000E+00  0.00000000000E+00  0.69653890432E+02  0.69653890432E+02  0.00000000000E+00 0.  1.
          2   -1    0    0  501    0  0.00000000000E+00 -0.00000000000E+00 -0.54656897314E+03  0.54656897314E+03  0.00000000000E+00 0. -1.
         25    2    1    2    0    0 -0.71406823601E+01 -0.16059573881E+03 -0.26909370918E+03  0.33749226082E+03  0.12509045176E+03 0.  0.
          5    1    3    3  502    0  0.75404673767E+00 -0.35544450536E+02  0.49449921977E+01  0.36137264676E+02  0.41800000000E+01 0. -1.
         -5    1    3    3    0  502 -0.78947290978E+01 -0.12505128828E+03 -0.27403870137E+03  0.30135499614E+03  0.41800000000E+01 0. -1.
        -11    1    1    2    0    0 -0.30073707139E+02  0.69941697844E+02 -0.44271251005E+02  0.88069362572E+02  0.00000000000E+00 0.  1.
         11    1    1    2    0    0  0.37214389499E+02  0.90654040971E+02 -0.16355012252E+03  0.19066124018E+03  0.00000000000E+00 0. -1.
</event>
<event>
 7    1  0.3265282E-009  0.2847960E+03  0.7561462E-02  0.1093098E+00
          1   -1    0    0  501    0  0.00000000000E+00  0.00000000000E+00  0.21351048344E+04  0.21351048344E+04  0.00000000000E+00 0. -1.
         -1   -1    0    0    0  501 -0.00000000000E+00 -0.00000000000E+00 -0.40119149631E+02  0.40119149631E+02  0.00000000000E+00 0.  1.
         25    2    1    2    0    0  0.25586083571E+03 -0.94497594987E+02  0.11112321211E+04  0.11510339033E+04  0.12509059464E+03 0.  0.
          5    1    3    3  502    0  0.20730060741E+02 -0.40350888481E+02  0.33698119894E+03  0.34004665924E+03  0.41800000000E+01 0. -1.
         -5    1    3    3    0  502  0.23513077497E+03 -0.54146706506E+02  0.77425092217E+03  0.81098724407E+03  0.41800000000E+01 0. -1.
        -11    1    1    2    0    0 -0.89086021508E+02 -0.37263374410E+01  0.25357606021E+03  0.26879550429E+03  0.00000000000E+00 0.  1.
         11    1    1    2    0    0 -0.16677481420E+03  0.98223932428E+02  0.73017750345E+03  0.75539457643E+03  0.00000000000E+00 0. -1.
</event>
<event>
 7    1  0.3265282E-009  0.7549140E+02  0.7561462E-02  0.1342356E+00
         -1   -1    0    0    0  501 -0.00000000000E+00  0.00000000000E+00  0.18452288826E+02  0.18452288826E+02  0.00000000000E+00 0.  1.
          1   -1    0    0  501    0  0.00000000000E+00 -0.00000000000E+00 -0.69092219282E+03  0.69092219282E+03  0.00000000000E+00 0. -1.
         25    2    1    2    0    0 -0.21111508695E+02  0.10336728202E+02 -0.41625992598E+03  0.43528490002E+03  0.12509226379E+03 0.  0.
          5    1    3    3  502    0  0.17279555627E+01  0.35050427389E+02 -0.39200146360E+03  0.39359133394E+03  0.41800000000E+01 0. -1.
         -5    1    3    3    0  502 -0.22839464258E+02 -0.24713699187E+02 -0.24258462377E+02  0.41693566074E+02  0.41800000000E+01 0. -1.
        -11    1    1    2    0    0  0.20319938017E+02  0.32801987545E+02 -0.48658304772E+02  0.62100731809E+02  0.00000000000E+00 0.  1.
         11    1    1    2    0    0  0.79157067794E+00 -0.43138715747E+02 -0.20755167325E+03  0.21198884982E+03  0.00000000000E+00 0. -1.
</event>
<event>
 7    1  0.3265282E-009  0.2530888E+03  0.7561462E-02  0.1111368E+00
         -1   -1    0    0    0  501 -0.00000000000E+00  0.00000000000E+00  0.41295938832E+02  0.41295938832E+02  0.00000000000E+00 0.  1.
          1   -1    0    0  501    0  0.00000000000E+00 -0.00000000000E+00 -0.20935288494E+04  0.20935288494E+04  0.00000000000E+00 0. -1.
         25    2    1    2    0    0 -0.20513792262E+03  0.14101683155E+03 -0.14572449346E+04  0.14836366035E+04  0.12508979910E+03 0.  0.
          5    1    3    3  502    0 -0.13315390212E+02 -0.33726002867E+01 -0.36610351064E+03  0.36638494368E+03  0.41800000000E+01 0. -1.
         -5    1    3    3    0  502 -0.19182253240E+03  0.14438943183E+03 -0.10911414239E+04  0.11172516598E+04  0.41800000000E+01 0. -1.
        -11    1    1    2    0    0  0.68438273274E+02 -0.68989051840E+02 -0.33440966738E+03  0.34824289247E+03  0.00000000000E+00 0.  1.
         11    1    1    2    0    0  0.13669964934E+03 -0.72027779708E+02 -0.26057830863E+03  0.30294529227E+03  0.00000000000E+00 0. -1.
</event>
<event>
 7    1  0.3265282E-009  0.8712067E+02  0.7561462E-02  0.1309978E+00
         -2   -1    0    0    0  501 -0.00000000000E+00  0.00000000000E+00  0.42027441413E+03  0.42027441413E+03  0.00000000000E+00 0. -1.
          2   -1    0    0  501    0  0.00000000000E+00 -0.00000000000E+00 -0.36078925389E+02  0.36078925389E+02  0.00000000000E+00 0.  1.
         25    2    1    2    0    0 -0.10249332689E+02 -0.15111911296E+02  0.31044547620E+03  0.33519955505E+03  0.12509568070E+03 0.  0.
          5    1    3    3  502    0 -0.33836332622E+02  0.40721968968E+02  0.74082050488E+02  0.91152612505E+02  0.41800000000E+01 0. -1.
         -5    1    3    3    0  502  0.23586999933E+02 -0.55833880264E+02  0.23636342571E+03  0.24404694254E+03  0.41800000000E+01 0. -1.
        -11    1    1    2    0    0 -0.45815360008E+01 -0.20917580662E+02  0.78989484620E+02  0.81840542113E+02  0.00000000000E+00 0. -1.
         11    1    1    2    0    0  0.14830868690E+02  0.36029491958E+02 -0.52394720791E+01  0.39313242356E+02  0.00000000000E+00 0.  1.
</event>
<event>
 7    1  0.3265282E-009  0.2795322E+03  0.7561462E-02  0.1095945E+00
          2   -1    0    0  501    0  0.00000000000E+00  0.00000000000E+00  0.87301781228E+02  0.87301781228E+02  0.00000000000E+00 0. -1.
         -2   -1    0    0    0  501 -0.00000000000E+00 -0.00000000000E+00 -0.93006005470E+03  0.93006005470E+03  0.00000000000E+00 0.  1.
         25    2    1    2    0    0 -0.24106936120E+03  0.98002792343E+02 -0.50495700598E+03  0.58167611659E+03  0.12508614035E+03 0.  0.
          5    1    3    3  502    0 -0.72346702083E+01  0.48532736400E+02 -0.74703069996E+02  0.89475069278E+02  0.41800000000E+01 0. -1.
         -5    1    3    3    0  502 -0.23383469099E+03  0.49470055943E+02 -0.43025393598E+03  0.49220104731E+03  0.41800000000E+01 0. -1.
        -11    1    1    2    0    0  0.74743176658E+02  0.53741270929E+01 -0.13068164782E+03  0.15064234722E+03  0.00000000000E+00 0.  1.
         11    1    1    2    0    0  0.16632618454E+03 -0.10337691944E+03 -0.20711961968E+03  0.28504337212E+03  0.00000000000E+00 0. -1.
</event>
<event>
 7    1  0.3265282E-009  0.1332775E+03  0.7561462E-02  0.1222672E+00
          2   -1    0    0  501    0  0.00000000000E+00  0.00000000000E+00  0.41005574412E+03  0.41005574412E+03  0.00000000000E+00 0. -1.
         -2   -1    0    0    0  501 -0.00000000000E+00 -0.00000000000E+00 -0.49156760476E+02  0.49156760476E+02  0.00000000000E+00 0.  1.
         25    2    1    2    0    0  0.51422546360E+02  0.74483595388E+02  0.17816177453E+03  0.23576332616E+03  0.12510253317E+03 0.  0.
          5    1    3    3  502    0  0.57979806180E+02  0.10375323768E+03  0.16333135781E+03  0.20204206764E+03  0.41800000000E+01 0. -1.
         -5    1    3    3    0  502 -0.65572598192E+01 -0.29269642291E+02  0.14830416721E+02  0.33721258522E+02  0.41800000000E+01 0. -1.
        -11    1    1    2    0    0 -0.68333944836E+02 -0.73564855938E+02  0.18025392384E+03  0.20633175496E+03  0.00000000000E+00 0. -1.
         11    1    1    2    0    0  0.16911398476E+02 -0.91873944915E+00  0.24832852786E+01  0.17117423473E+02  0.00000000000E+00 0.  1.
</event>
<event>
 7    1  0.3265282E-009  0.8948508E+02  0.7561462E-02  0.1304103E+00
          2   -1    0    0  501    0  0.00000000000E+00  0.00000000000E+00  0.62969467468E+03  0.62969467468E+03  0.00000000000E+00 0. -1.
         -2   -1    0    0    0  501 -0.00000000000E+00 -0.00000000000E+00 -0.22987194848E+02  0.22987194848E+02  0.00000000000E+00 0.  1.
         25    2    1    2    0    0 -0.91590452902E+01 -0.50431840932E+02  0.35290535087E+03  0.37791087176E+03  0.12508869507E+03 0.  0.
          5    1    3    3  502    0 -0.33847260114E+02 -0.22717598045E+02  0.25248305733E+02  0.48131856608E+02  0.41800000000E+01 0. -1.
         -5    1    3    3    0  502  0.24688214824E+02 -0.27714242887E+02  0.32765704514E+03  0.32977901516E+03  0.41800000000E+01 0. -1.
        -11    1    1    2    0    0  0.22784607995E+02 -0.19134511729E+02  0.42382952262E+02  0.51783998910E+02  0.00000000000E+00 0.  1.
         11    1    1    2    0    0 -0.13625562705E+02  0.69566352662E+02  0.21141917670E+03  0.22298699886E+03  0.00000000000E+00 0. -1.
</event>
<event>
 7    1  0.3265282E-009  0.1153416E+03  0.7561462E-02  0.1250986E+00
         -2   -1    0    0    0  501 -0.00000000000E+00  0.00000000000E+00  0.12112334173E+03  0.12112334173E+03  0.00000000000E+00 0. -1.
          2   -1    0    0  501    0  0.00000000000E+00 -0.00000000000E+00 -0.28838593808E+03  0.28838593808E+03  0.00000000000E+00 0.  1.
         25    2    1    2    0    0 -0.50127933508E+02 -0.76711608598E+02  0.43685638463E+02  0.16110135957E+03  0.12509089670E+03 0.  0.
          5    1    3    3  502    0 -0.42973324854E+02 -0.27782767362E+02  0.83131577772E+02  0.97708343729E+02  0.41800000000E+01 0. -1.
         -5    1    3    3    0  502 -0.71546086532E+01 -0.48928841236E+02 -0.39445939310E+02  0.63393015843E+02  0.41800000000E+01 0. -1.
        -11    1    1    2    0    0  0.77363818471E+02  0.56993162944E+02 -0.17139990401E+03  0.19649760336E+03  0.00000000000E+00 0.  1.
         11    1    1    2    0    0 -0.27235884963E+02  0.19718445654E+02 -0.39548330813E+02  0.51910316882E+02  0.00000000000E+00 0. -1.
</event>
<event>
 7    1  0.3265282E-009  0.1711189E+03  0.7561462E-02  0.1176686E+00
         -2   -1    0    0    0  501 -0.00000000000E+00  0.00000000000E+00  0.10315817495E+03  0.10315817495E+03  0.00000000000E+00 0.  1.
          2   -1    0    0  501    0  0.00000000000E+00 -0.00000000000E+00 -0.33151901024E+03  0.33151901024E+03  0.00000000000E+00 0. -1.
         25    2    1    2    0    0 -0.74830395390E+02  0.12818458812E+03 -0.14311104584E+03  0.24116000698E+03  0.12508597370E+03 0.  0.
          5    1    3    3  502    0 -0.69499844086E+02  0.14448622400E+03 -0.15237082687E+03  0.22122576372E+03  0.41800000000E+01 0.  1.
         -5    1    3    3    0  502 -0.53305513038E+01 -0.16301635875E+02  0.92597810280E+01  0.19934243253E+02  0.41800000000E+01 0.  1.
        -11    1    1    2    0    0 -0.10001989013E+02  0.55932717362E+00  0.84432858666E+01  0.13101210147E+02  0.00000000000E+00 0.  1.
         11    1    1    2    0    0  0.84832384403E+02 -0.12874391530E+03 -0.93693075315E+02  0.18041596806E+03  0.00000000000E+00 0. -1.
</event>
<event>
 7    1  0.3265282E-009  0.2757669E+03  0.7561462E-02  0.1098024E+00
         -1   -1    0    0    0  501 -0.00000000000E+00  0.00000000000E+00  0.44545026710E+03  0.44545026710E+03  0.00000000000E+00 0.  1.
          1   -1    0    0  501    0  0.00000000000E+00 -0.00000000000E+00 -0.33477146815E+03  0.33477146815E+03  0.00000000000E+00 0. -1.
         25    2    1    2    0    0 -0.11076824309E+02 -0.82811029502E+02  0.22373839279E+03  0.26960445804E+03  0.12508929908E+03 0.  0.
          5    1    3    3  502    0  0.93050223235E+01  0.53934283118E+01 -0.12240605914E+02  0.16821930405E+02  0.41800000000E+01 0. -1.
         -5    1    3    3    0  502 -0.20381846633E+02 -0.88204457814E+02  0.23597899870E+03  0.25278252764E+03  0.41800000000E+01 0. -1.
        -11    1    1    2    0    0  0.20943122509E+03 -0.43919734898E+02 -0.16422071599E+03  0.26973843759E+03  0.00000000000E+00 0. -1.
         11    1    1    2    0    0 -0.19835440078E+03  0.12673076440E+03  0.51161122140E+02  0.24087883961E+03  0.00000000000E+00 0.  1.
</event>
<event>
 7    1  0.3265282E-009  0.1133601E+03  0.7561462E-02  0.1254471E+00
          2   -1    0    0  501    0  0.00000000000E+00  0.00000000000E+00  0.84139066734E+03  0.84139066734E+03  0.00000000000E+00 0. -1.
         -2   -1    0    0    0  501 -0.00000000000E+00 -0.00000000000E+00 -0.19596637218E+02  0.19596637218E+02  0.00000000000E+00 0.  1.
         25    2    1    2    0    0 -0.25290598781E+02 -0.41490766612E+02  0.61659765322E+03  0.63103174473E+03  0.12508916335E+03 0.  0.
          5    1    3    3  502    0 -0.67193541662E+02  0.13795827030E+01  0.22533616559E+03  0.23518234460E+03  0.41800000000E+01 0.  1.
         -5    1    3    3    0  502  0.41902942881E+02 -0.42870349315E+02  0.39126148763E+03  0.39584940012E+03  0.41800000000E+01 0.  1.
        -11    1    1    2    0    0 -0.24079458766E+02 -0.11653940393E+02  0.89387819126E+02  0.93304967013E+02  0.00000000000E+00 0. -1.
         11    1    1    2    0    0  0.49370057547E+02  0.53144707005E+02  0.11580855777E+03  0.13665059282E+03  0.00000000000E+00 0.  1.
</event>
<event>
 7    1  0.3265282E-009  0.1204563E+03  0.7561462E-02  0.1242346E+00
         -1   -1    0    0    0  501 -0.00000000000E+00  0.00000000000E+00  0.39126629310E+02  0.39126629310E+02  0.00000000000E+00 0.  1.
          1   -1    0    0  501    0  0.00000000000E+00 -0.00000000000E+00 -0.62483370792E+03  0.62483370792E+03  0.00000000000E+00 0. -1.
         25    2    1    2    0    0 -0.37998944126E+02  0.75835730307E+02 -0.15778775885E+03  0.21849456814E+03  0.12509165327E+03 0.  0.
          5    1    3    3  502    0 -0.49105619223E+02 -0.14835662344E+02 -0.24877452036E+02  0.57164838285E+02  0.41800000000E+01 0.  1.
         -5    1    3    3    0  502  0.11106675096E+02  0.90671392650E+02 -0.13291030681E+03  0.16132972985E+03  0.41800000000E+01 0.  1.
        -11    1    1    2    0    0  0.20718109188E+02 -0.77889256783E+02 -0.41744469243E+03  0.42515414570E+03  0.00000000000E+00 0.  1.
         11    1    1    2    0    0  0.17280834938E+02  0.20535264763E+01 -0.10474627338E+02  0.20311623397E+02  0.00000000000E+00 0. -1.
</event>
<event>
 7    1  0.3265282E-009  0.1389201E+03  0.7561462E-02  0.1214789E+00
          1   -1    0    0  501    0  0.00000000000E+00  0.00000000000E+00  0.49548820244E+02  0.49548820244E+02  0.00000000000E+00 0. -1.
         -1   -1    0    0    0  501 -0.00000000000E+00 -0.00000000000E+00 -0.52425724451E+03  0.52425724451E+03  0.00000000000E+00 0.  1.
         25    2    1    2    0    0  0.41112399815E+02  0.10521138768E+03 -0.31528905686E+03  0.35751000624E+03  0.12508616898E+03 0.  0.
          5    1    3    3  502    0  0.47511283853E+02  0.12831462332E+03 -0.21958433053E+03  0.25875995684E+03  0.41800000000E+01 0. -1.
         -5    1    3    3    0  502 -0.63988840381E+01 -0.23103235639E+02 -0.95704726326E+02  0.98750049392E+02  0.41800000000E+01 0. -1.
        -11    1    1    2    0    0 -0.53255721335E+01 -0.53280512329E+02 -0.10490701297E+02  0.54563994780E+02  0.00000000000E+00 0. -1.
         11    1    1    2    0    0 -0.35786827682E+02 -0.51930875354E+02 -0.14892866611E+03  0.16173206373E+03  0.00000000000E+00 0.  1.
</event>
<event>
 7    1  0.3265282E-009  0.6359619E+02  0.7561462E-02  0.1383331E+00
         -1   -1    0    0    0  501 -0.00000000000E+00  0.00000000000E+00  0.25562680702E+02  0.25562680702E+02  0.00000000000E+00 0.  1.
          1   -1    0    0  501    0  0.00000000000E+00 -0.00000000000E+00 -0.54790094774E+03  0.54790094774E+03  0.00000000000E+00 0. -1.
         25    2    1    2    0    0 -0.99409593522E+01  0.18856486986E+02 -0.39406630398E+03  0.41399447187E+03  0.12509508797E+03 0.  0.
          5    1    3    3  502    0 -0.18261650225E+01 -0.25113073627E+02 -0.35049683983E+03  0.35142496848E+03  0.41800000000E+01 0. -1.
         -5    1    3    3    0  502 -0.81147943297E+01  0.43969560614E+02 -0.43569464152E+02  0.62569503387E+02  0.41800000000E+01 0. -1.
        -11    1    1    2    0    0  0.19844086826E+02  0.12785193055E+02  0.32533766851E+01  0.23829255197E+02  0.00000000000E+00 0.  1.
         11    1    1    2    0    0 -0.99031274736E+01 -0.31641680041E+02 -0.13152533975E+03  0.13563990138E+03  0.00000000000E+00 0. -1.
</event>
<event>
 7    1  0.3265282E-009  0.9804315E+02  0.7561462E-02  0.1284466E+00
         -3   -1    0    0    0  501 -0.00000000000E+00  0.00000000000E+00  0.58907700213E+02  0.58907700213E+02  0.00000000000E+00 0.  1.
          3   -1    0    0  501    0  0.00000000000E+00 -0.00000000000E+00 -0.39705890725E+03  0.39705890725E+03  0.00000000000E+00 0. -1.
         25    2    1    2    0    0 -0.71462996453E+02 -0.11390066548E+02 -0.30094087073E+03  0.33384397396E+03  0.12509875219E+03 0.  0.
          5    1    3    3  502    0 -0.25585269065E+02 -0.32740076885E+02 -0.16493091909E+02  0.44900034613E+02  0.41800000000E+01 0. -1.
         -5    1    3    3    0  502 -0.45877727388E+02  0.21350010337E+02 -0.28444777882E+03  0.28894393935E+03  0.41800000000E+01 0. -1.
        -11    1    1    2    0    0  0.43589036568E+02 -0.30524235021E+02  0.87877218568E+01  0.53934748428E+02  0.00000000000E+00 0.  1.
         11    1    1    2    0    0  0.27873959885E+02  0.41914301569E+02 -0.45998058167E+02  0.68187885074E+02  0.00000000000E+00 0. -1.
</event>
<event>
 7    1  0.3265282E-009  0.1045487E+03  0.7561462E-02  0.1271011E+00
         -3   -1    0    0    0  501 -0.00000000000E+00  0.00000000000E+00  0.67477910204E+02  0.67477910204E+02  0.00000000000E+00 0.  1.
          3   -1    0    0  501    0  0.00000000000E+00 -0.00000000000E+00 -0.21023776670E+03  0.21023776670E+03  0.00000000000E+00 0. -1.
         25    2    1    2    0    0  0.46223539358E+02  0.13766457051E+02 -0.63278411519E+02  0.14824713649E+03  0.12508766999E+03 0.  0.
          5    1    3    3  502    0 -0.39097565764E+02  0.19969531894E+02 -0.39884583866E+02  0.59461367987E+02  0.41800000000E+01 0. -1.
         -5    1    3    3    0  502  0.85321105121E+02 -0.62030748428E+01 -0.23393827653E+02  0.88785768504E+02  0.41800000000E+01 0. -1.
        -11    1    1    2    0    0 -0.41252375077E+02  0.19558913984E+02 -0.28340658118E+01  0.45742119483E+02  0.00000000000E+00 0.  1.
         11    1    1    2    0    0 -0.49711642805E+01 -0.33325371035E+02 -0.76647379163E+02  0.83726420929E+02  0.00000000000E+00 0. -1.
</event>
<event>
 7    1  0.3265282E-009  0.1401194E+03  0.7561462E-02  0.1213168E+00
          2   -1    0    0  501    0  0.00000000000E+00  0.00000000000E+00  0.10870154294E+04  0.10870154294E+04  0.00000000000E+00 0. -1.
         -2   -1    0    0    0  501 -0.00000000000E+00 -0.00000000000E+00 -0.22855426086E+02  0.22855426086E+02  0.00000000000E+00 0.  1.
         25    2    1    2    0    0  0.19964664191E+02 -0.11286241808E+03  0.63090270580E+03  0.65331679062E+03  0.12509233185E+03 0.  0.
          5    1    3    3  502    0  0.42432225983E+01 -0.12032966122E+03  0.32045966748E+03  0.34235815046E+03  0.41800000000E+01 0. -1.
         -5    1    3    3    0  502  0.15721441592E+02  0.74672431387E+01  0.31044303833E+03  0.31095864016E+03  0.41800000000E+01 0. -1.
        -11    1    1    2    0    0  0.17029558752E+02 -0.54663616240E+01  0.85710560057E+02  0.87556764935E+02  0.00000000000E+00 0.  1.
         11    1    1    2    0    0 -0.36994222942E+02  0.11832877971E+03  0.34754673741E+03  0.36899729988E+03  0.00000000000E+00 0. -1.
</event>
<event>
 7    1  0.3265282E-009  0.1106666E+03  0.7561462E-02  0.1259340E+00
         -2   -1    0    0    0  501 -0.00000000000E+00  0.00000000000E+00  0.10464951410E+02  0.10464951410E+02  0.00000000000E+00 0.  1.
          2   -1    0    0  501    0  0.00000000000E+00 -0.00000000000E+00 -0.20757069973E+04  0.20757069973E+04  0.00000000000E+00 0. -1.
         25    2    1    2    0    0  0.63387626070E+00 -0.43232645191E+02 -0.17731381530E+04  0.17780706684E+04  0.12508768486E+03 0.  0.
          5    1    3    3  502    0  0.12016057852E+02 -0.83445414674E+02 -0.14073443395E+04  0.14098734288E+04  0.41800000000E+01 0. -1.
         -5    1    3    3    0  502 -0.11382181592E+02  0.40212769483E+02 -0.36579381347E+03  0.36819723962E+03  0.41800000000E+01 0. -1.
        -11    1    1    2    0    0 -0.26138136656E+02  0.59282029980E+02 -0.16032610963E+03  0.17292201333E+03  0.00000000000E+00 0. -1.
         11    1    1    2    0    0  0.25504260396E+02 -0.16049384789E+02 -0.13177778322E+03  0.13517926690E+03  0.00000000000E+00 0.  1.
</event>
<event>
 7    1  0.3265282E-009  0.1159065E+03  0.7561462E-02  0.1250007E+00
          2   -1    0    0  501    0  0.00000000000E+00  0.00000000000E+00  0.38101983455E+03  0.38101983455E+03  0.00000000000E+00 0. -1.
         -2   -1    0    0    0  501 -0.00000000000E+00 -0.00000000000E+00 -0.56365137508E+02  0.56365137508E+02  0.00000000000E+00 0.  1.
         25    2    1    2    0    0 -0.47100764631E+02 -0.37141410172E+02  0.65945096403E+02  0.15360320067E+03  0.12508885298E+03 0.  0.
          5    1    3    3  502    0 -0.78088465873E+02 -0.43410674732E+02  0.78816209241E+02  0.11921309669E+03  0.41800000000E+01 0. -1.
         -5    1    3    3    0  502  0.30987701242E+02  0.62692645595E+01 -0.12871112838E+02  0.34390103984E+02  0.41800000000E+01 0. -1.
        -11    1    1    2    0    0  0.71551002492E+02  0.45323374478E+02  0.23048013726E+03  0.24555009245E+03  0.00000000000E+00 0. -1.
         11    1    1    2    0    0 -0.24450237861E+02 -0.81819643057E+01  0.28229463378E+02  0.38231678932E+02  0.00000000000E+00 0.  1.
</event>
<event>
 7    1  0.3265282E-009  0.7625825E+02  0.7561462E-02  0.1340018E+00
          4   -1    0    0  501    0  0.00000000000E+00  0.00000000000E+00  0.13959893269E+03  0.13959893269E+03  0.00000000000E+00 0. -1.
         -4   -1    0    0    0  501 -0.00000000000E+00 -0.00000000000E+00 -0.15039943279E+03  0.15039943279E+03  0.00000000000E+00 0.  1.
         25    2    1    2    0    0 -0.56601826869E+01  0.27966797236E+02  0.84355205056E+02  0.15355114696E+03  0.12509186503E+03 0.  0.
          5    1    3    3  502    0  0.33942607922E+02  0.55593503098E+02  0.11848527689E+02  0.66337004965E+02  0.41800000000E+01 0. -1.
         -5    1    3    3    0  502 -0.39602790609E+02 -0.27626705863E+02  0.72506677367E+02  0.87214141993E+02  0.41800000000E+01 0. -1.
        -11    1    1    2    0    0 -0.10032437245E+02 -0.16621640361E+02 -0.11021790955E+03  0.11191477253E+03  0.00000000000E+00 0.  1.
         11    1    1    2    0    0  0.15692619932E+02 -0.11345156875E+02  0.15062204396E+02  0.24532445987E+02  0.00000000000E+00 0. -1.
</event>
<event>
 7    1  0.3265282E-009  0.7843076E+02  0.7561462E-02  0.1333565E+00
         -1   -1    0    0    0  501 -0.00000000000E+00  0.00000000000E+00  0.40733717112E+03  0.40733717112E+03  0.00000000000E+00 0.  1.
          1   -1    0    0  501    0  0.00000000000E+00 -0.00000000000E+00 -0.32206299498E+02  0.32206299498E+02  0.00000000000E+00 0. -1.
         25    2    1    2    0    0  0.19320223011E+02 -0.74750269111E+01  0.16233646238E+03  0.20598501537E+03  0.12509017745E+03 0.  0.
          5    1    3    3  502    0  0.28095283836E+02  0.30678238076E+02  0.30667867799E+01  0.41921078784E+02  0.41800000000E+01 0.  1.
         -5    1    3    3    0  502 -0.87750608243E+01 -0.38153264988E+02  0.15926967560E+03  0.16406393659E+03  0.41800000000E+01 0.  1.
        -11    1    1    2    0    0 -0.11348906937E+02  0.40317773850E+02  0.18534686924E+03  0.19002047920E+03  0.00000000000E+00 0.  1.
         11    1    1    2    0    0 -0.79713160746E+01 -0.32842746939E+02  0.27447539996E+02  0.43537976047E+02  0.00000000000E+00 0. -1.
</event>
<event>
 7    1  0.3265282E-009  0.1403730E+03  0.7561462E-02  0.1212828E+00
          1   -1    0    0  501    0  0.00000000000E+00  0.00000000000E+00  0.14001312685E+03  0.14001312685E+03  0.00000000000E+00 0. -1.
         -1   -1    0    0    0  501 -0.00000000000E+00 -0.00000000000E+00 -0.19846822496E+03  0.19846822496E+03  0.00000000000E+00 0.  1.
         25    2    1    2    0    0  0.20231289578E+02 -0.12072413277E+03 -0.59676562093E+02  0.18491320484E+03  0.12509188603E+03 0.  0.
          5    1    3    3  502    0  0.34069786039E+02 -0.10940908330E+03 -0.92486230834E+02  0.14731691391E+03  0.41800000000E+01 0. -1.
         -5    1    3    3    0  502 -0.13838496462E+02 -0.11315049467E+02  0.32809668741E+02  0.37596290930E+02  0.41800000000E+01 0. -1.
        -11    1    1    2    0    0  0.32235002657E+02  0.53284389653E+02  0.21259807776E+02  0.65805022633E+02  0.00000000000E+00 0. -1.
         11    1    1    2    0    0 -0.52466292235E+02  0.67439743113E+02 -0.20038343798E+02  0.87763124341E+02  0.00000000000E+00 0.  1.
</event>
<event>
 7    1  0.3265282E-009  0.1020268E+03  0.7561462E-02  0.1276091E+00
         -1   -1    0    0    0  501 -0.00000000000E+00  0.00000000000E+00  0.54928151296E+02  0.54928151296E+02  0.00000000000E+00 0.  1.
          1   -1    0    0  501    0  0.00000000000E+00 -0.00000000000E+00 -0.33424849035E+03  0.33424849035E+03  0.00000000000E+00 0. -1.
         25    2    1    2    0    0 -0.57217176337E+02 -0.38676446281E+02 -0.22110849047E+03  0.26325965317E+03  0.12508799970E+03 0.  0.
          5    1    3    3  502    0  0.32859039022E+02 -0.17812358245E+02 -0.21706125531E+02  0.43423781932E+02  0.41800000000E+01 0. -1.
         -5    1    3    3    0  502 -0.90076215359E+02 -0.20864088036E+02 -0.19940236494E+03  0.21983587124E+03  0.41800000000E+01 0. -1.
        -11    1    1    2    0    0  0.13072340451E+02  0.24069127557E+02 -0.72313489046E+02  0.77326901426E+02  0.00000000000E+00 0. -1.
         11    1    1    2    0    0  0.44144835886E+02  0.14607318725E+02  0.14101640456E+02  0.48590087047E+02  0.00000000000E+00 0.  1.
</event>
<event>
 7    1  0.3265282E-009  0.1781750E+03  0.7561462E-02  0.1169581E+00
         -3   -1    0    0    0  501 -0.00000000000E+00  0.00000000000E+00  0.57264544787E+02  0.57264544787E+02  0.00000000000E+00 0.  1.
          3   -1    0    0  501    0  0.00000000000E+00 -0.00000000000E+00 -0.61515370546E+03  0.61515370546E+03  0.00000000000E+00 0. -1.
         25    2    1    2    0    0 -0.12461481144E+03  0.76564841701E+02 -0.20687355229E+03  0.28254957559E+03  0.12508624949E+03 0.  0.
          5    1    3    3  502    0 -0.13910532906E+03  0.91181889630E+02 -0.15840410855E+03  0.22972540907E+03  0.41800000000E+01 0.  1.
         -5    1    3    3    0  502  0.14490517617E+02 -0.14617047929E+02 -0.48469443749E+02  0.52824166518E+02  0.41800000000E+01 0.  1.
        -11    1    1    2    0    0 -0.68767369969E+01 -0.27941246618E+02 -0.74010775429E+02  0.79407793408E+02  0.00000000000E+00 0.  1.
         11    1    1    2    0    0  0.13149154844E+03 -0.48623595083E+02 -0.27700483295E+03  0.31046088125E+03  0.00000000000E+00 0. -1.
</event>
<event>
 7    1  0.3265282E-009  0.7375890E+02  0.7561462E-02  0.1347758E+00
         -2   -1    0    0    0  501 -0.00000000000E+00  0.00000000000E+00  0.12033776203E+03  0.12033776203E+03  0.00000000000E+00 0.  1.
          2   -1    0    0  501    0  0.00000000000E+00 -0.00000000000E+00 -0.64071322109E+02  0.64071322109E+02  0.00000000000E+00 0. -1.
         25    2    1    2    0    0 -0.16725504909E+02  0.12627557167E+02  0.54861869401E+02  0.13818086693E+03  0.12507969283E+03 0.  0.
          5    1    3    3  502    0  0.23504565180E+02 -0.42022005327E+02 -0.36678079297E+01  0.48468946048E+02  0.41800000000E+01 0. -1.
         -5    1    3    3    0  502 -0.40230070089E+02  0.54649562494E+02  0.58529677331E+02  0.89711920883E+02  0.41800000000E+01 0. -1.
        -11    1    1    2    0    0  0.13840162825E+02  0.39335201228E+01  0.17703776877E+02  0.22813294442E+02  0.00000000000E+00 0.  1.
         11    1    1    2    0    0  0.28853420844E+01 -0.16561077289E+02 -0.16299206361E+02  0.23414922762E+02  0.00000000000E+00 0. -1.
</event>
<event>
 6    1  0.3265282E-009  0.9936403E+02  0.7561462E-02  0.1281639E+00
         -2   -1    0    0    0  501 -0.00000000000E+00  0.00000000000E+00  0.15918792841E+03  0.15918792841E+03  0.00000000000E+00 0.  1.
          2   -1    0    0  501    0  0.00000000000E+00 -0.00000000000E+00 -0.81164798637E+02  0.81164798637E+02  0.00000000000E+00 0. -1.
          5    1    1    2  502    0  0.27459775812E+02 -0.42863041428E+02 -0.31246526928E+01  0.51171432094E+02  0.41800000000E+01 0. -1.
         -5    1    1    2    0  502 -0.30069615876E+02  0.60955345192E+02  0.46163224119E+02  0.82269384144E+02  0.41800000000E+01 0. -1.
        -11    1    1    2    0    0 -0.35648623579E+02 -0.20673835003E+02 -0.15051569475E+02  0.43872332517E+02  0.00000000000E+00 0. -1.
         11    1    1    2    0    0  0.38258463643E+02  0.25815312388E+01  0.50036127826E+02  0.63039578296E+02  0.00000000000E+00 0.  1.
</event>
<event>
 7    1  0.3265282E-009  0.1054439E+03  0.7561462E-02  0.1269247E+00
         -1   -1    0    0    0  501 -0.00000000000E+00  0.00000000000E+00  0.63095309651E+03  0.63095309651E+03  0.00000000000E+00 0.  1.
          1   -1    0    0  501    0  0.00000000000E+00 -0.00000000000E+00 -0.30404044162E+02  0.30404044162E+02  0.00000000000E+00 0. -1.
         25    2    1    2    0    0 -0.32207450866E+02 -0.45901555249E+02  0.48688371841E+03  0.50581350953E+03  0.12508908227E+03 0.  0.
          5    1    3    3  502    0 -0.66815971411E+02 -0.65293373854E+02  0.28257477993E+03  0.29764673248E+03  0.41800000000E+01 0.  1.
         -5    1    3    3    0  502  0.34608520545E+02  0.19391818605E+02  0.20430893848E+03  0.20816677705E+03  0.41800000000E+01 0.  1.
        -11    1    1    2    0    0  0.46868457073E+02  0.40215523691E+02  0.26894020138E+02  0.67358955851E+02  0.00000000000E+00 0. -1.
         11    1    1    2    0    0 -0.14661006207E+02  0.56860315584E+01  0.86771313803E+02  0.88184675296E+02  0.00000000000E+00 0.  1.
</event>
<event>
 7    1  0.3265282E-009  0.2066228E+03  0.7561462E-02  0.1144269E+00
          2   -1    0    0  501    0  0.00000000000E+00  0.00000000000E+00  0.51940335210E+03  0.51940335210E+03  0.00000000000E+00 0. -1.
         -2   -1    0    0    0  501 -0.00000000000E+00 -0.00000000000E+00 -0.10078820183E+03  0.10078820183E+03  0.00000000000E+00 0.  1.
         25    2    1    2    0    0  0.70693495148E+02 -0.17304105784E+03  0.33273336540E+03  0.40162117170E+03  0.12508914880E+03 0.  0.
          5    1    3    3  502    0 -0.21493914828E+02 -0.76736246563E+02  0.19098055630E+03  0.20698184750E+03  0.41800000000E+01 0. -1.
         -5    1    3    3    0  502  0.92187409977E+02 -0.96304811278E+02  0.14175280911E+03  0.19463932420E+03  0.41800000000E+01 0. -1.
        -11    1    1    2    0    0 -0.63533714610E+02  0.61930123199E+02  0.27719612238E+02  0.92952944839E+02  0.00000000000E+00 0.  1.
         11    1    1    2    0    0 -0.71597805387E+01  0.11111093464E+03  0.58162172623E+02  0.12561743740E+03  0.00000000000E+00 0. -1.
</event>
<event>
 7    1  0.3265282E-009  0.1040130E+03  0.7561462E-02  0.1272076E+00
          2   -1    0    0  501    0  0.00000000000E+00  0.00000000000E+00  0.77131002135E+03  0.77131002135E+03  0.00000000000E+00 0. -1.
         -2   -1    0    0    0  501 -0.00000000000E+00 -0.00000000000E+00 -0.17230562625E+02  0.17230562625E+02  0.00000000000E+00 0.  1.
         25    2    1    2    0    0 -0.72643667500E+01  0.14507831819E+02  0.31061355348E+03  0.33524766223E+03  0.12508783799E+03 0.  0.
          5    1    3    3  502    0  0.34078776617E+02  0.49226070672E+02  0.23304193685E+03  0.24064618380E+03  0.41800000000E+01 0.  1.
         -5    1    3    3    0  502 -0.41343143367E+02 -0.34718238853E+02  0.77571616637E+02  0.94601478425E+02  0.41800000000E+01 0.  1.
        -11    1    1    2    0    0 -0.23332233606E+02 -0.44984172881E+02  0.24338104771E+03  0.24860069051E+03  0.00000000000E+00 0.  1.
         11    1    1    2    0    0  0.30596600356E+02  0.30476341062E+02  0.20008485752E+03  0.20469223124E+03  0.00000000000E+00 0. -1.
</event>
<event>
 7    1  0.3265282E-009  0.1348567E+03  0.7561462E-02  0.1220422E+00
          1   -1    0    0  501    0  0.00000000000E+00  0.00000000000E+00  0.99353004526E+03  0.99353004526E+03  0.00000000000E+00 0. -1.
         -1   -1    0    0    0  501 -0.00000000000E+00 -0.00000000000E+00 -0.23440849734E+02  0.23440849734E+02  0.00000000000E+00 0.  1.
         25    2    1    2    0    0 -0.55785717366E+02 -0.75430640986E+02  0.68778668588E+03  0.70533787805E+03  0.12509663897E+03 0.  0.
          5    1    3    3  502    0 -0.83707489497E+02 -0.10824967205E+02  0.32828232225E+03  0.33898507226E+03  0.41800000000E+01 0. -1.
         -5    1    3    3    0  502  0.27921772132E+02 -0.64605673781E+02  0.35950436363E+03  0.36635280579E+03  0.41800000000E+01 0. -1.
        -11    1    1    2    0    0 -0.13475084772E+02  0.27033085295E+02  0.20427983143E+02  0.36464614429E+02  0.00000000000E+00 0.  1.
         11    1    1    2    0    0  0.69260802137E+02  0.48397555691E+02  0.26187452650E+03  0.27516840251E+03  0.00000000000E+00 0. -1.
</event>
<event>
 7    1  0.3265282E-009  0.1020557E+03  0.7561462E-02  0.1276031E+00
          2   -1    0    0  501    0  0.00000000000E+00  0.00000000000E+00  0.77135588628E+03  0.77135588628E+03  0.00000000000E+00 0. -1.
         -2   -1    0    0    0  501 -0.00000000000E+00 -0.00000000000E+00 -0.17124740761E+02  0.17124740761E+02  0.00000000000E+00 0.  1.
         25    2    1    2    0    0 -0.25296077588E+02  0.20997196968E+02  0.35712491190E+03  0.37982441270E+03  0.12509039914E+03 0.  0.
          5    1    3    3  502    0  0.41232773304E+02 -0.11071853816E+02  0.60826105423E+02  0.74431277311E+02  0.41800000000E+01 0.  1.
         -5    1    3    3    0  502 -0.66528850892E+02  0.32069050783E+02  0.29629880648E+03  0.30539313539E+03  0.41800000000E+01 0.  1.
        -11    1    1    2    0    0  0.71527931116E+01  0.31184940856E+02  0.70632399676E+02  0.77540949630E+02  0.00000000000E+00 0.  1.
         11    1    1    2    0    0  0.18143284477E+02 -0.52182137824E+02  0.32647383393E+03  0.33111526471E+03  0.00000000000E+00 0. -1.
</event>
<event>
 7    1  0.3265282E-009  0.8492583E+02  0.7561462E-02  0.1315627E+00
         -1   -1    0    0    0  501 -0.00000000000E+00  0.00000000000E+00  0.19927398949E+03  0.19927398949E+03  0.00000000000E+00 0.  1.
          1   -1    0    0  501    0  0.00000000000E+00 -0.00000000000E+00 -0.91474564881E+02  0.91474564881E+02  0.00000000000E+00 0. -1.
         25    2    1    2    0    0 -0.55638372129E+02  0.16205294083E+02  0.11894931663E+03  0.18208283103E+03  0.12508787879E+03 0.  0.
          5    1    3    3  502    0 -0.51769522704E+01 -0.95804121122E+01  0.12444986168E+03  0.12499530232E+03  0.41800000000E+01 0.  1.
         -5    1    3    3    0  502 -0.50461419859E+02  0.25785706195E+02 -0.55005450478E+01  0.57087528708E+02  0.41800000000E+01 0.  1.
        -11    1    1    2    0    0  0.75822341157E+02 -0.24296515301E+02  0.75613383935E+01  0.79978259000E+02  0.00000000000E+00 0.  1.
         11    1    1    2    0    0 -0.20183969028E+02  0.80912212178E+01 -0.18711230417E+02  0.28687464340E+02  0.00000000000E+00 0. -1.
</event>
<event>
 7    1  0.3265282E-009  0.1292710E+03  0.7561462E-02  0.1228542E+00
         -1   -1    0    0    0  501 -0.00000000000E+00  0.00000000000E+00  0.30004424396E+02  0.30004424396E+02  0.00000000000E+00 0.  1.
          1   -1    0    0  501    0  0.00000000000E+00 -0.00000000000E+00 -0.69593043523E+03  0.69593043523E+03  0.00000000000E+00 0. -1.
         25    2    1    2    0    0 -0.20401099795E+02  0.79937975613E+02 -0.47707905608E+03  0.50005746448E+03  0.12508699860E+03 0.  0.
          5    1    3    3  502    0 -0.66818099978E+02  0.60842414640E+02 -0.21624394752E+03  0.23440429847E+03  0.41800000000E+01 0. -1.
         -5    1    3    3    0  502  0.46417000183E+02  0.19095560973E+02 -0.26083510856E+03  0.26565316601E+03  0.41800000000E+01 0. -1.
        -11    1    1    2    0    0  0.37337878517E+02 -0.90397800991E+02 -0.12333812828E+03  0.15741084297E+03  0.00000000000E+00 0.  1.
         11    1    1    2    0    0 -0.16936778722E+02  0.10459825378E+02 -0.65508826470E+02  0.68466552169E+02  0.00000000000E+00 0. -1.
</event>
<event>
 7    1  0.3265282E-009  0.1427841E+03  0.7561462E-02  0.1209631E+00
          1   -1    0    0  501    0  0.00000000000E+00  0.00000000000E+00  0.11200158158E+03  0.11200158158E+03  0.00000000000E+00 0. -1.
         -1   -1    0    0    0  501 -0.00000000000E+00 -0.00000000000E+00 -0.24006394474E+03  0.24006394474E+03  0.00000000000E+00 0.  1.
         25    2    1    2    0    0 -0.76640254515E+02  0.76976306340E+02 -0.73070335558E+01  0.16583086355E+03  0.12508957677E+03 0.  0.
          5    1    3    3  502    0 -0.65419229928E+02 -0.92843304252E+01 -0.34420738548E+02  0.74619930836E+02  0.41800000000E+01 0. -1.
         -5    1    3    3    0  502 -0.11221024588E+02  0.86260636765E+02  0.27113704992E+02  0.91210932712E+02  0.41800000000E+01 0. -1.
        -11    1    1    2    0    0  0.22300168875E+02 -0.74621576215E+02 -0.10277009249E+03  0.12894715615E+03  0.00000000000E+00 0.  1.
         11    1    1    2    0    0  0.54340085640E+02 -0.23547301244E+01 -0.17985237117E+02  0.57287506626E+02  0.00000000000E+00 0. -1.
</event>
<event>
 7    1  0.3265282E-009  0.1193374E+03  0.7561462E-02  0.1244194E+00
          2   -1    0    0  501    0  0.00000000000E+00  0.00000000000E+00  0.21547934246E+03  0.21547934246E+03  0.00000000000E+00 0. -1.
         -2   -1    0    0    0  501 -0.00000000000E+00 -0.00000000000E+00 -0.80365049362E+02  0.80365049362E+02  0.00000000000E+00 0.  1.
         25    2    1    2    0    0 -0.10639809218E+01 -0.72243039215E+02  0.91770435815E+02  0.17114235825E+03  0.12509078755E+03 0.  0.
          5    1    3    3  502    0 -0.15541351251E+02 -0.96112720471E+02  0.10204521099E+03  0.14110239587E+03  0.41800000000E+01 0.  1.
         -5    1    3    3    0  502  0.14477370329E+02  0.23869681256E+02 -0.10274775176E+02  0.30039962381E+02  0.41800000000E+01 0.  1.
        -11    1    1    2    0    0 -0.38362070631E+02  0.10559533096E+02  0.31049066571E+02  0.50469760622E+02  0.00000000000E+00 0. -1.
         11    1    1    2    0    0  0.39426051553E+02  0.61683506119E+02  0.12294790713E+02  0.74232272947E+02  0.00000000000E+00 0.  1.
</event>
<event>
 7    1  0.3265282E-009  0.7877181E+02  0.7561462E-02  0.1332573E+00
          1   -1    0    0  501    0  0.00000000000E+00  0.00000000000E+00  0.57289750369E+02  0.57289750369E+02  0.00000000000E+00 0. -1.
         -1   -1    0    0    0  501 -0.00000000000E+00 -0.00000000000E+00 -0.21177397422E+03  0.21177397422E+03  0.00000000000E+00 0.  1.
         25    2    1    2    0    0  0.11205702503E+02 -0.14576968572E+02 -0.87934444186E+02  0.15401076738E+03  0.12509514064E+03 0.  0.
          5    1    3    3  502    0  0.58952211133E+02 -0.25927380300E+02 -0.82073591626E+02  0.10440852019E+03  0.41800000000E+01 0.  1.
         -5    1    3    3    0  502 -0.47746508631E+02  0.11350411729E+02 -0.58608525603E+01  0.49602247183E+02  0.41800000000E+01 0.  1.
        -11    1    1    2    0    0 -0.78678009786E+01 -0.13419987637E+02 -0.81615654763E+02  0.83084977359E+02  0.00000000000E+00 0.  1.
         11    1    1    2    0    0 -0.33379015240E+01  0.27996956208E+02  0.15065875097E+02  0.31967979854E+02  0.00000000000E+00 0. -1.
</event>
<event>
 7    1  0.3265282E-009  0.1087430E+03  0.7561462E-02  0.1262916E+00
         -2   -1    0    0    0  501 -0.00000000000E+00  0.00000000000E+00  0.90127371879E+01  0.90127371879E+01  0.00000000000E+00 0.  1.
          2   -1    0    0  501    0  0.00000000000E+00 -0.00000000000E+00 -0.13808974407E+04  0.13808974407E+04  0.00000000000E+00 0. -1.
         25    2    1    2    0    0 -0.14862803529E+02  0.22206260290E+01 -0.93242651093E+03  0.94090006638E+03  0.12509157653E+03 0.  0.
          5    1    3    3  502    0 -0.59135230378E+02  0.36675038623E+02 -0.52546577272E+03  0.53006960357E+03  0.41800000000E+01 0.  1.
         -5    1    3    3    0  502  0.44272426849E+02 -0.34454412594E+02 -0.40696073820E+03  0.41083046280E+03  0.41800000000E+01 0.  1.
        -11    1    1    2    0    0 -0.35868377650E+02 -0.15509548747E+02 -0.21340957326E+03  0.21695790508E+03  0.00000000000E+00 0.  1.
         11    1    1    2    0    0  0.50731181179E+02  0.13288922718E+02 -0.22604861929E+03  0.23205220640E+03  0.00000000000E+00 0. -1.
</event>
<event>
 7    1  0.3265282E-009  0.7155230E+02  0.7561462E-02  0.1354893E+00
         -1   -1    0    0    0  501 -0.00000000000E+00  0.00000000000E+00  0.13453523319E+02  0.13453523319E+02  0.00000000000E+00 0.  1.
          1   -1    0    0  501    0  0.00000000000E+00 -0.00000000000E+00 -0.85768610953E+03  0.85768610953E+03  0.00000000000E+00 0. -1.
         25    2    1    2    0    0 -0.11421717778E+02 -0.23660445210E+02 -0.49938111439E+03  0.51548008972E+03  0.12509177903E+03 0.  0.
          5    1    3    3  502    0 -0.18549023482E+02  0.10403209321E+02 -0.46779414053E+03  0.46829597836E+03  0.41800000000E+01 0. -1.
         -5    1    3    3    0  502  0.71273057039E+01 -0.34063654532E+02 -0.31586973857E+02  0.47184111352E+02  0.41800000000E+01 0. -1.
        -11    1    1    2    0    0  0.27436366536E+01 -0.30956081322E+02 -0.10420088807E+03  0.10873652370E+03  0.00000000000E+00 0.  1.
         11    1    1    2    0    0  0.86780811243E+01  0.54616526532E+02 -0.24065058375E+03  0.24692301943E+03  0.00000000000E+00 0. -1.
</event>
<event>
 7    1  0.3265282E-009  0.8448434E+02  0.7561462E-02  0.1316787E+00
          1   -1    0    0  501    0  0.00000000000E+00  0.00000000000E+00  0.16549189850E+03  0.16549189850E+03  0.00000000000E+00 0. -1.
         -1   -1    0    0    0  501 -0.00000000000E+00 -0.00000000000E+00 -0.83041843837E+02  0.83041843837E+02  0.00000000000E+00 0.  1.
         25    2    1    2    0    0  0.25111002255E+02 -0.33889094630E+02  0.36926114349E+02  0.13707462969E+03  0.12508750144E+03 0.  0.
          5    1    3    3  502    0 -0.41980702620E+01 -0.47955551389E+02  0.73501105951E+02  0.87961603436E+02  0.41800000000E+01 0. -1.
         -5    1    3    3    0  502  0.29309072517E+02  0.14066456759E+02 -0.36574991602E+02  0.49113026259E+02  0.41800000000E+01 0. -1.
        -11    1    1    2    0    0  0.40942784113E+01 -0.23299667844E+02  0.40684676888E+02  0.47062517684E+02  0.00000000000E+00 0. -1.
         11    1    1    2    0    0 -0.29205280666E+02  0.57188762474E+02  0.48392634287E+01  0.64396594961E+02  0.00000000000E+00 0.  1.
</event>
<event>
 7    1  0.3265282E-009  0.7417891E+02  0.7561462E-02  0.1346433E+00
          1   -1    0    0  501    0  0.00000000000E+00  0.00000000000E+00  0.25433096583E+02  0.25433096583E+02  0.00000000000E+00 0. -1.
         -1   -1    0    0    0  501 -0.00000000000E+00 -0.00000000000E+00 -0.50957937473E+03  0.50957937473E+03  0.00000000000E+00 0.  1.
         25    2    1    2    0    0 -0.30270988131E+02 -0.21035728735E+02 -0.31770880780E+03  0.34343151405E+03  0.12508990240E+03 0.  0.
          5    1    3    3  502    0 -0.10491188146E+02 -0.43773574653E+02 -0.30312025330E+02  0.54428688632E+02  0.41800000000E+01 0.  1.
         -5    1    3    3    0  502 -0.19779799984E+02  0.22737845918E+02 -0.28739678247E+03  0.28900282542E+03  0.41800000000E+01 0.  1.
        -11    1    1    2    0    0 -0.11918727349E+02  0.27566743259E+02 -0.13738388252E+02  0.33026121590E+02  0.00000000000E+00 0. -1.
         11    1    1    2    0    0  0.42189715480E+02 -0.65310145239E+01 -0.15269908209E+03  0.15855483567E+03  0.00000000000E+00 0.  1.
</event>
<event>
 7    1  0.3265282E-009  0.3057281E+03  0.7561462E-02  0.1082412E+00
         -2   -1    0    0    0  501 -0.00000000000E+00  0.00000000000E+00  0.17809067376E+03  0.17809067376E+03  0.00000000000E+00 0.  1.
          2   -1    0    0  501    0  0.00000000000E+00 -0.00000000000E+00 -0.92218343343E+03  0.92218343343E+03  0.00000000000E+00 0. -1.
         25    2    1    2    0    0 -0.30080687775E+03  0.79256047940E+01 -0.46038551983E+02  0.32911169736E+03  0.12508944061E+03 0.  0.
          5    1    3    3  502    0 -0.19906080132E+03 -0.77961540364E+01 -0.88041384420E+02  0.21784108982E+03  0.41800000000E+01 0. -1.
         -5    1    3    3    0  502 -0.10174607643E+03  0.15721758830E+02  0.42002832437E+02  0.11127060754E+03  0.41800000000E+01 0. -1.
        -11    1    1    2    0    0  0.18603065556E+03 -0.39378237166E+02 -0.29557961626E+03  0.35146174744E+03  0.00000000000E+00 0. -1.
         11    1    1    2    0    0  0.11477622220E+03  0.31452632372E+02 -0.40247459143E+03  0.41970066239E+03  0.00000000000E+00 0.  1.
</event>
<event>
 7    1  0.3265282E-009  0.1539066E+03  0.7561462E-02  0.1195753E+00
         -2   -1    0    0    0  501 -0.00000000000E+00  0.00000000000E+00  0.21084105383E+02  0.21084105383E+02  0.00000000000E+00 0.  1.
          2   -1    0    0  501    0  0.00000000000E+00 -0.00000000000E+00 -0.13267239059E+04  0.13267239059E+04  0.00000000000E+00 0. -1.
         25    2    1    2    0    0  0.12585470320E+03  0.56036427705E+02 -0.68168309203E+03  0.70662466206E+03  0.12508831889E+03 0.  0.
          5    1    3    3  502    0  0.94562117794E+02  0.84082148997E+02 -0.34867026150E+03  0.37094504385E+03  0.41800000000E+01 0. -1.
         -5    1    3    3    0  502  0.31292585409E+02 -0.28045721292E+02 -0.33301283053E+03  0.33567961821E+03  0.41800000000E+01 0. -1.
        -11    1    1    2    0    0 -0.23922470184E+02 -0.31094721823E+01 -0.46177400512E+02  0.52098999174E+02  0.00000000000E+00 0.  1.
         11    1    1    2    0    0 -0.10193223302E+03 -0.52926955522E+02 -0.57777930801E+03  0.58908435008E+03  0.00000000000E+00 0. -1.
</event>
<event>
 7    1  0.3265282E-009  0.9389539E+02  0.7561462E-02  0.1293683E+00
         -2   -1    0    0    0  501 -0.00000000000E+00  0.00000000000E+00  0.43977910070E+02  0.43977910070E+02  0.00000000000E+00 0.  1.
          2   -1    0    0  501    0  0.00000000000E+00 -0.00000000000E+00 -0.35122413123E+03  0.35122413123E+03  0.00000000000E+00 0. -1.
         25    2    1    2    0    0  0.95495942884E+01 -0.10972831793E+02 -0.80075274721E+02  0.14923405924E+03  0.12508859671E+03 0.  0.
          5    1    3    3  502    0 -0.26020063904E+01  0.56376255973E+02 -0.44490975388E+02  0.71985915051E+02  0.41800000000E+01 0. -1.
         -5    1    3    3    0  502  0.12151600679E+02 -0.67349087766E+02 -0.35584299333E+02  0.77248144192E+02  0.41800000000E+01 0. -1.
        -11    1    1    2    0    0  0.25614654805E+02  0.98817355858E+01 -0.15773905229E+02  0.31663469885E+02  0.00000000000E+00 0.  1.
         11    1    1    2    0    0 -0.35164249094E+02  0.10910962076E+01 -0.21139704121E+03  0.21430451218E+03  0.00000000000E+00 0. -1.
</event>
<event>
 7    1  0.3265282E-009  0.1947041E+03  0.7561462E-02  0.1154286E+00
         -2   -1    0    0    0  501 -0.00000000000E+00  0.00000000000E+00  0.62329951256E+03  0.62329951256E+03  0.00000000000E+00 0.  1.
          2   -1    0    0  501    0  0.00000000000E+00 -0.00000000000E+00 -0.64118816634E+02  0.64118816634E+02  0.00000000000E+00 0. -1.
         25    2    1    2    0    0  0.12124460189E+03  0.11400242471E+03  0.25829600848E+03  0.33175384444E+03  0.12508788502E+03 0.  0.
          5    1    3    3  502    0  0.59509021679E+00  0.71776634410E+02  0.50897696227E+02  0.88092492648E+02  0.41800000000E+01 0. -1.
         -5    1    3    3    0  502  0.12064951167E+03  0.42225790298E+02  0.20739831225E+03  0.24366135180E+03  0.41800000000E+01 0. -1.
        -11    1    1    2    0    0 -0.29013117943E+02  0.13701918170E+02  0.48488458060E+02  0.58143220924E+02  0.00000000000E+00 0. -1.
         11    1    1    2    0    0 -0.92231483946E+02 -0.12770434288E+03  0.25239622938E+03  0.29752126382E+03  0.00000000000E+00 0.  1.
</event>
<event>
 7    1  0.3265282E-009  0.1098615E+03  0.7561462E-02  0.1260827E+00
         -1   -1    0    0    0  501 -0.00000000000E+00  0.00000000000E+00  0.59292356335E+03  0.59292356335E+03  0.00000000000E+00 0. -1.
          1   -1    0    0  501    0  0.00000000000E+00 -0.00000000000E+00 -0.34212601652E+02  0.34212601652E+02  0.00000000000E+00 0.  1.
         25    2    1    2    0    0  0.10666334287E+02  0.82587320106E+02  0.31877788147E+03  0.35242275231E+03  0.12509205612E+03 0.  0.
          5    1    3    3  502    0 -0.11139728100E+02  0.27078112188E+02  0.15575034326E+01  0.29617831095E+02  0.41800000000E+01 0.  1.
         -5    1    3    3    0  502  0.21806062387E+02  0.55509207917E+02  0.31722037803E+03  0.32280492121E+03  0.41800000000E+01 0.  1.
        -11    1    1    2    0    0  0.44931191432E+02 -0.31668130863E+02  0.71591437584E+02  0.90260824343E+02  0.00000000000E+00 0.  1.
         11    1    1    2    0    0 -0.55597525718E+02 -0.50919189243E+02  0.16834164264E+03  0.18445258835E+03  0.00000000000E+00 0. -1.
</event>
<event>
 7    1  0.3265282E-009  0.1086994E+03  0.7561462E-02  0.1262997E+00
         -2   -1    0    0    0  501 -0.00000000000E+00  0.00000000000E+00  0.17459567393E+03  0.17459567393E+03  0.00000000000E+00 0.  1.
          2   -1    0    0  501    0  0.00000000000E+00 -0.00000000000E+00 -0.11505402887E+03  0.11505402887E+03  0.00000000000E+00 0. -1.
         25    2    1    2    0    0 -0.99905265732E+01 -0.60827795385E+02 -0.35334320313E+02  0.14386788057E+03  0.12509844745E+03 0.  0.
          5    1    3    3  502    0 -0.19144833738E+02 -0.89748226551E+02  0.64222464969E+01  0.92086842046E+02  0.41800000000E+01 0. -1.
         -5    1    3    3    0  502  0.91543071652E+01  0.28920431166E+02 -0.41756566810E+02  0.51781038520E+02  0.41800000000E+01 0. -1.
        -11    1    1    2    0    0  0.40848887252E+02  0.42853177303E+02  0.92714762464E+02  0.11000478887E+03  0.00000000000E+00 0.  1.
         11    1    1    2    0    0 -0.30858360678E+02  0.17974618082E+02  0.21612029066E+01  0.35777033373E+02  0.00000000000E+00 0. -1.
</event>
<event>
 7    1  0.3265282E-009  0.9452725E+02  0.7561462E-02  0.1292244E+00
          4   -1    0    0  501    0  0.00000000000E+00  0.00000000000E+00  0.16097354579E+02  0.16097354579E+02  0.00000000000E+00 0.  1.
         -4   -1    0    0    0  501 -0.00000000000E+00 -0.00000000000E+00 -0.86136587424E+03  0.86136587424E+03  0.00000000000E+00 0. -1.
         25    2    1    2    0    0 -0.10015519635E+01  0.22460166914E+02 -0.64006483626E+03  0.65256092635E+03  0.12508919128E+03 0.  0.
          5    1    3    3  502    0  0.45325243467E+02 -0.23224283663E+02 -0.15676293448E+03  0.16488127569E+03  0.41800000000E+01 0.  1.
         -5    1    3    3    0  502 -0.46326795431E+02  0.45684450577E+02 -0.48330190179E+03  0.48767965066E+03  0.41800000000E+01 0.  1.
        -11    1    1    2    0    0  0.34567805129E+02 -0.50202720843E+01 -0.31203480152E+02  0.46837948897E+02  0.00000000000E+00 0.  1.
         11    1    1    2    0    0 -0.33566253166E+02 -0.17439894830E+02 -0.17400020325E+03  0.17806435357E+03  0.00000000000E+00 0. -1.
</event>
<event>
 7    1  0.3265282E-009  0.2830070E+03  0.7561462E-02  0.1094058E+00
         -4   -1    0    0    0  501 -0.00000000000E+00  0.00000000000E+00  0.46537572881E+03  0.46537572881E+03  0.00000000000E+00 0.  1.
          4   -1    0    0  501    0  0.00000000000E+00 -0.00000000000E+00 -0.20194064249E+03  0.20194064249E+03  0.00000000000E+00 0. -1.
         25    2    1    2    0    0 -0.26585242568E+03 -0.75760016200E+02  0.21821287227E+03  0.37374066943E+03  0.12509251805E+03 0.  0.
          5    1    3    3  502    0 -0.23095099489E+02 -0.15142274119E+02  0.86604585773E+02  0.90997245908E+02  0.41800000000E+01 0. -1.
         -5    1    3    3    0  502 -0.24275732619E+03 -0.60617742081E+02  0.13160828649E+03  0.28274342352E+03  0.41800000000E+01 0. -1.
        -11    1    1    2    0    0  0.73510014685E+02  0.59930611137E+02 -0.20946990834E+01  0.94867213380E+02  0.00000000000E+00 0. -1.
         11    1    1    2    0    0  0.19234241099E+03  0.15829405063E+02  0.47316913139E+02  0.19870848849E+03  0.00000000000E+00 0.  1.
</event>
<event>
 7    1  0.3265282E-009  0.1595134E+03  0.7561462E-02  0.1189247E+00
         -2   -1    0    0    0  501 -0.00000000000E+00  0.00000000000E+00  0.12218060993E+03  0.12218060993E+03  0.00000000000E+00 0.  1.
          2   -1    0    0  501    0  0.00000000000E+00 -0.00000000000E+00 -0.36718521227E+03  0.36718521227E+03  0.00000000000E+00 0. -1.
         25    2    1    2    0    0 -0.13301366112E+03 -0.23063181794E+02 -0.26678691097E+03  0.32411021148E+03  0.12509048295E+03 0.  0.
          5    1    3    3  502    0 -0.15300123715E+03 -0.11972643800E+02 -0.25596468755E+03  0.29847632476E+03  0.41800000000E+01 0.  1.
         -5    1    3    3    0  502  0.19987576033E+02 -0.11090537995E+02 -0.10822223412E+02  0.25633886718E+02  0.41800000000E+01 0.  1.
        -11    1    1    2    0    0  0.59269920322E+02 -0.12215360489E+02  0.50285137174E+02  0.78681214451E+02  0.00000000000E+00 0.  1.
         11    1    1    2    0    0  0.73743740799E+02  0.35278542283E+02 -0.28502828547E+02  0.86574396260E+02  0.00000000000E+00 0. -1.
</event>
<event>
 7    1  0.3265282E-009  0.1505242E+03  0.7561462E-02  0.1199830E+00
          4   -1    0    0  501    0  0.00000000000E+00  0.00000000000E+00  0.56732864537E+02  0.56732864537E+02  0.00000000000E+00 0. -1.
         -4   -1    0    0    0  501 -0.00000000000E+00 -0.00000000000E+00 -0.51929931505E+03  0.51929931505E+03  0.00000000000E+00 0.  1.
         25    2    1    2    0    0 -0.17894773535E+02  0.13116448384E+03 -0.26009375052E+03  0.31752202884E+03  0.12508850866E+03 0.  0.
          5    1    3    3  502    0  0.25506281716E+02  0.89930588837E+02 -0.23412852884E+03  0.25213433252E+03  0.41800000000E+01 0.  1.
         -5    1    3    3    0  502 -0.43401055252E+02  0.41233895005E+02 -0.25965221680E+02  0.65387696328E+02  0.41800000000E+01 0.  1.
        -11    1    1    2    0    0 -0.24674433353E+02 -0.52971721170E+02 -0.33089387783E+02  0.67154586507E+02  0.00000000000E+00 0. -1.
         11    1    1    2    0    0  0.42569206888E+02 -0.78192762671E+02 -0.16938331221E+03  0.19135556423E+03  0.00000000000E+00 0.  1.
</event>
<event>
 7    1  0.3265282E-009  0.1500152E+03  0.7561462E-02  0.1200454E+00
         -4   -1    0    0    0  501 -0.00000000000E+00  0.00000000000E+00  0.55251584889E+03  0.55251584889E+03  0.00000000000E+00 0. -1.
          4   -1    0    0  501    0  0.00000000000E+00 -0.00000000000E+00 -0.66527519073E+02  0.66527519073E+02  0.00000000000E+00 0.  1.
         25    2    1    2    0    0 -0.58054782403E+02 -0.10670210851E+03  0.41489076551E+03  0.45004135502E+03  0.12508867335E+03 0.  0.
          5    1    3    3  502    0  0.30212819813E+02 -0.66900063422E+02  0.13320911291E+03  0.15215312396E+03  0.41800000000E+01 0. -1.
         -5    1    3    3    0  502 -0.88267602216E+02 -0.39802045092E+02  0.28168165260E+03  0.29788823106E+03  0.41800000000E+01 0. -1.
        -11    1    1    2    0    0  0.30425244020E+02  0.15208725996E+02  0.64843376681E+02  0.73223386425E+02  0.00000000000E+00 0. -1.
         11    1    1    2    0    0  0.27629538382E+02  0.91493382518E+02  0.62541876281E+01  0.95778626523E+02  0.00000000000E+00 0.  1.
</event>
<event>
 7    1  0.3265282E-009  0.1400938E+03  0.7561462E-02  0.1213203E+00
         -2   -1    0    0    0  501 -0.00000000000E+00  0.00000000000E+00  0.69373319387E+02  0.69373319387E+02  0.00000000000E+00 0.  1.
          2   -1    0    0  501    0  0.00000000000E+00 -0.00000000000E+00 -0.31266694142E+03  0.31266694142E+03  0.00000000000E+00 0. -1.
         25    2    1    2    0    0  0.15634452961E+01 -0.97058264073E+02 -0.15096094224E+03  0.21876246216E+03  0.12508020540E+03 0.  0.
          5    1    3    3  502    0 -0.19819203868E+02 -0.11669496460E+03 -0.82666261820E+02  0.14443579490E+03  0.41800000000E+01 0. -1.
         -5    1    3    3    0  502  0.21382649164E+02  0.19636700523E+02 -0.68294680418E+02  0.74326667261E+02  0.41800000000E+01 0. -1.
        -11    1    1    2    0    0 -0.84124032666E+01 -0.16569684892E+02 -0.24553963905E+02  0.30793183168E+02  0.00000000000E+00 0.  1.
         11    1    1    2    0    0  0.68489579705E+01  0.11362794897E+03 -0.67778715886E+02  0.13248461548E+03  0.00000000000E+00 0. -1.
</event>
<event>
 7    1  0.3265282E-009  0.8792479E+02  0.7561462E-02  0.1307956E+00
          4   -1    0    0  501    0  0.00000000000E+00  0.00000000000E+00  0.44923250071E+02  0.44923250071E+02  0.00000000000E+00 0.  1.
         -4   -1    0    0    0  501 -0.00000000000E+00 -0.00000000000E+00 -0.28247921235E+03  0.28247921235E+03  0.00000000000E+00 0. -1.
         25    2    1    2    0    0 -0.90484712027E+01  0.29231890248E+02 -0.12118530331E+03  0.17685195835E+03  0.12511738166E+03 0.  0.
          5    1    3    3  502    0 -0.12126789828E+02 -0.23965834615E+02  0.14649796814E+02  0.30878944396E+02  0.41800000000E+01 0.  1.
         -5    1    3    3    0  502  0.30783186252E+01  0.53197724863E+02 -0.13583510013E+03  0.14597301395E+03  0.41800000000E+01 0.  1.
        -11    1    1    2    0    0  0.18288115009E+02  0.30072508853E+02 -0.48863018507E+02  0.60219643946E+02  0.00000000000E+00 0. -1.
         11    1    1    2    0    0 -0.92396438064E+01 -0.59304399101E+02 -0.67507640456E+02  0.90330860122E+02  0.00000000000E+00 0.  1.
</event>
<event>
 7    1  0.3265282E-009  0.1251484E+03  0.7561462E-02  0.1234838E+00
         -1   -1    0    0    0  501 -0.00000000000E+00  0.00000000000E+00  0.44720603444E+02  0.44720603444E+02  0.00000000000E+00 0.  1.
          1   -1    0    0  501    0  0.00000000000E+00 -0.00000000000E+00 -0.53597053569E+03  0.53597053569E+03  0.00000000000E+00 0. -1.
         25    2    1    2    0    0 -0.53936113346E+02 -0.90723028425E+02 -0.28153298472E+03  0.32564962623E+03  0.12508831027E+03 0.  0.
          5    1    3    3  502    0 -0.43556336905E+02  0.38977292129E+01 -0.21900412149E+02  0.49086120542E+02  0.41800000000E+01 0. -1.
         -5    1    3    3    0  502 -0.10379776441E+02 -0.94620757638E+02 -0.25963257257E+03  0.27656350568E+03  0.41800000000E+01 0. -1.
        -11    1    1    2    0    0  0.54684037685E+02  0.63282684470E+02 -0.60258543150E+02  0.10308314195E+03  0.00000000000E+00 0.  1.
         11    1    1    2    0    0 -0.74792433907E+00  0.27440343956E+02 -0.14945840437E+03  0.15195837096E+03  0.00000000000E+00 0. -1.
</event>
<event>
 7    1  0.3265282E-009  0.9376236E+02  0.7561462E-02  0.1293988E+00
          3   -1    0    0  501    0  0.00000000000E+00  0.00000000000E+00  0.39144116709E+03  0.39144116709E+03  0.00000000000E+00 0. -1.
         -3   -1    0    0    0  501 -0.00000000000E+00 -0.00000000000E+00 -0.35395919103E+02  0.35395919103E+02  0.00000000000E+00 0.  1.
         25    2    1    2    0    0 -0.76177376371E+01 -0.43794145091E+02  0.21953306320E+03  0.25653220413E+03  0.12505218450E+03 0.  0.
          5    1    3    3  502    0  0.35553341680E+02 -0.26005822893E+01  0.80929671446E+01  0.36793635999E+02  0.41800000000E+01 0. -1.
         -5    1    3    3    0  502 -0.43171079317E+02 -0.41193562802E+02  0.21144009605E+03  0.21973856813E+03  0.41800000000E+01 0. -1.
        -11    1    1    2    0    0 -0.27630159580E+02  0.48932353962E+02  0.44634089135E+02  0.71763520646E+02  0.00000000000E+00 0.  1.
         11    1    1    2    0    0  0.35247897217E+02 -0.51382088706E+01  0.91878095654E+02  0.98541361415E+02  0.00000000000E+00 0. -1.
</event>
<event>
 7    1  0.3265282E-009  0.2078297E+03  0.7561462E-02  0.1143296E+00
         -2   -1    0    0    0  501 -0.00000000000E+00  0.00000000000E+00  0.59728106598E+02  0.59728106598E+02  0.00000000000E+00 0.  1.
          2   -1    0    0  501    0  0.00000000000E+00 -0.00000000000E+00 -0.88166144490E+03  0.88166144490E+03  0.00000000000E+00 0. -1.
         25    2    1    2    0    0  0.46927038803E+02  0.18479634315E+03 -0.56194500450E+03  0.60644965485E+03  0.12508861009E+03 0.  0.
          5    1    3    3  502    0  0.53843643603E+02  0.65178304453E+02 -0.37446866864E+03  0.38391614387E+03  0.41800000000E+01 0. -1.
         -5    1    3    3    0  502 -0.69166048003E+01  0.11961803870E+03 -0.18747633586E+03  0.22253351098E+03  0.41800000000E+01 0. -1.
        -11    1    1    2    0    0  0.24306363672E+02 -0.85706728201E+02 -0.11301131535E+03  0.14390274484E+03  0.00000000000E+00 0. -1.
         11    1    1    2    0    0 -0.71233402475E+02 -0.99089614949E+02 -0.14697701844E+03  0.19103715180E+03  0.00000000000E+00 0.  1.
</event>
<event>
 7    1  0.3265282E-009  0.3190414E+03  0.7561462E-02  0.1076091E+00
          1   -1    0    0  501    0  0.00000000000E+00  0.00000000000E+00  0.13072882921E+04  0.13072882921E+04  0.00000000000E+00 0. -1.
         -1   -1    0    0    0  501 -0.00000000000E+00 -0.00000000000E+00 -0.84906598465E+02  0.84906598465E+02  0.00000000000E+00 0.  1.
         25    2    1    2    0    0 -0.23885507882E+03  0.20066903452E+03  0.70700337719E+03  0.78283011758E+03  0.12509759208E+03 0.  0.
          5    1    3    3  502    0 -0.12196324159E+03  0.63136035208E+02  0.43645849334E+03  0.45757478083E+03  0.41800000000E+01 0. -1.
         -5    1    3    3    0  502 -0.11689183723E+03  0.13753299931E+03  0.27054488385E+03  0.32525533676E+03  0.41800000000E+01 0. -1.
        -11    1    1    2    0    0  0.96310328296E+02 -0.37190810523E+02  0.11915557093E+03  0.15766066665E+03  0.00000000000E+00 0. -1.
         11    1    1    2    0    0  0.14254475052E+03 -0.16347822400E+03  0.39622274556E+03  0.45170410638E+03  0.00000000000E+00 0.  1.
</event>
<event>
 7    1  0.3265282E-009  0.1290224E+03  0.7561462E-02  0.1228914E+00
          2   -1    0    0  501    0  0.00000000000E+00  0.00000000000E+00  0.14653544516E+03  0.14653544516E+03  0.00000000000E+00 0. -1.
         -2   -1    0    0    0  501 -0.00000000000E+00 -0.00000000000E+00 -0.14572634624E+03  0.14572634624E+03  0.00000000000E+00 0.  1.
         25    2    1    2    0    0  0.22755561704E+02  0.69319523057E+02  0.65291494251E+02  0.15884943152E+03  0.12508857185E+03 0.  0.
          5    1    3    3  502    0 -0.61235614999E+01  0.10032801429E+03  0.56466047843E+02  0.11536505283E+03  0.41800000000E+01 0. -1.
         -5    1    3    3    0  502  0.28879123204E+02 -0.31008491230E+02  0.88254464081E+01  0.43484378686E+02  0.41800000000E+01 0. -1.
        -11    1    1    2    0    0  0.26032244970E+02 -0.59710753961E+02 -0.48398207309E+02  0.81150714030E+02  0.00000000000E+00 0.  1.
         11    1    1    2    0    0 -0.48787806674E+02 -0.96087690954E+01 -0.16084188020E+02  0.52261645858E+02  0.00000000000E+00 0. -1.
</event>
<event>
 7    1  0.3265282E-009  0.9741409E+02  0.7561462E-02  0.1285830E+00
         -1   -1    0    0    0  501 -0.00000000000E+00  0.00000000000E+00  0.12812954241E+03  0.12812954241E+03  0.00000000000E+00 0.  1.
          1   -1    0    0  501    0  0.00000000000E+00 -0.00000000000E+00 -0.10824955101E+03  0.10824955101E+03  0.00000000000E+00 0. -1.
         25    2    1    2    0    0  0.23570129588E+02 -0.36223280716E+02  0.21587539931E+02  0.13409424226E+03  0.12509023484E+03 0.  0.
          5    1    3    3  502    0 -0.26297042245E+02 -0.53430258347E+02 -0.23908882096E+02  0.64307340024E+02  0.41800000000E+01 0.  1.
         -5    1    3    3    0  502  0.49867171833E+02  0.17206977631E+02  0.45496422027E+02  0.69786902232E+02  0.41800000000E+01 0.  1.
        -11    1    1    2    0    0  0.14391921258E+02 -0.13447287375E+02 -0.28191126540E+02  0.34390355492E+02  0.00000000000E+00 0. -1.
         11    1    1    2    0    0 -0.37962050847E+02  0.49670568091E+02  0.26483578004E+02  0.67894495674E+02  0.00000000000E+00 0.  1.
</event>
<event>
 7    1  0.3265282E-009  0.1396463E+03  0.7561462E-02  0.1213806E+00
         -2   -1    0    0    0  501 -0.00000000000E+00  0.00000000000E+00  0.45842679530E+02  0.45842679530E+02  0.00000000000E+00 0. -1.
          2   -1    0    0  501    0  0.00000000000E+00 -0.00000000000E+00 -0.57697395446E+03  0.57697395446E+03  0.00000000000E+00 0.  1.
         25    2    1    2    0    0 -0.10938050279E+03 -0.65203676032E+01 -0.18418658935E+03  0.24815061467E+03  0.12508964098E+03 0.  0.
          5    1    3    3  502    0 -0.20123145764E+02 -0.54687823780E+02 -0.10197360700E+03  0.11752356355E+03  0.41800000000E+01 0. -1.
         -5    1    3    3    0  502 -0.89257357022E+02  0.48167456176E+02 -0.82212982356E+02  0.13062705112E+03  0.41800000000E+01 0. -1.
        -11    1    1    2    0    0  0.74941364605E+02 -0.18012483588E+02 -0.30689643086E+03  0.31642704841E+03  0.00000000000E+00 0.  1.
         11    1    1    2    0    0  0.34439138180E+02  0.24532851191E+02 -0.40048254720E+02  0.58238970907E+02  0.00000000000E+00 0. -1.
</event>
<event>
 7    1  0.3265282E-009  0.1098484E+03  0.7561462E-02  0.1260851E+00
         -1   -1    0    0    0  501 -0.00000000000E+00  0.00000000000E+00  0.73637582818E+02  0.73637582818E+02  0.00000000000E+00 0.  1.
          1   -1    0    0  501    0  0.00000000000E+00 -0.00000000000E+00 -0.20977681749E+03  0.20977681749E+03  0.00000000000E+00 0. -1.
         25    2    1    2    0    0  0.17073039856E+02  0.52486874293E+02 -0.10587129110E+03  0.17292693779E+03  0.12509450376E+03 0.  0.
          5    1    3    3  502    0 -0.14588721057E+02  0.87276802133E+02 -0.59310112123E+02  0.10660784574E+03  0.41800000000E+01 0.  1.
         -5    1    3    3    0  502  0.31661760913E+02 -0.34789927840E+02 -0.46561178979E+02  0.66319092056E+02  0.41800000000E+01 0.  1.
        -11    1    1    2    0    0 -0.36965427576E+01  0.14813470495E+02  0.20191886133E+02  0.25314335901E+02  0.00000000000E+00 0.  1.
         11    1    1    2    0    0 -0.13376497098E+02 -0.67300344788E+02 -0.50459829699E+02  0.85173126610E+02  0.00000000000E+00 0. -1.
</event>
<event>
 7    1  0.3265282E-009  0.6334834E+02  0.7561462E-02  0.1384294E+00
          3   -1    0    0  501    0  0.00000000000E+00  0.00000000000E+00  0.56316321354E+02  0.56316321354E+02  0.00000000000E+00 0. -1.
         -3   -1    0    0    0  501 -0.00000000000E+00 -0.00000000000E+00 -0.29741912634E+03  0.29741912634E+03  0.00000000000E+00 0.  1.
         25    2    1    2    0    0  0.43962316458E+02 -0.31609539892E+02 -0.19142432181E+03  0.23499436753E+03  0.12508890242E+03 0.  0.
          5    1    3    3  502    0  0.15683251145E+02 -0.17839412632E+02  0.13492403518E+02  0.27635599545E+02  0.41800000000E+01 0. -1.
         -5    1    3    3    0  502  0.28279065313E+02 -0.13770127261E+02 -0.20491672533E+03  0.20735876798E+03  0.41800000000E+01 0. -1.
        -11    1    1    2    0    0 -0.44805286422E+01  0.31041015678E+02  0.21025577249E+02  0.37758372448E+02  0.00000000000E+00 0. -1.
         11    1    1    2    0    0 -0.39481787816E+02  0.56852421406E+00 -0.70704060418E+02  0.80982707713E+02  0.00000000000E+00 0.  1.
</event>
<event>
 7    1  0.3265282E-009  0.6258154E+02  0.7561462E-02  0.1387307E+00
         -1   -1    0    0    0  501 -0.00000000000E+00  0.00000000000E+00  0.17876436914E+03  0.17876436914E+03  0.00000000000E+00 0. -1.
          1   -1    0    0  501    0  0.00000000000E+00 -0.00000000000E+00 -0.74834025104E+02  0.74834025104E+02  0.00000000000E+00 0.  1.
         25    2    1    2    0    0 -0.35822519371E+02  0.13534292047E+02  0.72273040621E+02  0.14946485875E+03  0.12509964686E+03 0.  0.
          5    1    3    3  502    0  0.33992255041E+01 -0.11272161636E+02 -0.32488630010E+02  0.34808042776E+02  0.41800000000E+01 0. -1.
         -5    1    3    3    0  502 -0.39221744875E+02  0.24806453683E+02  0.10476167063E+03  0.11465681597E+03  0.41800000000E+01 0. -1.
        -11    1    1    2    0    0  0.27103891252E+00  0.18330143496E+02  0.49795326576E+02  0.53062624996E+02  0.00000000000E+00 0. -1.
         11    1    1    2    0    0  0.35551480458E+02 -0.31864435543E+02 -0.18138023159E+02  0.51070910501E+02  0.00000000000E+00 0.  1.
</event>
<event>
 7    1  0.3265282E-009  0.1276604E+03  0.7561462E-02  0.1230969E+00
          3   -1    0    0  501    0  0.00000000000E+00  0.00000000000E+00  0.41451890944E+03  0.41451890944E+03  0.00000000000E+00 0. -1.
         -3   -1    0    0    0  501 -0.00000000000E+00 -0.00000000000E+00 -0.46348127012E+02  0.46348127012E+02  0.00000000000E+00 0.  1.
         25    2    1    2    0    0  0.37919344360E+02  0.75944967005E+02  0.22657664786E+03  0.27238202869E+03  0.12509787172E+03 0.  0.
          5    1    3    3  502    0  0.28143937842E+02 -0.25120625432E+02  0.21785923415E+02  0.43763294191E+02  0.41800000000E+01 0.  1.
         -5    1    3    3    0  502  0.97754065179E+01  0.10106559244E+03  0.20479072444E+03  0.22861873450E+03  0.41800000000E+01 0.  1.
        -11    1    1    2    0    0  0.10642550880E+02 -0.65126094873E+02  0.45129348757E+02  0.79945795649E+02  0.00000000000E+00 0.  1.
         11    1    1    2    0    0 -0.48561895240E+02 -0.10818872132E+02  0.96464785809E+02  0.10853921211E+03  0.00000000000E+00 0. -1.
</event>
<event>
 7    1  0.3265282E-009  0.2130726E+03  0.7561462E-02  0.1139156E+00
         -1   -1    0    0    0  501 -0.00000000000E+00  0.00000000000E+00  0.59248274608E+02  0.59248274608E+02  0.00000000000E+00 0.  1.
          1   -1    0    0  501    0  0.00000000000E+00 -0.00000000000E+00 -0.11305049038E+04  0.11305049038E+04  0.00000000000E+00 0. -1.
         25    2    1    2    0    0 -0.13222150636E+03 -0.15456146696E+03 -0.28191007340E+03  0.36944961737E+03  0.12509179219E+03 0.  0.
          5    1    3    3  502    0 -0.86947820499E+02 -0.91047230101E+02 -0.71125187843E+02  0.14465747939E+03  0.41800000000E+01 0.  1.
         -5    1    3    3    0  502 -0.45273685866E+02 -0.63514236863E+02 -0.21078488556E+03  0.22479213798E+03  0.41800000000E+01 0.  1.
        -11    1    1    2    0    0  0.56389744370E+02  0.78681781844E+01 -0.24082383257E+03  0.24746278475E+03  0.00000000000E+00 0.  1.
         11    1    1    2    0    0  0.75831761995E+02  0.14669328878E+03 -0.54852272320E+03  0.57284077628E+03  0.00000000000E+00 0. -1.
</event>
<event>
 7    1  0.3265282E-009  0.8645627E+02  0.7561462E-02  0.1311668E+00
         -3   -1    0    0    0  501 -0.00000000000E+00  0.00000000000E+00  0.30868364384E+03  0.30868364384E+03  0.00000000000E+00 0.  1.
          3   -1    0    0  501    0  0.00000000000E+00 -0.00000000000E+00 -0.48593233422E+02  0.48593233422E+02  0.00000000000E+00 0. -1.
         25    2    1    2    0    0 -0.31619009235E+02  0.41155457178E+02  0.18024339648E+03  0.22545016691E+03  0.12508621980E+03 0.  0.
          5    1    3    3  502    0 -0.31256488909E+02 -0.33242841883E+02  0.22618768129E+02  0.51099273058E+02  0.41800000000E+01 0. -1.
         -5    1    3    3    0  502 -0.36252032591E+00  0.74398299061E+02  0.15762462835E+03  0.17435089385E+03  0.41800000000E+01 0. -1.
        -11    1    1    2    0    0  0.16767953258E+02 -0.15001316260E+02 -0.18408993281E+02  0.29070513920E+02  0.00000000000E+00 0. -1.
         11    1    1    2    0    0  0.14851055977E+02 -0.26154140919E+02  0.98256007213E+02  0.10275619643E+03  0.00000000000E+00 0.  1.
</event>
<event>
 7    1  0.3265282E-009  0.1355094E+03  0.7561462E-02  0.1219502E+00
         -2   -1    0    0    0  501 -0.00000000000E+00  0.00000000000E+00  0.37446333573E+02  0.37446333573E+02  0.00000000000E+00 0.  1.
          2   -1    0    0  501    0  0.00000000000E+00 -0.00000000000E+00 -0.10008826036E+04  0.10008826036E+04  0.00000000000E+00 0. -1.
         25    2    1    2    0    0  0.92769049837E+02  0.68160446631E+02 -0.80025656709E+03  0.81811369075E+03  0.12508994653E+03 0.  0.
          5    1    3    3  502    0  0.26940175319E+02 -0.23139824807E+01 -0.53736266103E+03  0.53805876020E+03  0.41800000000E+01 0. -1.
         -5    1    3    3    0  502  0.65828874519E+02  0.70474429112E+02 -0.26289390607E+03  0.28005493055E+03  0.41800000000E+01 0. -1.
        -11    1    1    2    0    0 -0.26920634748E+02 -0.76179178091E+02 -0.78545829376E+02  0.11268289605E+03  0.00000000000E+00 0. -1.
         11    1    1    2    0    0 -0.65848415089E+02  0.80187314600E+01 -0.84633873567E+02  0.10753235038E+03  0.00000000000E+00 0.  1.
</event>
<event>
 7    1  0.3265282E-009  0.1502939E+03  0.7561462E-02  0.1200112E+00
         -3   -1    0    0    0  501 -0.00000000000E+00  0.00000000000E+00  0.36012775750E+02  0.36012775750E+02  0.00000000000E+00 0.  1.
          3   -1    0    0  501    0  0.00000000000E+00 -0.00000000000E+00 -0.88388406895E+03  0.88388406895E+03  0.00000000000E+00 0. -1.
         25    2    1    2    0    0 -0.74479228936E+02  0.11685601827E+03 -0.51966288642E+03  0.55217698658E+03  0.12508966557E+03 0.  0.
          5    1    3    3  502    0  0.24693332270E+01  0.28918072096E+02 -0.12786743552E+02  0.31989462500E+02  0.41800000000E+01 0.  1.
         -5    1    3    3    0  502 -0.76948562163E+02  0.87937946172E+02 -0.50687614287E+03  0.52018752408E+03  0.41800000000E+01 0.  1.
        -11    1    1    2    0    0  0.35483395565E+02 -0.10890663771E+03 -0.17293766468E+03  0.20742989891E+03  0.00000000000E+00 0.  1.
         11    1    1    2    0    0  0.38995833371E+02 -0.79493805570E+01 -0.15527074210E+03  0.16028995921E+03  0.00000000000E+00 0. -1.
</event>
<event>
 7    1  0.3265282E-009  0.1114970E+03  0.7561462E-02  0.1257822E+00
         -4   -1    0    0    0  501 -0.00000000000E+00  0.00000000000E+00  0.74764335297E+02  0.74764335297E+02  0.00000000000E+00 0. -1.
          4   -1    0    0  501    0  0.00000000000E+00 -0.00000000000E+00 -0.29387495649E+03  0.29387495649E+03  0.00000000000E+00 0.  1.
         25    2    1    2    0    0  0.48775701315E+02  0.13313987020E+02 -0.10265278390E+02  0.13530942352E+03  0.12508770069E+03 0.  0.
          5    1    3    3  502    0  0.28372039692E+02  0.65617938010E+02  0.15700002333E+02  0.73311996960E+02  0.41800000000E+01 0. -1.
         -5    1    3    3    0  502  0.20403661623E+02 -0.52303950990E+02 -0.25965280723E+02  0.61997426558E+02  0.41800000000E+01 0. -1.
        -11    1    1    2    0    0  0.18469502285E+02  0.13304787487E+02 -0.10062836722E+03  0.10317077190E+03  0.00000000000E+00 0.  1.
         11    1    1    2    0    0 -0.67245203600E+02 -0.26618774507E+02 -0.10821697558E+03  0.13015909637E+03  0.00000000000E+00 0. -1.
</event>
<event>
 7    1  0.3265282E-009  0.9449669E+02  0.7561462E-02  0.1292314E+00
         -2   -1    0    0    0  501 -0.00000000000E+00  0.00000000000E+00  0.67367329562E+02  0.67367329562E+02  0.00000000000E+00 0.  1.
          2   -1    0    0  501    0  0.00000000000E+00 -0.00000000000E+00 -0.31798611323E+03  0.31798611323E+03  0.00000000000E+00 0. -1.
         25    2    1    2    0    0 -0.54955696372E+02 -0.31583516410E+02 -0.37597159147E+02  0.14518572729E+03  0.12509077488E+03 0.  0.
          5    1    3    3  502    0 -0.22108247760E+02 -0.59303273918E+02 -0.67526728376E+02  0.92644397357E+02  0.41800000000E+01 0.  1.
         -5    1    3    3    0  502 -0.32847448612E+02  0.27719757508E+02  0.29929569229E+02  0.52541329931E+02  0.41800000000E+01 0.  1.
        -11    1    1    2    0    0  0.18778318454E+02  0.40916606923E+02 -0.31759229395E+02  0.55094851101E+02  0.00000000000E+00 0.  1.
         11    1    1    2    0    0  0.36177377919E+02 -0.93330905137E+01 -0.18126239513E+03  0.18507286441E+03  0.00000000000E+00 0. -1.
</event>
<event>
 7    1  0.3265282E-009  0.1220075E+03  0.7561462E-02  0.1239822E+00
         -2   -1    0    0    0  501 -0.00000000000E+00  0.00000000000E+00  0.24847127260E+03  0.24847127260E+03  0.00000000000E+00 0.  1.
          2   -1    0    0  501    0  0.00000000000E+00 -0.00000000000E+00 -0.11201801678E+03  0.11201801678E+03  0.00000000000E+00 0. -1.
         25    2    1    2    0    0  0.27418900103E+02  0.71334573512E+02 -0.36610041146E+02  0.15108037393E+03  0.12507824276E+03 0.  0.
          5    1    3    3  502    0  0.61504614668E+02  0.70747587028E+01 -0.46514905597E+02  0.77549846414E+02  0.41800000000E+01 0. -1.
         -5    1    3    3    0  502 -0.34085714565E+02  0.64259814810E+02  0.99048644517E+01  0.73530527515E+02  0.41800000000E+01 0. -1.
        -11    1    1    2    0    0 -0.21881646281E+02 -0.88449058715E+02  0.16733030631E+03  0.19052945662E+03  0.00000000000E+00 0.  1.
         11    1    1    2    0    0 -0.55372538216E+01  0.17114485203E+02  0.57329906602E+01  0.18879458826E+02  0.00000000000E+00 0. -1.
</event>
<event>
 7    1  0.3265282E-009  0.1334701E+03  0.7561462E-02  0.1222396E+00
         -1   -1    0    0    0  501 -0.00000000000E+00  0.00000000000E+00  0.84856988550E+02  0.84856988550E+02  0.00000000000E+00 0.  1.
          1   -1    0    0  501    0  0.00000000000E+00 -0.00000000000E+00 -0.40016816962E+03  0.40016816962E+03  0.00000000000E+00 0. -1.
         25    2    1    2    0    0  0.58343608923E+01  0.13128138178E+03 -0.25644328325E+03  0.31413227959E+03  0.12508833115E+03 0.  0.
          5    1    3    3  502    0 -0.85793050828E+01  0.10357605367E+03 -0.70776706885E+02  0.12581104088E+03  0.41800000000E+01 0. -1.
         -5    1    3    3    0  502  0.14413665975E+02  0.27705328108E+02 -0.18566657636E+03  0.18832123871E+03  0.41800000000E+01 0. -1.
        -11    1    1    2    0    0 -0.37337686452E+01 -0.96104942336E+02 -0.83930963065E+02  0.12764994137E+03  0.00000000000E+00 0. -1.
         11    1    1    2    0    0 -0.21005922471E+01 -0.35176439443E+02  0.25063065240E+02  0.43242937214E+02  0.00000000000E+00 0.  1.
</event>
<event>
 7    1  0.3265282E-009  0.1364520E+03  0.7561462E-02  0.1218184E+00
         -1   -1    0    0    0  501 -0.00000000000E+00  0.00000000000E+00  0.14203721435E+02  0.14203721435E+02  0.00000000000E+00 0.  1.
          1   -1    0    0  501    0  0.00000000000E+00 -0.00000000000E+00 -0.18352217411E+04  0.18352217411E+04  0.00000000000E+00 0. -1.
         25    2    1    2    0    0 -0.10276490082E+03 -0.28860438709E+02 -0.12745085822E+04  0.12850732453E+04  0.12509024739E+03 0.  0.
          5    1    3    3  502    0 -0.30334944944E+02  0.29185887302E+02 -0.82389421666E+03  0.82497950129E+03  0.41800000000E+01 0.  1.
         -5    1    3    3    0  502 -0.72429955875E+02 -0.58046326011E+02 -0.45061436552E+03  0.46009374402E+03  0.41800000000E+01 0.  1.
        -11    1    1    2    0    0  0.81456437615E+02 -0.20438152351E+02 -0.27322414082E+03  0.28583964110E+03  0.00000000000E+00 0.  1.
         11    1    1    2    0    0  0.21308463204E+02  0.49298591060E+02 -0.27328529665E+03  0.27851257611E+03  0.00000000000E+00 0. -1.
</event>
<event>
 7    1  0.3265282E-009  0.1058990E+03  0.7561462E-02  0.1268358E+00
          1   -1    0    0  501    0  0.00000000000E+00  0.00000000000E+00  0.32981621404E+03  0.32981621404E+03  0.00000000000E+00 0. -1.
         -1   -1    0    0    0  501 -0.00000000000E+00 -0.00000000000E+00 -0.45870088581E+02  0.45870088581E+02  0.00000000000E+00 0.  1.
         25    2    1    2    0    0  0.16604182128E+02 -0.50410462032E+02  0.12084620396E+03  0.18185438700E+03  0.12510115712E+03 0.  0.
          5    1    3    3  502    0 -0.16079742756E+02 -0.85883437009E+02  0.78380361900E+02  0.11745414599E+03  0.41800000000E+01 0. -1.
         -5    1    3    3    0  502  0.32683924884E+02  0.35472974977E+02  0.42465842062E+02  0.64400241006E+02  0.41800000000E+01 0. -1.
        -11    1    1    2    0    0  0.11495978487E+02  0.46058911239E+02  0.15795588825E+03  0.16493527051E+03  0.00000000000E+00 0. -1.
         11    1    1    2    0    0 -0.28100160615E+02  0.43515507929E+01  0.51440332543E+01  0.28896645117E+02  0.00000000000E+00 0.  1.
</event>
<event>
 7    1  0.3265282E-009  0.1207014E+03  0.7561462E-02  0.1241944E+00
          2   -1    0    0  501    0  0.00000000000E+00  0.00000000000E+00  0.12908728085E+03  0.12908728085E+03  0.00000000000E+00 0. -1.
         -2   -1    0    0    0  501 -0.00000000000E+00 -0.00000000000E+00 -0.12537081294E+03  0.12537081294E+03  0.00000000000E+00 0.  1.
         25    2    1    2    0    0  0.38408660267E+02  0.52385523312E+02  0.12690466054E+02  0.14152174647E+03  0.12509152073E+03 0.  0.
          5    1    3    3  502    0 -0.36022931087E+02  0.52694070830E+02 -0.71819922245E+01  0.64369014883E+02  0.41800000000E+01 0.  1.
         -5    1    3    3    0  502  0.74431591354E+02 -0.30854751809E+00  0.19872458279E+02  0.77152731585E+02  0.41800000000E+01 0.  1.
        -11    1    1    2    0    0 -0.51991999054E+02 -0.65755374232E+02 -0.25595427056E+02  0.87647379266E+02  0.00000000000E+00 0.  1.
         11    1    1    2    0    0  0.13583338787E+02  0.13369850920E+02  0.16621428915E+02  0.25288968057E+02  0.00000000000E+00 0. -1.
</event>
<event>
 7    1  0.3265282E-009  0.1048747E+03  0.7561462E-02  0.1270367E+00
          2   -1    0    0  501    0  0.00000000000E+00  0.00000000000E+00  0.18894018493E+03  0.18894018493E+03  0.00000000000E+00 0. -1.
         -2   -1    0    0    0  501 -0.00000000000E+00 -0.00000000000E+00 -0.11201910253E+03  0.11201910253E+03  0.00000000000E+00 0.  1.
         25    2    1    2    0    0 -0.49539842734E+02  0.15639920716E+02 -0.43277725831E+02  0.14218937252E+03  0.12508418352E+03 0.  0.
          5    1    3    3  502    0  0.25760392630E+01 -0.38092687544E+02 -0.54197384778E+02  0.66426784804E+02  0.41800000000E+01 0. -1.
         -5    1    3    3    0  502 -0.52115881997E+02  0.53732608260E+02  0.10919658946E+02  0.75762587721E+02  0.41800000000E+01 0. -1.
        -11    1    1    2    0    0 -0.99891720669E+01 -0.32905012322E+02  0.73559498636E+02  0.81200512523E+02  0.00000000000E+00 0. -1.
         11    1    1    2    0    0  0.59529014801E+02  0.17265091606E+02  0.46639309589E+02  0.77569402410E+02  0.00000000000E+00 0.  1.
</event>
<event>
 7    1  0.3265282E-009  0.8177459E+02  0.7561462E-02  0.1324090E+00
          2   -1    0    0  501    0  0.00000000000E+00  0.00000000000E+00  0.20155508694E+03  0.20155508694E+03  0.00000000000E+00 0. -1.
         -2   -1    0    0    0  501 -0.00000000000E+00 -0.00000000000E+00 -0.90765140903E+02  0.90765140903E+02  0.00000000000E+00 0.  1.
         25    2    1    2    0    0  0.46163942699E+02  0.88689650183E+01  0.12827636208E+03  0.18523467975E+03  0.12508914169E+03 0.  0.
          5    1    3    3  502    0  0.42829420193E+02  0.22561919653E+02 -0.70628848666E+01  0.49099452086E+02  0.41800000000E+01 0. -1.
         -5    1    3    3    0  502  0.33345225053E+01 -0.13692954635E+02  0.13533924695E+03  0.13613522766E+03  0.41800000000E+01 0. -1.
        -11    1    1    2    0    0 -0.68794401283E+02 -0.24199021280E+02 -0.27551453280E+02  0.77957327152E+02  0.00000000000E+00 0.  1.
         11    1    1    2    0    0  0.22630458584E+02  0.15330056261E+02  0.10065037240E+02  0.29128220944E+02  0.00000000000E+00 0. -1.
</event>
<event>
 7    1  0.3265282E-009  0.1175737E+03  0.7561462E-02  0.1247154E+00
         -2   -1    0    0    0  501 -0.00000000000E+00  0.00000000000E+00  0.33569086339E+03  0.33569086339E+03  0.00000000000E+00 0.  1.
          2   -1    0    0  501    0  0.00000000000E+00 -0.00000000000E+00 -0.50367882150E+02  0.50367882150E+02  0.00000000000E+00 0. -1.
         25    2    1    2    0    0 -0.13600134181E+02  0.67096512705E+02  0.19591287732E+03  0.24231328121E+03  0.12508782948E+03 0.  0.
          5    1    3    3  502    0  0.44988527318E+02  0.72158654020E+01  0.25513056867E+02  0.52387257749E+02  0.41800000000E+01 0.  1.
         -5    1    3    3    0  502 -0.58588661499E+02  0.59880647303E+02  0.17039982045E+03  0.18992602346E+03  0.41800000000E+01 0.  1.
        -11    1    1    2    0    0  0.46708059992E+02 -0.28731737591E+02  0.71260834134E+02  0.89918085471E+02  0.00000000000E+00 0.  1.
         11    1    1    2    0    0 -0.33107925811E+02 -0.38364775114E+02  0.18149269787E+02  0.53827378859E+02  0.00000000000E+00 0. -1.
</event>
<event>
 7    1  0.3265282E-009  0.9330213E+02  0.7561462E-02  0.1295047E+00
          2   -1    0    0  501    0  0.00000000000E+00  0.00000000000E+00  0.22886636594E+03  0.22886636594E+03  0.00000000000E+00 0. -1.
         -2   -1    0    0    0  501 -0.00000000000E+00 -0.00000000000E+00 -0.64201730785E+02  0.64201730785E+02  0.00000000000E+00 0.  1.
         25    2    1    2    0    0 -0.10167945213E+02  0.18894310620E+02  0.15877128986E+03  0.20326310719E+03  0.12508871324E+03 0.  0.
          5    1    3    3  502    0 -0.55200476164E+02 -0.21696850030E+02  0.46056896657E+02  0.75210079109E+02  0.41800000000E+01 0.  1.
         -5    1    3    3    0  502  0.45032530951E+02  0.40591160650E+02  0.11271439320E+03  0.12805302808E+03  0.41800000000E+01 0.  1.
        -11    1    1    2    0    0  0.31186404904E+02  0.80442400885E+01  0.33058725461E+02  0.46153883678E+02  0.00000000000E+00 0. -1.
         11    1    1    2    0    0 -0.21018459691E+02 -0.26938550709E+02 -0.27165380170E+02  0.43651105849E+02  0.00000000000E+00 0.  1.
</event>
<event>
 7    1  0.3265282E-009  0.1059500E+03  0.7561462E-02  0.1268259E+00
          2   -1    0    0  501    0  0.00000000000E+00  0.00000000000E+00  0.66755287467E+03  0.66755287467E+03  0.00000000000E+00 0. -1.
         -2   -1    0    0    0  501 -0.00000000000E+00 -0.00000000000E+00 -0.28465376896E+02  0.28465376896E+02  0.00000000000E+00 0.  1.
         25    2    1    2    0    0  0.28858098807E+02  0.50921026342E+02  0.54122216380E+03  0.55856579852E+03  0.12509428406E+03 0.  0.
          5    1    3    3  502    0  0.66637377588E+01  0.79794795214E+02  0.20143036714E+03  0.21680239839E+03  0.41800000000E+01 0. -1.
         -5    1    3    3    0  502  0.22194361048E+02 -0.28873768872E+02  0.33979179666E+03  0.34176340013E+03  0.41800000000E+01 0. -1.
        -11    1    1    2    0    0  0.21265309759E+02 -0.37601567443E+02  0.32762042028E+02  0.54216627258E+02  0.00000000000E+00 0.  1.
         11    1    1    2    0    0 -0.50123408566E+02 -0.13319458899E+02  0.65103291952E+02  0.83235825788E+02  0.00000000000E+00 0. -1.
</event>
<event>
 7    1  0.3265282E-009  0.9997106E+02  0.7561462E-02  0.1280357E+00
          1   -1    0    0  501    0  0.00000000000E+00  0.00000000000E+00  0.27314993822E+03  0.27314993822E+03  0.00000000000E+00 0. -1.
         -1   -1    0    0    0  501 -0.00000000000E+00 -0.00000000000E+00 -0.71663865595E+02  0.71663865595E+02  0.00000000000E+00 0.  1.
         25    2    1    2    0    0 -0.10700225036E+02  0.87597780114E+02  0.10486668817E+03  0.18556359687E+03  0.12509580448E+03 0.  0.
          5    1    3    3  502    0 -0.31718661611E+02  0.27709083205E+02 -0.18943323307E+02  0.46370127069E+02  0.41800000000E+01 0. -1.
         -5    1    3    3    0  502  0.21018436575E+02  0.59888696909E+02  0.12381001148E+03  0.13919346980E+03  0.41800000000E+01 0. -1.
        -11    1    1    2    0    0  0.20846387713E+02 -0.37586955236E+02  0.99245752174E+02  0.10815299538E+03  0.00000000000E+00 0. -1.
         11    1    1    2    0    0 -0.10146162677E+02 -0.50010824878E+02 -0.26263677234E+01  0.51097211563E+02  0.00000000000E+00 0.  1.
</event>
<event>
 7    1  0.3265282E-009  0.9644255E+02  0.7561462E-02  0.1287960E+00
         -2   -1    0    0    0  501 -0.00000000000E+00  0.00000000000E+00  0.19736565178E+02  0.19736565178E+02  0.00000000000E+00 0.  1.
          2   -1    0    0  501    0  0.00000000000E+00 -0.00000000000E+00 -0.78719967649E+03  0.78719967649E+03  0.00000000000E+00 0. -1.
         25    2    1    2    0    0 -0.56965591128E+00  0.60904119247E+02 -0.43988679865E+03  0.46136364458E+03  0.12508549342E+03 0.  0.
          5    1    3    3  502    0 -0.51201683114E+02  0.33236482558E+02 -0.10508027428E+03  0.12159610425E+03  0.41800000000E+01 0.  1.
         -5    1    3    3    0  502  0.50632027203E+02  0.27667636689E+02 -0.33480652437E+03  0.33976754033E+03  0.41800000000E+01 0.  1.
        -11    1    1    2    0    0 -0.16785088982E+02 -0.51381600664E+02 -0.31974894650E+03  0.32428567172E+03  0.00000000000E+00 0. -1.
         11    1    1    2    0    0  0.17354744893E+02 -0.95225185827E+01 -0.78273661643E+01  0.21286925366E+02  0.00000000000E+00 0.  1.
</event>
<event>
 7    1  0.3265282E-009  0.9218923E+02  0.7561462E-02  0.1297635E+00
         -2   -1    0    0    0  501 -0.00000000000E+00  0.00000000000E+00  0.23234546981E+02  0.23234546981E+02  0.00000000000E+00 0. -1.
          2   -1    0    0  501    0  0.00000000000E+00 -0.00000000000E+00 -0.63318469584E+03  0.63318469584E+03  0.00000000000E+00 0.  1.
         25    2    1    2    0    0 -0.51765755247E+02 -0.97922991529E+01 -0.30463760252E+03  0.33352144355E+03  0.12512754253E+03 0.  0.
          5    1    3    3  502    0 -0.57973546876E+02  0.95870100211E+01 -0.47848255312E+02  0.75893154072E+02  0.41800000000E+01 0. -1.
         -5    1    3    3    0  502  0.62077916289E+01 -0.19379309174E+02 -0.25678934721E+03  0.25762828948E+03  0.41800000000E+01 0. -1.
        -11    1    1    2    0    0 -0.20600830228E+00  0.43012562687E+02 -0.13968350977E+03  0.14615610111E+03  0.00000000000E+00 0. -1.
         11    1    1    2    0    0  0.51971763549E+02 -0.33220263535E+02 -0.16562903657E+03  0.17674169817E+03  0.00000000000E+00 0.  1.
</event>
<event>
 7    1  0.3265282E-009  0.1869719E+03  0.7561462E-02  0.1161221E+00
         -2   -1    0    0    0  501 -0.00000000000E+00  0.00000000000E+00  0.26561799783E+02  0.26561799783E+02  0.00000000000E+00 0.  1.
          2   -1    0    0  501    0  0.00000000000E+00 -0.00000000000E+00 -0.16961748624E+04  0.16961748624E+04  0.00000000000E+00 0. -1.
         25    2    1    2    0    0 -0.14743479746E+03 -0.10597902293E+03 -0.83257210428E+03  0.86127357865E+03  0.12508915085E+03 0.  0.
          5    1    3    3  502    0 -0.79863266014E+02 -0.62927331508E+02 -0.20788469758E+03  0.23145520128E+03  0.41800000000E+01 0.  1.
         -5    1    3    3    0  502 -0.67571531443E+02 -0.43051691422E+02 -0.62468740669E+03  0.62981837737E+03  0.41800000000E+01 0.  1.
        -11    1    1    2    0    0  0.85101346627E+02  0.96894205190E+02 -0.68250635261E+03  0.69458307462E+03  0.00000000000E+00 0. -1.
         11    1    1    2    0    0  0.62333450830E+02  0.90848177391E+01 -0.15453460572E+03  0.16688000890E+03  0.00000000000E+00 0.  1.
</event>
<event>
 7    1  0.3376918E-009  0.1504936E+03  0.7561462E-02  0.1199868E+00
          2   -1    0    0  501    0  0.00000000000E+00  0.00000000000E+00  0.66486090946E+03  0.66486090946E+03  0.00000000000E+00 0.  1.
         -2   -1    0    0    0  501 -0.00000000000E+00 -0.00000000000E+00 -0.37896583506E+02  0.37896583506E+02  0.00000000000E+00 0. -1.
         25    2    1    2    0    0  0.11526124271E+03  0.62658233768E-01  0.31905401233E+03  0.36156164796E+03  0.12508478922E+03 0.  0.
          5    1    3    3  502    0  0.13512189816E+03 -0.21652112266E+02  0.22984323110E+03  0.26752967053E+03  0.41800000000E+01 0. -1.
         -5    1    3    3    0  502 -0.19860655450E+02  0.21714770499E+02  0.89210781230E+02  0.94031977436E+02  0.41800000000E+01 0. -1.
        -11    1    1    2    0    0 -0.73555889147E+02 -0.33571969945E+02  0.24813224354E+03  0.26097347811E+03  0.00000000000E+00 0.  1.
         11    1    1    2    0    0 -0.41705353563E+02  0.33509311711E+02  0.59778070084E+02  0.80222366895E+02  0.00000000000E+00 0. -1.
</event>
<event>
 7    1  0.3265282E-009  0.1011252E+03  0.7561462E-02  0.1277947E+00
          1   -1    0    0  501    0  0.00000000000E+00  0.00000000000E+00  0.12422990841E+02  0.12422990841E+02  0.00000000000E+00 0. -1.
         -1   -1    0    0    0  501 -0.00000000000E+00 -0.00000000000E+00 -0.95444487170E+03  0.95444487170E+03  0.00000000000E+00 0.  1.
         25    2    1    2    0    0  0.75071717826E+00 -0.36547789559E+01 -0.48470227745E+03  0.50059789752E+03  0.12509211107E+03 0.  0.
          5    1    3    3  502    0  0.27316177103E+02  0.47330405253E+02 -0.34724475427E+03  0.35154335801E+03  0.41800000000E+01 0. -1.
         -5    1    3    3    0  502 -0.26565459925E+02 -0.50985184209E+02 -0.13745752318E+03  0.14905453951E+03  0.41800000000E+01 0. -1.
        -11    1    1    2    0    0  0.19821288949E+02  0.41912184977E+02 -0.27237902445E+03  0.27629666612E+03  0.00000000000E+00 0.  1.
         11    1    1    2    0    0 -0.20572006127E+02 -0.38257406021E+02 -0.18494057895E+03  0.18997329890E+03  0.00000000000E+00 0. -1.
</event>
<event>
 7    1  0.3265282E-009  0.1017888E+03  0.7561462E-02  0.1276579E+00
          1   -1    0    0  501    0  0.00000000000E+00  0.00000000000E+00  0.23858725202E+03  0.23858725202E+03  0.00000000000E+00 0. -1.
         -1   -1    0    0    0  501 -0.00000000000E+00 -0.00000000000E+00 -0.82533832242E+02  0.82533832242E+02  0.00000000000E+00 0.  1.
         25    2    1    2    0    0  0.61607922431E+02  0.65364050393E+02  0.83273128515E+02  0.17507278754E+03  0.12509225321E+03 0.  0.
          5    1    3    3  502    0  0.42032007346E+02  0.13319168503E+02  0.10598227098E+03  0.11486428537E+03  0.41800000000E+01 0.  1.
         -5    1    3    3    0  502  0.19575915085E+02  0.52044881889E+02 -0.22709142463E+02  0.60208502171E+02  0.41800000000E+01 0.  1.
        -11    1    1    2    0    0 -0.70685286351E+02 -0.53828589829E+02  0.87895748188E+02  0.12497835548E+03  0.00000000000E+00 0. -1.
         11    1    1    2    0    0  0.90773639194E+01 -0.11535460564E+02 -0.15115456921E+02  0.21069941246E+02  0.00000000000E+00 0.  1.
</event>
<event>
 7    1  0.3265282E-009  0.1863256E+03  0.7561462E-02  0.1161818E+00
         -1   -1    0    0    0  501 -0.00000000000E+00  0.00000000000E+00  0.94084083156E+02  0.94084083156E+02  0.00000000000E+00 0.  1.
          1   -1    0    0  501    0  0.00000000000E+00 -0.00000000000E+00 -0.39636154503E+03  0.39636154503E+03  0.00000000000E+00 0. -1.
         25    2    1    2    0    0  0.37225409649E+02  0.15521304932E+03 -0.14325321866E+03  0.24828557646E+03  0.12508965193E+03 0.  0.
          5    1    3    3  502    0 -0.41797011774E+02  0.54995072867E+02 -0.80020977042E+02  0.10579356029E+03  0.41800000000E+01 0. -1.
         -5    1    3    3    0  502  0.79022421423E+02  0.10021797645E+03 -0.63232241618E+02  0.14249201617E+03  0.41800000000E+01 0. -1.
        -11    1    1    2    0    0 -0.41566169967E+02 -0.31976833418E+02 -0.19494710922E+02  0.55949156518E+02  0.00000000000E+00 0.  1.
         11    1    1    2    0    0  0.43407603181E+01 -0.12323621590E+03 -0.13952953229E+03  0.18621089520E+03  0.00000000000E+00 0. -1.
</event>
<event>
 7    1  0.3265282E-009  0.1484178E+03  0.7561462E-02  0.1202431E+00
         -1   -1    0    0    0  501 -0.00000000000E+00  0.00000000000E+00  0.43418215258E+02  0.43418215258E+02  0.00000000000E+00 0.  1.
          1   -1    0    0  501    0  0.00000000000E+00 -0.00000000000E+00 -0.71172946864E+03  0.71172946864E+03  0.00000000000E+00 0. -1.
         25    2    1    2    0    0 -0.28883122571E+02 -0.13285538413E+03 -0.30166734700E+03  0.35374535963E+03  0.12509118014E+03 0.  0.
          5    1    3    3  502    0  0.53715768620E+01  0.23909745914E+01 -0.13989288380E+03  0.14007877046E+03  0.41800000000E+01 0.  1.
         -5    1    3    3    0  502 -0.34254699433E+02 -0.13524635872E+03 -0.16177446321E+03  0.21366658917E+03  0.41800000000E+01 0.  1.
        -11    1    1    2    0    0  0.41503511787E+01  0.12354541748E+03 -0.34732484182E+03  0.36866684329E+03  0.00000000000E+00 0.  1.
         11    1    1    2    0    0  0.24732771392E+02  0.93099666432E+01 -0.19319064562E+02  0.32735480983E+02  0.00000000000E+00 0. -1.
</event>
<event>
 7    1  0.3265282E-009  0.9927912E+02  0.7561462E-02  0.1281819E+00
          1   -1    0    0  501    0  0.00000000000E+00  0.00000000000E+00  0.12070310616E+03  0.12070310616E+03  0.00000000000E+00 0. -1.
         -1   -1    0    0    0  501 -0.00000000000E+00 -0.00000000000E+00 -0.13211332598E+03  0.13211332598E+03  0.00000000000E+00 0.  1.
         25    2    1    2    0    0 -0.24458152382E+02  0.44133911476E+02 -0.48236814193E+02  0.14324866270E+03  0.12508951100E+03 0.  0.
          5    1    3    3  502    0 -0.54373788322E+02  0.64842168778E+02 -0.61070751062E+02  0.10444196831E+03  0.41800000000E+01 0.  1.
         -5    1    3    3    0  502  0.29915635940E+02 -0.20708257303E+02  0.12833936869E+02  0.38806694394E+02  0.41800000000E+01 0.  1.
        -11    1    1    2    0    0 -0.19384106113E+02 -0.15804998493E+02  0.49847204969E+02  0.55769932673E+02  0.00000000000E+00 0. -1.
         11    1    1    2    0    0  0.43842258495E+02 -0.28328912983E+02 -0.13020610588E+02  0.53797836767E+02  0.00000000000E+00 0.  1.
</event>
<event>
 7    1  0.3265282E-009  0.6046522E+02  0.7561462E-02  0.1395890E+00
         -1   -1    0    0    0  501 -0.00000000000E+00  0.00000000000E+00  0.15735179900E+03  0.15735179900E+03  0.00000000000E+00 0.  1.
          1   -1    0    0  501    0  0.00000000000E+00 -0.00000000000E+00 -0.80118574313E+02  0.80118574313E+02  0.00000000000E+00 0. -1.
         25    2    1    2    0    0  0.14755093448E+02 -0.85384201356E+01  0.17370532375E+02  0.12743269700E+03  0.12508692765E+03 0.  0.
          5    1    3    3  502    0  0.53062450623E+01 -0.19119642815E+02  0.69941199304E+02  0.72821430486E+02  0.41800000000E+01 0. -1.
         -5    1    3    3    0  502  0.94488483862E+01  0.10581222680E+02 -0.52570666928E+02  0.54611266516E+02  0.41800000000E+01 0. -1.
        -11    1    1    2    0    0 -0.10326669757E+02 -0.37865740122E+02  0.75479921248E+01  0.39967819160E+02  0.00000000000E+00 0. -1.
         11    1    1    2    0    0 -0.44284236914E+01  0.46404160258E+02  0.52314700188E+02  0.70069857153E+02  0.00000000000E+00 0.  1.
</event>
<event>
 7    1  0.3265282E-009  0.2315465E+03  0.7561462E-02  0.1125556E+00
          2   -1    0    0  501    0  0.00000000000E+00  0.00000000000E+00  0.22493914716E+03  0.22493914716E+03  0.00000000000E+00 0. -1.
         -2   -1    0    0    0  501 -0.00000000000E+00 -0.00000000000E+00 -0.28018569944E+03  0.28018569944E+03  0.00000000000E+00 0.  1.
         25    2    1    2    0    0  0.19075655506E+03  0.99985286511E+02  0.41007013540E+02  0.25241578083E+03  0.12508809071E+03 0.  0.
          5    1    3    3  502    0  0.31570056263E+02  0.81364114776E+02  0.27132810477E+02  0.91490160291E+02  0.41800000000E+01 0.  1.
         -5    1    3    3    0  502  0.15918649880E+03  0.18621171736E+02  0.13874203063E+02  0.16092562054E+03  0.41800000000E+01 0.  1.
        -11    1    1    2    0    0 -0.15701853825E+03 -0.83569271480E+02 -0.11393254740E+03  0.21123273858E+03  0.00000000000E+00 0.  1.
         11    1    1    2    0    0 -0.33738016807E+02 -0.16416015031E+02  0.17678981584E+02  0.41476327193E+02  0.00000000000E+00 0. -1.
</event>
<event>
 6    1  0.3265282E-009  0.6260507E+02  0.7561462E-02  0.1387214E+00
         -3   -1    0    0    0  501 -0.00000000000E+00  0.00000000000E+00  0.11893003523E+03  0.11893003523E+03  0.00000000000E+00 0.  1.
          3   -1    0    0  501    0  0.00000000000E+00 -0.00000000000E+00 -0.12528099599E+03  0.12528099599E+03  0.00000000000E+00 0. -1.
          5    1    1    2  502    0 -0.52841631713E+01 -0.35287279192E+01  0.81085881691E+02  0.81441800759E+02  0.41800000000E+01 0.  1.
         -5    1    1    2    0  502  0.69950328331E+01  0.36551254104E+02 -0.39467964705E+02  0.54406960022E+02  0.41800000000E+01 0.  1.
        -11    1    1    2    0    0 -0.25319734092E+02 -0.46517706383E+02 -0.58759936562E+02  0.79105727267E+02  0.00000000000E+00 0. -1.
         11    1    1    2    0    0  0.23608864430E+02  0.13495180199E+02  0.10791058815E+02  0.29256543176E+02  0.00000000000E+00 0.  1.
</event>
<event>
 7    1  0.3265282E-009  0.8530784E+02  0.7561462E-02  0.1314629E+00
          1   -1    0    0  501    0  0.00000000000E+00  0.00000000000E+00  0.17268004044E+03  0.17268004044E+03  0.00000000000E+00 0. -1.
         -1   -1    0    0    0  501 -0.00000000000E+00 -0.00000000000E+00 -0.81585730744E+02  0.81585730744E+02  0.00000000000E+00 0.  1.
         25    2    1    2    0    0 -0.39457715556E+02 -0.12442157877E+02  0.24072679135E+02  0.13393368752E+03  0.12508804964E+03 0.  0.
          5    1    3    3  502    0  0.13483417188E+02 -0.53942950228E+02 -0.12655363912E+02  0.57177574748E+02  0.41800000000E+01 0. -1.
         -5    1    3    3    0  502 -0.52941132745E+02  0.41500792350E+02  0.36728043047E+02  0.76756112773E+02  0.41800000000E+01 0. -1.
        -11    1    1    2    0    0  0.26573330728E+02 -0.36720754804E+01 -0.18350805480E+02  0.32501970803E+02  0.00000000000E+00 0.  1.
         11    1    1    2    0    0  0.12884384829E+02  0.16114233358E+02  0.85372436038E+02  0.87830112855E+02  0.00000000000E+00 0. -1.
</event>
<event>
 7    1  0.3265282E-009  0.1059981E+03  0.7561462E-02  0.1268165E+00
         -2   -1    0    0    0  501 -0.00000000000E+00  0.00000000000E+00  0.43797174373E+02  0.43797174373E+02  0.00000000000E+00 0.  1.
          2   -1    0    0  501    0  0.00000000000E+00 -0.00000000000E+00 -0.37391084009E+03  0.37391084009E+03  0.00000000000E+00 0. -1.
         25    2    1    2    0    0 -0.66651041386E+02  0.65964362668E+01 -0.21704305201E+03  0.25930729845E+03  0.12508682710E+03 0.  0.
          5    1    3    3  502    0 -0.66760475524E+01  0.35608108033E+02 -0.17857794376E+03  0.18226371380E+03  0.41800000000E+01 0. -1.
         -5    1    3    3    0  502 -0.59974993833E+02 -0.29011671766E+02 -0.38465108250E+02  0.77043584656E+02  0.41800000000E+01 0. -1.
        -11    1    1    2    0    0  0.58781483707E+02 -0.42167405124E+02 -0.59769874328E+02  0.93839174969E+02  0.00000000000E+00 0.  1.
         11    1    1    2    0    0  0.78695576789E+01  0.35570968857E+02 -0.53300739372E+02  0.64561541037E+02  0.00000000000E+00 0. -1.
</event>
<event>
 7    1  0.3265282E-009  0.1030282E+03  0.7561462E-02  0.1274054E+00
         -1   -1    0    0    0  501 -0.00000000000E+00  0.00000000000E+00  0.75774973895E+03  0.75774973895E+03  0.00000000000E+00 0.  1.
          1   -1    0    0  501    0  0.00000000000E+00 -0.00000000000E+00 -0.21188756087E+02  0.21188756087E+02  0.00000000000E+00 0. -1.
         25    2    1    2    0    0  0.31677137382E+02  0.55623781403E+02  0.45276117864E+03  0.47406480015E+03  0.12508918324E+03 0.  0.
          5    1    3    3  502    0  0.77269574693E+02  0.53831780266E+02  0.32162755130E+03  0.33515698098E+03  0.41800000000E+01 0. -1.
         -5    1    3    3    0  502 -0.45592437310E+02  0.17920011369E+01  0.13113362734E+03  0.13890781917E+03  0.41800000000E+01 0. -1.
        -11    1    1    2    0    0 -0.21008218675E+02 -0.49253115648E+02  0.28707252849E+03  0.29202371696E+03  0.00000000000E+00 0.  1.
         11    1    1    2    0    0 -0.10668918707E+02 -0.63706657551E+01 -0.32727242730E+01  0.12849977927E+02  0.00000000000E+00 0. -1.
</event>
<event>
 7    1  0.3265282E-009  0.8721233E+02  0.7561462E-02  0.1309746E+00
          1   -1    0    0  501    0  0.00000000000E+00  0.00000000000E+00  0.13469593809E+03  0.13469593809E+03  0.00000000000E+00 0. -1.
         -1   -1    0    0    0  501 -0.00000000000E+00 -0.00000000000E+00 -0.28655975945E+03  0.28655975945E+03  0.00000000000E+00 0.  1.
         25    2    1    2    0    0 -0.40492705265E+02  0.23323702986E+02 -0.25617253395E+03  0.28888968789E+03  0.12509688374E+03 0.  0.
          5    1    3    3  502    0 -0.11681722075E+02 -0.41396192061E+02 -0.17859595233E+03  0.18375008554E+03  0.41800000000E+01 0. -1.
         -5    1    3    3    0  502 -0.28810983190E+02  0.64719895046E+02 -0.77576581622E+02  0.10513960235E+03  0.41800000000E+01 0. -1.
        -11    1    1    2    0    0 -0.33362896114E+01 -0.15332587930E+02 -0.31799089701E+01  0.16010337350E+02  0.00000000000E+00 0.  1.
         11    1    1    2    0    0  0.43828994877E+02 -0.79911150555E+01  0.10748862156E+03  0.11635567230E+03  0.00000000000E+00 0. -1.
</event>
<event>
 7    1  0.3265282E-009  0.2017611E+03  0.7561462E-02  0.1148262E+00
          2   -1    0    0  501    0  0.00000000000E+00  0.00000000000E+00  0.91458628482E+02  0.91458628482E+02  0.00000000000E+00 0. -1.
         -2   -1    0    0    0  501 -0.00000000000E+00 -0.00000000000E+00 -0.60865567384E+03  0.60865567384E+03  0.00000000000E+00 0.  1.
         25    2    1    2    0    0 -0.20007617446E+03  0.64016714055E+01 -0.35790710797E+03  0.42873753514E+03  0.12508764575E+03 0.  0.
          5    1    3    3  502    0 -0.13097659501E+03  0.19460779561E+01 -0.10936126900E+03  0.17069275092E+03  0.41800000000E+01 0.  1.
         -5    1    3    3    0  502 -0.69099579451E+02  0.44555934493E+01 -0.24854583897E+03  0.25804478422E+03  0.41800000000E+01 0.  1.
        -11    1    1    2    0    0  0.46468859012E+02  0.13036752690E+02  0.13293359505E+01  0.48281248043E+02  0.00000000000E+00 0.  1.
         11    1    1    2    0    0  0.15360731545E+03 -0.19438424096E+02 -0.16061927333E+03  0.22309551913E+03  0.00000000000E+00 0. -1.
</event>
<event>
 7    1  0.3265282E-009  0.9456238E+02  0.7561462E-02  0.1292165E+00
         -1   -1    0    0    0  501 -0.00000000000E+00  0.00000000000E+00  0.29156253858E+02  0.29156253858E+02  0.00000000000E+00 0.  1.
          1   -1    0    0  501    0  0.00000000000E+00 -0.00000000000E+00 -0.45549317979E+03  0.45549317979E+03  0.00000000000E+00 0. -1.
         25    2    1    2    0    0  0.13388771437E+02 -0.14902110954E+02 -0.30711103192E+03  0.33221510411E+03  0.12509339455E+03 0.  0.
          5    1    3    3  502    0 -0.39645387199E+02 -0.16370352437E+02 -0.36663809605E+02  0.56581379444E+02  0.41800000000E+01 0. -1.
         -5    1    3    3    0  502  0.53034158636E+02  0.14682414830E+01 -0.27044722232E+03  0.27563372467E+03  0.41800000000E+01 0. -1.
        -11    1    1    2    0    0  0.38579591206E+02  0.13332418404E+02 -0.36671380109E+02  0.54871926859E+02  0.00000000000E+00 0. -1.
         11    1    1    2    0    0 -0.51968362643E+02  0.15696925504E+01 -0.82554513896E+02  0.97562402672E+02  0.00000000000E+00 0.  1.
</event>
<event>
 7    1  0.3265282E-009  0.1725153E+03  0.7561462E-02  0.1175250E+00
          2   -1    0    0  501    0  0.00000000000E+00  0.00000000000E+00  0.90579848599E+02  0.90579848599E+02  0.00000000000E+00 0. -1.
         -2   -1    0    0    0  501 -0.00000000000E+00 -0.00000000000E+00 -0.45234504832E+03  0.45234504832E+03  0.00000000000E+00 0.  1.
         25    2    1    2    0    0  0.11224549716E+03 -0.97448474654E+02 -0.87360820958E+02  0.21301638278E+03  0.12509520154E+03 0.  0.
          5    1    3    3  502    0  0.24541830063E+02  0.29331340491E+02 -0.28793473518E+02  0.48053776908E+02  0.41800000000E+01 0.  1.
         -5    1    3    3    0  502  0.87703667096E+02 -0.12677981514E+03 -0.58567347439E+02  0.16496260587E+03  0.41800000000E+01 0.  1.
        -11    1    1    2    0    0 -0.82751756202E+02  0.50639250600E+02 -0.74027478234E+02  0.12203382478E+03  0.00000000000E+00 0. -1.
         11    1    1    2    0    0 -0.29493740957E+02  0.46809224054E+02 -0.20037690053E+03  0.20787468937E+03  0.00000000000E+00 0.  1.
</event>
<event>
 7    1  0.3265282E-009  0.6984976E+03  0.7561462E-02  0.9719805E-01
         -2   -1    0    0    0  501 -0.00000000000E+00  0.00000000000E+00  0.23703589111E+03  0.23703589111E+03  0.00000000000E+00 0. -1.
          2   -1    0    0  501    0  0.00000000000E+00 -0.00000000000E+00 -0.21337710341E+04  0.21337710341E+04  0.00000000000E+00 0.  1.
         25    2    1    2    0    0  0.59848458471E+03 -0.35348003794E+03 -0.78031582235E+03  0.10524600320E+04  0.12508957209E+03 0.  0.
          5    1    3    3  502    0  0.38333871462E+03 -0.26601542999E+03 -0.58967350644E+03  0.75196083389E+03  0.41800000000E+01 0. -1.
         -5    1    3    3    0  502  0.21514587009E+03 -0.87464607954E+02 -0.19064231591E+03  0.30049919813E+03  0.41800000000E+01 0. -1.
        -11    1    1    2    0    0 -0.56945233122E+02  0.12982056152E+02 -0.62973105999E+02  0.85888913349E+02  0.00000000000E+00 0.  1.
         11    1    1    2    0    0 -0.54153935159E+03  0.34049798179E+03 -0.10534462146E+04  0.12324579798E+04  0.00000000000E+00 0. -1.
</event>
<event>
 7    1  0.3265282E-009  0.1126348E+03  0.7561462E-02  0.1255767E+00
         -2   -1    0    0    0  501 -0.00000000000E+00  0.00000000000E+00  0.16859347021E+03  0.16859347021E+03  0.00000000000E+00 0.  1.
          2   -1    0    0  501    0  0.00000000000E+00 -0.00000000000E+00 -0.11673261167E+03  0.11673261167E+03  0.00000000000E+00 0. -1.
         25    2    1    2    0    0  0.83761338689E+02  0.23988568228E+01  0.57442049221E+02  0.16114759078E+03  0.12508893085E+03 0.  0.
          5    1    3    3  502    0  0.76574419284E+01  0.26735503362E+02  0.74244782988E+02  0.79392592588E+02  0.41800000000E+01 0. -1.
         -5    1    3    3    0  502  0.76103896760E+02 -0.24336646540E+02 -0.16802733767E+02  0.81754998189E+02  0.41800000000E+01 0. -1.
        -11    1    1    2    0    0 -0.13206794243E+02  0.34910531863E+02 -0.21093545396E+02  0.42873095369E+02  0.00000000000E+00 0.  1.
         11    1    1    2    0    0 -0.70554544446E+02 -0.37309388685E+02  0.15512354721E+02  0.81305395731E+02  0.00000000000E+00 0. -1.
</event>
<event>
 7    1  0.3265282E-009  0.2338740E+03  0.7561462E-02  0.1123942E+00
          3   -1    0    0  501    0  0.00000000000E+00  0.00000000000E+00  0.37895549431E+03  0.37895549431E+03  0.00000000000E+00 0. -1.
         -3   -1    0    0    0  501 -0.00000000000E+00 -0.00000000000E+00 -0.15976736499E+03  0.15976736499E+03  0.00000000000E+00 0.  1.
         25    2    1    2    0    0  0.11469001877E+03 -0.17810132722E+03  0.18001260420E+03  0.30484194872E+03  0.12510073088E+03 0.  0.
          5    1    3    3  502    0 -0.23792340767E+02 -0.42302466341E+02  0.17480606332E+02  0.51755368180E+02  0.41800000000E+01 0. -1.
         -5    1    3    3    0  502  0.13848235954E+03 -0.13579886088E+03  0.16253199786E+03  0.25308658054E+03  0.41800000000E+01 0. -1.
        -11    1    1    2    0    0 -0.96170508422E+02  0.18223870232E+03  0.49996706330E+02  0.21203627510E+03  0.00000000000E+00 0. -1.
         11    1    1    2    0    0 -0.18519510349E+02 -0.41373751034E+01 -0.10821181213E+02  0.21844635477E+02  0.00000000000E+00 0.  1.
</event>
<event>
 7    1  0.3265282E-009  0.1463522E+03  0.7561462E-02  0.1205028E+00
         -1   -1    0    0    0  501 -0.00000000000E+00  0.00000000000E+00  0.18882599232E+03  0.18882599232E+03  0.00000000000E+00 0.  1.
          1   -1    0    0  501    0  0.00000000000E+00 -0.00000000000E+00 -0.18218376395E+03  0.18218376395E+03  0.00000000000E+00 0. -1.
         25    2    1    2    0    0  0.41004095889E+02 -0.13332630532E+03 -0.52170149356E+02  0.19449044957E+03  0.12509025111E+03 0.  0.
          5    1    3    3  502    0  0.37612255402E+01 -0.18366651684E+01  0.32921123406E+02  0.33448362035E+02  0.41800000000E+01 0. -1.
         -5    1    3    3    0  502  0.37242870349E+02 -0.13148964015E+03 -0.85091272762E+02  0.16104208754E+03  0.41800000000E+01 0. -1.
        -11    1    1    2    0    0  0.11786393272E+02  0.50395099974E+02 -0.14657942543E+02  0.53790709675E+02  0.00000000000E+00 0. -1.
         11    1    1    2    0    0 -0.52790489161E+02  0.82931205344E+02  0.73470320265E+02  0.12272859702E+03  0.00000000000E+00 0.  1.
</event>
<event>
 7    1  0.3265282E-009  0.9920117E+02  0.7561462E-02  0.1281985E+00
         -2   -1    0    0    0  501 -0.00000000000E+00  0.00000000000E+00  0.16260570626E+02  0.16260570626E+02  0.00000000000E+00 0.  1.
          2   -1    0    0  501    0  0.00000000000E+00 -0.00000000000E+00 -0.82242058151E+03  0.82242058151E+03  0.00000000000E+00 0. -1.
         25    2    1    2    0    0 -0.11409815307E+02  0.35669619050E+02 -0.39881188531E+03  0.41964360513E+03  0.12508928750E+03 0.  0.
          5    1    3    3  502    0  0.32813225237E+02 -0.15317961909E+02 -0.38416823897E+02  0.52959158470E+02  0.41800000000E+01 0. -1.
         -5    1    3    3    0  502 -0.44223040544E+02  0.50987580959E+02 -0.36039506142E+03  0.36668444666E+03  0.41800000000E+01 0. -1.
        -11    1    1    2    0    0 -0.12071795658E+02  0.25821602725E+02 -0.74998134892E+02  0.80232185904E+02  0.00000000000E+00 0.  1.
         11    1    1    2    0    0  0.23481610965E+02 -0.61491221775E+02 -0.33234999068E+03  0.33880536111E+03  0.00000000000E+00 0. -1.
</event>
<event>
 7    1  0.3265282E-009  0.1481425E+03  0.7561462E-02  0.1202774E+00
          2   -1    0    0  501    0  0.00000000000E+00  0.00000000000E+00  0.23601578883E+03  0.23601578883E+03  0.00000000000E+00 0. -1.
         -2   -1    0    0    0  501 -0.00000000000E+00 -0.00000000000E+00 -0.12228872550E+03  0.12228872550E+03  0.00000000000E+00 0.  1.
         25    2    1    2    0    0  0.12287899979E+03 -0.42834329626E+02  0.73584307445E+02  0.19492274202E+03  0.12508475794E+03 0.  0.
          5    1    3    3  502    0  0.12397233117E+03 -0.67422406302E+02  0.87739048865E+02  0.16622434497E+03  0.41800000000E+01 0. -1.
         -5    1    3    3    0  502 -0.10933313783E+01  0.24588076676E+02 -0.14154741420E+02  0.28698397042E+02  0.41800000000E+01 0. -1.
        -11    1    1    2    0    0 -0.21925372092E+02  0.70844547663E+01 -0.28139362120E+02  0.36369425913E+02  0.00000000000E+00 0.  1.
         11    1    1    2    0    0 -0.10095362770E+03  0.35749874860E+02  0.68282118006E+02  0.12701234639E+03  0.00000000000E+00 0. -1.
</event>
<event>
 7    1  0.3265282E-009  0.1009706E+03  0.7561462E-02  0.1278268E+00
         -2   -1    0    0    0  501 -0.00000000000E+00  0.00000000000E+00  0.31645018849E+02  0.31645018849E+02  0.00000000000E+00 0.  1.
          2   -1    0    0  501    0  0.00000000000E+00 -0.00000000000E+00 -0.46650536921E+03  0.46650536921E+03  0.00000000000E+00 0. -1.
         25    2    1    2    0    0  0.27126927750E+02 -0.36162224357E+02 -0.30546628172E+03  0.33316903493E+03  0.12509348461E+03 0.  0.
          5    1    3    3  502    0  0.63219804028E+01  0.31151776451E+02 -0.17189569596E+02  0.36377937203E+02  0.41800000000E+01 0. -1.
         -5    1    3    3    0  502  0.20804947347E+02 -0.67314000808E+02 -0.28827671212E+03  0.29679109773E+03  0.41800000000E+01 0. -1.
        -11    1    1    2    0    0  0.14069996157E+02 -0.23146913573E+02 -0.19079221306E+02  0.33132477804E+02  0.00000000000E+00 0.  1.
         11    1    1    2    0    0 -0.41196923907E+02  0.59309137929E+02 -0.11031484734E+03  0.13184887533E+03  0.00000000000E+00 0. -1.
</event>
<event>
 7    1  0.3265282E-009  0.1362031E+03  0.7561462E-02  0.1218531E+00
          2   -1    0    0  501    0  0.00000000000E+00  0.00000000000E+00  0.29209085287E+03  0.29209085287E+03  0.00000000000E+00 0. -1.
         -2   -1    0    0    0  501 -0.00000000000E+00 -0.00000000000E+00 -0.10673689229E+03  0.10673689229E+03  0.00000000000E+00 0.  1.
         25    2    1    2    0    0 -0.18763591449E+02  0.12440141369E+03  0.31857341265E+02  0.18025193807E+03  0.12509231348E+03 0.  0.
          5    1    3    3  502    0 -0.80987794733E+01  0.84237661868E+00  0.53510855017E+02  0.54287971338E+02  0.41800000000E+01 0.  1.
         -5    1    3    3    0  502 -0.10664811976E+02  0.12355903707E+03 -0.21653513752E+02  0.12596396673E+03  0.41800000000E+01 0.  1.
        -11    1    1    2    0    0  0.28518261660E+02 -0.21279738804E+02  0.27722241946E+01  0.35690387482E+02  0.00000000000E+00 0.  1.
         11    1    1    2    0    0 -0.97546702105E+01 -0.10312167489E+03  0.15072439512E+03  0.18288541961E+03  0.00000000000E+00 0. -1.
</event>
<event>
 7    1  0.3265282E-009  0.1161511E+03  0.7561462E-02  0.1249585E+00
          1   -1    0    0  501    0  0.00000000000E+00  0.00000000000E+00  0.45549311712E+03  0.45549311712E+03  0.00000000000E+00 0. -1.
         -1   -1    0    0    0  501 -0.00000000000E+00 -0.00000000000E+00 -0.42595383876E+02  0.42595383876E+02  0.00000000000E+00 0.  1.
         25    2    1    2    0    0  0.30407533147E+02 -0.66862511889E+02  0.30778408342E+03  0.34026238628E+03  0.12510889633E+03 0.  0.
          5    1    3    3  502    0  0.13827454549E+00  0.36589653852E+02  0.68015173215E+02  0.77345704963E+02  0.41800000000E+01 0. -1.
         -5    1    3    3    0  502  0.30269258602E+02 -0.10345216574E+03  0.23976891020E+03  0.26291668131E+03  0.41800000000E+01 0. -1.
        -11    1    1    2    0    0 -0.43070100028E+02  0.57566708300E+02  0.24894554481E+02  0.76083495344E+02  0.00000000000E+00 0.  1.
         11    1    1    2    0    0  0.12662566881E+02  0.92958035883E+01  0.80219095350E+02  0.81742619380E+02  0.00000000000E+00 0. -1.
</event>
<event>
 6    1  0.3265282E-009  0.2049438E+03  0.7561462E-02  0.1145634E+00
          2   -1    0    0  501    0  0.00000000000E+00  0.00000000000E+00  0.81428195040E+03  0.81428195040E+03  0.00000000000E+00 0. -1.
         -2   -1    0    0    0  501 -0.00000000000E+00 -0.00000000000E+00 -0.57781496087E+02  0.57781496087E+02  0.00000000000E+00 0.  1.
          5    1    1    2  502    0 -0.48441979464E+02  0.63183131878E+02  0.20117289473E+03  0.21639486940E+03  0.41800000000E+01 0. -1.
         -5    1    1    2    0  502 -0.13428333087E+03 -0.42062979389E+02  0.25937186460E+03  0.29511445870E+03  0.41800000000E+01 0. -1.
        -11    1    1    2    0    0  0.39631532049E+02  0.14018086218E+02  0.17534679203E+02  0.45548106970E+02  0.00000000000E+00 0.  1.
         11    1    1    2    0    0  0.14309377829E+03 -0.35138238707E+02  0.27842101578E+03  0.31500601142E+03  0.00000000000E+00 0. -1.
</event>
<event>
 7    1  0.3265282E-009  0.8621950E+02  0.7561462E-02  0.1312274E+00
          2   -1    0    0  501    0  0.00000000000E+00  0.00000000000E+00  0.10731087782E+03  0.10731087782E+03  0.00000000000E+00 0. -1.
         -2   -1    0    0    0  501 -0.00000000000E+00 -0.00000000000E+00 -0.13335862864E+03  0.13335862864E+03  0.00000000000E+00 0.  1.
         25    2    1    2    0    0  0.16852602697E+02  0.42707938979E+02 -0.36969039025E+02  0.13828346421E+03  0.12509048069E+03 0.  0.
          5    1    3    3  502    0  0.27232043491E+02 -0.34885189084E+02 -0.40041201678E+02  0.59827509073E+02  0.41800000000E+01 0.  1.
         -5    1    3    3    0  502 -0.10379440793E+02  0.77593128063E+02  0.30721626534E+01  0.78455955142E+02  0.41800000000E+01 0.  1.
        -11    1    1    2    0    0  0.23273923476E+01 -0.18783337194E+02  0.49564267444E+02  0.53055132820E+02  0.00000000000E+00 0. -1.
         11    1    1    2    0    0 -0.19179995045E+02 -0.23924601785E+02 -0.38642979241E+02  0.49330909429E+02  0.00000000000E+00 0.  1.
</event>
<event>
 7    1  0.3265282E-009  0.1052069E+03  0.7561462E-02  0.1269712E+00
         -2   -1    0    0    0  501 -0.00000000000E+00  0.00000000000E+00  0.30322309060E+02  0.30322309060E+02  0.00000000000E+00 0.  1.
          2   -1    0    0  501    0  0.00000000000E+00 -0.00000000000E+00 -0.68258807072E+03  0.68258807072E+03  0.00000000000E+00 0. -1.
         25    2    1    2    0    0  0.61814865020E+02  0.67838186806E+02 -0.36252346454E+03  0.39432693823E+03  0.12508946697E+03 0.  0.
          5    1    3    3  502    0  0.18514938099E+02  0.14889480997E+02  0.12488629440E+01  0.24156399480E+02  0.41800000000E+01 0. -1.
         -5    1    3    3    0  502  0.43299926920E+02  0.52948705809E+02 -0.36377232748E+03  0.37017053875E+03  0.41800000000E+01 0. -1.
        -11    1    1    2    0    0 -0.56588841838E+02 -0.83715639403E+02 -0.28310617618E+03  0.30059892264E+03  0.00000000000E+00 0. -1.
         11    1    1    2    0    0 -0.52260231817E+01  0.15877452597E+02 -0.66361209463E+01  0.17984518911E+02  0.00000000000E+00 0.  1.
</event>
<event>
 7    1  0.3265282E-009  0.1359272E+03  0.7561462E-02  0.1218917E+00
         -2   -1    0    0    0  501 -0.00000000000E+00  0.00000000000E+00  0.15255272543E+03  0.15255272543E+03  0.00000000000E+00 0.  1.
          2   -1    0    0  501    0  0.00000000000E+00 -0.00000000000E+00 -0.22180577763E+03  0.22180577763E+03  0.00000000000E+00 0. -1.
         25    2    1    2    0    0  0.11861184236E+03 -0.47461906543E+02 -0.11449966788E+03  0.21231147230E+03  0.12507831789E+03 0.  0.
          5    1    3    3  502    0  0.19676944542E+02 -0.19205844391E+02  0.26029002588E+02  0.38092361190E+02  0.41800000000E+01 0.  1.
         -5    1    3    3    0  502  0.98934897816E+02 -0.28256062152E+02 -0.14052867047E+03  0.17421911111E+03  0.41800000000E+01 0.  1.
        -11    1    1    2    0    0 -0.10097303685E+03  0.12288380707E+02  0.62170951863E+02  0.11921319443E+03  0.00000000000E+00 0.  1.
         11    1    1    2    0    0 -0.17638805513E+02  0.35173525837E+02 -0.16924336185E+02  0.42833836333E+02  0.00000000000E+00 0. -1.
</event>
<event>
 7    1  0.3938240E-009  0.1337315E+03  0.7561462E-02  0.1222022E+00
         -1   -1    0    0    0  501 -0.00000000000E+00  0.00000000000E+00  0.22908645019E+02  0.22908645019E+02  0.00000000000E+00 0.  1.
          1   -1    0    0  501    0  0.00000000000E+00 -0.00000000000E+00 -0.12585858073E+04  0.12585858073E+04  0.00000000000E+00 0. -1.
         25    2    1    2    0    0  0.11234469041E+03  0.50763059989E+02 -0.80742363945E+03  0.82630381598E+03  0.12508734965E+03 0.  0.
          5    1    3    3  502    0  0.96766256762E+02  0.25642057040E+02 -0.77787010653E+03  0.78429624414E+03  0.41800000000E+01 0.  1.
         -5    1    3    3    0  502  0.15578433651E+02  0.25121002949E+02 -0.29553532919E+02  0.42007571844E+02  0.41800000000E+01 0.  1.
        -11    1    1    2    0    0 -0.35216414995E+02 -0.48905581325E+02 -0.90445921354E+02  0.10868494127E+03  0.00000000000E+00 0.  1.
         11    1    1    2    0    0 -0.77128275417E+02 -0.18574786633E+01 -0.33780760147E+03  0.34650569505E+03  0.00000000000E+00 0. -1.
</event>
<event>
 7    1  0.3265282E-009  0.1232808E+03  0.7561462E-02  0.1237781E+00
          2   -1    0    0  501    0  0.00000000000E+00  0.00000000000E+00  0.87348124051E+03  0.87348124051E+03  0.00000000000E+00 0. -1.
         -2   -1    0    0    0  501 -0.00000000000E+00 -0.00000000000E+00 -0.28810826691E+02  0.28810826691E+02  0.00000000000E+00 0.  1.
         25    2    1    2    0    0  0.99914525647E+02 -0.35840374794E+02  0.56626716590E+03  0.58955412681E+03  0.12509244725E+03 0.  0.
          5    1    3    3  502    0  0.72417694681E+02  0.20607257355E+02  0.45930576434E+03  0.46545487334E+03  0.41800000000E+01 0. -1.
         -5    1    3    3    0  502  0.27496830966E+02 -0.56447632149E+02  0.10696140157E+03  0.12409925348E+03  0.41800000000E+01 0. -1.
        -11    1    1    2    0    0 -0.50165847157E+02  0.29173719561E+02  0.43483273818E+02  0.72515606844E+02  0.00000000000E+00 0.  1.
         11    1    1    2    0    0 -0.49748678489E+02  0.66666552336E+01  0.23491997410E+03  0.24022233354E+03  0.00000000000E+00 0. -1.
</event>
<event>
 7    1  0.3265282E-009  0.9243747E+02  0.7561462E-02  0.1297054E+00
         -2   -1    0    0    0  501 -0.00000000000E+00  0.00000000000E+00  0.75725935859E+02  0.75725935859E+02  0.00000000000E+00 0.  1.
          2   -1    0    0  501    0  0.00000000000E+00 -0.00000000000E+00 -0.26605114627E+03  0.26605114627E+03  0.00000000000E+00 0. -1.
         25    2    1    2    0    0 -0.16381780680E+02 -0.15264501222E+02 -0.21027382542E+03  0.24568953659E+03  0.12508756530E+03 0.  0.
          5    1    3    3  502    0 -0.47822739008E+02  0.23156560686E+02 -0.17923187433E+03  0.18698871047E+03  0.41800000000E+01 0. -1.
         -5    1    3    3    0  502  0.31440958328E+02 -0.38421061907E+02 -0.31041951097E+02  0.58700826115E+02  0.41800000000E+01 0. -1.
        -11    1    1    2    0    0 -0.25190295322E+02 -0.15908920370E+02  0.30965255002E+02  0.42970824324E+02  0.00000000000E+00 0.  1.
         11    1    1    2    0    0  0.41572076002E+02  0.31173421592E+02 -0.11016639995E+02  0.53116721224E+02  0.00000000000E+00 0. -1.
</event>
<event>
 7    1  0.3523108E-009  0.1226168E+03  0.7561462E-02  0.1238841E+00
          2   -1    0    0  501    0  0.00000000000E+00  0.00000000000E+00  0.84482502835E+03  0.84482502835E+03  0.00000000000E+00 0.  1.
         -2   -1    0    0    0  501 -0.00000000000E+00 -0.00000000000E+00 -0.29064727455E+02  0.29064727455E+02  0.00000000000E+00 0. -1.
         25    2    1    2    0    0 -0.33906383722E+02 -0.94490826272E+02  0.58189682036E+03  0.60359746828E+03  0.12509130689E+03 0.  0.
          5    1    3    3  502    0 -0.27531537375E+02 -0.16244883660E+02  0.24006956953E+02  0.40195623860E+02  0.41800000000E+01 0.  1.
         -5    1    3    3    0  502 -0.63748463473E+01 -0.78245942612E+02  0.55788986341E+03  0.56340184442E+03  0.41800000000E+01 0.  1.
        -11    1    1    2    0    0 -0.30736615025E+02  0.34212209439E+02  0.64029518519E+02  0.78835233365E+02  0.00000000000E+00 0. -1.
         11    1    1    2    0    0  0.64642998746E+02  0.60278616833E+02  0.16983396201E+03  0.19145705416E+03  0.00000000000E+00 0.  1.
</event>
<event>
 7    1  0.3265282E-009  0.1481032E+03  0.7561462E-02  0.1202823E+00
         -2   -1    0    0    0  501 -0.00000000000E+00  0.00000000000E+00  0.11085715537E+03  0.11085715537E+03  0.00000000000E+00 0. -1.
          2   -1    0    0  501    0  0.00000000000E+00 -0.00000000000E+00 -0.25735109457E+03  0.25735109457E+03  0.00000000000E+00 0.  1.
         25    2    1    2    0    0  0.10977357217E+03 -0.28989040365E+02 -0.13868809973E+03  0.21859424556E+03  0.12513374276E+03 0.  0.
          5    1    3    3  502    0  0.11103222461E+03  0.12476479710E+02 -0.13704264396E+03  0.17686711427E+03  0.41800000000E+01 0. -1.
         -5    1    3    3    0  502 -0.12586524356E+01 -0.41465520075E+02 -0.16454557670E+01  0.41727131290E+02  0.41800000000E+01 0. -1.
        -11    1    1    2    0    0 -0.10842493904E+03  0.51582012482E+02  0.10467563571E+02  0.12052485762E+03  0.00000000000E+00 0.  1.
         11    1    1    2    0    0 -0.13486331354E+01 -0.22592972117E+02 -0.18273403036E+02  0.29089146755E+02  0.00000000000E+00 0. -1.
</event>
<event>
 7    1  0.3265282E-009  0.1240849E+03  0.7561462E-02  0.1236506E+00
         -2   -1    0    0    0  501 -0.00000000000E+00  0.00000000000E+00  0.51153782399E+02  0.51153782399E+02  0.00000000000E+00 0.  1.
          2   -1    0    0  501    0  0.00000000000E+00 -0.00000000000E+00 -0.32197245642E+03  0.32197245642E+03  0.00000000000E+00 0. -1.
         25    2    1    2    0    0  0.23463733731E+02 -0.63039635134E+02 -0.13597953623E+03  0.19662860928E+03  0.12509129992E+03 0.  0.
          5    1    3    3  502    0  0.51752247781E+02 -0.87218055157E+02 -0.11616181986E+03  0.15426057529E+03  0.41800000000E+01 0. -1.
         -5    1    3    3    0  502 -0.28288514050E+02  0.24178420024E+02 -0.19817716365E+02  0.42368033987E+02  0.41800000000E+01 0. -1.
        -11    1    1    2    0    0 -0.48914420723E+02  0.67521737078E+02 -0.78510081791E+02  0.11452352804E+03  0.00000000000E+00 0.  1.
         11    1    1    2    0    0  0.25450686992E+02 -0.44821019446E+01 -0.56329056005E+02  0.61974101499E+02  0.00000000000E+00 0. -1.
</event>
<event>
 7    1  0.3265282E-009  0.8719717E+02  0.7561462E-02  0.1309785E+00
         -2   -1    0    0    0  501 -0.00000000000E+00  0.00000000000E+00  0.12782177695E+03  0.12782177695E+03  0.00000000000E+00 0.  1.
          2   -1    0    0  501    0  0.00000000000E+00 -0.00000000000E+00 -0.95841073403E+02  0.95841073403E+02  0.00000000000E+00 0. -1.
         25    2    1    2    0    0  0.30880330582E+01  0.18214982011E+02  0.48557482510E+02  0.13545076780E+03  0.12509100637E+03 0.  0.
          5    1    3    3  502    0 -0.38730196017E+01 -0.34856099136E+02 -0.25798553101E+02  0.43737691639E+02  0.41800000000E+01 0. -1.
         -5    1    3    3    0  502  0.69610526599E+01  0.53071081146E+02  0.74356035610E+02  0.91713076166E+02  0.41800000000E+01 0. -1.
        -11    1    1    2    0    0  0.94549541359E+01  0.32135517651E+02 -0.13859970071E+02  0.36251709239E+02  0.00000000000E+00 0.  1.
         11    1    1    2    0    0 -0.12542987194E+02 -0.50350499661E+02 -0.27168088917E+01  0.51960373309E+02  0.00000000000E+00 0. -1.
</event>
<event>
 7    1  0.3265282E-009  0.1347754E+03  0.7561462E-02  0.1220537E+00
          1   -1    0    0  501    0  0.00000000000E+00  0.00000000000E+00  0.34384716138E+03  0.34384716138E+03  0.00000000000E+00 0. -1.
         -1   -1    0    0    0  501 -0.00000000000E+00 -0.00000000000E+00 -0.61922166594E+02  0.61922166594E+02  0.00000000000E+00 0.  1.
         25    2    1    2    0    0 -0.24493152603E+02  0.82577649239E+02  0.91193607310E+02  0.17715405873E+03  0.12509318059E+03 0.  0.
          5    1    3    3  502    0  0.37047086563E+02  0.82094120287E+02  0.52357690997E+02  0.10426279977E+03  0.41800000000E+01 0.  1.
         -5    1    3    3    0  502 -0.61540239166E+02  0.48352895190E+00  0.38835916312E+02  0.72891258959E+02  0.41800000000E+01 0.  1.
        -11    1    1    2    0    0  0.50492226456E+02 -0.29191735588E+02  0.13550212281E+03  0.14752100747E+03  0.00000000000E+00 0. -1.
         11    1    1    2    0    0 -0.25999073853E+02 -0.53385913651E+02  0.55229264667E+02  0.81094261777E+02  0.00000000000E+00 0.  1.
</event>
<event>
 7    1  0.3265282E-009  0.1225231E+03  0.7561462E-02  0.1238992E+00
          1   -1    0    0  501    0  0.00000000000E+00  0.00000000000E+00  0.56098222394E+02  0.56098222394E+02  0.00000000000E+00 0. -1.
         -1   -1    0    0    0  501 -0.00000000000E+00 -0.00000000000E+00 -0.30259698987E+03  0.30259698987E+03  0.00000000000E+00 0.  1.
         25    2    1    2    0    0  0.72019035574E+02  0.24303590200E+00 -0.13467192973E+03  0.19740924599E+03  0.12508829358E+03 0.  0.
          5    1    3    3  502    0 -0.13227324581E+02 -0.44827203416E+02 -0.34026560381E+02  0.57963087332E+02  0.41800000000E+01 0. -1.
         -5    1    3    3    0  502  0.85246360155E+02  0.45070239318E+02 -0.10064536935E+03  0.13944615866E+03  0.41800000000E+01 0. -1.
        -11    1    1    2    0    0 -0.12238183344E+02  0.31588379173E+02 -0.79135466432E+02  0.86081478134E+02  0.00000000000E+00 0.  1.
         11    1    1    2    0    0 -0.59780852229E+02 -0.31831415075E+02 -0.32691371315E+02  0.75204488147E+02  0.00000000000E+00 0. -1.
</event>
<event>
 7    1  0.3265282E-009  0.9549842E+02  0.7561462E-02  0.1290057E+00
         -1   -1    0    0    0  501 -0.00000000000E+00  0.00000000000E+00  0.33073260540E+02  0.33073260540E+02  0.00000000000E+00 0.  1.
          1   -1    0    0  501    0  0.00000000000E+00 -0.00000000000E+00 -0.37848803988E+03  0.37848803988E+03  0.00000000000E+00 0. -1.
         25    2    1    2    0    0 -0.24927560995E+02 -0.96670855354E+01 -0.22575791062E+03  0.25947442176E+03  0.12508199510E+03 0.  0.
          5    1    3    3  502    0  0.21038271971E+02 -0.40128174011E+02 -0.18569010415E+03  0.19118359348E+03  0.41800000000E+01 0. -1.
         -5    1    3    3    0  502 -0.45965832966E+02  0.30461088476E+02 -0.40067806469E+02  0.68290828276E+02  0.41800000000E+01 0. -1.
        -11    1    1    2    0    0 -0.27619519876E+02  0.23045473004E+02 -0.69335479220E+02  0.78111077210E+02  0.00000000000E+00 0.  1.
         11    1    1    2    0    0  0.52547080871E+02 -0.13378387469E+02 -0.50321389498E+02  0.73975801451E+02  0.00000000000E+00 0. -1.
</event>
<event>
 7    1  0.3265282E-009  0.7787687E+02  0.7561462E-02  0.1335187E+00
         -1   -1    0    0    0  501 -0.00000000000E+00  0.00000000000E+00  0.54173262713E+02  0.54173262713E+02  0.00000000000E+00 0.  1.
          1   -1    0    0  501    0  0.00000000000E+00 -0.00000000000E+00 -0.22830453006E+03  0.22830453006E+03  0.00000000000E+00 0. -1.
         25    2    1    2    0    0 -0.21498803919E+02 -0.74781998699E+01 -0.87408410966E+02  0.15429321169E+03  0.12509213734E+03 0.  0.
          5    1    3    3  502    0 -0.52831383408E+02 -0.22093123090E+02 -0.10158848439E+03  0.11669170374E+03  0.41800000000E+01 0. -1.
         -5    1    3    3    0  502  0.31332579489E+02  0.14614923220E+02  0.14180073423E+02  0.37601507954E+02  0.41800000000E+01 0. -1.
        -11    1    1    2    0    0  0.41920560619E+02  0.95192565713E+01 -0.42510715074E+01  0.43197468181E+02  0.00000000000E+00 0.  1.
         11    1    1    2    0    0 -0.20421756700E+02 -0.20410567014E+01 -0.82471784876E+02  0.84987112904E+02  0.00000000000E+00 0. -1.
</event>
<event>
 7    1  0.3265282E-009  0.1292741E+03  0.7561462E-02  0.1228537E+00
         -1   -1    0    0    0  501 -0.00000000000E+00  0.00000000000E+00  0.67380681468E+02  0.67380681468E+02  0.00000000000E+00 0.  1.
          1   -1    0    0  501    0  0.00000000000E+00 -0.00000000000E+00 -0.35338156249E+03  0.35338156249E+03  0.00000000000E+00 0. -1.
         25    2    1    2    0    0  0.31124945669E+02  0.10581718844E+03 -0.16525484139E+03  0.23478326280E+03  0.12509187933E+03 0.  0.
          5    1    3    3  502    0  0.24706574989E+02  0.22523817757E+02  0.14376704083E+02  0.36631942814E+02  0.41800000000E+01 0. -1.
         -5    1    3    3    0  502  0.64183706804E+01  0.83293370679E+02 -0.17963154548E+03  0.19815131999E+03  0.41800000000E+01 0. -1.
        -11    1    1    2    0    0 -0.61692136214E+02 -0.59456041741E+02 -0.78522304020E+02  0.11621829804E+03  0.00000000000E+00 0. -1.
         11    1    1    2    0    0  0.30567190545E+02 -0.46361146696E+02 -0.42223735607E+02  0.69760683120E+02  0.00000000000E+00 0.  1.
</event>
<event>
 7    1  0.3265282E-009  0.1325663E+03  0.7561462E-02  0.1223697E+00
         -1   -1    0    0    0  501 -0.00000000000E+00  0.00000000000E+00  0.33102368536E+02  0.33102368536E+02  0.00000000000E+00 0.  1.
          1   -1    0    0  501    0  0.00000000000E+00 -0.00000000000E+00 -0.63150907428E+03  0.63150907428E+03  0.00000000000E+00 0. -1.
         25    2    1    2    0    0 -0.36497736564E+02  0.71160126753E+02 -0.21487274488E+03  0.26117403757E+03  0.12508290448E+03 0.  0.
          5    1    3    3  502    0 -0.75717241818E+02  0.15741812860E+02 -0.14016257677E+03  0.16013720900E+03  0.41800000000E+01 0. -1.
         -5    1    3    3    0  502  0.39219505254E+02  0.55418313893E+02 -0.74710168116E+02  0.10103682857E+03  0.41800000000E+01 0. -1.
        -11    1    1    2    0    0  0.54363994696E+02 -0.91483095665E+01 -0.11905917854E+03  0.13120298580E+03  0.00000000000E+00 0.  1.
         11    1    1    2    0    0 -0.17866258132E+02 -0.62011817187E+02 -0.26447478232E+03  0.27223441945E+03  0.00000000000E+00 0. -1.
</event>
<event>
 7    1  0.3265282E-009  0.2013167E+03  0.7561462E-02  0.1148633E+00
          2   -1    0    0  501    0  0.00000000000E+00  0.00000000000E+00  0.11229246483E+04  0.11229246483E+04  0.00000000000E+00 0. -1.
         -2   -1    0    0    0  501 -0.00000000000E+00 -0.00000000000E+00 -0.54093940823E+02  0.54093940823E+02  0.00000000000E+00 0.  1.
         25    2    1    2    0    0  0.21256638200E+02  0.19301431907E+03  0.80456367938E+03  0.83706449550E+03  0.12509150019E+03 0.  0.
          5    1    3    3  502    0  0.22887679552E+02  0.11671099700E+02  0.23029894312E+02  0.34754983463E+02  0.41800000000E+01 0. -1.
         -5    1    3    3    0  502 -0.16310413518E+01  0.18134321937E+03  0.78153378507E+03  0.80230951204E+03  0.41800000000E+01 0. -1.
        -11    1    1    2    0    0 -0.21580545123E+02 -0.10522211806E+03  0.74077576295E+02  0.13047950555E+03  0.00000000000E+00 0.  1.
         11    1    1    2    0    0  0.32390692246E+00 -0.87792201010E+02  0.19018945185E+03  0.20947458812E+03  0.00000000000E+00 0. -1.
</event>
<event>
 7    1  0.3265282E-009  0.1401470E+03  0.7561462E-02  0.1213131E+00
          1   -1    0    0  501    0  0.00000000000E+00  0.00000000000E+00  0.43367858291E+03  0.43367858291E+03  0.00000000000E+00 0. -1.
         -1   -1    0    0    0  501 -0.00000000000E+00 -0.00000000000E+00 -0.62620477118E+02  0.62620477118E+02  0.00000000000E+00 0.  1.
         25    2    1    2    0    0  0.94252162614E+02  0.32867589344E+02  0.30781395475E+03  0.34693073312E+03  0.12509098392E+03 0.  0.
          5    1    3    3  502    0  0.12324395096E+03  0.38736453939E+02  0.23449112364E+03  0.26775575396E+03  0.41800000000E+01 0.  1.
         -5    1    3    3    0  502 -0.28991788348E+02 -0.58688645954E+01  0.73322831109E+02  0.79174979160E+02  0.41800000000E+01 0.  1.
        -11    1    1    2    0    0 -0.98094699004E+02 -0.45374475378E+02  0.27817766218E+02  0.11160305151E+03  0.00000000000E+00 0. -1.
         11    1    1    2    0    0  0.38425363908E+01  0.12506886034E+02  0.35426384825E+02  0.37765275399E+02  0.00000000000E+00 0.  1.
</event>
<event>
 7    1  0.3265282E-009  0.1352370E+03  0.7561462E-02  0.1219886E+00
          2   -1    0    0  501    0  0.00000000000E+00  0.00000000000E+00  0.52002409977E+03  0.52002409977E+03  0.00000000000E+00 0. -1.
         -2   -1    0    0    0  501 -0.00000000000E+00 -0.00000000000E+00 -0.48946112190E+02  0.48946112190E+02  0.00000000000E+00 0.  1.
         25    2    1    2    0    0  0.97691047974E+02  0.51218661679E+02  0.19114166788E+03  0.25367120161E+03  0.12508816558E+03 0.  0.
          5    1    3    3  502    0  0.40694620699E+01  0.44574256311E+02  0.50868018002E+01  0.45241273190E+02  0.41800000000E+01 0.  1.
         -5    1    3    3    0  502  0.93621585905E+02  0.66444053674E+01  0.18605486608E+03  0.20842992842E+03  0.41800000000E+01 0.  1.
        -11    1    1    2    0    0 -0.42089117246E+02  0.15380239269E+02  0.16687200147E+03  0.17278399933E+03  0.00000000000E+00 0. -1.
         11    1    1    2    0    0 -0.55601930728E+02 -0.66598900948E+02  0.11306431823E+03  0.14251501102E+03  0.00000000000E+00 0.  1.
</event>
<event>
 7    1  0.3265282E-009  0.1732726E+03  0.7561462E-02  0.1174477E+00
         -2   -1    0    0    0  501 -0.00000000000E+00  0.00000000000E+00  0.20214956207E+02  0.20214956207E+02  0.00000000000E+00 0.  1.
          2   -1    0    0  501    0  0.00000000000E+00 -0.00000000000E+00 -0.23702938498E+04  0.23702938498E+04  0.00000000000E+00 0. -1.
         25    2    1    2    0    0 -0.70475643430E+02  0.13962362541E+03 -0.18243599662E+04  0.18353195803E+04  0.12508837867E+03 0.  0.
          5    1    3    3  502    0  0.14181458844E+02  0.89061443622E+01 -0.70051952860E+03  0.70073212823E+03  0.41800000000E+01 0. -1.
         -5    1    3    3    0  502 -0.84657102274E+02  0.13071748104E+03 -0.11238404376E+04  0.11345874521E+04  0.41800000000E+01 0. -1.
        -11    1    1    2    0    0  0.23862541725E+02 -0.12094450072E+03 -0.42690253797E+03  0.44434532751E+03  0.00000000000E+00 0. -1.
         11    1    1    2    0    0  0.46613101705E+02 -0.18679124682E+02 -0.98816389435E+02  0.11084389821E+03  0.00000000000E+00 0.  1.
</event>
<event>
 7    1  0.3265282E-009  0.1005351E+03  0.7561462E-02  0.1279175E+00
         -1   -1    0    0    0  501 -0.00000000000E+00  0.00000000000E+00  0.47423938593E+02  0.47423938593E+02  0.00000000000E+00 0.  1.
          1   -1    0    0  501    0  0.00000000000E+00 -0.00000000000E+00 -0.31608231238E+03  0.31608231238E+03  0.00000000000E+00 0. -1.
         25    2    1    2    0    0 -0.42465922380E+02 -0.30594270430E+02 -0.13113054593E+03  0.18863860011E+03  0.12509970995E+03 0.  0.
          5    1    3    3  502    0 -0.67342062810E+02 -0.28999694224E+02 -0.14296908118E+03  0.16072823729E+03  0.41800000000E+01 0.  1.
         -5    1    3    3    0  502  0.24876140431E+02 -0.15945762060E+01  0.11838535250E+02  0.27910362822E+02  0.41800000000E+01 0.  1.
        -11    1    1    2    0    0  0.34914562906E+02 -0.27081948703E+02 -0.87998257912E+02  0.98469041044E+02  0.00000000000E+00 0. -1.
         11    1    1    2    0    0  0.75513594732E+01  0.57676219133E+02 -0.49529569952E+02  0.76398609824E+02  0.00000000000E+00 0.  1.
</event>
<event>
 7    1  0.3265282E-009  0.1098523E+03  0.7561462E-02  0.1260844E+00
          3   -1    0    0  501    0  0.00000000000E+00  0.00000000000E+00  0.40191949249E+02  0.40191949249E+02  0.00000000000E+00 0. -1.
         -3   -1    0    0    0  501 -0.00000000000E+00 -0.00000000000E+00 -0.39097084362E+03  0.39097084362E+03  0.00000000000E+00 0.  1.
         25    2    1    2    0    0  0.17269195909E+02 -0.28080887392E+02 -0.10544365507E+03  0.16689072072E+03  0.12508951556E+03 0.  0.
          5    1    3    3  502    0  0.31371196761E+02  0.43415333763E+02 -0.61617145282E+02  0.81750768710E+02  0.41800000000E+01 0.  1.
         -5    1    3    3    0  502 -0.14102000851E+02 -0.71496221155E+02 -0.43826509787E+02  0.85139952006E+02  0.41800000000E+01 0.  1.
        -11    1    1    2    0    0  0.74309711146E+01 -0.29451431951E+02 -0.12482982552E+03  0.12847214296E+03  0.00000000000E+00 0. -1.
         11    1    1    2    0    0 -0.24700167024E+02  0.57532319342E+02 -0.12050541378E+03  0.13579992920E+03  0.00000000000E+00 0.  1.
</event>
<event>
 7    1  0.3265282E-009  0.1443152E+03  0.7561462E-02  0.1207638E+00
          4   -1    0    0  501    0  0.00000000000E+00  0.00000000000E+00  0.65479925272E+03  0.65479925272E+03  0.00000000000E+00 0. -1.
         -4   -1    0    0    0  501 -0.00000000000E+00 -0.00000000000E+00 -0.41522842010E+02  0.41522842010E+02  0.00000000000E+00 0.  1.
         25    2    1    2    0    0 -0.96683779427E+02 -0.16597001076E+02  0.49014467732E+03  0.51527824922E+03  0.12508659308E+03 0.  0.
          5    1    3    3  502    0 -0.10954572813E+03  0.27333231456E+02  0.34481104100E+03  0.36284914012E+03  0.41800000000E+01 0.  1.
         -5    1    3    3    0  502  0.12861948701E+02 -0.43930232532E+02  0.14533363632E+03  0.15242910910E+03  0.41800000000E+01 0.  1.
        -11    1    1    2    0    0 -0.11126166144E+02  0.18806570114E+02  0.79223277384E+01  0.23243104984E+02  0.00000000000E+00 0.  1.
         11    1    1    2    0    0  0.10780994557E+03 -0.22095690376E+01  0.11520940565E+03  0.15780074053E+03  0.00000000000E+00 0. -1.
</event>
<event>
 7    1  0.3265282E-009  0.1090300E+03  0.7561462E-02  0.1262377E+00
         -1   -1    0    0    0  501 -0.00000000000E+00  0.00000000000E+00  0.22136870785E+02  0.22136870785E+02  0.00000000000E+00 0.  1.
          1   -1    0    0  501    0  0.00000000000E+00 -0.00000000000E+00 -0.68287436824E+03  0.68287436824E+03  0.00000000000E+00 0. -1.
         25    2    1    2    0    0  0.43372971622E+02 -0.45642704082E+02 -0.52485298116E+03  0.54321585754E+03  0.12509334489E+03 0.  0.
          5    1    3    3  502    0  0.86652833472E+02 -0.27809061815E+02 -0.30108145645E+03  0.31456251093E+03  0.41800000000E+01 0.  1.
         -5    1    3    3    0  502 -0.43279861850E+02 -0.17833642267E+02 -0.22377152472E+03  0.22865334660E+03  0.41800000000E+01 0.  1.
        -11    1    1    2    0    0 -0.54092675395E+02  0.32908865664E+02 -0.72474292167E+02  0.96236864017E+02  0.00000000000E+00 0. -1.
         11    1    1    2    0    0  0.10719703773E+02  0.12733838418E+02 -0.63410224121E+02  0.65558517470E+02  0.00000000000E+00 0.  1.
</event>
<event>
 7    1  0.3265282E-009  0.1828153E+03  0.7561462E-02  0.1165106E+00
          2   -1    0    0  501    0  0.00000000000E+00  0.00000000000E+00  0.77159801408E+03  0.77159801408E+03  0.00000000000E+00 0. -1.
         -2   -1    0    0    0  501 -0.00000000000E+00 -0.00000000000E+00 -0.90128744713E+02  0.90128744713E+02  0.00000000000E+00 0.  1.
         25    2    1    2    0    0  0.17195361580E+03  0.48079109876E+02  0.89146330278E+02  0.23552993903E+03  0.12509051595E+03 0.  0.
          5    1    3    3  502    0  0.47069941103E+02  0.39911356752E+02  0.91313297508E+02  0.11029091737E+03  0.41800000000E+01 0.  1.
         -5    1    3    3    0  502  0.12488367470E+03  0.81677531240E+01 -0.21669672301E+01  0.12523902166E+03  0.41800000000E+01 0.  1.
        -11    1    1    2    0    0 -0.63379129570E+02 -0.16922085531E+02  0.90237258880E+02  0.11156179424E+03  0.00000000000E+00 0.  1.
         11    1    1    2    0    0 -0.10857448623E+03 -0.31157024345E+02  0.50208568021E+03  0.51463502552E+03  0.00000000000E+00 0. -1.
</event>
<event>
 7    1  0.3265282E-009  0.2615564E+03  0.7561462E-02  0.1106212E+00
          1   -1    0    0  501    0  0.00000000000E+00  0.00000000000E+00  0.22814532002E+04  0.22814532002E+04  0.00000000000E+00 0. -1.
         -1   -1    0    0    0  501 -0.00000000000E+00 -0.00000000000E+00 -0.38429420431E+02  0.38429420431E+02  0.00000000000E+00 0.  1.
         25    2    1    2    0    0 -0.26397956700E+02 -0.25339930137E+03  0.73697188664E+03  0.78973624173E+03  0.12509081401E+03 0.  0.
          5    1    3    3  502    0  0.15624192707E+02 -0.17049161347E+03  0.32469852087E+03  0.36709413986E+03  0.41800000000E+01 0.  1.
         -5    1    3    3    0  502 -0.42022149407E+02 -0.82907687907E+02  0.41227336577E+03  0.42264210187E+03  0.41800000000E+01 0.  1.
        -11    1    1    2    0    0  0.10005224577E+02  0.78509172305E+01  0.18967004581E+02  0.22836126707E+02  0.00000000000E+00 0.  1.
         11    1    1    2    0    0  0.16392732123E+02  0.24554838414E+03  0.14870848886E+04  0.15073102522E+04  0.00000000000E+00 0. -1.
</event>
<event>
 7    1  0.3265282E-009  0.7451500E+02  0.7561462E-02  0.1345380E+00
          2   -1    0    0  501    0  0.00000000000E+00  0.00000000000E+00  0.30376431338E+03  0.30376431338E+03  0.00000000000E+00 0. -1.
         -2   -1    0    0    0  501 -0.00000000000E+00 -0.00000000000E+00 -0.40601937003E+02  0.40601937003E+02  0.00000000000E+00 0.  1.
         25    2    1    2    0    0  0.20591093267E+02 -0.19716747475E+02  0.14140835539E+03  0.19093709981E+03  0.12509160585E+03 0.  0.
          5    1    3    3  502    0  0.26477242693E+01 -0.36435251053E+02 -0.95118488783E+01  0.37980068881E+02  0.41800000000E+01 0. -1.
         -5    1    3    3    0  502  0.17943368998E+02  0.16718503578E+02  0.15092020427E+03  0.15295703093E+03  0.41800000000E+01 0. -1.
        -11    1    1    2    0    0 -0.23230110559E+02  0.50971641977E+02  0.10197642243E+03  0.11634834358E+03  0.00000000000E+00 0. -1.
         11    1    1    2    0    0  0.26390172917E+01 -0.31254894502E+02  0.19777598550E+02  0.37080806989E+02  0.00000000000E+00 0.  1.
</event>
<event>
 7    1  0.3265282E-009  0.9402752E+02  0.7561462E-02  0.1293382E+00
          3   -1    0    0  501    0  0.00000000000E+00  0.00000000000E+00  0.47966954859E+02  0.47966954859E+02  0.00000000000E+00 0. -1.
         -3   -1    0    0    0  501 -0.00000000000E+00 -0.00000000000E+00 -0.29698894654E+03  0.29698894654E+03  0.00000000000E+00 0.  1.
         25    2    1    2    0    0 -0.38215781331E+02  0.84420969726E+01 -0.18706173747E+03  0.22841051793E+03  0.12509019199E+03 0.  0.
          5    1    3    3  502    0 -0.11394573603E+02 -0.51411034648E+02 -0.13368985824E+03  0.14374763090E+03  0.41800000000E+01 0.  1.
         -5    1    3    3    0  502 -0.26821207728E+02  0.59853131621E+02 -0.53371879230E+02  0.84662887036E+02  0.41800000000E+01 0.  1.
        -11    1    1    2    0    0 -0.13424247128E+02 -0.11644029111E+02  0.15375059616E+02  0.23498644281E+02  0.00000000000E+00 0. -1.
         11    1    1    2    0    0  0.51640028459E+02  0.32019321384E+01 -0.77335313826E+02  0.93046739186E+02  0.00000000000E+00 0.  1.
</event>
<event>
 7    1  0.3265282E-009  0.1329362E+03  0.7561462E-02  0.1223163E+00
         -1   -1    0    0    0  501 -0.00000000000E+00  0.00000000000E+00  0.24538634773E+02  0.24538634773E+02  0.00000000000E+00 0.  1.
          1   -1    0    0  501    0  0.00000000000E+00 -0.00000000000E+00 -0.10627753257E+04  0.10627753257E+04  0.00000000000E+00 0. -1.
         25    2    1    2    0    0 -0.88254238967E+02  0.34561900661E+02 -0.79872484257E+03  0.81399850978E+03  0.12509542005E+03 0.  0.
          5    1    3    3  502    0 -0.10905811243E+03  0.12992540883E+02 -0.42259913253E+03  0.43665773464E+03  0.41800000000E+01 0.  1.
         -5    1    3    3    0  502  0.20803873467E+02  0.21569359778E+02 -0.37612571003E+03  0.37734077514E+03  0.41800000000E+01 0.  1.
        -11    1    1    2    0    0 -0.76107473444E+01  0.15712158254E+02 -0.70349967093E+02  0.72483882775E+02  0.00000000000E+00 0. -1.
         11    1    1    2    0    0  0.95864986312E+02 -0.50274058914E+02 -0.16916188130E+03  0.20083156795E+03  0.00000000000E+00 0.  1.
</event>
<event>
 7    1  0.3265282E-009  0.1572684E+03  0.7561462E-02  0.1191816E+00
          1   -1    0    0  501    0  0.00000000000E+00  0.00000000000E+00  0.69906012646E+03  0.69906012646E+03  0.00000000000E+00 0. -1.
         -1   -1    0    0    0  501 -0.00000000000E+00 -0.00000000000E+00 -0.50519446607E+02  0.50519446607E+02  0.00000000000E+00 0.  1.
         25    2    1    2    0    0 -0.39219605490E+02  0.14271916540E+03  0.26824736556E+03  0.33092724256E+03  0.12509697484E+03 0.  0.
          5    1    3    3  502    0  0.16614283829E+02  0.23387692365E+02  0.15335019549E+03  0.15606656733E+03  0.41800000000E+01 0. -1.
         -5    1    3    3    0  502 -0.55833889319E+02  0.11933147303E+03  0.11489717007E+03  0.17486067523E+03  0.41800000000E+01 0. -1.
        -11    1    1    2    0    0 -0.53451127597E+01 -0.55785299787E+02  0.24768127548E+03  0.25394208814E+03  0.00000000000E+00 0.  1.
         11    1    1    2    0    0  0.44564718250E+02 -0.86933865613E+02  0.13261203881E+03  0.16471024236E+03  0.00000000000E+00 0. -1.
</event>
<event>
 7    1  0.3265282E-009  0.1346260E+03  0.7561462E-02  0.1220749E+00
          2   -1    0    0  501    0  0.00000000000E+00  0.00000000000E+00  0.61186965070E+02  0.61186965070E+02  0.00000000000E+00 0. -1.
         -2   -1    0    0    0  501 -0.00000000000E+00 -0.00000000000E+00 -0.59960700400E+03  0.59960700400E+03  0.00000000000E+00 0.  1.
         25    2    1    2    0    0 -0.82341524345E+02  0.32901198751E+02 -0.57864483550E+02  0.16388682805E+03  0.12509188000E+03 0.  0.
          5    1    3    3  502    0 -0.78574490627E+02  0.70175886500E+02 -0.14495886618E+02  0.10642466233E+03  0.41800000000E+01 0. -1.
         -5    1    3    3    0  502 -0.37670337185E+01 -0.37274687748E+02 -0.43368596932E+02  0.57462165723E+02  0.41800000000E+01 0. -1.
        -11    1    1    2    0    0  0.83198189429E+02 -0.57738378199E+02 -0.37149718907E+03  0.38505301002E+03  0.00000000000E+00 0. -1.
         11    1    1    2    0    0 -0.85666508377E+00  0.24837179448E+02 -0.10905836632E+03  0.11185413100E+03  0.00000000000E+00 0.  1.
</event>
<event>
 7    1  0.3265282E-009  0.1213891E+03  0.7561462E-02  0.1240823E+00
          1   -1    0    0  501    0  0.00000000000E+00  0.00000000000E+00  0.58975917823E+02  0.58975917823E+02  0.00000000000E+00 0. -1.
         -1   -1    0    0    0  501 -0.00000000000E+00 -0.00000000000E+00 -0.35354083428E+03  0.35354083428E+03  0.00000000000E+00 0.  1.
         25    2    1    2    0    0 -0.58805344878E+02  0.74619150161E+02 -0.17565703641E+03  0.23562455922E+03  0.12504979931E+03 0.  0.
          5    1    3    3  502    0  0.69510378085E+01 -0.22105977446E+02 -0.83222234221E+02  0.86489327863E+02  0.41800000000E+01 0. -1.
         -5    1    3    3    0  502 -0.65756382687E+02  0.96725127607E+02 -0.92434802191E+02  0.14913523135E+03  0.41800000000E+01 0. -1.
        -11    1    1    2    0    0  0.22180430376E+02 -0.57769850966E+02 -0.12538222355E+02  0.63139006898E+02  0.00000000000E+00 0. -1.
         11    1    1    2    0    0  0.36624914502E+02 -0.16849299196E+02 -0.10636965769E+03  0.11375318599E+03  0.00000000000E+00 0.  1.
</event>
<event>
 7    1  0.3265282E-009  0.1046209E+03  0.7561462E-02  0.1270868E+00
         -2   -1    0    0    0  501 -0.00000000000E+00  0.00000000000E+00  0.15565579966E+03  0.15565579966E+03  0.00000000000E+00 0.  1.
          2   -1    0    0  501    0  0.00000000000E+00 -0.00000000000E+00 -0.11556691028E+03  0.11556691028E+03  0.00000000000E+00 0. -1.
         25    2    1    2    0    0  0.12724494273E+02  0.33789157206E+02 -0.49058547810E+02  0.13912911656E+03  0.12508617055E+03 0.  0.
          5    1    3    3  502    0  0.38273307128E+02 -0.34726975059E+02 -0.39674138076E+02  0.65286434022E+02  0.41800000000E+01 0. -1.
         -5    1    3    3    0  502 -0.25548812855E+02  0.68516132265E+02 -0.93844097337E+01  0.73842682542E+02  0.41800000000E+01 0. -1.
        -11    1    1    2    0    0  0.29867633696E+02 -0.13865818105E+00  0.67208627101E+02  0.73546545300E+02  0.00000000000E+00 0.  1.
         11    1    1    2    0    0 -0.42592127969E+02 -0.33650499025E+02  0.21938810090E+02  0.58547048070E+02  0.00000000000E+00 0. -1.
</event>
<event>
 7    1  0.3265282E-009  0.1182597E+03  0.7561462E-02  0.1245996E+00
          2   -1    0    0  501    0  0.00000000000E+00  0.00000000000E+00  0.44229228794E+03  0.44229228794E+03  0.00000000000E+00 0.  1.
         -2   -1    0    0    0  501 -0.00000000000E+00 -0.00000000000E+00 -0.42557439884E+02  0.42557439884E+02  0.00000000000E+00 0. -1.
         25    2    1    2    0    0  0.57963938128E+02  0.57277799924E+02  0.18502147572E+03  0.23774472459E+03  0.12509613544E+03 0.  0.
          5    1    3    3  502    0  0.46645542099E+02 -0.90952605548E+01  0.15804769870E+03  0.16509111977E+03  0.41800000000E+01 0.  1.
         -5    1    3    3    0  502  0.11318396030E+02  0.66373060479E+02  0.26973777020E+02  0.72653604816E+02  0.41800000000E+01 0.  1.
        -11    1    1    2    0    0 -0.77713350455E+02 -0.21744426384E+02  0.12766292356E+03  0.15102982146E+03  0.00000000000E+00 0. -1.
         11    1    1    2    0    0  0.19749412326E+02 -0.35533373541E+02  0.87050448773E+02  0.96075181780E+02  0.00000000000E+00 0.  1.
</event>
<event>
 7    1  0.3265282E-009  0.1364851E+03  0.7561462E-02  0.1218138E+00
         -1   -1    0    0    0  501 -0.00000000000E+00  0.00000000000E+00  0.10903540183E+04  0.10903540183E+04  0.00000000000E+00 0.  1.
          1   -1    0    0  501    0  0.00000000000E+00 -0.00000000000E+00 -0.25613719950E+02  0.25613719950E+02  0.00000000000E+00 0. -1.
         25    2    1    2    0    0 -0.11580004148E+03  0.16149044733E+02  0.73267076443E+03  0.75241254406E+03  0.12509095151E+03 0.  0.
          5    1    3    3  502    0 -0.12752947910E+02  0.22911239181E+02  0.46071998141E+03  0.46148449187E+03  0.41800000000E+01 0.  1.
         -5    1    3    3    0  502 -0.10304709357E+03 -0.67621944481E+01  0.27195078302E+03  0.29092805219E+03  0.41800000000E+01 0.  1.
        -11    1    1    2    0    0  0.85917767635E+02  0.27460110893E+02  0.16150426268E+03  0.18498526252E+03  0.00000000000E+00 0. -1.
         11    1    1    2    0    0  0.29882273843E+02 -0.43609155626E+02  0.17056527120E+03  0.17856993163E+03  0.00000000000E+00 0.  1.
</event>
<event>
 7    1  0.3265282E-009  0.2334781E+03  0.7561462E-02  0.1124215E+00
         -1   -1    0    0    0  501 -0.00000000000E+00  0.00000000000E+00  0.42521250299E+03  0.42521250299E+03  0.00000000000E+00 0.  1.
          1   -1    0    0  501    0  0.00000000000E+00 -0.00000000000E+00 -0.14684601800E+03  0.14684601800E+03  0.00000000000E+00 0. -1.
         25    2    1    2    0    0  0.15450289479E+03  0.14500513252E+03  0.59465129684E+02  0.25314244730E+03  0.12508942412E+03 0.  0.
          5    1    3    3  502    0  0.29370459043E+02  0.10830119761E+03  0.69721609459E+01  0.11250714064E+03  0.41800000000E+01 0. -1.
         -5    1    3    3    0  502  0.12513243574E+03  0.36703934908E+02  0.52492968738E+02  0.14063530666E+03  0.41800000000E+01 0. -1.
        -11    1    1    2    0    0 -0.44921358137E+02 -0.92182869808E+02  0.14142797057E+03  0.17469253208E+03  0.00000000000E+00 0.  1.
         11    1    1    2    0    0 -0.10958153665E+03 -0.52822262708E+02  0.77473384727E+02  0.14422354160E+03  0.00000000000E+00 0. -1.
</event>
<event>
 7    1  0.3265282E-009  0.1038553E+03  0.7561462E-02  0.1272391E+00
         -2   -1    0    0    0  501 -0.00000000000E+00  0.00000000000E+00  0.18780096783E+02  0.18780096783E+02  0.00000000000E+00 0.  1.
          2   -1    0    0  501    0  0.00000000000E+00 -0.00000000000E+00 -0.86338829099E+03  0.86338829099E+03  0.00000000000E+00 0. -1.
         25    2    1    2    0    0 -0.14698044952E+02  0.37812373115E+02 -0.65883412183E+03  0.67182969179E+03  0.12508767565E+03 0.  0.
          5    1    3    3  502    0 -0.63987878100E+01  0.73118722773E+02 -0.23044546140E+03  0.24188814602E+03  0.41800000000E+01 0. -1.
         -5    1    3    3    0  502 -0.82992571424E+01 -0.35306349659E+02 -0.42838866043E+03  0.42994154577E+03  0.41800000000E+01 0. -1.
        -11    1    1    2    0    0  0.23587853610E+02 -0.64964636928E+02 -0.11736673984E+03  0.13620478152E+03  0.00000000000E+00 0.  1.
         11    1    1    2    0    0 -0.88898086572E+01  0.27152263813E+02 -0.68407332545E+02  0.74133914466E+02  0.00000000000E+00 0. -1.
</event>
<event>
 7    1  0.3265282E-009  0.1042088E+03  0.7561462E-02  0.1271686E+00
         -2   -1    0    0    0  501 -0.00000000000E+00  0.00000000000E+00  0.28091729379E+02  0.28091729379E+02  0.00000000000E+00 0.  1.
          2   -1    0    0  501    0  0.00000000000E+00 -0.00000000000E+00 -0.45104765179E+03  0.45104765179E+03  0.00000000000E+00 0. -1.
         25    2    1    2    0    0 -0.21559619429E+02  0.73913419784E+01 -0.19775022635E+03  0.23510035385E+03  0.12509026835E+03 0.  0.
          5    1    3    3  502    0 -0.21666116241E+02  0.61324582484E+02 -0.14754234374E+03  0.16129581708E+03  0.41800000000E+01 0. -1.
         -5    1    3    3    0  502  0.10649681185E+00 -0.53933240505E+02 -0.50207882610E+02  0.73804536779E+02  0.41800000000E+01 0. -1.
        -11    1    1    2    0    0  0.17121867950E+02 -0.46622798494E+02 -0.16266490713E+03  0.17007855748E+03  0.00000000000E+00 0. -1.
         11    1    1    2    0    0  0.44377514791E+01  0.39231456516E+02 -0.62540788925E+02  0.73960469833E+02  0.00000000000E+00 0.  1.
</event>
<event>
 7    1  0.3265282E-009  0.8494583E+02  0.7561462E-02  0.1315574E+00
          1   -1    0    0  501    0  0.00000000000E+00  0.00000000000E+00  0.11511578916E+03  0.11511578916E+03  0.00000000000E+00 0. -1.
         -1   -1    0    0    0  501 -0.00000000000E+00 -0.00000000000E+00 -0.22044635281E+03  0.22044635281E+03  0.00000000000E+00 0.  1.
         25    2    1    2    0    0 -0.45604550182E+02 -0.73054794873E+01  0.57695621075E+02  0.14529193914E+03  0.12509123815E+03 0.  0.
          5    1    3    3  502    0 -0.18223254501E+02  0.25502067116E+02 -0.32532766663E+02  0.45368444304E+02  0.41800000000E+01 0.  1.
         -5    1    3    3    0  502 -0.27381295681E+02 -0.32807546604E+02  0.90228387738E+02  0.99923494841E+02  0.41800000000E+01 0.  1.
        -11    1    1    2    0    0  0.70115667841E+02  0.93553890084E+01 -0.98939546592E+02  0.12162550744E+03  0.00000000000E+00 0. -1.
         11    1    1    2    0    0 -0.24511117659E+02 -0.20499095210E+01 -0.64086638134E+02  0.68644695391E+02  0.00000000000E+00 0.  1.
</event>
<event>
 7    1  0.3265282E-009  0.8051876E+02  0.7561462E-02  0.1327586E+00
          2   -1    0    0  501    0  0.00000000000E+00  0.00000000000E+00  0.60396606091E+02  0.60396606091E+02  0.00000000000E+00 0. -1.
         -2   -1    0    0    0  501 -0.00000000000E+00 -0.00000000000E+00 -0.23938461514E+03  0.23938461514E+03  0.00000000000E+00 0.  1.
         25    2    1    2    0    0 -0.48104875460E+02  0.14207710167E+02 -0.11543937404E+03  0.17745281771E+03  0.12508922960E+03 0.  0.
          5    1    3    3  502    0 -0.75779469938E+02 -0.48903088479E+01 -0.23705048014E+02  0.79660811483E+02  0.41800000000E+01 0. -1.
         -5    1    3    3    0  502  0.27674594478E+02  0.19098019015E+02 -0.91734326026E+02  0.97792006223E+02  0.41800000000E+01 0. -1.
        -11    1    1    2    0    0  0.34443513136E+02 -0.14659026176E+02 -0.87265093613E+02  0.94954932515E+02  0.00000000000E+00 0.  1.
         11    1    1    2    0    0  0.13661362324E+02  0.45131600909E+00  0.23716458601E+02  0.27373471012E+02  0.00000000000E+00 0. -1.
</event>
<event>
 7    1  0.3265282E-009  0.1564594E+03  0.7561462E-02  0.1192753E+00
          1   -1    0    0  501    0  0.00000000000E+00  0.00000000000E+00  0.74424481913E+03  0.74424481913E+03  0.00000000000E+00 0. -1.
         -1   -1    0    0    0  501 -0.00000000000E+00 -0.00000000000E+00 -0.44846958264E+02  0.44846958264E+02  0.00000000000E+00 0.  1.
         25    2    1    2    0    0 -0.14140600045E+03 -0.28029972395E+02  0.31123704774E+03  0.36509762630E+03  0.12508573272E+03 0.  0.
          5    1    3    3  502    0 -0.87497383116E+02 -0.47968554126E+01  0.58131676605E+02  0.10524051548E+03  0.41800000000E+01 0. -1.
         -5    1    3    3    0  502 -0.53908617337E+02 -0.23233116983E+02  0.25310537113E+03  0.25985711082E+03  0.41800000000E+01 0. -1.
        -11    1    1    2    0    0  0.14009859463E+03  0.46659731419E+02  0.30637936880E+03  0.34010743065E+03  0.00000000000E+00 0.  1.
         11    1    1    2    0    0  0.13074058282E+01 -0.18629759023E+02  0.81781444328E+02  0.83886720449E+02  0.00000000000E+00 0. -1.
</event>
<event>
 7    1  0.3265282E-009  0.1387592E+03  0.7561462E-02  0.1215008E+00
          1   -1    0    0  501    0  0.00000000000E+00  0.00000000000E+00  0.16682768130E+04  0.16682768130E+04  0.00000000000E+00 0. -1.
         -1   -1    0    0    0  501 -0.00000000000E+00 -0.00000000000E+00 -0.15231839504E+02  0.15231839504E+02  0.00000000000E+00 0.  1.
         25    2    1    2    0    0  0.88269438478E+02 -0.60531588101E+02  0.11109278359E+04  0.11230604589E+04  0.12509424757E+03 0.  0.
          5    1    3    3  502    0  0.10486147324E+03 -0.51096081593E+02  0.10812237120E+04  0.10875058280E+04  0.41800000000E+01 0. -1.
         -5    1    3    3    0  502 -0.16592034766E+02 -0.94355065078E+01  0.29704123937E+02  0.35554630917E+02  0.41800000000E+01 0. -1.
        -11    1    1    2    0    0 -0.16217614328E+02 -0.24763530390E+02  0.89762008618E+02  0.94516991292E+02  0.00000000000E+00 0.  1.
         11    1    1    2    0    0 -0.72051824150E+02  0.85295118491E+02  0.45235512898E+03  0.46593120235E+03  0.00000000000E+00 0. -1.
</event>
<event>
 7    1  0.3265282E-009  0.1023458E+03  0.7561462E-02  0.1275439E+00
         -2   -1    0    0    0  501 -0.00000000000E+00  0.00000000000E+00  0.40230057591E+02  0.40230057591E+02  0.00000000000E+00 0.  1.
          2   -1    0    0  501    0  0.00000000000E+00 -0.00000000000E+00 -0.42992068496E+03  0.42992068496E+03  0.00000000000E+00 0. -1.
         25    2    1    2    0    0  0.27599261593E+02  0.70243312081E+02 -0.20517966684E+03  0.25187617359E+03  0.12508824487E+03 0.  0.
          5    1    3    3  502    0 -0.62079012341E+01  0.54684287580E+02 -0.13835578106E+02  0.56901713220E+02  0.41800000000E+01 0. -1.
         -5    1    3    3    0  502  0.33807162827E+02  0.15559024501E+02 -0.19134408874E+03  0.19497446037E+03  0.41800000000E+01 0. -1.
        -11    1    1    2    0    0 -0.53220657791E+02 -0.22332495491E+02 -0.64591096287E+02  0.86620947179E+02  0.00000000000E+00 0. -1.
         11    1    1    2    0    0  0.25621396197E+02 -0.47910816590E+02 -0.11991986423E+03  0.13165362178E+03  0.00000000000E+00 0.  1.
</event>
<event>
 7    1  0.3265282E-009  0.1130498E+03  0.7561462E-02  0.1255024E+00
          1   -1    0    0  501    0  0.00000000000E+00  0.00000000000E+00  0.53517605330E+02  0.53517605330E+02  0.00000000000E+00 0. -1.
         -1   -1    0    0    0  501 -0.00000000000E+00 -0.00000000000E+00 -0.67019393250E+03  0.67019393250E+03  0.00000000000E+00 0.  1.
         25    2    1    2    0    0 -0.25524778482E+02  0.90943217803E+02 -0.88838533421E+02  0.18017403543E+03  0.12509282491E+03 0.  0.
          5    1    3    3  502    0  0.37028957029E+01  0.67681998153E+01  0.30184409166E+02  0.31433913565E+02  0.41800000000E+01 0.  1.
         -5    1    3    3    0  502 -0.29227674185E+02  0.84175017987E+02 -0.11902294259E+03  0.14874012187E+03  0.41800000000E+01 0.  1.
        -11    1    1    2    0    0 -0.10220224187E+02 -0.91799665498E+02 -0.41566671642E+03  0.42580564899E+03  0.00000000000E+00 0.  1.
         11    1    1    2    0    0  0.35745002669E+02  0.85644769535E+00 -0.11217107732E+03  0.11773185340E+03  0.00000000000E+00 0. -1.
</event>
<event>
 7    1  0.3265282E-009  0.1623858E+03  0.7561462E-02  0.1186029E+00
         -1   -1    0    0    0  501 -0.00000000000E+00  0.00000000000E+00  0.27980133526E+03  0.27980133526E+03  0.00000000000E+00 0.  1.
          1   -1    0    0  501    0  0.00000000000E+00 -0.00000000000E+00 -0.14935675926E+03  0.14935675926E+03  0.00000000000E+00 0. -1.
         25    2    1    2    0    0 -0.74700586443E+02  0.14063962937E+03 -0.52311846342E+00  0.20250359540E+03  0.12509096504E+03 0.  0.
          5    1    3    3  502    0 -0.60725519894E+02  0.69911100241E+02  0.58175924062E+02  0.10943976080E+03  0.41800000000E+01 0.  1.
         -5    1    3    3    0  502 -0.13975066549E+02  0.70728529126E+02 -0.58699042525E+02  0.93063834602E+02  0.41800000000E+01 0.  1.
        -11    1    1    2    0    0  0.95214808683E+01 -0.29694586329E+02  0.84125370399E+02  0.89719033654E+02  0.00000000000E+00 0.  1.
         11    1    1    2    0    0  0.65179105574E+02 -0.11094504304E+03  0.46842324067E+02  0.13693546547E+03  0.00000000000E+00 0. -1.
</event>
<event>
 7    1  0.3265282E-009  0.1277394E+03  0.7561462E-02  0.1230849E+00
          1   -1    0    0  501    0  0.00000000000E+00  0.00000000000E+00  0.61101989684E+02  0.61101989684E+02  0.00000000000E+00 0. -1.
         -1   -1    0    0    0  501 -0.00000000000E+00 -0.00000000000E+00 -0.32820217147E+03  0.32820217147E+03  0.00000000000E+00 0.  1.
         25    2    1    2    0    0  0.37536363696E+02 -0.78091616888E+02 -0.13068248971E+03  0.20057671569E+03  0.12508327838E+03 0.  0.
          5    1    3    3  502    0  0.16462382761E+02 -0.97456679698E+02 -0.13888256848E+03  0.17051291650E+03  0.41800000000E+01 0.  1.
         -5    1    3    3    0  502  0.21073980934E+02  0.19365062810E+02  0.82000787686E+01  0.30063799192E+02  0.41800000000E+01 0.  1.
        -11    1    1    2    0    0  0.79984886184E+01  0.81570531109E+02 -0.10542107543E+03  0.13353400507E+03  0.00000000000E+00 0.  1.
         11    1    1    2    0    0 -0.45534852314E+02 -0.34789142211E+01 -0.30996616644E+02  0.55193440396E+02  0.00000000000E+00 0. -1.
</event>
<event>
 7    1  0.3265282E-009  0.1504697E+03  0.7561462E-02  0.1199897E+00
         -1   -1    0    0    0  501 -0.00000000000E+00  0.00000000000E+00  0.35626290660E+03  0.35626290660E+03  0.00000000000E+00 0.  1.
          1   -1    0    0  501    0  0.00000000000E+00 -0.00000000000E+00 -0.14063407107E+03  0.14063407107E+03  0.00000000000E+00 0. -1.
         25    2    1    2    0    0  0.91644923248E+02  0.74147087441E+02  0.28274940763E+03  0.33089993536E+03  0.12510378562E+03 0.  0.
          5    1    3    3  502    0 -0.19784327734E+02  0.42414496105E+02  0.39307065960E+02  0.61261137258E+02  0.41800000000E+01 0.  1.
         -5    1    3    3    0  502  0.11142925098E+03  0.31732591336E+02  0.24344234167E+03  0.26963879810E+03  0.41800000000E+01 0.  1.
        -11    1    1    2    0    0 -0.83777691610E+02 -0.23848133564E+02 -0.72498245507E+01  0.87407065172E+02  0.00000000000E+00 0.  1.
         11    1    1    2    0    0 -0.78672316377E+01 -0.50298953877E+02 -0.59870747539E+02  0.78589977133E+02  0.00000000000E+00 0. -1.
</event>
<event>
 7    1  0.3265282E-009  0.2124844E+03  0.7561462E-02  0.1139614E+00
         -2   -1    0    0    0  501 -0.00000000000E+00  0.00000000000E+00  0.11751743154E+03  0.11751743154E+03  0.00000000000E+00 0. -1.
          2   -1    0    0  501    0  0.00000000000E+00 -0.00000000000E+00 -0.44936134058E+03  0.44936134058E+03  0.00000000000E+00 0.  1.
         25    2    1    2    0    0 -0.20185285002E+03  0.18118937246E+01 -0.14336564102E+03  0.27739730004E+03  0.12509076314E+03 0.  0.
          5    1    3    3  502    0 -0.18484693100E+03  0.11594820410E+02 -0.16486478795E+03  0.24799334359E+03  0.41800000000E+01 0. -1.
         -5    1    3    3    0  502 -0.17005919021E+02 -0.97829266857E+01  0.21499146925E+02  0.29403956448E+02  0.41800000000E+01 0. -1.
        -11    1    1    2    0    0  0.45786023949E+02  0.36958846080E+02 -0.53630101078E+02  0.79614722472E+02  0.00000000000E+00 0. -1.
         11    1    1    2    0    0  0.15606682607E+03 -0.38770739804E+02 -0.13484816694E+03  0.20986674961E+03  0.00000000000E+00 0.  1.
</event>
<event>
 7    1  0.3265282E-009  0.1022909E+03  0.7561462E-02  0.1275551E+00
          1   -1    0    0  501    0  0.00000000000E+00  0.00000000000E+00  0.76376552476E+03  0.76376552476E+03  0.00000000000E+00 0. -1.
         -1   -1    0    0    0  501 -0.00000000000E+00 -0.00000000000E+00 -0.58848611577E+02  0.58848611577E+02  0.00000000000E+00 0.  1.
         25    2    1    2    0    0 -0.38437116898E+02  0.93500233202E+02  0.65885056110E+03  0.67819150548E+03  0.12505978837E+03 0.  0.
          5    1    3    3  502    0 -0.19586092899E+02  0.23669962743E+02  0.52563670524E+03  0.52655037790E+03  0.41800000000E+01 0.  1.
         -5    1    3    3    0  502 -0.18851024000E+02  0.69830270459E+02  0.13321385587E+03  0.15164112758E+03  0.41800000000E+01 0.  1.
        -11    1    1    2    0    0  0.93891301604E+01 -0.25855786933E+02  0.63121748186E+02  0.68855156504E+02  0.00000000000E+00 0. -1.
         11    1    1    2    0    0  0.29047986738E+02 -0.67644446270E+02 -0.17055396106E+02  0.75567474359E+02  0.00000000000E+00 0.  1.
</event>
<event>
 7    1  0.3265282E-009  0.1580089E+03  0.7561462E-02  0.1190963E+00
         -2   -1    0    0    0  501 -0.00000000000E+00  0.00000000000E+00  0.27285687185E+02  0.27285687185E+02  0.00000000000E+00 0.  1.
          2   -1    0    0  501    0  0.00000000000E+00 -0.00000000000E+00 -0.10253828393E+04  0.10253828393E+04  0.00000000000E+00 0. -1.
         25    2    1    2    0    0 -0.68715134559E+02 -0.10716333389E+03 -0.53663024011E+03  0.56553093124E+03  0.12508984666E+03 0.  0.
          5    1    3    3  502    0  0.16058116909E+02 -0.68746745222E+02 -0.12625145904E+03  0.14470964518E+03  0.41800000000E+01 0.  1.
         -5    1    3    3    0  502 -0.84773251468E+02 -0.38416588670E+02 -0.41037878107E+03  0.42082128606E+03  0.41800000000E+01 0.  1.
        -11    1    1    2    0    0 -0.10043409602E+02  0.58923928170E+02 -0.23680355646E+03  0.24423108676E+03  0.00000000000E+00 0. -1.
         11    1    1    2    0    0  0.78758544161E+02  0.48239405722E+02 -0.22466335557E+03  0.24290650852E+03  0.00000000000E+00 0.  1.
</event>
<event>
 7    1  0.3265282E-009  0.1128146E+03  0.7561462E-02  0.1255445E+00
         -3   -1    0    0    0  501 -0.00000000000E+00  0.00000000000E+00  0.79130140779E+02  0.79130140779E+02  0.00000000000E+00 0.  1.
          3   -1    0    0  501    0  0.00000000000E+00 -0.00000000000E+00 -0.19101815316E+03  0.19101815316E+03  0.00000000000E+00 0. -1.
         25    2    1    2    0    0 -0.11017247664E+02  0.36680516267E+02 -0.16116065933E+02  0.13181151690E+03  0.12509080056E+03 0.  0.
          5    1    3    3  502    0  0.52009901097E+02  0.35532505888E+02 -0.25228073748E+02  0.67981739400E+02  0.41800000000E+01 0.  1.
         -5    1    3    3    0  502 -0.63027148761E+02  0.11480103798E+01  0.91120078147E+01  0.63829777496E+02  0.41800000000E+01 0.  1.
        -11    1    1    2    0    0  0.39010225695E+02  0.13985138277E+02 -0.33231046387E+02  0.53119527910E+02  0.00000000000E+00 0.  1.
         11    1    1    2    0    0 -0.27992978031E+02 -0.50665654545E+02 -0.62540900059E+02  0.85217249132E+02  0.00000000000E+00 0. -1.
</event>
<event>
 7    1  0.3265282E-009  0.8054709E+02  0.7561462E-02  0.1327506E+00
          1   -1    0    0  501    0  0.00000000000E+00  0.00000000000E+00  0.12126883751E+03  0.12126883751E+03  0.00000000000E+00 0. -1.
         -1   -1    0    0    0  501 -0.00000000000E+00 -0.00000000000E+00 -0.10648694446E+03  0.10648694446E+03  0.00000000000E+00 0.  1.
         25    2    1    2    0    0 -0.20952038273E+02  0.97184028953E+01  0.27934021770E+02  0.13023403812E+03  0.12508860799E+03 0.  0.
          5    1    3    3  502    0 -0.14547635968E+02 -0.49042829987E+02  0.45329375586E+02  0.68476693673E+02  0.41800000000E+01 0. -1.
         -5    1    3    3    0  502 -0.64044023045E+01  0.58761232882E+02 -0.17395353816E+02  0.61757344446E+02  0.41800000000E+01 0. -1.
        -11    1    1    2    0    0  0.17433405624E+02  0.16532636789E+02  0.35066513337E+02  0.42507788327E+02  0.00000000000E+00 0. -1.
         11    1    1    2    0    0  0.35186326485E+01 -0.26251039684E+02 -0.48218642062E+02  0.55013955525E+02  0.00000000000E+00 0.  1.
</event>
<event>
 7    1  0.3265282E-009  0.1077030E+03  0.7561462E-02  0.1264884E+00
          1   -1    0    0  501    0  0.00000000000E+00  0.00000000000E+00  0.55581696781E+03  0.55581696781E+03  0.00000000000E+00 0. -1.
         -1   -1    0    0    0  501 -0.00000000000E+00 -0.00000000000E+00 -0.39518398490E+02  0.39518398490E+02  0.00000000000E+00 0.  1.
         25    2    1    2    0    0  0.45838675966E+01 -0.20853102992E+02  0.82421177817E+02  0.15131496701E+03  0.12508838852E+03 0.  0.
          5    1    3    3  502    0 -0.36001117209E+02 -0.56717847989E+02  0.23796174387E+02  0.71391351271E+02  0.41800000000E+01 0.  1.
         -5    1    3    3    0  502  0.40584984806E+02  0.35864744997E+02  0.58625003430E+02  0.79923615737E+02  0.41800000000E+01 0.  1.
        -11    1    1    2    0    0 -0.30963885605E+02  0.47226997844E+02  0.28497579822E+03  0.29051739553E+03  0.00000000000E+00 0.  1.
         11    1    1    2    0    0  0.26380018008E+02 -0.26373894852E+02  0.14890159329E+03  0.15350300376E+03  0.00000000000E+00 0. -1.
</event>
<event>
 7    1  0.3265282E-009  0.1217467E+03  0.7561462E-02  0.1240243E+00
         -1   -1    0    0    0  501 -0.00000000000E+00  0.00000000000E+00  0.27563466953E+02  0.27563466953E+02  0.00000000000E+00 0.  1.
          1   -1    0    0  501    0  0.00000000000E+00 -0.00000000000E+00 -0.83822126849E+03  0.83822126849E+03  0.00000000000E+00 0. -1.
         25    2    1    2    0    0 -0.71654999118E+02  0.71845816551E+02 -0.32020626839E+03  0.35843355669E+03  0.12508517097E+03 0.  0.
          5    1    3    3  502    0 -0.43065650904E+02  0.85676864813E+02 -0.31044797313E+03  0.32494706011E+03  0.41800000000E+01 0.  1.
         -5    1    3    3    0  502 -0.28589348214E+02 -0.13831048263E+02 -0.97582952564E+01  0.33486496587E+02  0.41800000000E+01 0.  1.
        -11    1    1    2    0    0  0.40658438956E+02 -0.73970799348E+02 -0.44058458169E+03  0.44859732661E+03  0.00000000000E+00 0. -1.
         11    1    1    2    0    0  0.30996560162E+02  0.21249827974E+01 -0.49866951458E+02  0.58753852142E+02  0.00000000000E+00 0.  1.
</event>
<event>
 7    1  0.3265282E-009  0.1436972E+03  0.7561462E-02  0.1208439E+00
         -3   -1    0    0    0  501 -0.00000000000E+00  0.00000000000E+00  0.25076978227E+03  0.25076978227E+03  0.00000000000E+00 0.  1.
          3   -1    0    0  501    0  0.00000000000E+00 -0.00000000000E+00 -0.94692404165E+02  0.94692404165E+02  0.00000000000E+00 0. -1.
         25    2    1    2    0    0 -0.85858603231E+02  0.56407298099E+02  0.42922692047E+02  0.16745666005E+03  0.12508354198E+03 0.  0.
          5    1    3    3  502    0 -0.10047817973E+03  0.77488005323E+02  0.12692417111E+02  0.12758850036E+03  0.41800000000E+01 0.  1.
         -5    1    3    3    0  502  0.14619576503E+02 -0.21080707225E+02  0.30230274935E+02  0.39868159688E+02  0.41800000000E+01 0.  1.
        -11    1    1    2    0    0  0.20413322121E+02 -0.65284753517E+02  0.39139409654E+02  0.78807970091E+02  0.00000000000E+00 0. -1.
         11    1    1    2    0    0  0.65445281110E+02  0.88774554185E+01  0.74015276408E+02  0.99197556300E+02  0.00000000000E+00 0.  1.
</event>
<event>
 7    1  0.3265282E-009  0.8297330E+02  0.7561462E-02  0.1320819E+00
         -1   -1    0    0    0  501 -0.00000000000E+00  0.00000000000E+00  0.48873502621E+02  0.48873502621E+02  0.00000000000E+00 0.  1.
          1   -1    0    0  501    0  0.00000000000E+00 -0.00000000000E+00 -0.27718352700E+03  0.27718352700E+03  0.00000000000E+00 0. -1.
         25    2    1    2    0    0  0.42729676558E+02 -0.12712220624E+02 -0.11573217836E+03  0.17615683893E+03  0.12509943637E+03 0.  0.
          5    1    3    3  502    0  0.61523399047E+02  0.22457398401E+02 -0.11903393565E+03  0.13592650077E+03  0.41800000000E+01 0.  1.
         -5    1    3    3    0  502 -0.18793722489E+02 -0.35169619025E+02  0.33017572921E+01  0.40230338161E+02  0.41800000000E+01 0.  1.
        -11    1    1    2    0    0 -0.14333300493E+02 -0.14858957352E+02 -0.10811671235E+03  0.11007023033E+03  0.00000000000E+00 0. -1.
         11    1    1    2    0    0 -0.28396376065E+02  0.27571177975E+02 -0.44611336674E+01  0.39829960359E+02  0.00000000000E+00 0.  1.
</event>
<event>
 7    1  0.3265282E-009  0.9742182E+02  0.7561462E-02  0.1285813E+00
         -1   -1    0    0    0  501 -0.00000000000E+00  0.00000000000E+00  0.58190377710E+02  0.58190377710E+02  0.00000000000E+00 0.  1.
          1   -1    0    0  501    0  0.00000000000E+00 -0.00000000000E+00 -0.24671627406E+03  0.24671627406E+03  0.00000000000E+00 0. -1.
         25    2    1    2    0    0 -0.16562554066E+02 -0.36056244300E+02 -0.14188215980E+03  0.19326705258E+03  0.12508890996E+03 0.  0.
          5    1    3    3  502    0  0.31981849248E+02  0.32117304009E+02 -0.34804542767E+02  0.57299114263E+02  0.41800000000E+01 0.  1.
         -5    1    3    3    0  502 -0.48544403314E+02 -0.68173548308E+02 -0.10707761703E+03  0.13596793832E+03  0.41800000000E+01 0.  1.
        -11    1    1    2    0    0 -0.18975094215E+02  0.15305398530E+02  0.21188944286E+02  0.32299857346E+02  0.00000000000E+00 0.  1.
         11    1    1    2    0    0  0.35537648280E+02  0.20750845769E+02 -0.67832680834E+02  0.79339741836E+02  0.00000000000E+00 0. -1.
</event>
<event>
 7    1  0.3265282E-009  0.1009036E+03  0.7561462E-02  0.1278407E+00
         -2   -1    0    0    0  501 -0.00000000000E+00  0.00000000000E+00  0.18542209006E+02  0.18542209006E+02  0.00000000000E+00 0.  1.
          2   -1    0    0  501    0  0.00000000000E+00 -0.00000000000E+00 -0.63187580739E+03  0.63187580739E+03  0.00000000000E+00 0. -1.
         25    2    1    2    0    0 -0.25237145519E+01 -0.26366140688E+02 -0.44538362662E+03  0.46337409115E+03  0.12508969170E+03 0.  0.
          5    1    3    3  502    0 -0.45571043668E+02 -0.57161085222E+02 -0.22184085383E+03  0.23361281325E+03  0.41800000000E+01 0.  1.
         -5    1    3    3    0  502  0.43047329116E+02  0.30794944534E+02 -0.22354277279E+03  0.22976127790E+03  0.41800000000E+01 0.  1.
        -11    1    1    2    0    0  0.31444503777E+02  0.33248693243E+02 -0.62366921913E+02  0.77355448218E+02  0.00000000000E+00 0.  1.
         11    1    1    2    0    0 -0.28920789226E+02 -0.68825525552E+01 -0.10558304985E+03  0.10968847703E+03  0.00000000000E+00 0. -1.
</event>
<event>
 7    1  0.3265282E-009  0.7194077E+02  0.7561462E-02  0.1353615E+00
         -4   -1    0    0    0  501 -0.00000000000E+00  0.00000000000E+00  0.86900710622E+03  0.86900710622E+03  0.00000000000E+00 0.  1.
          4   -1    0    0  501    0  0.00000000000E+00 -0.00000000000E+00 -0.20328819176E+02  0.20328819176E+02  0.00000000000E+00 0. -1.
         25    2    1    2    0    0 -0.15981340524E+02 -0.43404920486E+02  0.72797983927E+03  0.74009645588E+03  0.12509487302E+03 0.  0.
          5    1    3    3  502    0  0.34922701935E+02 -0.18303038223E+02  0.76767213689E+02  0.86401816047E+02  0.41800000000E+01 0.  1.
         -5    1    3    3    0  502 -0.50904042459E+02 -0.25101882264E+02  0.65121262558E+03  0.65369463984E+03  0.41800000000E+01 0.  1.
        -11    1    1    2    0    0  0.14916540451E+02  0.26710011204E+02  0.12754582664E+03  0.13116350777E+03  0.00000000000E+00 0.  1.
         11    1    1    2    0    0  0.10648000735E+01  0.16694909282E+02 -0.68473788760E+01  0.18075961734E+02  0.00000000000E+00 0. -1.
</event>
<event>
 7    1  0.3265282E-009  0.1283436E+03  0.7561462E-02  0.1229934E+00
          2   -1    0    0  501    0  0.00000000000E+00  0.00000000000E+00  0.11234655380E+03  0.11234655380E+03  0.00000000000E+00 0. -1.
         -2   -1    0    0    0  501 -0.00000000000E+00 -0.00000000000E+00 -0.39071686115E+03  0.39071686115E+03  0.00000000000E+00 0.  1.
         25    2    1    2    0    0  0.60415019976E+02  0.97431889507E+02 -0.30845132856E+03  0.35204112182E+03  0.12509109333E+03 0.  0.
          5    1    3    3  502    0 -0.17504672617E+02  0.98541265866E+01 -0.16711934089E+03  0.16837417817E+03  0.41800000000E+01 0. -1.
         -5    1    3    3    0  502  0.77919692593E+02  0.87577762921E+02 -0.14133198766E+03  0.18366694365E+03  0.41800000000E+01 0. -1.
        -11    1    1    2    0    0 -0.56189140191E+01 -0.36476426253E+02 -0.31484291171E+02  0.48511467278E+02  0.00000000000E+00 0.  1.
         11    1    1    2    0    0 -0.54796105957E+02 -0.60955463255E+02  0.61565312379E+02  0.10251082585E+03  0.00000000000E+00 0. -1.
</event>
<event>
 7    1  0.3265282E-009  0.1093530E+03  0.7561462E-02  0.1261773E+00
         -4   -1    0    0    0  501 -0.00000000000E+00  0.00000000000E+00  0.64677286493E+02  0.64677286493E+02  0.00000000000E+00 0. -1.
          4   -1    0    0  501    0  0.00000000000E+00 -0.00000000000E+00 -0.31353529259E+03  0.31353529259E+03  0.00000000000E+00 0.  1.
         25    2    1    2    0    0  0.91033317851E+02 -0.60425106318E+01 -0.15619100322E+03  0.21992509534E+03  0.12509133136E+03 0.  0.
          5    1    3    3  502    0  0.84253591029E+02  0.16375859408E+02 -0.17136725181E+03  0.19170561746E+03  0.41800000000E+01 0. -1.
         -5    1    3    3    0  502  0.67797268220E+01 -0.22418370040E+02  0.15176248587E+02  0.28219477886E+02  0.41800000000E+01 0. -1.
        -11    1    1    2    0    0 -0.91105286897E+02 -0.11154586541E+02 -0.10320729019E+03  0.13811713453E+03  0.00000000000E+00 0.  1.
         11    1    1    2    0    0  0.71969046177E-01  0.17197097173E+02  0.10540287314E+02  0.20170349213E+02  0.00000000000E+00 0. -1.
</event>
<event>
 7    1  0.3265282E-009  0.2296608E+03  0.7561462E-02  0.1126879E+00
          1   -1    0    0  501    0  0.00000000000E+00  0.00000000000E+00  0.21598073241E+03  0.21598073241E+03  0.00000000000E+00 0. -1.
         -1   -1    0    0    0  501 -0.00000000000E+00 -0.00000000000E+00 -0.26389835227E+03  0.26389835227E+03  0.00000000000E+00 0.  1.
         25    2    1    2    0    0  0.20075980220E+03 -0.45085783583E+02  0.30552363926E+02  0.24273077333E+03  0.12509018873E+03 0.  0.
          5    1    3    3  502    0  0.18709347763E+03  0.11439891109E+01  0.44521090291E+02  0.19236651987E+03  0.41800000000E+01 0.  1.
         -5    1    3    3    0  502  0.13666324570E+02 -0.46229772694E+02 -0.13968726365E+02  0.50364253462E+02  0.41800000000E+01 0.  1.
        -11    1    1    2    0    0 -0.30713836523E+02  0.44099096342E+02 -0.18850348707E+02  0.56950906038E+02  0.00000000000E+00 0.  1.
         11    1    1    2    0    0 -0.17004596568E+03  0.98668724028E+00 -0.59619635070E+02  0.18019740531E+03  0.00000000000E+00 0. -1.
</event>
<event>
 7    1  0.3265282E-009  0.3638783E+03  0.7561462E-02  0.1057059E+00
         -1   -1    0    0    0  501 -0.00000000000E+00  0.00000000000E+00  0.36138415750E+03  0.36138415750E+03  0.00000000000E+00 0.  1.
          1   -1    0    0  501    0  0.00000000000E+00 -0.00000000000E+00 -0.39382219893E+03  0.39382219893E+03  0.00000000000E+00 0. -1.
         25    2    1    2    0    0 -0.24170435107E+02  0.35668323230E+03  0.33951497391E+02  0.38027165453E+03  0.12508672562E+03 0.  0.
          5    1    3    3  502    0 -0.55966094441E+02  0.25706988870E+03 -0.17407315821E+02  0.26369986433E+03  0.41800000000E+01 0. -1.
         -5    1    3    3    0  502  0.31795659334E+02  0.99613343606E+02  0.51358813213E+02  0.11657179020E+03  0.41800000000E+01 0. -1.
        -11    1    1    2    0    0  0.35694691890E+02 -0.22699389432E+03 -0.81615376813E+02  0.24384710132E+03  0.00000000000E+00 0. -1.
         11    1    1    2    0    0 -0.11524256783E+02 -0.12968933798E+03  0.15225837992E+02  0.13108760057E+03  0.00000000000E+00 0.  1.
</event>
<event>
 7    1  0.3265282E-009  0.2671822E+03  0.7561462E-02  0.1102903E+00
         -1   -1    0    0    0  501 -0.00000000000E+00  0.00000000000E+00  0.40182219155E+02  0.40182219155E+02  0.00000000000E+00 0.  1.
          1   -1    0    0  501    0  0.00000000000E+00 -0.00000000000E+00 -0.20124305138E+04  0.20124305138E+04  0.00000000000E+00 0. -1.
         25    2    1    2    0    0 -0.26030748331E+03 -0.37488639254E+01 -0.88632827195E+03  0.93220115844E+03  0.12508858575E+03 0.  0.
          5    1    3    3  502    0 -0.16868302623E+02  0.15692823881E+02 -0.16280086765E+02  0.28518730334E+02  0.41800000000E+01 0.  1.
         -5    1    3    3    0  502 -0.24343918069E+03 -0.19441687806E+02 -0.87004818519E+03  0.90368242810E+03  0.41800000000E+01 0.  1.
        -11    1    1    2    0    0  0.15805958810E+03  0.30577232669E+02 -0.50787197307E+03  0.53277738464E+03  0.00000000000E+00 0.  1.
         11    1    1    2    0    0  0.10224789522E+03 -0.26828368743E+02 -0.57804804963E+03  0.58763418989E+03  0.00000000000E+00 0. -1.
</event>
<event>
 7    1  0.3265282E-009  0.2731979E+03  0.7561462E-02  0.1099463E+00
         -1   -1    0    0    0  501 -0.00000000000E+00  0.00000000000E+00  0.41110758331E+03  0.41110758331E+03  0.00000000000E+00 0.  1.
          1   -1    0    0  501    0  0.00000000000E+00 -0.00000000000E+00 -0.32278334026E+03  0.32278334026E+03  0.00000000000E+00 0. -1.
         25    2    1    2    0    0  0.10582569626E+02  0.26142766129E+03 -0.18562964663E+03  0.34432966891E+03  0.12509253501E+03 0.  0.
          5    1    3    3  502    0 -0.42702670505E+02  0.68610854404E+02 -0.17065952697E+02  0.82702397497E+02  0.41800000000E+01 0. -1.
         -5    1    3    3    0  502  0.53285240131E+02  0.19281680689E+03 -0.16856369394E+03  0.26162727141E+03  0.41800000000E+01 0. -1.
        -11    1    1    2    0    0 -0.19362112940E+02 -0.47729872834E+02  0.14887409775E+02  0.53615922523E+02  0.00000000000E+00 0.  1.
         11    1    1    2    0    0  0.87795433142E+01 -0.21369778846E+03  0.25906647991E+03  0.33594533214E+03  0.00000000000E+00 0. -1.
</event>
<event>
 7    1  0.3265282E-009  0.1189694E+03  0.7561462E-02  0.1244807E+00
          4   -1    0    0  501    0  0.00000000000E+00  0.00000000000E+00  0.37060883238E+03  0.37060883238E+03  0.00000000000E+00 0. -1.
         -4   -1    0    0    0  501 -0.00000000000E+00 -0.00000000000E+00 -0.62811715124E+02  0.62811715124E+02  0.00000000000E+00 0.  1.
         25    2    1    2    0    0 -0.67377120152E+01  0.10547932867E+03  0.19358736974E+03  0.25356402742E+03  0.12508941099E+03 0.  0.
          5    1    3    3  502    0  0.26357838094E+02  0.64304315617E+01  0.12632968526E+03  0.12927779336E+03  0.41800000000E+01 0.  1.
         -5    1    3    3    0  502 -0.33095550109E+02  0.99048897110E+02  0.67257684476E+02  0.12428623406E+03  0.41800000000E+01 0.  1.
        -11    1    1    2    0    0  0.37190411884E+01 -0.94844995648E+02  0.12976444620E+03  0.16077380372E+03  0.00000000000E+00 0. -1.
         11    1    1    2    0    0  0.30186708268E+01 -0.10634333024E+02 -0.15554698679E+02  0.19082716353E+02  0.00000000000E+00 0.  1.
</event>
<event>
 7    1  0.3265282E-009  0.2707769E+03  0.7561462E-02  0.1100836E+00
          2   -1    0    0  501    0  0.00000000000E+00  0.00000000000E+00  0.52469602366E+03  0.52469602366E+03  0.00000000000E+00 0. -1.
         -2   -1    0    0    0  501 -0.00000000000E+00 -0.00000000000E+00 -0.16734820880E+03  0.16734820880E+03  0.00000000000E+00 0.  1.
         25    2    1    2    0    0  0.16311194520E+03 -0.20979546909E+03  0.98156179552E+02  0.30968042915E+03  0.12509071546E+03 0.  0.
          5    1    3    3  502    0  0.10233693544E+03 -0.11068797315E+03 -0.95988839573E+01  0.15111018076E+03  0.41800000000E+01 0.  1.
         -5    1    3    3    0  502  0.60775009766E+02 -0.99107495939E+02  0.10775506351E+03  0.15857024839E+03  0.41800000000E+01 0.  1.
        -11    1    1    2    0    0 -0.13772444842E+03  0.12531730465E+03  0.21256426569E+03  0.28258807049E+03  0.00000000000E+00 0.  1.
         11    1    1    2    0    0 -0.25387496780E+02  0.84478164443E+02  0.46627369618E+02  0.99775732810E+02  0.00000000000E+00 0. -1.
</event>
<event>
 7    1  0.3265282E-009  0.1428332E+03  0.7561462E-02  0.1209567E+00
         -1   -1    0    0    0  501 -0.00000000000E+00  0.00000000000E+00  0.26722265410E+03  0.26722265410E+03  0.00000000000E+00 0.  1.
          1   -1    0    0  501    0  0.00000000000E+00 -0.00000000000E+00 -0.16704032065E+03  0.16704032065E+03  0.00000000000E+00 0. -1.
         25    2    1    2    0    0  0.23326222191E+02 -0.12115680517E+03  0.18798175617E+03  0.25730514694E+03  0.12508282819E+03 0.  0.
          5    1    3    3  502    0 -0.17398372348E+02 -0.20386559700E+02 -0.11997347092E+02  0.29660140155E+02  0.41800000000E+01 0.  1.
         -5    1    3    3    0  502  0.40724594540E+02 -0.10077024547E+03  0.19997910326E+03  0.22764500678E+03  0.41800000000E+01 0.  1.
        -11    1    1    2    0    0 -0.49123628375E+02  0.36298855392E+02 -0.16801448522E+02  0.63348452546E+02  0.00000000000E+00 0.  1.
         11    1    1    2    0    0  0.25797406184E+02  0.84857949777E+02 -0.70997974197E+02  0.11360937526E+03  0.00000000000E+00 0. -1.
</event>
<event>
 7    1  0.3265282E-009  0.9497711E+02  0.7561462E-02  0.1291228E+00
          2   -1    0    0  501    0  0.00000000000E+00  0.00000000000E+00  0.21111013263E+03  0.21111013263E+03  0.00000000000E+00 0. -1.
         -2   -1    0    0    0  501 -0.00000000000E+00 -0.00000000000E+00 -0.57648189579E+02  0.57648189579E+02  0.00000000000E+00 0.  1.
         25    2    1    2    0    0 -0.11091016440E+02 -0.23127623734E+02  0.11704246356E+03  0.17321743167E+03  0.12508973871E+03 0.  0.
          5    1    3    3  502    0 -0.96392506825E+01  0.45994366126E+02  0.14281929733E+02  0.49293435526E+02  0.41800000000E+01 0. -1.
         -5    1    3    3    0  502 -0.14517657574E+01 -0.69121989860E+02  0.10276053383E+03  0.12392399614E+03  0.41800000000E+01 0. -1.
        -11    1    1    2    0    0  0.12780814975E+02 -0.23554690653E+02 -0.11008150596E+02  0.28971573356E+02  0.00000000000E+00 0.  1.
         11    1    1    2    0    0 -0.16897985348E+01  0.46682314387E+02  0.47427630086E+02  0.66569317190E+02  0.00000000000E+00 0. -1.
</event>
<event>
 7    1  0.3265282E-009  0.9390475E+02  0.7561462E-02  0.1293662E+00
         -1   -1    0    0    0  501 -0.00000000000E+00  0.00000000000E+00  0.55760662994E+02  0.55760662994E+02  0.00000000000E+00 0.  1.
          1   -1    0    0  501    0  0.00000000000E+00 -0.00000000000E+00 -0.42019391275E+03  0.42019391275E+03  0.00000000000E+00 0. -1.
         25    2    1    2    0    0 -0.29262924365E+01 -0.59394406372E+02 -0.58877022951E+02  0.15049888920E+03  0.12508858110E+03 0.  0.
          5    1    3    3  502    0 -0.12515260226E+02  0.19703234909E+02  0.25191315696E+02  0.34596589295E+02  0.41800000000E+01 0.  1.
         -5    1    3    3    0  502  0.95889677892E+01 -0.79097641280E+02 -0.84068338647E+02  0.11590229990E+03  0.41800000000E+01 0.  1.
        -11    1    1    2    0    0 -0.23382115483E+02  0.51948365394E+02 -0.28654735589E+03  0.29215534080E+03  0.00000000000E+00 0. -1.
         11    1    1    2    0    0  0.26308407919E+02  0.74460409779E+01 -0.19008870920E+02  0.33300345751E+02  0.00000000000E+00 0.  1.
</event>
<event>
 7    1  0.3265282E-009  0.1330592E+03  0.7561462E-02  0.1222986E+00
         -2   -1    0    0    0  501 -0.00000000000E+00  0.00000000000E+00  0.13516105281E+03  0.13516105281E+03  0.00000000000E+00 0.  1.
          2   -1    0    0  501    0  0.00000000000E+00 -0.00000000000E+00 -0.18035476736E+03  0.18035476736E+03  0.00000000000E+00 0. -1.
         25    2    1    2    0    0  0.38275119058E+02  0.87113065712E+02  0.35278237479E+02  0.16107610159E+03  0.12508911027E+03 0.  0.
          5    1    3    3  502    0 -0.10741138853E+02 -0.18424121570E+02  0.38923533473E+02  0.44579526439E+02  0.41800000000E+01 0.  1.
         -5    1    3    3    0  502  0.49016257911E+02  0.10553718728E+03 -0.36452959938E+01  0.11649657515E+03  0.41800000000E+01 0.  1.
        -11    1    1    2    0    0  0.17714013668E+02 -0.65628194197E+02 -0.24066372295E+02  0.72111278100E+02  0.00000000000E+00 0.  1.
         11    1    1    2    0    0 -0.55989132727E+02 -0.21484871515E+02 -0.56405579730E+02  0.82328440482E+02  0.00000000000E+00 0. -1.
</event>
<event>
 7    1  0.3265282E-009  0.1366976E+03  0.7561462E-02  0.1217843E+00
          1   -1    0    0  501    0  0.00000000000E+00  0.00000000000E+00  0.12335220164E+04  0.12335220164E+04  0.00000000000E+00 0. -1.
         -1   -1    0    0    0  501 -0.00000000000E+00 -0.00000000000E+00 -0.20059554796E+02  0.20059554796E+02  0.00000000000E+00 0.  1.
         25    2    1    2    0    0 -0.96523080403E+02  0.49751325347E+01  0.89102254050E+03  0.90493708867E+03  0.12509400379E+03 0.  0.
          5    1    3    3  502    0 -0.93257991208E+02 -0.35717645395E+02  0.40368492029E+03  0.41587472919E+03  0.41800000000E+01 0.  1.
         -5    1    3    3    0  502 -0.32650891955E+01  0.40692777929E+02  0.48733762021E+03  0.48906235948E+03  0.41800000000E+01 0.  1.
        -11    1    1    2    0    0  0.85971500587E+02 -0.40726959715E+02  0.22276128310E+03  0.24222380851E+03  0.00000000000E+00 0.  1.
         11    1    1    2    0    0  0.10551579817E+02  0.35751827181E+02  0.99678638032E+02  0.10642067404E+03  0.00000000000E+00 0. -1.
</event>
<event>
 7    1  0.3265282E-009  0.1077063E+03  0.7561462E-02  0.1264877E+00
          2   -1    0    0  501    0  0.00000000000E+00  0.00000000000E+00  0.67574939619E+03  0.67574939619E+03  0.00000000000E+00 0. -1.
         -2   -1    0    0    0  501 -0.00000000000E+00 -0.00000000000E+00 -0.25774404245E+02  0.25774404245E+02  0.00000000000E+00 0.  1.
         25    2    1    2    0    0  0.22195414846E+02  0.73327087938E+02  0.33483591944E+03  0.36555431503E+03  0.12508143758E+03 0.  0.
          5    1    3    3  502    0 -0.12595599908E+01 -0.11174999372E+02  0.22323856417E+03  0.22356072114E+03  0.41800000000E+01 0. -1.
         -5    1    3    3    0  502  0.23454974837E+02  0.84502087310E+02  0.11159735527E+03  0.14199359389E+03  0.41800000000E+01 0. -1.
        -11    1    1    2    0    0 -0.27282741556E+02 -0.92158524583E+02  0.27564689039E+03  0.29192250653E+03  0.00000000000E+00 0. -1.
         11    1    1    2    0    0  0.50873267099E+01  0.18831436645E+02  0.39492182123E+02  0.44046978875E+02  0.00000000000E+00 0.  1.
</event>
<event>
 7    1  0.3265282E-009  0.2335944E+03  0.7561462E-02  0.1124135E+00
         -1   -1    0    0    0  501 -0.00000000000E+00  0.00000000000E+00  0.58583801599E+03  0.58583801599E+03  0.00000000000E+00 0.  1.
          1   -1    0    0  501    0  0.00000000000E+00 -0.00000000000E+00 -0.11960945657E+03  0.11960945657E+03  0.00000000000E+00 0. -1.
         25    2    1    2    0    0  0.23132932064E+03  0.19920299090E+02  0.32728249340E+03  0.42033746622E+03  0.12513865156E+03 0.  0.
          5    1    3    3  502    0  0.11637198548E+03  0.15574275995E+02  0.65842969334E+02  0.13467652390E+03  0.41800000000E+01 0. -1.
         -5    1    3    3    0  502  0.11495733516E+03  0.43460230950E+01  0.26143952407E+03  0.28566094232E+03  0.41800000000E+01 0. -1.
        -11    1    1    2    0    0 -0.79833492911E+02  0.90622917612E+01  0.44595998579E+01  0.80469868604E+02  0.00000000000E+00 0. -1.
         11    1    1    2    0    0 -0.15149582773E+03 -0.28982590851E+02  0.13448646616E+03  0.20464013774E+03  0.00000000000E+00 0.  1.
</event>
<event>
 7    1  0.3265282E-009  0.9129385E+02  0.7561462E-02  0.1299748E+00
          1   -1    0    0  501    0  0.00000000000E+00  0.00000000000E+00  0.34485335123E+03  0.34485335123E+03  0.00000000000E+00 0. -1.
         -1   -1    0    0    0  501 -0.00000000000E+00 -0.00000000000E+00 -0.34240119750E+02  0.34240119750E+02  0.00000000000E+00 0.  1.
         25    2    1    2    0    0  0.47414276289E+01  0.61102156815E+01  0.19780110547E+03  0.23416279730E+03  0.12508845847E+03 0.  0.
          5    1    3    3  502    0 -0.39273614261E+02  0.48843772033E+02  0.85003112440E+02  0.10569357770E+03  0.41800000000E+01 0. -1.
         -5    1    3    3    0  502  0.44015041890E+02 -0.42733556351E+02  0.11279799303E+03  0.12846921959E+03  0.41800000000E+01 0. -1.
        -11    1    1    2    0    0 -0.57059561792E+01 -0.31935339167E+02  0.35278722909E+01  0.32632341419E+02  0.00000000000E+00 0.  1.
         11    1    1    2    0    0  0.96452855021E+00  0.25825123485E+02  0.10928425372E+03  0.11229833226E+03  0.00000000000E+00 0. -1.
</event>
<event>
 7    1  0.3265282E-009  0.2020978E+03  0.7561462E-02  0.1147981E+00
          1   -1    0    0  501    0  0.00000000000E+00  0.00000000000E+00  0.24913043960E+04  0.24913043960E+04  0.00000000000E+00 0. -1.
         -1   -1    0    0    0  501 -0.00000000000E+00 -0.00000000000E+00 -0.47487577973E+02  0.47487577973E+02  0.00000000000E+00 0.  1.
         25    2    1    2    0    0  0.77888315768E+02 -0.17216888411E+03  0.22199206575E+04  0.22314571581E+04  0.12507841037E+03 0.  0.
          5    1    3    3  502    0 -0.54778113497E+01 -0.67154422878E+01  0.10359837261E+02  0.14138677815E+02  0.41800000000E+01 0.  1.
         -5    1    3    3    0  502  0.83366127118E+02 -0.16545344182E+03  0.22095608202E+04  0.22173184803E+04  0.41800000000E+01 0.  1.
        -11    1    1    2    0    0  0.10924463789E+02 -0.42678244809E+01  0.21703548030E+02  0.24669864855E+02  0.00000000000E+00 0. -1.
         11    1    1    2    0    0 -0.88812779557E+02  0.17643670859E+03  0.20219261250E+03  0.28266495096E+03  0.00000000000E+00 0.  1.
</event>
<event>
 7    1  0.3265282E-009  0.4123648E+03  0.7561462E-02  0.1039580E+00
          2   -1    0    0  501    0  0.00000000000E+00  0.00000000000E+00  0.77407645808E+03  0.77407645808E+03  0.00000000000E+00 0. -1.
         -2   -1    0    0    0  501 -0.00000000000E+00 -0.00000000000E+00 -0.27438192424E+03  0.27438192424E+03  0.00000000000E+00 0.  1.
         25    2    1    2    0    0  0.80749418975E+02  0.39163321570E+03  0.24526128335E+02  0.41969752437E+03  0.12508971455E+03 0.  0.
          5    1    3    3  502    0  0.23054407293E+02  0.28807850772E+01 -0.89396613093E+01  0.25242713060E+02  0.41800000000E+01 0.  1.
         -5    1    3    3    0  502  0.57695011682E+02  0.38875243062E+03  0.33465789644E+02  0.39445481131E+03  0.41800000000E+01 0.  1.
        -11    1    1    2    0    0 -0.82131662994E+02 -0.19678032965E+03  0.28998909083E+03  0.35994691415E+03  0.00000000000E+00 0. -1.
         11    1    1    2    0    0  0.13822440186E+01 -0.19485288605E+03  0.18517931467E+03  0.26881394381E+03  0.00000000000E+00 0.  1.
</event>
<event>
 7    1  0.3265282E-009  0.1606204E+03  0.7561462E-02  0.1187998E+00
         -2   -1    0    0    0  501 -0.00000000000E+00  0.00000000000E+00  0.58510465328E+02  0.58510465328E+02  0.00000000000E+00 0.  1.
          2   -1    0    0  501    0  0.00000000000E+00 -0.00000000000E+00 -0.51771833568E+03  0.51771833568E+03  0.00000000000E+00 0. -1.
         25    2    1    2    0    0 -0.29021986625E+02 -0.12697533346E+03 -0.30706502471E+03  0.35623242993E+03  0.12509038219E+03 0.  0.
          5    1    3    3  502    0  0.47318983340E+02 -0.37042303976E+02 -0.78108882587E+02  0.98639182920E+02  0.41800000000E+01 0.  1.
         -5    1    3    3    0  502 -0.76340969965E+02 -0.89933029480E+02 -0.22895614212E+03  0.25759324701E+03  0.41800000000E+01 0.  1.
        -11    1    1    2    0    0  0.46635874827E+02  0.10428699056E+03 -0.15337757147E+03  0.19124685789E+03  0.00000000000E+00 0. -1.
         11    1    1    2    0    0 -0.17613888203E+02  0.22688342896E+02  0.12347258329E+01  0.28749513194E+02  0.00000000000E+00 0.  1.
</event>
<event>
 7    1  0.3265282E-009  0.1104918E+03  0.7561462E-02  0.1259662E+00
          4   -1    0    0  501    0  0.00000000000E+00  0.00000000000E+00  0.74973575989E+03  0.74973575989E+03  0.00000000000E+00 0.  1.
         -4   -1    0    0    0  501 -0.00000000000E+00 -0.00000000000E+00 -0.20424382751E+02  0.20424382751E+02  0.00000000000E+00 0. -1.
         25    2    1    2    0    0  0.90189521348E+01  0.47653380661E+02  0.51104524783E+03  0.52836189322E+03  0.12508740421E+03 0.  0.
          5    1    3    3  502    0  0.22294551132E+02  0.80787114932E+02  0.22627090519E+03  0.24132882108E+03  0.41800000000E+01 0. -1.
         -5    1    3    3    0  502 -0.13275598997E+02 -0.33133734271E+02  0.28477434264E+03  0.28703307214E+03  0.41800000000E+01 0. -1.
        -11    1    1    2    0    0 -0.41342760353E+02  0.25539492922E+01  0.62510610174E+02  0.74988818333E+02  0.00000000000E+00 0. -1.
         11    1    1    2    0    0  0.32323808218E+02 -0.50207329953E+02  0.15575551914E+03  0.16680943109E+03  0.00000000000E+00 0.  1.
</event>
<event>
 7    1  0.3265282E-009  0.1438691E+03  0.7561462E-02  0.1208216E+00
         -2   -1    0    0    0  501 -0.00000000000E+00  0.00000000000E+00  0.22465682314E+03  0.22465682314E+03  0.00000000000E+00 0.  1.
          2   -1    0    0  501    0  0.00000000000E+00 -0.00000000000E+00 -0.97444552148E+02  0.97444552148E+02  0.00000000000E+00 0. -1.
         25    2    1    2    0    0  0.82429665769E+02  0.56482735061E+02  0.64742273683E+02  0.17269464494E+03  0.12508768617E+03 0.  0.
          5    1    3    3  502    0  0.85492324372E+02  0.91131738031E+02  0.48973458780E+02  0.13427510293E+03  0.41800000000E+01 0.  1.
         -5    1    3    3    0  502 -0.30626586034E+01 -0.34649002970E+02  0.15768814903E+02  0.38419542007E+02  0.41800000000E+01 0.  1.
        -11    1    1    2    0    0 -0.28734554976E+02  0.19435579588E+02  0.41489374147E+02  0.54081277451E+02  0.00000000000E+00 0.  1.
         11    1    1    2    0    0 -0.53695110793E+02 -0.75918314648E+02  0.20980623166E+02  0.95325452900E+02  0.00000000000E+00 0. -1.
</event>
<event>
 7    1  0.3265282E-009  0.2204065E+03  0.7561462E-02  0.1133580E+00
         -1   -1    0    0    0  501 -0.00000000000E+00  0.00000000000E+00  0.13387835629E+04  0.13387835629E+04  0.00000000000E+00 0.  1.
          1   -1    0    0  501    0  0.00000000000E+00 -0.00000000000E+00 -0.44236273844E+02  0.44236273844E+02  0.00000000000E+00 0. -1.
         25    2    1    2    0    0 -0.19345849270E+03 -0.71728703986E+02  0.85810258597E+03  0.89138046593E+03  0.12509153297E+03 0.  0.
          5    1    3    3  502    0 -0.18635297858E+03 -0.40866549128E+02  0.81875249670E+03  0.84069651522E+03  0.41800000000E+01 0. -1.
         -5    1    3    3    0  502 -0.71055141130E+01 -0.30862154858E+02  0.39350089274E+02  0.50683950706E+02  0.41800000000E+01 0. -1.
        -11    1    1    2    0    0  0.16037766401E+03  0.86037997703E+02  0.40417352709E+03  0.44326038867E+03  0.00000000000E+00 0.  1.
         11    1    1    2    0    0  0.33080828692E+02 -0.14309293717E+02  0.32271176004E+02  0.48378982155E+02  0.00000000000E+00 0. -1.
</event>
<event>
 7    1  0.3265282E-009  0.2295832E+03  0.7561462E-02  0.1126934E+00
          2   -1    0    0  501    0  0.00000000000E+00  0.00000000000E+00  0.68486172176E+03  0.68486172176E+03  0.00000000000E+00 0. -1.
         -2   -1    0    0    0  501 -0.00000000000E+00 -0.00000000000E+00 -0.82077928615E+02  0.82077928615E+02  0.00000000000E+00 0.  1.
         25    2    1    2    0    0 -0.75189501094E+02 -0.19466438760E+03  0.35332339909E+03  0.42898993560E+03  0.12508899081E+03 0.  0.
          5    1    3    3  502    0 -0.54321291516E+02 -0.21006015211E+03  0.31335453276E+03  0.38116217784E+03  0.41800000000E+01 0.  1.
         -5    1    3    3    0  502 -0.20868209579E+02  0.15395764510E+02  0.39968866336E+02  0.47827757757E+02  0.41800000000E+01 0.  1.
        -11    1    1    2    0    0  0.84252899256E+02  0.17408567380E+03  0.24922293813E+03  0.31546227309E+03  0.00000000000E+00 0.  1.
         11    1    1    2    0    0 -0.90633981622E+01  0.20578713800E+02  0.23745592027E+00  0.22487441678E+02  0.00000000000E+00 0. -1.
</event>
<event>
 7    1  0.3265282E-009  0.1168156E+03  0.7561462E-02  0.1248445E+00
         -1   -1    0    0    0  501 -0.00000000000E+00  0.00000000000E+00  0.27213679060E+02  0.27213679060E+02  0.00000000000E+00 0.  1.
          1   -1    0    0  501    0  0.00000000000E+00 -0.00000000000E+00 -0.52553050536E+03  0.52553050536E+03  0.00000000000E+00 0. -1.
         25    2    1    2    0    0 -0.11513987631E+02  0.52539293470E+02 -0.28567698438E+03  0.31646704032E+03  0.12508836451E+03 0.  0.
          5    1    3    3  502    0 -0.59501874654E+02  0.58265385002E+02 -0.21627896926E+03  0.23179601619E+03  0.41800000000E+01 0. -1.
         -5    1    3    3    0  502  0.47987887023E+02 -0.57260915316E+01 -0.69398015121E+02  0.84671024134E+02  0.41800000000E+01 0. -1.
        -11    1    1    2    0    0 -0.37612774586E+02 -0.27539685901E+02 -0.79207855852E+02  0.91907777365E+02  0.00000000000E+00 0. -1.
         11    1    1    2    0    0  0.49126762218E+02 -0.24999607569E+02 -0.13343198607E+03  0.14436936673E+03  0.00000000000E+00 0.  1.
</event>
<event>
 7    1  0.3265282E-009  0.1200908E+03  0.7561462E-02  0.1242947E+00
         -1   -1    0    0    0  501 -0.00000000000E+00  0.00000000000E+00  0.26170714069E+02  0.26170714069E+02  0.00000000000E+00 0.  1.
          1   -1    0    0  501    0  0.00000000000E+00 -0.00000000000E+00 -0.70635232877E+03  0.70635232877E+03  0.00000000000E+00 0. -1.
         25    2    1    2    0    0  0.62912840441E+02 -0.47611827080E+02 -0.44688696729E+03  0.47072214612E+03  0.12508583350E+03 0.  0.
          5    1    3    3  502    0  0.55180102549E+02  0.24100108010E+02 -0.31119618101E+03  0.31699557473E+03  0.41800000000E+01 0.  1.
         -5    1    3    3    0  502  0.77327378927E+01 -0.71711935090E+02 -0.13569078628E+03  0.15372657139E+03  0.41800000000E+01 0.  1.
        -11    1    1    2    0    0  0.13964160791E+02  0.22902941047E+02 -0.19209894829E+02  0.32993371373E+02  0.00000000000E+00 0.  1.
         11    1    1    2    0    0 -0.76877001232E+02  0.24708886033E+02 -0.21408475258E+03  0.22880752534E+03  0.00000000000E+00 0. -1.
</event>
<event>
 7    1  0.3265282E-009  0.1921581E+03  0.7561462E-02  0.1156529E+00
         -2   -1    0    0    0  501 -0.00000000000E+00  0.00000000000E+00  0.73360731633E+02  0.73360731633E+02  0.00000000000E+00 0.  1.
          2   -1    0    0  501    0  0.00000000000E+00 -0.00000000000E+00 -0.57741949232E+03  0.57741949232E+03  0.00000000000E+00 0. -1.
         25    2    1    2    0    0 -0.29445157242E+02 -0.16124512821E+03 -0.16794928079E+03  0.26593531988E+03  0.12509046641E+03 0.  0.
          5    1    3    3  502    0  0.40593078988E+02 -0.10438539761E+03 -0.67400287528E+02  0.13078371632E+03  0.41800000000E+01 0.  1.
         -5    1    3    3    0  502 -0.70038236231E+02 -0.56859730598E+02 -0.10054899327E+03  0.13515160356E+03  0.41800000000E+01 0.  1.
        -11    1    1    2    0    0  0.10895946060E+02  0.16293775979E+03 -0.32341315725E+03  0.36230305752E+03  0.00000000000E+00 0. -1.
         11    1    1    2    0    0  0.18549211182E+02 -0.16926315835E+01 -0.12696322644E+02  0.22541846549E+02  0.00000000000E+00 0.  1.
</event>
<event>
 7    1  0.3265282E-009  0.9567406E+02  0.7561462E-02  0.1289665E+00
          2   -1    0    0  501    0  0.00000000000E+00  0.00000000000E+00  0.47032967834E+02  0.47032967834E+02  0.00000000000E+00 0.  1.
         -2   -1    0    0    0  501 -0.00000000000E+00 -0.00000000000E+00 -0.37636840697E+03  0.37636840697E+03  0.00000000000E+00 0. -1.
         25    2    1    2    0    0 -0.58479017368E+02 -0.24526833494E+02 -0.11203702761E+03  0.17950285831E+03  0.12509044548E+03 0.  0.
          5    1    3    3  502    0  0.28035317625E+01 -0.20149836969E+02 -0.11595248002E+03  0.11779781723E+03  0.41800000000E+01 0. -1.
         -5    1    3    3    0  502 -0.61282549131E+02 -0.43769965250E+01  0.39154524132E+01  0.61705041076E+02  0.41800000000E+01 0. -1.
        -11    1    1    2    0    0 -0.23521698510E+02  0.10696632556E+02 -0.34778323244E+02  0.43326897148E+02  0.00000000000E+00 0.  1.
         11    1    1    2    0    0  0.82000715878E+02  0.13830200938E+02 -0.18252008828E+03  0.20057161935E+03  0.00000000000E+00 0. -1.
</event>
<event>
 7    1  0.3265282E-009  0.2019825E+03  0.7561462E-02  0.1148077E+00
         -3   -1    0    0    0  501 -0.00000000000E+00  0.00000000000E+00  0.49293506081E+03  0.49293506081E+03  0.00000000000E+00 0.  1.
          3   -1    0    0  501    0  0.00000000000E+00 -0.00000000000E+00 -0.86064748922E+02  0.86064748922E+02  0.00000000000E+00 0. -1.
         25    2    1    2    0    0  0.12670004971E+03  0.11590179149E+03  0.25775874211E+03  0.33402583022E+03  0.12509020048E+03 0.  0.
          5    1    3    3  502    0  0.87212384266E+02 -0.42678907095E+00  0.83794225268E+02  0.12101705131E+03  0.41800000000E+01 0.  1.
         -5    1    3    3    0  502  0.39487665441E+02  0.11632858056E+03  0.17396451684E+03  0.21300877892E+03  0.41800000000E+01 0.  1.
        -11    1    1    2    0    0 -0.13197689659E+03 -0.73618466665E+02  0.10784671183E+03  0.18565692317E+03  0.00000000000E+00 0.  1.
         11    1    1    2    0    0  0.52768468846E+01 -0.42283324821E+02  0.41264857944E+02  0.59317056334E+02  0.00000000000E+00 0. -1.
</event>
<event>
 7    1  0.4207265E-009  0.1376435E+03  0.7561462E-02  0.1216535E+00
          1   -1    0    0  501    0  0.00000000000E+00  0.00000000000E+00  0.14888101377E+03  0.14888101377E+03  0.00000000000E+00 0. -1.
         -1   -1    0    0    0  501 -0.00000000000E+00 -0.00000000000E+00 -0.14749114205E+03  0.14749114205E+03  0.00000000000E+00 0.  1.
         25    2    1    2    0    0  0.32990581804E+02 -0.86901449834E+02 -0.37463970192E+02  0.16028548199E+03  0.12509055202E+03 0.  0.
          5    1    3    3  502    0  0.77226314665E+02 -0.30828072752E+02 -0.10891597041E+02  0.83966499465E+02  0.41800000000E+01 0. -1.
         -5    1    3    3    0  502 -0.44235732861E+02 -0.56073377081E+02 -0.26572373152E+02  0.76318982527E+02  0.41800000000E+01 0. -1.
        -11    1    1    2    0    0  0.12661129633E+02  0.71036951252E+02 -0.29054696776E+01  0.72214918132E+02  0.00000000000E+00 0.  1.
         11    1    1    2    0    0 -0.45651711437E+02  0.15864498582E+02  0.41759311588E+02  0.63871755704E+02  0.00000000000E+00 0. -1.
</event>
<event>
 7    1  0.3265282E-009  0.1126527E+03  0.7561462E-02  0.1255735E+00
          2   -1    0    0  501    0  0.00000000000E+00  0.00000000000E+00  0.76298764139E+02  0.76298764139E+02  0.00000000000E+00 0. -1.
         -2   -1    0    0    0  501 -0.00000000000E+00 -0.00000000000E+00 -0.25932980980E+03  0.25932980980E+03  0.00000000000E+00 0.  1.
         25    2    1    2    0    0  0.72820640290E+02 -0.29100992040E+02 -0.53196884721E+02  0.15693159341E+03  0.12509157876E+03 0.  0.
          5    1    3    3  502    0  0.94079349653E+02 -0.36371259079E+01 -0.16759181833E+00  0.94242523327E+02  0.41800000000E+01 0. -1.
         -5    1    3    3    0  502 -0.21258709363E+02 -0.25463866132E+02 -0.53029292902E+02  0.62689070083E+02  0.41800000000E+01 0. -1.
        -11    1    1    2    0    0 -0.87498184853E+01 -0.16712271686E+02  0.75633760793E+01  0.20323976140E+02  0.00000000000E+00 0. -1.
         11    1    1    2    0    0 -0.64070821804E+02  0.45813263726E+02 -0.13739753702E+03  0.15837300439E+03  0.00000000000E+00 0.  1.
</event>
<event>
 7    1  0.3265282E-009  0.1474236E+03  0.7561462E-02  0.1203675E+00
          1   -1    0    0  501    0  0.00000000000E+00  0.00000000000E+00  0.13035090232E+04  0.13035090232E+04  0.00000000000E+00 0. -1.
         -1   -1    0    0    0  501 -0.00000000000E+00 -0.00000000000E+00 -0.19202430601E+02  0.19202430601E+02  0.00000000000E+00 0.  1.
         25    2    1    2    0    0  0.11050104155E+03 -0.19718295580E+02  0.59679861925E+03  0.62001264613E+03  0.12509115899E+03 0.  0.
          5    1    3    3  502    0  0.98803731923E+02  0.29104734518E+02  0.26382773071E+03  0.28325219664E+03  0.41800000000E+01 0.  1.
         -5    1    3    3    0  502  0.11697309627E+02 -0.48823030098E+02  0.33297088855E+03  0.33676044949E+03  0.41800000000E+01 0.  1.
        -11    1    1    2    0    0 -0.18954865446E+02 -0.31291102685E+02  0.11502739879E+03  0.12070510554E+03  0.00000000000E+00 0.  1.
         11    1    1    2    0    0 -0.91546176105E+02  0.51009398266E+02  0.57248057454E+03  0.58199370211E+03  0.00000000000E+00 0. -1.
</event>
<event>
 7    1  0.3265282E-009  0.1647341E+03  0.7561462E-02  0.1183453E+00
         -1   -1    0    0    0  501 -0.00000000000E+00  0.00000000000E+00  0.74694711956E+03  0.74694711956E+03  0.00000000000E+00 0.  1.
          1   -1    0    0  501    0  0.00000000000E+00 -0.00000000000E+00 -0.47933274476E+02  0.47933274476E+02  0.00000000000E+00 0. -1.
         25    2    1    2    0    0  0.54212236053E+02 -0.12949929384E+03  0.54902205627E+03  0.58032203511E+03  0.12505763675E+03 0.  0.
          5    1    3    3  502    0 -0.31782888152E+02 -0.23049359922E+02  0.55163282116E+02  0.67837195298E+02  0.41800000000E+01 0. -1.
         -5    1    3    3    0  502  0.85995124206E+02 -0.10644993392E+03  0.49385877416E+03  0.51248483981E+03  0.41800000000E+01 0. -1.
        -11    1    1    2    0    0 -0.65882028134E+02  0.87768262148E+02  0.10091129075E+03  0.14908654558E+03  0.00000000000E+00 0.  1.
         11    1    1    2    0    0  0.11669792080E+02  0.41731031697E+02  0.49080498057E+02  0.65471813349E+02  0.00000000000E+00 0. -1.
</event>
<event>
 7    1  0.3265282E-009  0.1271691E+03  0.7561462E-02  0.1231718E+00
         -1   -1    0    0    0  501 -0.00000000000E+00  0.00000000000E+00  0.20167797495E+03  0.20167797495E+03  0.00000000000E+00 0.  1.
          1   -1    0    0  501    0  0.00000000000E+00 -0.00000000000E+00 -0.11544603496E+03  0.11544603496E+03  0.00000000000E+00 0. -1.
         25    2    1    2    0    0 -0.75932796331E+02 -0.58997425765E+02 -0.29563332908E+01  0.15781177005E+03  0.12509727836E+03 0.  0.
          5    1    3    3  502    0  0.32036094055E+01 -0.64305065025E+02 -0.33522029914E+02  0.72709032387E+02  0.41800000000E+01 0.  1.
         -5    1    3    3    0  502 -0.79136405736E+02  0.53076392601E+01  0.30565696623E+02  0.85102737661E+02  0.41800000000E+01 0.  1.
        -11    1    1    2    0    0  0.51478965409E+02  0.57496982672E+01  0.86293320887E+02  0.10064631210E+03  0.00000000000E+00 0.  1.
         11    1    1    2    0    0  0.24453830922E+02  0.53247727498E+02  0.28949523937E+01  0.58665927758E+02  0.00000000000E+00 0. -1.
</event>
<event>
 7    1  0.3265282E-009  0.1147755E+03  0.7561462E-02  0.1251973E+00
          2   -1    0    0  501    0  0.00000000000E+00  0.00000000000E+00  0.12723864216E+04  0.12723864216E+04  0.00000000000E+00 0. -1.
         -2   -1    0    0    0  501 -0.00000000000E+00 -0.00000000000E+00 -0.14374711052E+02  0.14374711052E+02  0.00000000000E+00 0.  1.
         25    2    1    2    0    0 -0.49038095668E+02  0.83176099746E+01  0.99535412918E+03  0.10044154589E+04  0.12508658692E+03 0.  0.
          5    1    3    3  502    0 -0.25004068755E+02  0.62019451431E+02  0.34881914919E+03  0.35519556170E+03  0.41800000000E+01 0. -1.
         -5    1    3    3    0  502 -0.24034026913E+02 -0.53701841457E+02  0.64653497999E+03  0.64921989725E+03  0.41800000000E+01 0. -1.
        -11    1    1    2    0    0 -0.17407537695E+02  0.24024882088E+02  0.72840938696E+02  0.78651253506E+02  0.00000000000E+00 0. -1.
         11    1    1    2    0    0  0.66445633363E+02 -0.32342492063E+02  0.18981664266E+03  0.20369442019E+03  0.00000000000E+00 0.  1.
</event>
<event>
 7    1  0.3265282E-009  0.1260794E+03  0.7561462E-02  0.1233392E+00
         -1   -1    0    0    0  501 -0.00000000000E+00  0.00000000000E+00  0.11573193055E+02  0.11573193055E+02  0.00000000000E+00 0.  1.
          1   -1    0    0  501    0  0.00000000000E+00 -0.00000000000E+00 -0.17392944576E+04  0.17392944576E+04  0.00000000000E+00 0. -1.
         25    2    1    2    0    0 -0.12457803825E+02 -0.80419529115E+02 -0.12252000263E+04  0.12342548703E+04  0.12508989878E+03 0.  0.
          5    1    3    3  502    0 -0.64833695410E+02 -0.17986068202E+02 -0.52118820597E+03  0.52552975668E+03  0.41800000000E+01 0.  1.
         -5    1    3    3    0  502  0.52375891585E+02 -0.62433460913E+02 -0.70401182037E+03  0.70872511362E+03  0.41800000000E+01 0.  1.
        -11    1    1    2    0    0  0.73731199969E+01  0.91057490063E+02 -0.49318091544E+03  0.50157077741E+03  0.00000000000E+00 0. -1.
         11    1    1    2    0    0  0.50846838278E+01 -0.10637960948E+02 -0.93403227175E+01  0.15042002900E+02  0.00000000000E+00 0.  1.
</event>
<event>
 7    1  0.3265282E-009  0.1064489E+03  0.7561462E-02  0.1267291E+00
          2   -1    0    0  501    0  0.00000000000E+00  0.00000000000E+00  0.33737517102E+03  0.33737517102E+03  0.00000000000E+00 0. -1.
         -2   -1    0    0    0  501 -0.00000000000E+00 -0.00000000000E+00 -0.55365780239E+02  0.55365780239E+02  0.00000000000E+00 0.  1.
         25    2    1    2    0    0 -0.42996714947E+02 -0.52359253740E+02  0.22409634481E+03  0.26543751393E+03  0.12509073944E+03 0.  0.
          5    1    3    3  502    0 -0.67248101578E+02 -0.24124437396E+02  0.21541286040E+03  0.22699001844E+03  0.41800000000E+01 0.  1.
         -5    1    3    3    0  502  0.24251386631E+02 -0.28234816345E+02  0.86834844089E+01  0.38447495484E+02  0.41800000000E+01 0.  1.
        -11    1    1    2    0    0  0.66329300961E+02  0.37132244594E+02  0.17146518523E+02  0.77925495520E+02  0.00000000000E+00 0.  1.
         11    1    1    2    0    0 -0.23332586014E+02  0.15227009146E+02  0.40766527445E+02  0.49377941812E+02  0.00000000000E+00 0. -1.
</event>
<event>
 7    1  0.3265282E-009  0.1421669E+03  0.7561462E-02  0.1210443E+00
          2   -1    0    0  501    0  0.00000000000E+00  0.00000000000E+00  0.16247609832E+04  0.16247609832E+04  0.00000000000E+00 0. -1.
         -2   -1    0    0    0  501 -0.00000000000E+00 -0.00000000000E+00 -0.12861068612E+02  0.12861068612E+02  0.00000000000E+00 0.  1.
         25    2    1    2    0    0  0.85069730315E+02 -0.46790866923E+02  0.94916892376E+03  0.96228636605E+03  0.12508860943E+03 0.  0.
          5    1    3    3  502    0  0.98557862251E+02 -0.76299706867E+02  0.70651935792E+03  0.71744154674E+03  0.41800000000E+01 0.  1.
         -5    1    3    3    0  502 -0.13488131936E+02  0.29508839944E+02  0.24264956584E+03  0.24484481930E+03  0.41800000000E+01 0.  1.
        -11    1    1    2    0    0  0.53973719293E+01  0.35306165654E+02  0.12823428597E+03  0.13311532239E+03  0.00000000000E+00 0.  1.
         11    1    1    2    0    0 -0.90467102244E+02  0.11484701268E+02  0.53449670490E+03  0.54222036341E+03  0.00000000000E+00 0. -1.
</event>
<event>
 7    1  0.3265282E-009  0.9232372E+02  0.7561462E-02  0.1297320E+00
         -2   -1    0    0    0  501 -0.00000000000E+00  0.00000000000E+00  0.76853216626E+02  0.76853216626E+02  0.00000000000E+00 0.  1.
          2   -1    0    0  501    0  0.00000000000E+00 -0.00000000000E+00 -0.29498545988E+03  0.29498545988E+03  0.00000000000E+00 0. -1.
         25    2    1    2    0    0  0.56340731747E+02  0.40471992689E+02 -0.21315510324E+03  0.25670066341E+03  0.12509145579E+03 0.  0.
          5    1    3    3  502    0 -0.90822620902E+01 -0.19887040993E+02  0.34099861380E+01  0.22518487729E+02  0.41800000000E+01 0. -1.
         -5    1    3    3    0  502  0.65422993837E+02  0.60359033682E+02 -0.21656508938E+03  0.23418217568E+03  0.41800000000E+01 0. -1.
        -11    1    1    2    0    0 -0.22573377247E+02 -0.28966623215E+01 -0.45171059340E+02  0.50580357994E+02  0.00000000000E+00 0. -1.
         11    1    1    2    0    0 -0.33767354500E+02 -0.37575330368E+02  0.40193919323E+02  0.64557655105E+02  0.00000000000E+00 0.  1.
</event>
<event>
 7    1  0.3265282E-009  0.1459299E+03  0.7561462E-02  0.1205565E+00
          1   -1    0    0  501    0  0.00000000000E+00  0.00000000000E+00  0.19941650081E+02  0.19941650081E+02  0.00000000000E+00 0.  1.
         -1   -1    0    0    0  501 -0.00000000000E+00 -0.00000000000E+00 -0.12344279611E+04  0.12344279611E+04  0.00000000000E+00 0. -1.
         25    2    1    2    0    0 -0.53221168749E+02 -0.96297600977E+02 -0.53450227116E+03  0.55986439318E+03  0.12509892134E+03 0.  0.
          5    1    3    3  502    0 -0.74176494403E+02 -0.15324220355E+02 -0.17495002765E+03  0.19068814496E+03  0.41800000000E+01 0.  1.
         -5    1    3    3    0  502  0.20955325655E+02 -0.80973380622E+02 -0.35955224351E+03  0.36917624822E+03  0.41800000000E+01 0.  1.
        -11    1    1    2    0    0 -0.18717409590E+02  0.19890104475E+02 -0.63085209447E+02  0.68743736651E+02  0.00000000000E+00 0.  1.
         11    1    1    2    0    0  0.71938578339E+02  0.76407496502E+02 -0.61689883044E+03  0.62576148138E+03  0.00000000000E+00 0. -1.
</event>
<event>
 7    1  0.3265282E-009  0.6357548E+02  0.7561462E-02  0.1383412E+00
          2   -1    0    0  501    0  0.00000000000E+00  0.00000000000E+00  0.46614903928E+02  0.46614903928E+02  0.00000000000E+00 0. -1.
         -2   -1    0    0    0  501 -0.00000000000E+00 -0.00000000000E+00 -0.35611100939E+03  0.35611100939E+03  0.00000000000E+00 0.  1.
         25    2    1    2    0    0  0.49633200987E+02  0.26553463414E+02 -0.23134474089E+03  0.26895557568E+03  0.12509265162E+03 0.  0.
          5    1    3    3  502    0  0.35234317619E+02  0.13454431643E+02 -0.24296010268E+03  0.24590559726E+03  0.41800000000E+01 0. -1.
         -5    1    3    3    0  502  0.14398883368E+02  0.13099031771E+02  0.11615361789E+02  0.23049978418E+02  0.41800000000E+01 0. -1.
        -11    1    1    2    0    0 -0.17249881081E+02 -0.32098726690E+02  0.11561810387E+02  0.38230382052E+02  0.00000000000E+00 0. -1.
         11    1    1    2    0    0 -0.32383319906E+02  0.55452632758E+01 -0.89713174960E+02  0.95539955591E+02  0.00000000000E+00 0.  1.
</event>
<event>
 7    1  0.3265282E-009  0.9092627E+02  0.7561462E-02  0.1300624E+00
          1   -1    0    0  501    0  0.00000000000E+00  0.00000000000E+00  0.10409831439E+04  0.10409831439E+04  0.00000000000E+00 0. -1.
         -1   -1    0    0    0  501 -0.00000000000E+00 -0.00000000000E+00 -0.14568182935E+02  0.14568182935E+02  0.00000000000E+00 0.  1.
         25    2    1    2    0    0 -0.33815771556E+01  0.34320951950E+02  0.73543697142E+03  0.74679101639E+03  0.12505966740E+03 0.  0.
          5    1    3    3  502    0 -0.32386756089E+02  0.41589427179E+02  0.69127502367E+03  0.69329446354E+03  0.41800000000E+01 0.  1.
         -5    1    3    3    0  502  0.29005178933E+02 -0.72684752292E+01  0.44161947751E+02  0.53496552845E+02  0.41800000000E+01 0.  1.
        -11    1    1    2    0    0 -0.77076373055E+01  0.31297781691E+02  0.56785092315E+02  0.65295524509E+02  0.00000000000E+00 0.  1.
         11    1    1    2    0    0  0.11089214461E+02 -0.65618733641E+02  0.23419289721E+03  0.24346478593E+03  0.00000000000E+00 0. -1.
</event>
<event>
 7    1  0.3265282E-009  0.1002712E+03  0.7561462E-02  0.1279727E+00
         -1   -1    0    0    0  501 -0.00000000000E+00  0.00000000000E+00  0.10750273654E+03  0.10750273654E+03  0.00000000000E+00 0.  1.
          1   -1    0    0  501    0  0.00000000000E+00 -0.00000000000E+00 -0.15832963237E+03  0.15832963237E+03  0.00000000000E+00 0. -1.
         25    2    1    2    0    0 -0.11871813932E+02  0.68019541489E+02  0.83680886113E+00  0.14288393784E+03  0.12509005338E+03 0.  0.
          5    1    3    3  502    0 -0.71775983538E+00 -0.31187197371E+02  0.24870973180E+02  0.40114762444E+02  0.41800000000E+01 0. -1.
         -5    1    3    3    0  502 -0.11154054097E+02  0.99206738859E+02 -0.24034164319E+02  0.10276917540E+03  0.41800000000E+01 0. -1.
        -11    1    1    2    0    0  0.48502852361E+00 -0.10604302795E+02  0.24610974008E+02  0.26802733668E+02  0.00000000000E+00 0.  1.
         11    1    1    2    0    0  0.11386785408E+02 -0.57415238693E+02 -0.76274678699E+02  0.96145697391E+02  0.00000000000E+00 0. -1.
</event>
<event>
 7    1  0.3265282E-009  0.1372410E+03  0.7561462E-02  0.1217090E+00
          2   -1    0    0  501    0  0.00000000000E+00  0.00000000000E+00  0.40878910824E+03  0.40878910824E+03  0.00000000000E+00 0. -1.
         -2   -1    0    0    0  501 -0.00000000000E+00 -0.00000000000E+00 -0.75631492283E+02  0.75631492283E+02  0.00000000000E+00 0.  1.
         25    2    1    2    0    0  0.47661123680E+02  0.12508362495E+03  0.13168067799E+03  0.22562035533E+03  0.12508895972E+03 0.  0.
          5    1    3    3  502    0  0.23072930098E+02  0.23505519333E+02 -0.21922990949E+02  0.39786423244E+02  0.41800000000E+01 0. -1.
         -5    1    3    3    0  502  0.24588193582E+02  0.10157810561E+03  0.15360366894E+03  0.18583393209E+03  0.41800000000E+01 0. -1.
        -11    1    1    2    0    0  0.16494495822E+01 -0.25582262343E+02 -0.33034271721E+01  0.25847349218E+02  0.00000000000E+00 0. -1.
         11    1    1    2    0    0 -0.49310573263E+02 -0.99501362604E+02  0.20478036514E+03  0.23295289598E+03  0.00000000000E+00 0.  1.
</event>
<event>
 7    1  0.3265282E-009  0.1222779E+03  0.7561462E-02  0.1239386E+00
         -1   -1    0    0    0  501 -0.00000000000E+00  0.00000000000E+00  0.35744943954E+02  0.35744943954E+02  0.00000000000E+00 0.  1.
          1   -1    0    0  501    0  0.00000000000E+00 -0.00000000000E+00 -0.45942088339E+03  0.45942088339E+03  0.00000000000E+00 0. -1.
         25    2    1    2    0    0  0.57225007872E+02 -0.17971219890E+01 -0.16865416606E+03  0.21764508852E+03  0.12508887103E+03 0.  0.
          5    1    3    3  502    0 -0.82754518137E+01 -0.53138904255E+02 -0.59359797358E+02  0.80207756424E+02  0.41800000000E+01 0. -1.
         -5    1    3    3    0  502  0.65500459686E+02  0.51341782266E+02 -0.10929436870E+03  0.13743733210E+03  0.41800000000E+01 0. -1.
        -11    1    1    2    0    0  0.10018402483E+02 -0.30921570989E+02 -0.10463419694E+03  0.10956654193E+03  0.00000000000E+00 0. -1.
         11    1    1    2    0    0 -0.67243410355E+02  0.32718692979E+02 -0.15038757644E+03  0.16795419689E+03  0.00000000000E+00 0.  1.
</event>
<event>
 7    1  0.3265282E-009  0.9694070E+02  0.7561462E-02  0.1286864E+00
         -1   -1    0    0    0  501 -0.00000000000E+00  0.00000000000E+00  0.39106014027E+03  0.39106014027E+03  0.00000000000E+00 0.  1.
          1   -1    0    0  501    0  0.00000000000E+00 -0.00000000000E+00 -0.39349209963E+02  0.39349209963E+02  0.00000000000E+00 0. -1.
         25    2    1    2    0    0  0.51088165211E+02  0.14258785122E+02  0.24985828684E+03  0.28440983131E+03  0.12508587078E+03 0.  0.
          5    1    3    3  502    0 -0.23165903832E+02  0.31258981332E+02  0.23741936264E+02  0.45770459379E+02  0.41800000000E+01 0. -1.
         -5    1    3    3    0  502  0.74254069042E+02 -0.17000196210E+02  0.22611635057E+03  0.23863937194E+03  0.41800000000E+01 0. -1.
        -11    1    1    2    0    0 -0.31411853123E+02 -0.36902960084E+02  0.10518933067E+03  0.11581592406E+03  0.00000000000E+00 0.  1.
         11    1    1    2    0    0 -0.19676312088E+02  0.22644174962E+02 -0.33366871984E+01  0.30183594858E+02  0.00000000000E+00 0. -1.
</event>
<event>
 7    1  0.3265282E-009  0.7998413E+02  0.7561462E-02  0.1329096E+00
          2   -1    0    0  501    0  0.00000000000E+00  0.00000000000E+00  0.59656903703E+03  0.59656903703E+03  0.00000000000E+00 0. -1.
         -2   -1    0    0    0  501 -0.00000000000E+00 -0.00000000000E+00 -0.25216110557E+02  0.25216110557E+02  0.00000000000E+00 0.  1.
         25    2    1    2    0    0 -0.17826081993E+02  0.50112661969E+00  0.46473604870E+03  0.48160687035E+03  0.12509021655E+03 0.  0.
          5    1    3    3  502    0  0.16194571105E+02  0.57437502484E+02  0.22841227053E+03  0.23611643007E+03  0.41800000000E+01 0. -1.
         -5    1    3    3    0  502 -0.34020653098E+02 -0.56936375864E+02  0.23632377817E+03  0.24549044027E+03  0.41800000000E+01 0. -1.
        -11    1    1    2    0    0  0.14811111960E+02 -0.13683607119E+02  0.11968564251E+03  0.12137241517E+03  0.00000000000E+00 0. -1.
         11    1    1    2    0    0  0.30149700328E+01  0.13182480499E+02 -0.13068764737E+02  0.18805862069E+02  0.00000000000E+00 0.  1.
</event>
<event>
 7    1  0.3265282E-009  0.8324925E+02  0.7561462E-02  0.1320075E+00
          1   -1    0    0  501    0  0.00000000000E+00  0.00000000000E+00  0.13456060948E+03  0.13456060948E+03  0.00000000000E+00 0. -1.
         -1   -1    0    0    0  501 -0.00000000000E+00 -0.00000000000E+00 -0.12359202227E+03  0.12359202227E+03  0.00000000000E+00 0.  1.
         25    2    1    2    0    0  0.37420161926E+02  0.38750201216E+02  0.35428347184E+02  0.14072783066E+03  0.12508919988E+03 0.  0.
          5    1    3    3  502    0 -0.28773272144E+02  0.12951463380E+02  0.57922088693E+02  0.66091469586E+02  0.41800000000E+01 0. -1.
         -5    1    3    3    0  502  0.66193434070E+02  0.25798737836E+02 -0.22493741508E+02  0.74636361078E+02  0.41800000000E+01 0. -1.
        -11    1    1    2    0    0 -0.17393184734E+01 -0.25317748497E+02 -0.60097972596E+02  0.65236339013E+02  0.00000000000E+00 0.  1.
         11    1    1    2    0    0 -0.35680843453E+02 -0.13432452719E+02  0.35638212616E+02  0.52188462077E+02  0.00000000000E+00 0. -1.
</event>
<event>
 7    1  0.3265282E-009  0.1196873E+03  0.7561462E-02  0.1243614E+00
          2   -1    0    0  501    0  0.00000000000E+00  0.00000000000E+00  0.15748058353E+03  0.15748058353E+03  0.00000000000E+00 0. -1.
         -2   -1    0    0    0  501 -0.00000000000E+00 -0.00000000000E+00 -0.15645167911E+03  0.15645167911E+03  0.00000000000E+00 0.  1.
         25    2    1    2    0    0 -0.34133793074E+02  0.10070871434E+03 -0.40125915194E+02  0.16901223455E+03  0.12509070862E+03 0.  0.
          5    1    3    3  502    0  0.16411267193E+02  0.91387922480E-01 -0.52964413537E+02  0.55606110671E+02  0.41800000000E+01 0. -1.
         -5    1    3    3    0  502 -0.50545060268E+02  0.10061732642E+03  0.12838498343E+02  0.11340612387E+03  0.41800000000E+01 0. -1.
        -11    1    1    2    0    0  0.20152176554E+02 -0.22055287781E+02  0.56182965343E+02  0.63632315168E+02  0.00000000000E+00 0. -1.
         11    1    1    2    0    0  0.13981616521E+02 -0.78653426557E+02 -0.15028145725E+02  0.81287712932E+02  0.00000000000E+00 0.  1.
</event>
<event>
 7    1  0.3265282E-009  0.1026468E+03  0.7561462E-02  0.1274827E+00
         -2   -1    0    0    0  501 -0.00000000000E+00  0.00000000000E+00  0.96888358631E+02  0.96888358631E+02  0.00000000000E+00 0.  1.
          2   -1    0    0  501    0  0.00000000000E+00 -0.00000000000E+00 -0.16560125461E+03  0.16560125461E+03  0.00000000000E+00 0. -1.
         25    2    1    2    0    0  0.46065779425E+02  0.11736373287E+01 -0.84810014649E+02  0.15799347487E+03  0.12508303665E+03 0.  0.
          5    1    3    3  502    0  0.71210437926E+02 -0.32755937811E+02 -0.84804660426E+02  0.11555596376E+03  0.41800000000E+01 0. -1.
         -5    1    3    3    0  502 -0.25144658501E+02  0.33929575140E+02 -0.53542224951E-02  0.42437511107E+02  0.41800000000E+01 0. -1.
        -11    1    1    2    0    0  0.12687723924E+02  0.18472937343E+02  0.33356463289E+02  0.40185586913E+02  0.00000000000E+00 0.  1.
         11    1    1    2    0    0 -0.58753503349E+02 -0.19646574671E+02 -0.17259344619E+02  0.64310551457E+02  0.00000000000E+00 0. -1.
</event>
<event>
 7    1  0.3265282E-009  0.1569397E+03  0.7561462E-02  0.1192196E+00
         -2   -1    0    0    0  501 -0.00000000000E+00  0.00000000000E+00  0.61626058980E+02  0.61626058980E+02  0.00000000000E+00 0. -1.
          2   -1    0    0  501    0  0.00000000000E+00 -0.00000000000E+00 -0.44952964224E+03  0.44952964224E+03  0.00000000000E+00 0.  1.
         25    2    1    2    0    0 -0.65157495456E+02 -0.92054601502E+02 -0.28785296077E+03  0.33350591860E+03  0.12508925553E+03 0.  0.
          5    1    3    3  502    0 -0.17132264839E+00 -0.10127324233E+03 -0.19428097351E+03  0.21913207896E+03  0.41800000000E+01 0. -1.
         -5    1    3    3    0  502 -0.64986172808E+02  0.92186408253E+01 -0.93571987261E+02  0.11437383964E+03  0.41800000000E+01 0. -1.
        -11    1    1    2    0    0  0.38491397017E+02  0.10870099122E+03 -0.80439618694E+02  0.14059881007E+03  0.00000000000E+00 0. -1.
         11    1    1    2    0    0  0.26666098439E+02 -0.16646389719E+02 -0.19611003795E+02  0.37050972544E+02  0.00000000000E+00 0.  1.
</event>
<event>
 7    1  0.3265282E-009  0.1020238E+03  0.7561462E-02  0.1276097E+00
          3   -1    0    0  501    0  0.00000000000E+00  0.00000000000E+00  0.18038877030E+03  0.18038877030E+03  0.00000000000E+00 0. -1.
         -3   -1    0    0    0  501 -0.00000000000E+00 -0.00000000000E+00 -0.77440684723E+02  0.77440684723E+02  0.00000000000E+00 0.  1.
         25    2    1    2    0    0  0.35423523466E+02 -0.29032765804E+02  0.47834308079E+02  0.14153853244E+03  0.12508919870E+03 0.  0.
          5    1    3    3  502    0  0.80670941199E+01  0.32731755451E+02 -0.24951131920E+02  0.42148276436E+02  0.41800000000E+01 0.  1.
         -5    1    3    3    0  502  0.27356429346E+02 -0.61764521255E+02  0.72785439999E+02  0.99390256003E+02  0.41800000000E+01 0.  1.
        -11    1    1    2    0    0 -0.26398566392E+02 -0.31554911521E+02  0.21635004701E+02  0.46483009553E+02  0.00000000000E+00 0.  1.
         11    1    1    2    0    0 -0.90249570746E+01  0.60587677325E+02  0.33478772796E+02  0.69807913032E+02  0.00000000000E+00 0. -1.
</event>
<event>
 7    1  0.3265282E-009  0.2167855E+03  0.7561462E-02  0.1136302E+00
          2   -1    0    0  501    0  0.00000000000E+00  0.00000000000E+00  0.12334759356E+04  0.12334759356E+04  0.00000000000E+00 0. -1.
         -2   -1    0    0    0  501 -0.00000000000E+00 -0.00000000000E+00 -0.43968819830E+02  0.43968819830E+02  0.00000000000E+00 0.  1.
         25    2    1    2    0    0 -0.28249409704E+02  0.19128542255E+03  0.42259454657E+03  0.48127191772E+03  0.12509342894E+03 0.  0.
          5    1    3    3  502    0  0.17153763208E+02 -0.61929903372E+01  0.91601956540E+01  0.20832337985E+02  0.41800000000E+01 0. -1.
         -5    1    3    3    0  502 -0.45403172912E+02  0.19747841289E+03  0.41343435092E+03  0.46043957973E+03  0.41800000000E+01 0. -1.
        -11    1    1    2    0    0  0.58696276590E+02 -0.14845429684E+03  0.53093951153E+03  0.55441924212E+03  0.00000000000E+00 0.  1.
         11    1    1    2    0    0 -0.30446866886E+02 -0.42831125710E+02  0.23597305767E+03  0.24175359559E+03  0.00000000000E+00 0. -1.
</event>
<event>
 7    1  0.3265282E-009  0.2722702E+03  0.7561462E-02  0.1099987E+00
         -1   -1    0    0    0  501 -0.00000000000E+00  0.00000000000E+00  0.44727178335E+02  0.44727178335E+02  0.00000000000E+00 0.  1.
          1   -1    0    0  501    0  0.00000000000E+00 -0.00000000000E+00 -0.19900062895E+04  0.19900062895E+04  0.00000000000E+00 0. -1.
         25    2    1    2    0    0  0.12194811434E+03 -0.22703655262E+03 -0.13427576926E+04  0.13729768560E+04  0.12510110808E+03 0.  0.
          5    1    3    3  502    0  0.44823625556E+02 -0.16932746314E+03 -0.10561990859E+04  0.10706329570E+04  0.41800000000E+01 0. -1.
         -5    1    3    3    0  502  0.77124488783E+02 -0.57709089475E+02 -0.28655860670E+03  0.30234389898E+03  0.41800000000E+01 0. -1.
        -11    1    1    2    0    0 -0.71149035059E+02  0.45615349216E+02 -0.16464042645E+03  0.18506597552E+03  0.00000000000E+00 0.  1.
         11    1    1    2    0    0 -0.50799079280E+02  0.18142120340E+03 -0.43788099210E+03  0.47669063631E+03  0.00000000000E+00 0. -1.
</event>
<event>
 7    1  0.3265282E-009  0.1063481E+03  0.7561462E-02  0.1267486E+00
         -2   -1    0    0    0  501 -0.00000000000E+00  0.00000000000E+00  0.86108627793E+02  0.86108627793E+02  0.00000000000E+00 0.  1.
          2   -1    0    0  501    0  0.00000000000E+00 -0.00000000000E+00 -0.29907831618E+03  0.29907831618E+03  0.00000000000E+00 0. -1.
         25    2    1    2    0    0  0.68977072045E+02 -0.13989609511E+02 -0.22565159547E+03  0.26741826948E+03  0.12506135563E+03 0.  0.
          5    1    3    3  502    0 -0.71558702401E+01 -0.42593672953E+02 -0.15040816256E+03  0.15654237516E+03  0.41800000000E+01 0. -1.
         -5    1    3    3    0  502  0.76132942286E+02  0.28604063443E+02 -0.75243432912E+02  0.11087589433E+03  0.41800000000E+01 0. -1.
        -11    1    1    2    0    0 -0.71002948529E+02 -0.27010102265E+01  0.43034636118E+02  0.83070416285E+02  0.00000000000E+00 0.  1.
         11    1    1    2    0    0  0.20258764831E+01  0.16690619737E+02 -0.30352729036E+02  0.34698258208E+02  0.00000000000E+00 0. -1.
</event>
<event>
 7    1  0.3501838E-009  0.8675761E+02  0.7561462E-02  0.1310899E+00
          2   -1    0    0  501    0  0.00000000000E+00  0.00000000000E+00  0.79464297143E+03  0.79464297143E+03  0.00000000000E+00 0. -1.
         -2   -1    0    0    0  501 -0.00000000000E+00 -0.00000000000E+00 -0.23853153001E+02  0.23853153001E+02  0.00000000000E+00 0.  1.
         25    2    1    2    0    0  0.74339163923E+02 -0.39901804104E+02  0.45368333603E+03  0.47811745002E+03  0.12509700778E+03 0.  0.
          5    1    3    3  502    0  0.47088952404E+02 -0.35440974019E+02  0.62752650700E+02  0.86190484671E+02  0.41800000000E+01 0. -1.
         -5    1    3    3    0  502  0.27250211518E+02 -0.44608300849E+01  0.39093068533E+03  0.39192696535E+03  0.41800000000E+01 0. -1.
        -11    1    1    2    0    0 -0.37064378380E+02  0.91397888938E+01  0.28208213506E+02  0.47465852936E+02  0.00000000000E+00 0.  1.
         11    1    1    2    0    0 -0.37274785542E+02  0.30762015210E+02  0.28889826889E+03  0.29291282148E+03  0.00000000000E+00 0. -1.
</event>
<event>
 7    1  0.3265282E-009  0.1140302E+03  0.7561462E-02  0.1253284E+00
          2   -1    0    0  501    0  0.00000000000E+00  0.00000000000E+00  0.31309946055E+03  0.31309946055E+03  0.00000000000E+00 0. -1.
         -2   -1    0    0    0  501 -0.00000000000E+00 -0.00000000000E+00 -0.66204466096E+02  0.66204466096E+02  0.00000000000E+00 0.  1.
         25    2    1    2    0    0  0.66136485602E+02  0.13488116290E+02  0.21509889995E+03  0.25781914888E+03  0.12508881949E+03 0.  0.
          5    1    3    3  502    0  0.27637716347E+02 -0.49238360141E+02  0.14674143021E+03  0.15728566118E+03  0.41800000000E+01 0. -1.
         -5    1    3    3    0  502  0.38498769255E+02  0.62726476431E+02  0.68357469747E+02  0.10053348770E+03  0.41800000000E+01 0. -1.
        -11    1    1    2    0    0 -0.81276899024E+02 -0.82128653343E+01  0.51126405791E+02  0.96370611916E+02  0.00000000000E+00 0.  1.
         11    1    1    2    0    0  0.15140413422E+02 -0.52752509555E+01 -0.19330311294E+02  0.25114165842E+02  0.00000000000E+00 0. -1.
</event>
<event>
 7    1  0.3265282E-009  0.1237438E+03  0.7561462E-02  0.1237046E+00
          1   -1    0    0  501    0  0.00000000000E+00  0.00000000000E+00  0.69266238521E+03  0.69266238521E+03  0.00000000000E+00 0. -1.
         -1   -1    0    0    0  501 -0.00000000000E+00 -0.00000000000E+00 -0.31594969700E+02  0.31594969700E+02  0.00000000000E+00 0.  1.
         25    2    1    2    0    0 -0.44688219041E+02 -0.37051440541E+02  0.55191737743E+03  0.56888482871E+03  0.12508921078E+03 0.  0.
          5    1    3    3  502    0 -0.32750057336E+02  0.44142239480E+02  0.19593914093E+03  0.20354538293E+03  0.41800000000E+01 0.  1.
         -5    1    3    3    0  502 -0.11938161704E+02 -0.81193680021E+02  0.35597823650E+03  0.36533944578E+03  0.41800000000E+01 0.  1.
        -11    1    1    2    0    0  0.74107778291E+02  0.23049320972E+02  0.70813152309E+02  0.10506063269E+03  0.00000000000E+00 0. -1.
         11    1    1    2    0    0 -0.29419559250E+02  0.14002119570E+02  0.38336885769E+02  0.50311893518E+02  0.00000000000E+00 0.  1.
</event>
<event>
 7    1  0.3265282E-009  0.1109831E+03  0.7561462E-02  0.1258760E+00
         -2   -1    0    0    0  501 -0.00000000000E+00  0.00000000000E+00  0.60117483500E+02  0.60117483500E+02  0.00000000000E+00 0.  1.
          2   -1    0    0  501    0  0.00000000000E+00 -0.00000000000E+00 -0.28893952074E+03  0.28893952074E+03  0.00000000000E+00 0. -1.
         25    2    1    2    0    0 -0.53036446610E+00  0.58865326198E+02 -0.18939064089E+03  0.23448124422E+03  0.12508889286E+03 0.  0.
          5    1    3    3  502    0  0.27068972716E+02 -0.29880044064E+02 -0.31965965288E+02  0.51622104316E+02  0.41800000000E+01 0.  1.
         -5    1    3    3    0  502 -0.27599337182E+02  0.88745370263E+02 -0.15742467560E+03  0.18285913990E+03  0.41800000000E+01 0.  1.
        -11    1    1    2    0    0  0.33197744620E+02 -0.31914393373E+02 -0.52899971554E+02  0.70135766501E+02  0.00000000000E+00 0. -1.
         11    1    1    2    0    0 -0.32667380154E+02 -0.26950932825E+02  0.13468575206E+02  0.44439993523E+02  0.00000000000E+00 0.  1.
</event>
<event>
 7    1  0.3265282E-009  0.1162956E+03  0.7561462E-02  0.1249336E+00
         -1   -1    0    0    0  501 -0.00000000000E+00  0.00000000000E+00  0.18270152870E+02  0.18270152870E+02  0.00000000000E+00 0.  1.
          1   -1    0    0  501    0  0.00000000000E+00 -0.00000000000E+00 -0.96851666234E+03  0.96851666234E+03  0.00000000000E+00 0. -1.
         25    2    1    2    0    0  0.22375480876E+02  0.42890260624E+02 -0.74413653418E+03  0.75612621892E+03  0.12508973116E+03 0.  0.
          5    1    3    3  502    0  0.37169966299E+02 -0.34871148032E+02 -0.38258180674E+03  0.38598434503E+03  0.41800000000E+01 0.  1.
         -5    1    3    3    0  502 -0.14794485423E+02  0.77761408656E+02 -0.36155472744E+03  0.37014187389E+03  0.41800000000E+01 0.  1.
        -11    1    1    2    0    0 -0.44807265276E+02  0.89581074281E+01 -0.73886626569E+02  0.86874462853E+02  0.00000000000E+00 0. -1.
         11    1    1    2    0    0  0.22431784400E+02 -0.51848368052E+02 -0.13222334872E+03  0.14378613343E+03  0.00000000000E+00 0.  1.
</event>
<event>
 7    1  0.3265282E-009  0.1132084E+03  0.7561462E-02  0.1254741E+00
         -1   -1    0    0    0  501 -0.00000000000E+00  0.00000000000E+00  0.12816910484E+03  0.12816910484E+03  0.00000000000E+00 0.  1.
          1   -1    0    0  501    0  0.00000000000E+00 -0.00000000000E+00 -0.15325118542E+03  0.15325118542E+03  0.00000000000E+00 0. -1.
         25    2    1    2    0    0  0.87701416626E+02 -0.19287639493E+02  0.17188612482E+01  0.15399397386E+03  0.12509051916E+03 0.  0.
          5    1    3    3  502    0 -0.75424459385E+01  0.16737389494E+01 -0.44948853998E+02  0.45799145937E+02  0.41800000000E+01 0.  1.
         -5    1    3    3    0  502  0.95243862564E+02 -0.20961378443E+02  0.46667715246E+02  0.10819482792E+03  0.41800000000E+01 0.  1.
        -11    1    1    2    0    0 -0.55813902569E+02  0.50594609170E+02 -0.27615473356E-01  0.75332642059E+02  0.00000000000E+00 0.  1.
         11    1    1    2    0    0 -0.31887514057E+02 -0.31306969676E+02 -0.26773326354E+02  0.52093674348E+02  0.00000000000E+00 0. -1.
</event>
<event>
 7    1  0.3265282E-009  0.1167799E+03  0.7561462E-02  0.1248506E+00
          1   -1    0    0  501    0  0.00000000000E+00  0.00000000000E+00  0.48594731547E+03  0.48594731547E+03  0.00000000000E+00 0. -1.
         -1   -1    0    0    0  501 -0.00000000000E+00 -0.00000000000E+00 -0.43641971931E+02  0.43641971931E+02  0.00000000000E+00 0.  1.
         25    2    1    2    0    0  0.39323117819E+02 -0.42517607169E+02  0.37476635925E+03  0.39931409331E+03  0.12509143287E+03 0.  0.
          5    1    3    3  502    0 -0.39745315137E+02 -0.22151456527E+02  0.21548252598E+03  0.22027384889E+03  0.41800000000E+01 0. -1.
         -5    1    3    3    0  502  0.79068432955E+02 -0.20366150643E+02  0.15928383327E+03  0.17904024442E+03  0.41800000000E+01 0. -1.
        -11    1    1    2    0    0 -0.25717490277E+01  0.63659931868E+02  0.59391146467E+02  0.87100568869E+02  0.00000000000E+00 0. -1.
         11    1    1    2    0    0 -0.36751368791E+02 -0.21142324699E+02  0.81478378222E+01  0.43174625220E+02  0.00000000000E+00 0.  1.
</event>
<event>
 6    1  0.3265282E-009  0.8140962E+02  0.7561462E-02  0.1325098E+00
          2   -1    0    0  501    0  0.00000000000E+00  0.00000000000E+00  0.92537977911E+03  0.92537977911E+03  0.00000000000E+00 0. -1.
         -2   -1    0    0    0  501 -0.00000000000E+00 -0.00000000000E+00 -0.13480083865E+02  0.13480083865E+02  0.00000000000E+00 0.  1.
          5    1    1    2  502    0  0.14056058978E+02 -0.35139565922E+02  0.58565191404E+02  0.69854963541E+02  0.41800000000E+01 0. -1.
         -5    1    1    2    0  502 -0.12289623160E+02  0.33155255933E+02  0.56682898731E+03  0.56794619383E+03  0.41800000000E+01 0. -1.
        -11    1    1    2    0    0 -0.45418108600E+02  0.24247708942E+01  0.10593250775E+03  0.11528391171E+03  0.00000000000E+00 0.  1.
         11    1    1    2    0    0  0.43651672783E+02 -0.44046090562E+00  0.18057300879E+03  0.18577479389E+03  0.00000000000E+00 0. -1.
</event>
<event>
 7    1  0.3265282E-009  0.1730967E+03  0.7561462E-02  0.1174656E+00
          2   -1    0    0  501    0  0.00000000000E+00  0.00000000000E+00  0.43022153229E+03  0.43022153229E+03  0.00000000000E+00 0. -1.
         -2   -1    0    0    0  501 -0.00000000000E+00 -0.00000000000E+00 -0.10659848416E+03  0.10659848416E+03  0.00000000000E+00 0.  1.
         25    2    1    2    0    0  0.15639249214E+03 -0.56841888366E+02  0.67742990477E+02  0.21892093394E+03  0.12509056995E+03 0.  0.
          5    1    3    3  502    0  0.62447632646E+02 -0.24936460456E+02 -0.35094145444E+02  0.75964500443E+02  0.41800000000E+01 0. -1.
         -5    1    3    3    0  502  0.93944859492E+02 -0.31905427910E+02  0.10283713592E+03  0.14295643350E+03  0.41800000000E+01 0. -1.
        -11    1    1    2    0    0 -0.58155971828E+02  0.56785686653E+02  0.16562975628E+03  0.18449918003E+03  0.00000000000E+00 0. -1.
         11    1    1    2    0    0 -0.98236520309E+02  0.56201712669E-01  0.90250301377E+02  0.13339990247E+03  0.00000000000E+00 0.  1.
</event>
<event>
 7    1  0.3265282E-009  0.1161458E+03  0.7561462E-02  0.1249594E+00
         -2   -1    0    0    0  501 -0.00000000000E+00  0.00000000000E+00  0.11827715990E+02  0.11827715990E+02  0.00000000000E+00 0.  1.
          2   -1    0    0  501    0  0.00000000000E+00 -0.00000000000E+00 -0.16261917786E+04  0.16261917786E+04  0.00000000000E+00 0. -1.
         25    2    1    2    0    0 -0.48908367465E+02  0.31873045178E+01 -0.12962991167E+04  0.13032438296E+04  0.12510352567E+03 0.  0.
          5    1    3    3  502    0 -0.83403842518E+02 -0.26427666996E+02 -0.92836268737E+03  0.93248558929E+03  0.41800000000E+01 0. -1.
         -5    1    3    3    0  502  0.34495475052E+02  0.29614971514E+02 -0.36793642937E+03  0.37075824036E+03  0.41800000000E+01 0. -1.
        -11    1    1    2    0    0 -0.15527226291E+01 -0.37814205484E+02 -0.73520594201E+02  0.82689798982E+02  0.00000000000E+00 0.  1.
         11    1    1    2    0    0  0.50461090095E+02  0.34626900967E+02 -0.24454435166E+03  0.25208586595E+03  0.00000000000E+00 0. -1.
</event>
<event>
 7    1  0.3265282E-009  0.1108620E+03  0.7561462E-02  0.1258982E+00
         -1   -1    0    0    0  501 -0.00000000000E+00  0.00000000000E+00  0.36355766102E+02  0.36355766102E+02  0.00000000000E+00 0.  1.
          1   -1    0    0  501    0  0.00000000000E+00 -0.00000000000E+00 -0.47989403299E+03  0.47989403299E+03  0.00000000000E+00 0. -1.
         25    2    1    2    0    0  0.18346026597E+01  0.41668030747E+02 -0.36826860826E+03  0.39116302044E+03  0.12508856930E+03 0.  0.
          5    1    3    3  502    0 -0.56276168547E+01 -0.44288767656E+02 -0.14463331043E+03  0.15142467400E+03  0.41800000000E+01 0.  1.
         -5    1    3    3    0  502  0.74622195144E+01  0.85956798403E+02 -0.22363529784E+03  0.23973834643E+03  0.41800000000E+01 0.  1.
        -11    1    1    2    0    0  0.25022247434E+02 -0.55069562416E+02 -0.73260746436E+02  0.95004771142E+02  0.00000000000E+00 0. -1.
         11    1    1    2    0    0 -0.26856850094E+02  0.13401531669E+02 -0.20089121908E+01  0.30082007517E+02  0.00000000000E+00 0.  1.
</event>
<event>
 7    1  0.3265282E-009  0.1068251E+03  0.7561462E-02  0.1266565E+00
         -4   -1    0    0    0  501 -0.00000000000E+00  0.00000000000E+00  0.19931516543E+03  0.19931516543E+03  0.00000000000E+00 0.  1.
          4   -1    0    0  501    0  0.00000000000E+00 -0.00000000000E+00 -0.76560051250E+02  0.76560051250E+02  0.00000000000E+00 0. -1.
         25    2    1    2    0    0 -0.27688437725E+01  0.18534730087E+02  0.62935248856E+01  0.12664648114E+03  0.12509404468E+03 0.  0.
          5    1    3    3  502    0 -0.56488245171E+02 -0.20173241437E+02  0.19254131124E+01  0.60158633032E+02  0.41800000000E+01 0.  1.
         -5    1    3    3    0  502  0.53719401399E+02  0.38707971525E+02  0.43681117732E+01  0.66487848113E+02  0.41800000000E+01 0.  1.
        -11    1    1    2    0    0 -0.12587575807E+02  0.31986707965E+02  0.73553919496E+02  0.81189750735E+02  0.00000000000E+00 0.  1.
         11    1    1    2    0    0  0.15356419579E+02 -0.50521438053E+02  0.42907669796E+02  0.68038984799E+02  0.00000000000E+00 0. -1.
</event>
<event>
 7    1  0.3265282E-009  0.1045338E+03  0.7561462E-02  0.1271041E+00
         -1   -1    0    0    0  501 -0.00000000000E+00  0.00000000000E+00  0.41624168689E+03  0.41624168689E+03  0.00000000000E+00 0.  1.
          1   -1    0    0  501    0  0.00000000000E+00 -0.00000000000E+00 -0.36089677387E+02  0.36089677387E+02  0.00000000000E+00 0. -1.
         25    2    1    2    0    0  0.26748185262E+02 -0.89428340703E+01  0.30235549398E+03  0.32842140503E+03  0.12508531026E+03 0.  0.
          5    1    3    3  502    0  0.70802592712E+02 -0.32390466863E+02  0.19234207565E+03  0.20754540694E+03  0.41800000000E+01 0. -1.
         -5    1    3    3    0  502 -0.44054407450E+02  0.23447632793E+02  0.11001341834E+03  0.12087599809E+03  0.41800000000E+01 0. -1.
        -11    1    1    2    0    0  0.13494918799E+02 -0.24973204660E+02 -0.18495530930E+01  0.28446346532E+02  0.00000000000E+00 0. -1.
         11    1    1    2    0    0 -0.40243104061E+02  0.33916038731E+02  0.79646068612E+02  0.95463612717E+02  0.00000000000E+00 0.  1.
</event>
<event>
 7    1  0.3265282E-009  0.1703020E+03  0.7561462E-02  0.1177533E+00
          1   -1    0    0  501    0  0.00000000000E+00  0.00000000000E+00  0.19942665996E+03  0.19942665996E+03  0.00000000000E+00 0. -1.
         -1   -1    0    0    0  501 -0.00000000000E+00 -0.00000000000E+00 -0.16348563897E+03  0.16348563897E+03  0.00000000000E+00 0.  1.
         25    2    1    2    0    0 -0.11092271596E+03 -0.77204129373E+02  0.69327828798E+02  0.19676962406E+03  0.12509040970E+03 0.  0.
          5    1    3    3  502    0 -0.13775573208E+03 -0.74987228306E+02  0.58491408021E+02  0.16744683736E+03  0.41800000000E+01 0. -1.
         -5    1    3    3    0  502  0.26833016121E+02 -0.22169010665E+01  0.10836420777E+02  0.29322786698E+02  0.41800000000E+01 0. -1.
        -11    1    1    2    0    0 -0.12156503775E+02  0.22826607683E+01  0.97336121759E+01  0.15739578463E+02  0.00000000000E+00 0. -1.
         11    1    1    2    0    0  0.12307921974E+03  0.74921468605E+02 -0.43120419989E+02  0.15040309641E+03  0.00000000000E+00 0.  1.
</event>
<event>
 7    1  0.3265282E-009  0.9310073E+02  0.7561462E-02  0.1295512E+00
         -1   -1    0    0    0  501 -0.00000000000E+00  0.00000000000E+00  0.59365354733E+02  0.59365354733E+02  0.00000000000E+00 0.  1.
          1   -1    0    0  501    0  0.00000000000E+00 -0.00000000000E+00 -0.30191893619E+03  0.30191893619E+03  0.00000000000E+00 0. -1.
         25    2    1    2    0    0 -0.71204518549E+02  0.25185052734E+02 -0.99319973927E+02  0.17667760981E+03  0.12508457237E+03 0.  0.
          5    1    3    3  502    0 -0.30878161120E+02  0.35849136328E+02  0.18994730301E+02  0.51155582186E+02  0.41800000000E+01 0.  1.
         -5    1    3    3    0  502 -0.40326357429E+02 -0.10664083594E+02 -0.11831470423E+03  0.12552202762E+03  0.41800000000E+01 0.  1.
        -11    1    1    2    0    0 -0.97968079868E+01  0.41396379667E+01  0.60605472365E+01  0.12241089904E+02  0.00000000000E+00 0.  1.
         11    1    1    2    0    0  0.81001326535E+02 -0.29324690701E+02 -0.14929415477E+03  0.17236559121E+03  0.00000000000E+00 0. -1.
</event>
<event>
 7    1  0.3265282E-009  0.9367349E+02  0.7561462E-02  0.1294192E+00
          3   -1    0    0  501    0  0.00000000000E+00  0.00000000000E+00  0.18633695297E+03  0.18633695297E+03  0.00000000000E+00 0. -1.
         -3   -1    0    0    0  501 -0.00000000000E+00 -0.00000000000E+00 -0.66715422129E+02  0.66715422129E+02  0.00000000000E+00 0.  1.
         25    2    1    2    0    0 -0.28790682095E+02 -0.26164477700E+02  0.96281014832E+02  0.16257556971E+03  0.12508916333E+03 0.  0.
          5    1    3    3  502    0 -0.43352311274E+02 -0.65660273135E+02  0.90317160901E+02  0.11985556439E+03  0.41800000000E+01 0. -1.
         -5    1    3    3    0  502  0.14561629179E+02  0.39495795435E+02  0.59638539309E+01  0.42720005327E+02  0.41800000000E+01 0. -1.
        -11    1    1    2    0    0  0.91509616929E+01  0.40766014601E+02 -0.15505211665E+02  0.44564780209E+02  0.00000000000E+00 0.  1.
         11    1    1    2    0    0  0.19639720403E+02 -0.14601536901E+02  0.38845727669E+02  0.45912025173E+02  0.00000000000E+00 0. -1.
</event>
<event>
 7    1  0.3265282E-009  0.1367726E+03  0.7561462E-02  0.1217739E+00
          1   -1    0    0  501    0  0.00000000000E+00  0.00000000000E+00  0.24483079057E+04  0.24483079057E+04  0.00000000000E+00 0. -1.
         -1   -1    0    0    0  501 -0.00000000000E+00 -0.00000000000E+00 -0.21285002573E+02  0.21285002573E+02  0.00000000000E+00 0.  1.
         25    2    1    2    0    0  0.74093787764E+02 -0.66735641924E+02  0.21953606047E+04  0.22011812325E+04  0.12508836158E+03 0.  0.
          5    1    3    3  502    0  0.81603075495E+02 -0.97734309998E+02  0.16860071147E+04  0.16908129762E+04  0.41800000000E+01 0. -1.
         -5    1    3    3    0  502 -0.75092877313E+01  0.30998668075E+02  0.50935349001E+03  0.51036825627E+03  0.41800000000E+01 0. -1.
        -11    1    1    2    0    0 -0.21257407252E+02  0.56231689996E+02  0.19288599767E+03  0.20203684916E+03  0.00000000000E+00 0. -1.
         11    1    1    2    0    0 -0.52836380512E+02  0.10503951928E+02  0.38776300761E+02  0.66374826647E+02  0.00000000000E+00 0.  1.
</event>
<event>
 7    1  0.3265282E-009  0.1598556E+03  0.7561462E-02  0.1188860E+00
         -3   -1    0    0    0  501 -0.00000000000E+00  0.00000000000E+00  0.19574933223E+03  0.19574933223E+03  0.00000000000E+00 0.  1.
          3   -1    0    0  501    0  0.00000000000E+00 -0.00000000000E+00 -0.18440619623E+03  0.18440619623E+03  0.00000000000E+00 0. -1.
         25    2    1    2    0    0  0.48338005080E+02  0.13443040615E+03 -0.55931121505E+02  0.19795030328E+03  0.12509170789E+03 0.  0.
          5    1    3    3  502    0  0.15008134306E+02  0.13479580655E+03 -0.35706118722E+01  0.13574010177E+03  0.41800000000E+01 0. -1.
         -5    1    3    3    0  502  0.33329870773E+02 -0.36540039840E+00 -0.52360509633E+02  0.62210201512E+02  0.41800000000E+01 0. -1.
        -11    1    1    2    0    0 -0.44255641111E+00 -0.70710957950E+02 -0.97231446579E+01  0.71377692400E+02  0.00000000000E+00 0. -1.
         11    1    1    2    0    0 -0.47895448668E+02 -0.63719448200E+02  0.76997402164E+02  0.11082753278E+03  0.00000000000E+00 0.  1.
</event>
<event>
 7    1  0.3265282E-009  0.7695786E+02  0.7561462E-02  0.1337913E+00
         -4   -1    0    0    0  501 -0.00000000000E+00  0.00000000000E+00  0.26916431791E+02  0.26916431791E+02  0.00000000000E+00 0.  1.
          4   -1    0    0  501    0  0.00000000000E+00 -0.00000000000E+00 -0.51849076768E+03  0.51849076768E+03  0.00000000000E+00 0. -1.
         25    2    1    2    0    0  0.27150360932E+02  0.34109867586E+02 -0.27093166380E+03  0.30158207691E+03  0.12508859859E+03 0.  0.
          5    1    3    3  502    0  0.34280950052E+02  0.18056211426E+02 -0.27906888212E+03  0.28177672664E+03  0.41800000000E+01 0. -1.
         -5    1    3    3    0  502 -0.71305891203E+01  0.16053656160E+02  0.81372183208E+01  0.19805350270E+02  0.41800000000E+01 0. -1.
        -11    1    1    2    0    0  0.17872128361E+02  0.19785702261E+02 -0.27462734715E+02  0.38276478210E+02  0.00000000000E+00 0.  1.
         11    1    1    2    0    0 -0.45022489293E+02 -0.53895569847E+02 -0.19317993737E+03  0.20554864435E+03  0.00000000000E+00 0. -1.
</event>
<event>
 7    1  0.3265282E-009  0.9696503E+02  0.7561462E-02  0.1286811E+00
         -2   -1    0    0    0  501 -0.00000000000E+00  0.00000000000E+00  0.32746886656E+02  0.32746886656E+02  0.00000000000E+00 0.  1.
          2   -1    0    0  501    0  0.00000000000E+00 -0.00000000000E+00 -0.55383247004E+03  0.55383247004E+03  0.00000000000E+00 0. -1.
         25    2    1    2    0    0 -0.28251257625E+01  0.78990443531E+02 -0.27603471053E+03  0.31319479195E+03  0.12509334428E+03 0.  0.
          5    1    3    3  502    0 -0.22983532946E+02  0.81724734405E+02 -0.82175451922E+02  0.11822627584E+03  0.41800000000E+01 0. -1.
         -5    1    3    3    0  502  0.20158407183E+02 -0.27342908740E+01 -0.19385925861E+03  0.19496851612E+03  0.41800000000E+01 0. -1.
        -11    1    1    2    0    0  0.20271675111E+02 -0.54056274902E+02 -0.23398689009E+03  0.24100391367E+03  0.00000000000E+00 0. -1.
         11    1    1    2    0    0 -0.17446549349E+02 -0.24934168630E+02 -0.11063982758E+02  0.32380651073E+02  0.00000000000E+00 0.  1.
</event>
<event>
 7    1  0.3265282E-009  0.1516393E+03  0.7561462E-02  0.1198473E+00
         -1   -1    0    0    0  501 -0.00000000000E+00  0.00000000000E+00  0.79153545832E+02  0.79153545832E+02  0.00000000000E+00 0.  1.
          1   -1    0    0  501    0  0.00000000000E+00 -0.00000000000E+00 -0.30834789644E+03  0.30834789644E+03  0.00000000000E+00 0. -1.
         25    2    1    2    0    0  0.23433714191E+02 -0.11019402466E+03 -0.11249022788E+03  0.20247037289E+03  0.12509331916E+03 0.  0.
          5    1    3    3  502    0 -0.48151841958E+02 -0.65750859628E+02 -0.72289651750E+02  0.10901853776E+03  0.41800000000E+01 0.  1.
         -5    1    3    3    0  502  0.71585556149E+02 -0.44443165028E+02 -0.40200576132E+02  0.93451835125E+02  0.41800000000E+01 0.  1.
        -11    1    1    2    0    0 -0.52662831599E+02  0.72707536455E+02 -0.48916984978E+02  0.10223810986E+03  0.00000000000E+00 0.  1.
         11    1    1    2    0    0  0.29229117408E+02  0.37486488201E+02 -0.67787137750E+02  0.82792959522E+02  0.00000000000E+00 0. -1.
</event>
<event>
 7    1  0.3265282E-009  0.1166582E+03  0.7561462E-02  0.1248714E+00
          2   -1    0    0  501    0  0.00000000000E+00  0.00000000000E+00  0.11955837299E+03  0.11955837299E+03  0.00000000000E+00 0. -1.
         -2   -1    0    0    0  501 -0.00000000000E+00 -0.00000000000E+00 -0.11829542423E+03  0.11829542423E+03  0.00000000000E+00 0.  1.
         25    2    1    2    0    0  0.19055086067E+02  0.39463409681E+02 -0.21053883084E+02  0.13420189582E+03  0.12508567400E+03 0.  0.
          5    1    3    3  502    0  0.50186873132E+01 -0.45542779249E+02 -0.32370721081E+01  0.46122478250E+02  0.41800000000E+01 0.  1.
         -5    1    3    3    0  502  0.14036398754E+02  0.85006188931E+02 -0.17816810976E+02  0.88079417572E+02  0.41800000000E+01 0.  1.
        -11    1    1    2    0    0 -0.52767588699E+02 -0.41710099683E+02  0.11993619925E+02  0.68322746955E+02  0.00000000000E+00 0.  1.
         11    1    1    2    0    0  0.33712502632E+02  0.22466900013E+01  0.10323211914E+02  0.35329154446E+02  0.00000000000E+00 0. -1.
</event>
<event>
 7    1  0.3265282E-009  0.1822518E+03  0.7561462E-02  0.1165641E+00
          2   -1    0    0  501    0  0.00000000000E+00  0.00000000000E+00  0.26574362917E+03  0.26574362917E+03  0.00000000000E+00 0. -1.
         -2   -1    0    0    0  501 -0.00000000000E+00 -0.00000000000E+00 -0.20010825052E+03  0.20010825052E+03  0.00000000000E+00 0.  1.
         25    2    1    2    0    0 -0.16142276927E+03  0.54495785735E+02  0.14545200098E+03  0.25657433654E+03  0.12508798696E+03 0.  0.
          5    1    3    3  502    0 -0.80573565492E+02  0.71478343119E+02  0.13567189894E+03  0.17327893569E+03  0.41800000000E+01 0. -1.
         -5    1    3    3    0  502 -0.80849203781E+02 -0.16982557384E+02  0.97801020348E+01  0.83295400852E+02  0.41800000000E+01 0. -1.
        -11    1    1    2    0    0  0.44442215460E+02  0.11409422475E+01  0.16959398704E+02  0.47581860710E+02  0.00000000000E+00 0. -1.
         11    1    1    2    0    0  0.11698055381E+03 -0.55636727982E+02 -0.96776021033E+02  0.16169568243E+03  0.00000000000E+00 0.  1.
</event>
<event>
 7    1  0.3265282E-009  0.1267666E+03  0.7561462E-02  0.1232334E+00
          4   -1    0    0  501    0  0.00000000000E+00  0.00000000000E+00  0.69986264493E+03  0.69986264493E+03  0.00000000000E+00 0. -1.
         -4   -1    0    0    0  501 -0.00000000000E+00 -0.00000000000E+00 -0.26789465530E+02  0.26789465530E+02  0.00000000000E+00 0.  1.
         25    2    1    2    0    0 -0.62373292193E+02 -0.17546646413E+02  0.47604581450E+03  0.49645279031E+03  0.12508974026E+03 0.  0.
          5    1    3    3  502    0 -0.14609260951E+02  0.53069369765E+02  0.20346982771E+03  0.21082512114E+03  0.41800000000E+01 0.  1.
         -5    1    3    3    0  502 -0.47764031242E+02 -0.70616016178E+02  0.27257598679E+03  0.28562766917E+03  0.41800000000E+01 0.  1.
        -11    1    1    2    0    0  0.17417261087E+02  0.52957801753E+02  0.13363341079E+03  0.14479564299E+03  0.00000000000E+00 0. -1.
         11    1    1    2    0    0  0.44956031106E+02 -0.35411155340E+02  0.63393954113E+02  0.85403677166E+02  0.00000000000E+00 0.  1.
</event>
<event>
 7    1  0.3265282E-009  0.1393111E+03  0.7561462E-02  0.1214259E+00
         -1   -1    0    0    0  501 -0.00000000000E+00  0.00000000000E+00  0.99733768031E+02  0.99733768031E+02  0.00000000000E+00 0.  1.
          1   -1    0    0  501    0  0.00000000000E+00 -0.00000000000E+00 -0.24117210675E+03  0.24117210675E+03  0.00000000000E+00 0. -1.
         25    2    1    2    0    0  0.54272443409E+02 -0.96294146517E+02 -0.73645542106E+02  0.18245360153E+03  0.12509032766E+03 0.  0.
          5    1    3    3  502    0 -0.95073014610E+01 -0.83907488974E+02 -0.80809209300E+02  0.11695493232E+03  0.41800000000E+01 0.  1.
         -5    1    3    3    0  502  0.63779744870E+02 -0.12386657544E+02  0.71636671939E+01  0.65498669211E+02  0.41800000000E+01 0.  1.
        -11    1    1    2    0    0  0.15723920762E+02  0.19764139447E+02 -0.45996092263E+02  0.52473835344E+02  0.00000000000E+00 0. -1.
         11    1    1    2    0    0 -0.69996364171E+02  0.76530007070E+02 -0.21796704345E+02  0.10597843790E+03  0.00000000000E+00 0.  1.
</event>
<event>
 7    1  0.3265282E-009  0.1461444E+03  0.7561462E-02  0.1205292E+00
         -2   -1    0    0    0  501 -0.00000000000E+00  0.00000000000E+00  0.50402595636E+02  0.50402595636E+02  0.00000000000E+00 0. -1.
          2   -1    0    0  501    0  0.00000000000E+00 -0.00000000000E+00 -0.60687878659E+03  0.60687878659E+03  0.00000000000E+00 0.  1.
         25    2    1    2    0    0 -0.97767363318E+02 -0.93515646793E+02 -0.33279002656E+03  0.38039508981E+03  0.12509032355E+03 0.  0.
          5    1    3    3  502    0 -0.73683263096E+02 -0.95133643285E+02 -0.33482233704E+03  0.35581329813E+03  0.41800000000E+01 0.  1.
         -5    1    3    3    0  502 -0.24084100222E+02  0.16179964923E+01  0.20323104806E+01  0.24581791676E+02  0.41800000000E+01 0.  1.
        -11    1    1    2    0    0  0.30787738446E+02  0.69876567123E+02 -0.17454154456E+03  0.19051343850E+03  0.00000000000E+00 0.  1.
         11    1    1    2    0    0  0.66979624872E+02  0.23639079670E+02 -0.49144619835E+02  0.86372853920E+02  0.00000000000E+00 0. -1.
</event>
<event>
 7    1  0.3265282E-009  0.1260970E+03  0.7561462E-02  0.1233365E+00
         -1   -1    0    0    0  501 -0.00000000000E+00  0.00000000000E+00  0.12460090534E+03  0.12460090534E+03  0.00000000000E+00 0.  1.
          1   -1    0    0  501    0  0.00000000000E+00 -0.00000000000E+00 -0.17008184789E+03  0.17008184789E+03  0.00000000000E+00 0. -1.
         25    2    1    2    0    0  0.65792994433E+02 -0.36170047710E+02 -0.87659582733E+02  0.17020089212E+03  0.12508857169E+03 0.  0.
          5    1    3    3  502    0  0.98159179196E+02 -0.19602990797E+02 -0.88377193450E+02  0.13359454491E+03  0.41800000000E+01 0.  1.
         -5    1    3    3    0  502 -0.32366184763E+02 -0.16567056913E+02  0.71761071613E+00  0.36606347210E+02  0.41800000000E+01 0.  1.
        -11    1    1    2    0    0 -0.77719756796E+02  0.41787252326E+00  0.18238595132E+02  0.79832208827E+02  0.00000000000E+00 0. -1.
         11    1    1    2    0    0  0.11926762363E+02  0.35752175187E+02  0.23940045052E+02  0.44649652274E+02  0.00000000000E+00 0.  1.
</event>
<event>
 7    1  0.3265282E-009  0.1234234E+03  0.7561462E-02  0.1237554E+00
          1   -1    0    0  501    0  0.00000000000E+00  0.00000000000E+00  0.33947192514E+03  0.33947192514E+03  0.00000000000E+00 0. -1.
         -1   -1    0    0    0  501 -0.00000000000E+00 -0.00000000000E+00 -0.59267993591E+02  0.59267993591E+02  0.00000000000E+00 0.  1.
         25    2    1    2    0    0  0.15197262750E+01 -0.88093306243E+02  0.18507429982E+03  0.24013155923E+03  0.12509168284E+03 0.  0.
          5    1    3    3  502    0  0.42100753934E+02 -0.47542780212E+02  0.22206413740E+02  0.67404648528E+02  0.41800000000E+01 0. -1.
         -5    1    3    3    0  502 -0.40581027659E+02 -0.40550526032E+02  0.16286788608E+03  0.17272691071E+03  0.41800000000E+01 0. -1.
        -11    1    1    2    0    0  0.11192008462E+02 -0.16710609428E+02  0.23985405450E+02  0.31301840129E+02  0.00000000000E+00 0.  1.
         11    1    1    2    0    0 -0.12711734737E+02  0.10480391567E+03  0.71144226286E+02  0.12730651937E+03  0.00000000000E+00 0. -1.
</event>
<event>
 7    1  0.3265282E-009  0.1354025E+03  0.7561462E-02  0.1219653E+00
          3   -1    0    0  501    0  0.00000000000E+00  0.00000000000E+00  0.51861111868E+03  0.51861111868E+03  0.00000000000E+00 0. -1.
         -3   -1    0    0    0  501 -0.00000000000E+00 -0.00000000000E+00 -0.47813746311E+02  0.47813746311E+02  0.00000000000E+00 0.  1.
         25    2    1    2    0    0 -0.46952331764E+02 -0.79724980718E+02  0.37436391191E+03  0.40540939053E+03  0.12509133216E+03 0.  0.
          5    1    3    3  502    0 -0.14362063435E+02  0.26838100853E+02  0.16854297325E+03  0.17132063144E+03  0.41800000000E+01 0.  1.
         -5    1    3    3    0  502 -0.32590268330E+02 -0.10656308157E+03  0.20582093866E+03  0.23408875909E+03  0.41800000000E+01 0.  1.
        -11    1    1    2    0    0  0.73000159854E+01  0.87797624890E+02  0.60254454701E+02  0.10673477634E+03  0.00000000000E+00 0.  1.
         11    1    1    2    0    0  0.39652315779E+02 -0.80726441720E+01  0.36179005763E+02  0.54280698122E+02  0.00000000000E+00 0. -1.
</event>
<event>
 7    1  0.3265282E-009  0.8604732E+02  0.7561462E-02  0.1312716E+00
          1   -1    0    0  501    0  0.00000000000E+00  0.00000000000E+00  0.45639626301E+03  0.45639626301E+03  0.00000000000E+00 0. -1.
         -1   -1    0    0    0  501 -0.00000000000E+00 -0.00000000000E+00 -0.30827890476E+02  0.30827890476E+02  0.00000000000E+00 0.  1.
         25    2    1    2    0    0 -0.24023017661E+02  0.41922795384E+02  0.18130039192E+03  0.22550466133E+03  0.12509154257E+03 0.  0.
          5    1    3    3  502    0 -0.45723627723E+02  0.34492285076E+02  0.17472559632E+02  0.60026082681E+02  0.41800000000E+01 0.  1.
         -5    1    3    3    0  502  0.21700610062E+02  0.74305103074E+01  0.16382783229E+03  0.16547857865E+03  0.41800000000E+01 0.  1.
        -11    1    1    2    0    0 -0.28371916724E+02 -0.10471097403E+02  0.11209723459E+03  0.11610512280E+03  0.00000000000E+00 0. -1.
         11    1    1    2    0    0  0.52394934385E+02 -0.31451697981E+02  0.13217074602E+03  0.14561436934E+03  0.00000000000E+00 0.  1.
</event>
<event>
 7    1  0.3265282E-009  0.2685522E+03  0.7561462E-02  0.1102111E+00
         -2   -1    0    0    0  501 -0.00000000000E+00  0.00000000000E+00  0.17906292083E+03  0.17906292083E+03  0.00000000000E+00 0.  1.
          2   -1    0    0  501    0  0.00000000000E+00 -0.00000000000E+00 -0.48228721880E+03  0.48228721880E+03  0.00000000000E+00 0. -1.
         25    2    1    2    0    0 -0.56115670795E+02 -0.26160723718E+03 -0.21544117965E+03  0.36558233402E+03  0.12509286951E+03 0.  0.
          5    1    3    3  502    0 -0.24100583198E+02 -0.58641953046E+02 -0.12666983703E+03  0.14171251455E+03  0.41800000000E+01 0. -1.
         -5    1    3    3    0  502 -0.32015087597E+02 -0.20296528413E+03 -0.88771342623E+02  0.22386981946E+03  0.41800000000E+01 0. -1.
        -11    1    1    2    0    0  0.46038909725E+02  0.17888095497E+03 -0.15342372390E+02  0.18534660949E+03  0.00000000000E+00 0. -1.
         11    1    1    2    0    0  0.10076761071E+02  0.82726282204E+02 -0.72440745928E+02  0.11042119612E+03  0.00000000000E+00 0.  1.
</event>
<event>
 7    1  0.3265282E-009  0.1318569E+03  0.7561462E-02  0.1224726E+00
         -2   -1    0    0    0  501 -0.00000000000E+00  0.00000000000E+00  0.23839402444E+02  0.23839402444E+02  0.00000000000E+00 0.  1.
          2   -1    0    0  501    0  0.00000000000E+00 -0.00000000000E+00 -0.79090561682E+03  0.79090561682E+03  0.00000000000E+00 0. -1.
         25    2    1    2    0    0  0.54956308340E+02 -0.47505649897E+02 -0.38177293679E+03  0.40825836948E+03  0.12508932162E+03 0.  0.
          5    1    3    3  502    0  0.80384726082E+02  0.51415729320E+01 -0.16438563621E+03  0.18310720835E+03  0.41800000000E+01 0.  1.
         -5    1    3    3    0  502 -0.25428417742E+02 -0.52647222829E+02 -0.21738730058E+03  0.22515116112E+03  0.41800000000E+01 0.  1.
        -11    1    1    2    0    0 -0.81874053671E+02  0.52225031407E+02 -0.24477421786E+03  0.26333482926E+03  0.00000000000E+00 0.  1.
         11    1    1    2    0    0  0.26917745330E+02 -0.47193815106E+01 -0.14051905972E+03  0.14315182053E+03  0.00000000000E+00 0. -1.
</event>
<event>
 7    1  0.3265282E-009  0.8852051E+02  0.7561462E-02  0.1306475E+00
          2   -1    0    0  501    0  0.00000000000E+00  0.00000000000E+00  0.35083786249E+03  0.35083786249E+03  0.00000000000E+00 0. -1.
         -2   -1    0    0    0  501 -0.00000000000E+00 -0.00000000000E+00 -0.54506516345E+02  0.54506516345E+02  0.00000000000E+00 0.  1.
         25    2    1    2    0    0 -0.32323079339E+02  0.45931865544E+02  0.23336156620E+03  0.27066340567E+03  0.12508613376E+03 0.  0.
          5    1    3    3  502    0 -0.37091087024E+01 -0.32551132646E+02  0.13954419371E+02  0.35854315555E+02  0.41800000000E+01 0.  1.
         -5    1    3    3    0  502 -0.28613970636E+02  0.78482998190E+02  0.21940714683E+03  0.23480909011E+03  0.41800000000E+01 0.  1.
        -11    1    1    2    0    0  0.27393056694E+02 -0.19850109186E+02  0.90392872055E+02  0.96515686332E+02  0.00000000000E+00 0. -1.
         11    1    1    2    0    0  0.49300226446E+01 -0.26081756359E+02 -0.27423092112E+02  0.38165286833E+02  0.00000000000E+00 0.  1.
</event>
<event>
 7    1  0.3265282E-009  0.1147712E+03  0.7561462E-02  0.1251981E+00
         -1   -1    0    0    0  501 -0.00000000000E+00  0.00000000000E+00  0.87415449347E+02  0.87415449347E+02  0.00000000000E+00 0.  1.
          1   -1    0    0  501    0  0.00000000000E+00 -0.00000000000E+00 -0.27336710297E+03  0.27336710297E+03  0.00000000000E+00 0. -1.
         25    2    1    2    0    0  0.51882953214E+02  0.60729611493E+02 -0.12650598548E+02  0.14895629301E+03  0.12509201828E+03 0.  0.
          5    1    3    3  502    0  0.82996324467E+02  0.16932450517E+02  0.18374972951E+02  0.86776781379E+02  0.41800000000E+01 0. -1.
         -5    1    3    3    0  502 -0.31113371253E+02  0.43797160975E+02 -0.31025571499E+02  0.62179511634E+02  0.41800000000E+01 0. -1.
        -11    1    1    2    0    0 -0.28127274128E+02 -0.28365291397E+01 -0.13614503114E+03  0.13904912424E+03  0.00000000000E+00 0. -1.
         11    1    1    2    0    0 -0.23755679086E+02 -0.57893082353E+02 -0.37156023927E+02  0.72777135058E+02  0.00000000000E+00 0.  1.
</event>
<event>
 7    1  0.3265282E-009  0.1129830E+03  0.7561462E-02  0.1255143E+00
          1   -1    0    0  501    0  0.00000000000E+00  0.00000000000E+00  0.45033091741E+02  0.45033091741E+02  0.00000000000E+00 0. -1.
         -1   -1    0    0    0  501 -0.00000000000E+00 -0.00000000000E+00 -0.46735691496E+03  0.46735691496E+03  0.00000000000E+00 0.  1.
         25    2    1    2    0    0  0.81158909246E+02 -0.19738495955E+02 -0.29535532697E+03  0.33144765186E+03  0.12508557063E+03 0.  0.
          5    1    3    3  502    0 -0.18082888179E+02 -0.15575995804E+02 -0.16871558689E+03  0.17044654338E+03  0.41800000000E+01 0.  1.
         -5    1    3    3    0  502  0.99241797425E+02 -0.41625001508E+01 -0.12663974009E+03  0.16100110848E+03  0.41800000000E+01 0.  1.
        -11    1    1    2    0    0 -0.82831633239E+02  0.32318661591E+00 -0.13617573125E+03  0.15938950309E+03  0.00000000000E+00 0.  1.
         11    1    1    2    0    0  0.16727239933E+01  0.19415309339E+02  0.92072350005E+01  0.21552851752E+02  0.00000000000E+00 0. -1.
</event>
<event>
 7    1  0.3265282E-009  0.1008784E+03  0.7561462E-02  0.1278460E+00
         -2   -1    0    0    0  501 -0.00000000000E+00  0.00000000000E+00  0.30548190398E+03  0.30548190398E+03  0.00000000000E+00 0. -1.
          2   -1    0    0  501    0  0.00000000000E+00 -0.00000000000E+00 -0.53486442052E+02  0.53486442052E+02  0.00000000000E+00 0.  1.
         25    2    1    2    0    0  0.18903690527E+02 -0.24927204971E+02  0.22296574655E+03  0.25756750823E+03  0.12509429282E+03 0.  0.
          5    1    3    3  502    0 -0.37199467116E+02  0.31651921077E+02  0.90665951324E+02  0.10307003246E+03  0.41800000000E+01 0.  1.
         -5    1    3    3    0  502  0.56103157643E+02 -0.56579126048E+02  0.13229979523E+03  0.15449747577E+03  0.41800000000E+01 0.  1.
        -11    1    1    2    0    0  0.20942245605E+02 -0.67930728646E+01  0.43242647477E+02  0.48524736483E+02  0.00000000000E+00 0. -1.
         11    1    1    2    0    0 -0.39845936132E+02  0.31720277835E+02 -0.14212932100E+02  0.52876101322E+02  0.00000000000E+00 0.  1.
</event>
<event>
 7    1  0.3265282E-009  0.1151722E+03  0.7561462E-02  0.1251281E+00
         -2   -1    0    0    0  501 -0.00000000000E+00  0.00000000000E+00  0.23471073878E+02  0.23471073878E+02  0.00000000000E+00 0.  1.
          2   -1    0    0  501    0  0.00000000000E+00 -0.00000000000E+00 -0.14390679154E+04  0.14390679154E+04  0.00000000000E+00 0. -1.
         25    2    1    2    0    0 -0.47511968871E+02  0.83660716782E+02 -0.11873680867E+04  0.11978084375E+04  0.12508228104E+03 0.  0.
          5    1    3    3  502    0 -0.99453003154E+01  0.72059435867E+02 -0.27209684304E+03  0.28168357370E+03  0.41800000000E+01 0.  1.
         -5    1    3    3    0  502 -0.37566668556E+02  0.11601280915E+02 -0.91527124363E+03  0.91612486382E+03  0.41800000000E+01 0.  1.
        -11    1    1    2    0    0  0.23042084242E+02  0.69650898064E+01 -0.80598115439E+01  0.25385245406E+02  0.00000000000E+00 0.  1.
         11    1    1    2    0    0  0.24469884629E+02 -0.90625806589E+02 -0.22016894327E+03  0.23934530631E+03  0.00000000000E+00 0. -1.
</event>
<event>
 7    1  0.3265282E-009  0.1461971E+03  0.7561462E-02  0.1205225E+00
          1   -1    0    0  501    0  0.00000000000E+00  0.00000000000E+00  0.28669152824E+03  0.28669152824E+03  0.00000000000E+00 0. -1.
         -1   -1    0    0    0  501 -0.00000000000E+00 -0.00000000000E+00 -0.11452177901E+03  0.11452177901E+03  0.00000000000E+00 0.  1.
         25    2    1    2    0    0 -0.13293471195E+03 -0.49709972183E+02  0.62058367168E+02  0.19910088387E+03  0.12508877667E+03 0.  0.
          5    1    3    3  502    0 -0.28466386794E+02  0.53921035115E+01 -0.35386662772E+02  0.45924919810E+02  0.41800000000E+01 0. -1.
         -5    1    3    3    0  502 -0.10446832515E+03 -0.55102075694E+02  0.97445029940E+02  0.15317596406E+03  0.41800000000E+01 0. -1.
        -11    1    1    2    0    0  0.88905864043E+02  0.18079778983E+02  0.14046977038E+02  0.91806582734E+02  0.00000000000E+00 0.  1.
         11    1    1    2    0    0  0.44028847904E+02  0.31630193200E+02  0.96064405018E+02  0.11030584065E+03  0.00000000000E+00 0. -1.
</event>
<event>
 7    1  0.3265282E-009  0.1583396E+03  0.7561462E-02  0.1190584E+00
         -1   -1    0    0    0  501 -0.00000000000E+00  0.00000000000E+00  0.26300641356E+03  0.26300641356E+03  0.00000000000E+00 0.  1.
          1   -1    0    0  501    0  0.00000000000E+00 -0.00000000000E+00 -0.14324378960E+03  0.14324378960E+03  0.00000000000E+00 0. -1.
         25    2    1    2    0    0 -0.11441242212E+03 -0.59704619312E+02 -0.36892677422E+02  0.18346991105E+03  0.12508115251E+03 0.  0.
          5    1    3    3  502    0 -0.35763794284E+02  0.35717107492E+02  0.89928598645E+01  0.51508297173E+02  0.41800000000E+01 0.  1.
         -5    1    3    3    0  502 -0.78648627833E+02 -0.95421726804E+02 -0.45885537286E+02  0.13196161388E+03  0.41800000000E+01 0.  1.
        -11    1    1    2    0    0 -0.33684980342E+01  0.16404720155E+02  0.65687694551E+02  0.67788899075E+02  0.00000000000E+00 0.  1.
         11    1    1    2    0    0  0.11778092015E+03  0.43299899157E+02  0.90967606831E+02  0.15499139302E+03  0.00000000000E+00 0. -1.
</event>
<event>
 7    1  0.3265282E-009  0.1146506E+03  0.7561462E-02  0.1252192E+00
         -1   -1    0    0    0  501 -0.00000000000E+00  0.00000000000E+00  0.22628377963E+02  0.22628377963E+02  0.00000000000E+00 0.  1.
          1   -1    0    0  501    0  0.00000000000E+00 -0.00000000000E+00 -0.71307611001E+03  0.71307611001E+03  0.00000000000E+00 0. -1.
         25    2    1    2    0    0  0.48117085346E+02  0.42599169867E+02 -0.44379240642E+03  0.46554164800E+03  0.12508949934E+03 0.  0.
          5    1    3    3  502    0  0.78973732149E+02  0.37630714300E+02 -0.41029246371E+03  0.41953581397E+03  0.41800000000E+01 0. -1.
         -5    1    3    3    0  502 -0.30856646802E+02  0.49684555674E+01 -0.33499942715E+02  0.46005834027E+02  0.41800000000E+01 0.  1.
        -11    1    1    2    0    0 -0.53766101256E+02  0.12171722536E+02 -0.12680164567E+03  0.13826641609E+03  0.00000000000E+00 0. -1.
         11    1    1    2    0    0  0.56490159095E+01 -0.54770892403E+02 -0.11985367995E+03  0.13189642389E+03  0.00000000000E+00 0.  1.
</event>
<event>
 7    1  0.3265282E-009  0.2478294E+03  0.7561462E-02  0.1114684E+00
          2   -1    0    0  501    0  0.00000000000E+00  0.00000000000E+00  0.26827488533E+03  0.26827488533E+03  0.00000000000E+00 0. -1.
         -2   -1    0    0    0  501 -0.00000000000E+00 -0.00000000000E+00 -0.29157895830E+03  0.29157895830E+03  0.00000000000E+00 0.  1.
         25    2    1    2    0    0  0.18964133281E+03 -0.13431087582E+03 -0.12258945977E+03  0.29099760974E+03  0.12509271263E+03 0.  0.
          5    1    3    3  502    0  0.94553986541E+02  0.45552483817E+01 -0.55167429833E+02  0.10964544848E+03  0.41800000000E+01 0. -1.
         -5    1    3    3    0  502  0.95087346268E+02 -0.13886612420E+03 -0.67422029941E+02  0.18135216126E+03  0.41800000000E+01 0. -1.
        -11    1    1    2    0    0 -0.75711599864E+02  0.58880677833E+02 -0.63861514615E+01  0.96124728902E+02  0.00000000000E+00 0. -1.
         11    1    1    2    0    0 -0.11392973294E+03  0.75430197987E+02  0.10567153827E+03  0.17273150499E+03  0.00000000000E+00 0.  1.
</event>
<event>
 7    1  0.3265282E-009  0.1135804E+03  0.7561462E-02  0.1254080E+00
          1   -1    0    0  501    0  0.00000000000E+00  0.00000000000E+00  0.53608384373E+02  0.53608384373E+02  0.00000000000E+00 0. -1.
         -1   -1    0    0    0  501 -0.00000000000E+00 -0.00000000000E+00 -0.28282554358E+03  0.28282554358E+03  0.00000000000E+00 0.  1.
         25    2    1    2    0    0 -0.49988788952E+02  0.18248688592E+02 -0.95757492133E+02  0.16627866691E+03  0.12508878492E+03 0.  0.
          5    1    3    3  502    0  0.23428604024E+02  0.39518975284E+02 -0.73110823055E+02  0.86448329896E+02  0.41800000000E+01 0.  1.
         -5    1    3    3    0  502 -0.73417392976E+02 -0.21270286692E+02 -0.22646669078E+02  0.79830337014E+02  0.41800000000E+01 0.  1.
        -11    1    1    2    0    0  0.62570126852E+02  0.18814872171E+02 -0.94850001153E+02  0.11517613862E+03  0.00000000000E+00 0. -1.
         11    1    1    2    0    0 -0.12581337900E+02 -0.37063560762E+02 -0.38609665923E+02  0.54979122423E+02  0.00000000000E+00 0.  1.
</event>
<event>
 7    1  0.3265282E-009  0.9053292E+02  0.7561462E-02  0.1301566E+00
         -3   -1    0    0    0  501 -0.00000000000E+00  0.00000000000E+00  0.80014665587E+02  0.80014665587E+02  0.00000000000E+00 0.  1.
          3   -1    0    0  501    0  0.00000000000E+00 -0.00000000000E+00 -0.17239416813E+03  0.17239416813E+03  0.00000000000E+00 0. -1.
         25    2    1    2    0    0  0.25202856408E+01 -0.46271648142E+02 -0.56060339348E+02  0.14470066693E+03  0.12509238226E+03 0.  0.
          5    1    3    3  502    0 -0.16034856343E+02  0.28206148764E+02  0.18525140786E+02  0.37594636414E+02  0.41800000000E+01 0.  1.
         -5    1    3    3    0  502  0.18555141983E+02 -0.74477796906E+02 -0.74585480134E+02  0.10710603052E+03  0.41800000000E+01 0.  1.
        -11    1    1    2    0    0  0.19241947692E+02 -0.11821779744E+01 -0.50127664096E+02  0.53706915788E+02  0.00000000000E+00 0. -1.
         11    1    1    2    0    0 -0.21762233333E+02  0.47453826116E+02  0.13808500898E+02  0.54001251002E+02  0.00000000000E+00 0.  1.
</event>
<event>
 7    1  0.3265282E-009  0.1046440E+03  0.7561462E-02  0.1270823E+00
         -4   -1    0    0    0  501 -0.00000000000E+00  0.00000000000E+00  0.60011490729E+02  0.60011490729E+02  0.00000000000E+00 0.  1.
          4   -1    0    0  501    0  0.00000000000E+00 -0.00000000000E+00 -0.27000439077E+03  0.27000439077E+03  0.00000000000E+00 0. -1.
         25    2    1    2    0    0  0.46922010374E+02  0.38037366464E+02 -0.14948961794E+03  0.20406634279E+03  0.12508960821E+03 0.  0.
          5    1    3    3  502    0  0.71589104390E+02  0.46792683761E+02 -0.15492017053E+03  0.17700928439E+03  0.41800000000E+01 0.  1.
         -5    1    3    3    0  502 -0.24667094016E+02 -0.87553172970E+01  0.54305525896E+01  0.27057058407E+02  0.41800000000E+01 0.  1.
        -11    1    1    2    0    0 -0.40165121830E+02 -0.61101528125E+02 -0.15226186176E+02  0.74689159162E+02  0.00000000000E+00 0.  1.
         11    1    1    2    0    0 -0.67568885436E+01  0.23064161661E+02 -0.45277095920E+02  0.51260379543E+02  0.00000000000E+00 0. -1.
</event>
<event>
 7    1  0.3265282E-009  0.2019670E+03  0.7561462E-02  0.1148090E+00
         -2   -1    0    0    0  501 -0.00000000000E+00  0.00000000000E+00  0.11983558428E+03  0.11983558428E+03  0.00000000000E+00 0.  1.
          2   -1    0    0  501    0  0.00000000000E+00 -0.00000000000E+00 -0.55759628126E+03  0.55759628126E+03  0.00000000000E+00 0. -1.
         25    2    1    2    0    0  0.16947661995E+02 -0.19102102706E+03 -0.48789236953E+02  0.23410261954E+03  0.12508953117E+03 0.  0.
          5    1    3    3  502    0 -0.14112029977E+02 -0.16632640898E+03 -0.78350759768E+02  0.18444494482E+03  0.41800000000E+01 0. -1.
         -5    1    3    3    0  502  0.31059691972E+02 -0.24694618084E+02  0.29561522814E+02  0.49657674722E+02  0.41800000000E+01 0. -1.
        -11    1    1    2    0    0  0.13823135481E+02  0.10058251001E+03 -0.28297114573E+03  0.30063364700E+03  0.00000000000E+00 0. -1.
         11    1    1    2    0    0 -0.30770797476E+02  0.90438517051E+02 -0.10600031429E+03  0.14269559900E+03  0.00000000000E+00 0.  1.
</event>
<event>
 7    1  0.4020337E-009  0.1118758E+03  0.7561462E-02  0.1257135E+00
         -1   -1    0    0    0  501 -0.00000000000E+00  0.00000000000E+00  0.91671058158E+02  0.91671058158E+02  0.00000000000E+00 0.  1.
          1   -1    0    0  501    0  0.00000000000E+00 -0.00000000000E+00 -0.18267534291E+03  0.18267534291E+03  0.00000000000E+00 0. -1.
         25    2    1    2    0    0  0.29424629632E+02 -0.25872638433E+02 -0.11292270545E+03  0.17301652694E+03  0.12509188200E+03 0.  0.
          5    1    3    3  502    0 -0.45002899675E+02  0.11904139712E+02 -0.49712247763E+02  0.68233052834E+02  0.41800000000E+01 0.  1.
         -5    1    3    3    0  502  0.74427529307E+02 -0.37776778144E+02 -0.63210457687E+02  0.10478347411E+03  0.41800000000E+01 0.  1.
        -11    1    1    2    0    0 -0.53749930355E+01  0.55230999462E+02  0.29170569135E+02  0.62691912998E+02  0.00000000000E+00 0.  1.
         11    1    1    2    0    0 -0.24049636596E+02 -0.29358361029E+02 -0.72521484349E+01  0.38637961122E+02  0.00000000000E+00 0. -1.
</event>
<event>
 7    1  0.3265282E-009  0.1311782E+03  0.7561462E-02  0.1225718E+00
          1   -1    0    0  501    0  0.00000000000E+00  0.00000000000E+00  0.32554867005E+03  0.32554867005E+03  0.00000000000E+00 0. -1.
         -1   -1    0    0    0  501 -0.00000000000E+00 -0.00000000000E+00 -0.87718609663E+02  0.87718609663E+02  0.00000000000E+00 0.  1.
         25    2    1    2    0    0 -0.96401920169E+02 -0.15460425029E+01  0.22964143188E+03  0.27872149485E+03  0.12511899935E+03 0.  0.
          5    1    3    3  502    0 -0.11923448408E+03  0.14288478995E+02  0.13856289435E+03  0.18340711796E+03  0.41800000000E+01 0. -1.
         -5    1    3    3    0  502  0.22832563910E+02 -0.15834521498E+02  0.91078537523E+02  0.95314376896E+02  0.41800000000E+01 0. -1.
        -11    1    1    2    0    0  0.85311469911E+02  0.24368025435E+02 -0.25551301315E+02  0.92329391641E+02  0.00000000000E+00 0.  1.
         11    1    1    2    0    0  0.11090450258E+02 -0.22821982932E+02  0.33739929829E+02  0.42216393223E+02  0.00000000000E+00 0. -1.
</event>
<event>
 7    1  0.3265282E-009  0.1078593E+03  0.7561462E-02  0.1264586E+00
         -2   -1    0    0    0  501 -0.00000000000E+00  0.00000000000E+00  0.34161531697E+02  0.34161531697E+02  0.00000000000E+00 0.  1.
          2   -1    0    0  501    0  0.00000000000E+00 -0.00000000000E+00 -0.46664729133E+03  0.46664729133E+03  0.00000000000E+00 0. -1.
         25    2    1    2    0    0  0.57659945139E+02 -0.13611593230E+02 -0.29549265681E+03  0.32630241845E+03  0.12508962114E+03 0.  0.
          5    1    3    3  502    0  0.47097289021E+02 -0.65512370316E+02 -0.21669555311E+03  0.23126707599E+03  0.41800000000E+01 0.  1.
         -5    1    3    3    0  502  0.10562656118E+02  0.51900777085E+02 -0.78797103695E+02  0.95035342463E+02  0.41800000000E+01 0.  1.
        -11    1    1    2    0    0  0.40718902416E+01  0.19372951658E+02 -0.10077871869E+03  0.10270463323E+03  0.00000000000E+00 0. -1.
         11    1    1    2    0    0 -0.61731835381E+02 -0.57613584279E+01 -0.36214384140E+02  0.71801771350E+02  0.00000000000E+00 0.  1.
</event>
<event>
 7    1  0.3265282E-009  0.8633663E+02  0.7561462E-02  0.1311974E+00
         -2   -1    0    0    0  501 -0.00000000000E+00  0.00000000000E+00  0.12407979848E+03  0.12407979848E+03  0.00000000000E+00 0.  1.
          2   -1    0    0  501    0  0.00000000000E+00 -0.00000000000E+00 -0.10010810756E+03  0.10010810756E+03  0.00000000000E+00 0. -1.
         25    2    1    2    0    0  0.21954422651E+01  0.27604180961E+02  0.25655333082E+02  0.13066028202E+03  0.12508837839E+03 0.  0.
          5    1    3    3  502    0  0.35591466437E+02  0.65492946234E+02  0.28477331600E+02  0.79903124498E+02  0.41800000000E+01 0. -1.
         -5    1    3    3    0  502 -0.33396024172E+02 -0.37888765272E+02 -0.28219985178E+01  0.50757157525E+02  0.41800000000E+01 0. -1.
        -11    1    1    2    0    0  0.15197538800E+02 -0.58967500861E+00 -0.40428188004E+02  0.43194343235E+02  0.00000000000E+00 0. -1.
         11    1    1    2    0    0 -0.17392981065E+02 -0.27014505953E+02  0.38744545839E+02  0.50333280784E+02  0.00000000000E+00 0.  1.
</event>
<event>
 7    1  0.3265282E-009  0.8556965E+02  0.7561462E-02  0.1313950E+00
          1   -1    0    0  501    0  0.00000000000E+00  0.00000000000E+00  0.75777426755E+03  0.75777426755E+03  0.00000000000E+00 0. -1.
         -1   -1    0    0    0  501 -0.00000000000E+00 -0.00000000000E+00 -0.16833062061E+02  0.16833062061E+02  0.00000000000E+00 0.  1.
         25    2    1    2    0    0  0.13397988977E+02  0.28159231040E+02  0.42920008252E+03  0.44814558032E+03  0.12509716990E+03 0.  0.
          5    1    3    3  502    0  0.52787996036E+00  0.49190076443E+02  0.58267416982E+02  0.76370848885E+02  0.41800000000E+01 0.  1.
         -5    1    3    3    0  502  0.12870109016E+02 -0.21030845404E+02  0.37093266554E+03  0.37177473143E+03  0.41800000000E+01 0.  1.
        -11    1    1    2    0    0 -0.19482928128E+02  0.31366610578E+02  0.10982352581E+03  0.11586481592E+03  0.00000000000E+00 0.  1.
         11    1    1    2    0    0  0.60849391512E+01 -0.59525841618E+02  0.20191759716E+03  0.21059693337E+03  0.00000000000E+00 0. -1.
</event>
<event>
 7    1  0.3265282E-009  0.1018951E+03  0.7561462E-02  0.1276361E+00
         -2   -1    0    0    0  501 -0.00000000000E+00  0.00000000000E+00  0.49090298343E+02  0.49090298343E+02  0.00000000000E+00 0.  1.
          2   -1    0    0  501    0  0.00000000000E+00 -0.00000000000E+00 -0.37026800303E+03  0.37026800303E+03  0.00000000000E+00 0. -1.
         25    2    1    2    0    0  0.52726385762E+02  0.43501133222E+02 -0.24379262493E+03  0.28240881847E+03  0.12508987343E+03 0.  0.
          5    1    3    3  502    0  0.65701577092E+02  0.30608788566E+02 -0.25176378905E+03  0.26202303916E+03  0.41800000000E+01 0. -1.
         -5    1    3    3    0  502 -0.12975191331E+02  0.12892344656E+02  0.79711641249E+01  0.20385779316E+02  0.41800000000E+01 0. -1.
        -11    1    1    2    0    0 -0.23999751071E+02  0.27102569445E+02 -0.31448486778E+02  0.47953567569E+02  0.00000000000E+00 0. -1.
         11    1    1    2    0    0 -0.28726634691E+02 -0.70603702668E+02 -0.45936592978E+02  0.88995915330E+02  0.00000000000E+00 0.  1.
</event>
<event>
 7    1  0.3265282E-009  0.1434865E+03  0.7561462E-02  0.1208713E+00
         -1   -1    0    0    0  501 -0.00000000000E+00  0.00000000000E+00  0.24606328705E+02  0.24606328705E+02  0.00000000000E+00 0.  1.
          1   -1    0    0  501    0  0.00000000000E+00 -0.00000000000E+00 -0.87315557076E+03  0.87315557076E+03  0.00000000000E+00 0. -1.
         25    2    1    2    0    0  0.13174621963E+02 -0.94608417099E+02 -0.39607724955E+03  0.42620261096E+03  0.12508858752E+03 0.  0.
          5    1    3    3  502    0  0.68804806998E+02 -0.48322764581E+02 -0.19239629404E+03  0.21000713655E+03  0.41800000000E+01 0.  1.
         -5    1    3    3    0  502 -0.55630185035E+02 -0.46285652518E+02 -0.20368095551E+03  0.21619547441E+03  0.41800000000E+01 0.  1.
        -11    1    1    2    0    0  0.17860986395E+01  0.10931152296E+03 -0.33988914007E+03  0.35703897090E+03  0.00000000000E+00 0.  1.
         11    1    1    2    0    0 -0.14960720603E+02 -0.14703105865E+02 -0.11258285243E+03  0.11452031760E+03  0.00000000000E+00 0. -1.
</event>
<event>
 7    1  0.3265282E-009  0.9435793E+02  0.7561462E-02  0.1292629E+00
         -2   -1    0    0    0  501 -0.00000000000E+00  0.00000000000E+00  0.18949515309E+03  0.18949515309E+03  0.00000000000E+00 0.  1.
          2   -1    0    0  501    0  0.00000000000E+00 -0.00000000000E+00 -0.85038425831E+02  0.85038425831E+02  0.00000000000E+00 0. -1.
         25    2    1    2    0    0 -0.66045446608E+02 -0.49983312464E+00  0.56873164406E+02  0.15248216339E+03  0.12511595611E+03 0.  0.
          5    1    3    3  502    0 -0.26830767158E+01  0.12754213510E+02 -0.36389344683E+02  0.38878344478E+02  0.41800000000E+01 0.  1.
         -5    1    3    3    0  502 -0.63362369892E+02 -0.13254046635E+02  0.93262509089E+02  0.11360381891E+03  0.41800000000E+01 0.  1.
        -11    1    1    2    0    0  0.78245761026E+01 -0.39017688943E+02  0.57994511240E+01  0.40214893696E+02  0.00000000000E+00 0.  1.
         11    1    1    2    0    0  0.58220870505E+02  0.39517522068E+02  0.41784111732E+02  0.81836521835E+02  0.00000000000E+00 0. -1.
</event>
<event>
 7    1  0.3265282E-009  0.1220390E+03  0.7561462E-02  0.1239771E+00
          1   -1    0    0  501    0  0.00000000000E+00  0.00000000000E+00  0.19116431392E+03  0.19116431392E+03  0.00000000000E+00 0. -1.
         -1   -1    0    0    0  501 -0.00000000000E+00 -0.00000000000E+00 -0.10762851966E+03  0.10762851966E+03  0.00000000000E+00 0.  1.
         25    2    1    2    0    0  0.77549515385E+02  0.39471743001E+02  0.82222785937E+02  0.17314790133E+03  0.12509062066E+03 0.  0.
          5    1    3    3  502    0  0.48166550436E+02  0.65137060169E+02 -0.10152578751E+01  0.81125559085E+02  0.41800000000E+01 0. -1.
         -5    1    3    3    0  502  0.29382964949E+02 -0.25665317169E+02  0.83238043812E+02  0.92022342245E+02  0.41800000000E+01 0. -1.
        -11    1    1    2    0    0  0.14561350670E+02  0.11403194317E+02 -0.76979049003E+01  0.20033060521E+02  0.00000000000E+00 0.  1.
         11    1    1    2    0    0 -0.92110866055E+02 -0.50874937318E+02  0.90109132288E+01  0.10561187173E+03  0.00000000000E+00 0. -1.
</event>
<event>
 7    1  0.3265282E-009  0.1313385E+03  0.7561462E-02  0.1225483E+00
          2   -1    0    0  501    0  0.00000000000E+00  0.00000000000E+00  0.20630783575E+03  0.20630783575E+03  0.00000000000E+00 0. -1.
         -2   -1    0    0    0  501 -0.00000000000E+00 -0.00000000000E+00 -0.14892357705E+03  0.14892357705E+03  0.00000000000E+00 0.  1.
         25    2    1    2    0    0  0.56215820720E+01  0.12426138096E+03 -0.28090410667E+02  0.17863009416E+03  0.12508855418E+03 0.  0.
          5    1    3    3  502    0  0.75390356094E+01  0.30445394057E+02 -0.69206091810E+02  0.76096745140E+02  0.41800000000E+01 0. -1.
         -5    1    3    3    0  502 -0.19174535374E+01  0.93815986901E+02  0.41115681143E+02  0.10253334902E+03  0.41800000000E+01 0. -1.
        -11    1    1    2    0    0 -0.27208598668E+02 -0.10399893998E+03  0.97035829351E+02  0.14481726256E+03  0.00000000000E+00 0. -1.
         11    1    1    2    0    0  0.21587016596E+02 -0.20262440980E+02 -0.11561159981E+02  0.31784056067E+02  0.00000000000E+00 0.  1.
</event>
<event>
 7    1  0.3265282E-009  0.9429252E+02  0.7561462E-02  0.1292778E+00
         -1   -1    0    0    0  501 -0.00000000000E+00  0.00000000000E+00  0.91223084584E+02  0.91223084584E+02  0.00000000000E+00 0.  1.
          1   -1    0    0  501    0  0.00000000000E+00 -0.00000000000E+00 -0.15493996284E+03  0.15493996284E+03  0.00000000000E+00 0. -1.
         25    2    1    2    0    0 -0.45940137141E+00 -0.49243154337E+02 -0.46318197160E+02  0.14218483334E+03  0.12508418024E+03 0.  0.
          5    1    3    3  502    0 -0.41918174902E+02 -0.24423527299E+02  0.25929366360E+02  0.55167440694E+02  0.41800000000E+01 0.  1.
         -5    1    3    3    0  502  0.41458773531E+02 -0.24819627038E+02 -0.72247563520E+02  0.87017392650E+02  0.41800000000E+01 0.  1.
        -11    1    1    2    0    0 -0.38000465841E+02  0.19130407252E+02  0.15284405694E+02  0.45206425905E+02  0.00000000000E+00 0.  1.
         11    1    1    2    0    0  0.38459867212E+02  0.30112747085E+02 -0.32683086785E+02  0.58771788171E+02  0.00000000000E+00 0. -1.
</event>
<event>
 7    1  0.3265282E-009  0.1187126E+03  0.7561462E-02  0.1245236E+00
          2   -1    0    0  501    0  0.00000000000E+00  0.00000000000E+00  0.33298559494E+03  0.33298559494E+03  0.00000000000E+00 0. -1.
         -2   -1    0    0    0  501 -0.00000000000E+00 -0.00000000000E+00 -0.56392108131E+02  0.56392108131E+02  0.00000000000E+00 0.  1.
         25    2    1    2    0    0 -0.52374123608E+02  0.64658281776E+02  0.17048231117E+03  0.22723539809E+03  0.12509182826E+03 0.  0.
          5    1    3    3  502    0  0.14606632008E+02 -0.24983837871E+02  0.73476209438E+02  0.79080791642E+02  0.41800000000E+01 0.  1.
         -5    1    3    3    0  502 -0.66980755616E+02  0.89642119648E+02  0.97006101736E+02  0.14815460645E+03  0.41800000000E+01 0.  1.
        -11    1    1    2    0    0  0.16262686703E+02 -0.57019912562E+02  0.11006551346E+03  0.12502064894E+03  0.00000000000E+00 0. -1.
         11    1    1    2    0    0  0.36111436905E+02 -0.76383692139E+01 -0.39543378270E+01  0.37121656041E+02  0.00000000000E+00 0.  1.
</event>
<event>
 7    1  0.3265282E-009  0.9639434E+02  0.7561462E-02  0.1288066E+00
          2   -1    0    0  501    0  0.00000000000E+00  0.00000000000E+00  0.50968200161E+03  0.50968200161E+03  0.00000000000E+00 0. -1.
         -2   -1    0    0    0  501 -0.00000000000E+00 -0.00000000000E+00 -0.34729908693E+02  0.34729908693E+02  0.00000000000E+00 0.  1.
         25    2    1    2    0    0  0.73208187259E+02  0.12799037053E+02  0.30547669529E+03  0.33836126657E+03  0.12509628819E+03 0.  0.
          5    1    3    3  502    0  0.12203613839E+02 -0.20390495245E+02 -0.93860906244E+00  0.24146508527E+02  0.41800000000E+01 0.  1.
         -5    1    3    3    0  502  0.61004573419E+02  0.33189532297E+02  0.30641530435E+03  0.31421475804E+03  0.41800000000E+01 0.  1.
        -11    1    1    2    0    0 -0.28706513333E+02  0.26981474764E+02  0.12651832769E+03  0.13251019255E+03  0.00000000000E+00 0. -1.
         11    1    1    2    0    0 -0.44501673926E+02 -0.39780511817E+02  0.42957069944E+02  0.73540451187E+02  0.00000000000E+00 0.  1.
</event>
<event>
 7    1  0.3265282E-009  0.1548248E+03  0.7561462E-02  0.1194667E+00
          1   -1    0    0  501    0  0.00000000000E+00  0.00000000000E+00  0.64903109212E+03  0.64903109212E+03  0.00000000000E+00 0. -1.
         -1   -1    0    0    0  501 -0.00000000000E+00 -0.00000000000E+00 -0.52523674660E+02  0.52523674660E+02  0.00000000000E+00 0.  1.
         25    2    1    2    0    0 -0.12434940354E+03 -0.39111044650E+02  0.45191283312E+03  0.48668740445E+03  0.12508786087E+03 0.  0.
          5    1    3    3  502    0  0.10035072856E+01 -0.52312138470E+02  0.16838291148E+03  0.17637415949E+03  0.41800000000E+01 0. -1.
         -5    1    3    3    0  502 -0.12535291082E+03  0.13201093820E+02  0.28352992164E+03  0.31031324496E+03  0.41800000000E+01 0. -1.
        -11    1    1    2    0    0  0.68431157095E+02  0.14497308274E+02  0.13631286165E+03  0.15321289587E+03  0.00000000000E+00 0.  1.
         11    1    1    2    0    0  0.55918246444E+02  0.24613736376E+02  0.82817226844E+01  0.61654466460E+02  0.00000000000E+00 0. -1.
</event>
<event>
 7    1  0.3265282E-009  0.9632626E+02  0.7561462E-02  0.1288217E+00
          2   -1    0    0  501    0  0.00000000000E+00  0.00000000000E+00  0.16672561377E+03  0.16672561377E+03  0.00000000000E+00 0. -1.
         -2   -1    0    0    0  501 -0.00000000000E+00 -0.00000000000E+00 -0.12286127824E+03  0.12286127824E+03  0.00000000000E+00 0.  1.
         25    2    1    2    0    0  0.83319201401E+02  0.36355202117E+02  0.32742748120E+02  0.15802798333E+03  0.12504785451E+03 0.  0.
          5    1    3    3  502    0  0.41209805159E+02  0.41923942926E+02 -0.41715172435E+02  0.72204522317E+02  0.41800000000E+01 0.  1.
         -5    1    3    3    0  502  0.42109396242E+02 -0.55687408093E+01  0.74457920555E+02  0.85823461008E+02  0.41800000000E+01 0.  1.
        -11    1    1    2    0    0 -0.10930612244E+02 -0.30144888299E+01  0.43932045035E+02  0.45371687294E+02  0.00000000000E+00 0. -1.
         11    1    1    2    0    0 -0.72388589157E+02 -0.33340713287E+02 -0.32810457621E+02  0.86187221396E+02  0.00000000000E+00 0.  1.
</event>
<event>
 7    1  0.3265282E-009  0.1113062E+03  0.7561462E-02  0.1258170E+00
          1   -1    0    0  501    0  0.00000000000E+00  0.00000000000E+00  0.25874446340E+03  0.25874446340E+03  0.00000000000E+00 0. -1.
         -1   -1    0    0    0  501 -0.00000000000E+00 -0.00000000000E+00 -0.68170485889E+02  0.68170485889E+02  0.00000000000E+00 0.  1.
         25    2    1    2    0    0  0.48132417977E+02  0.12922982945E+02  0.17532130853E+03  0.22106248513E+03  0.12508927995E+03 0.  0.
          5    1    3    3  502    0 -0.27404469646E+01 -0.46057832425E+02  0.27371310258E+02  0.53809803963E+02  0.41800000000E+01 0.  1.
         -5    1    3    3    0  502  0.50872864942E+02  0.58980815371E+02  0.14794999827E+03  0.16725268117E+03  0.41800000000E+01 0.  1.
        -11    1    1    2    0    0 -0.72767577211E+02 -0.10649461704E+02 -0.52377444793E+01  0.73728999010E+02  0.00000000000E+00 0.  1.
         11    1    1    2    0    0  0.24635159234E+02 -0.22735212414E+01  0.20490413460E+02  0.32123465148E+02  0.00000000000E+00 0. -1.
</event>
<event>
 7    1  0.3265282E-009  0.1127921E+03  0.7561462E-02  0.1255485E+00
         -2   -1    0    0    0  501 -0.00000000000E+00  0.00000000000E+00  0.19392091941E+03  0.19392091941E+03  0.00000000000E+00 0.  1.
          2   -1    0    0  501    0  0.00000000000E+00 -0.00000000000E+00 -0.88107197700E+02  0.88107197700E+02  0.00000000000E+00 0. -1.
         25    2    1    2    0    0 -0.52241713740E+02  0.30706241840E+02  0.13761263008E+02  0.13966895214E+03  0.12508386743E+03 0.  0.
          5    1    3    3  502    0  0.11235982526E+01  0.68597660106E+02 -0.10919274436E+02  0.69596008501E+02  0.41800000000E+01 0.  1.
         -5    1    3    3    0  502 -0.53365311992E+02 -0.37891418266E+02  0.24680537443E+02  0.70072943643E+02  0.41800000000E+01 0.  1.
        -11    1    1    2    0    0  0.54313919992E+02 -0.48823269037E+02  0.32245659710E+02  0.79834178611E+02  0.00000000000E+00 0. -1.
         11    1    1    2    0    0 -0.20722062521E+01  0.18117027197E+02  0.59806798994E+02  0.62524986359E+02  0.00000000000E+00 0.  1.
</event>
<event>
 7    1  0.3265282E-009  0.8212463E+02  0.7561462E-02  0.1323128E+00
          2   -1    0    0  501    0  0.00000000000E+00  0.00000000000E+00  0.11380415364E+03  0.11380415364E+03  0.00000000000E+00 0. -1.
         -2   -1    0    0    0  501 -0.00000000000E+00 -0.00000000000E+00 -0.12831394468E+03  0.12831394468E+03  0.00000000000E+00 0.  1.
         25    2    1    2    0    0 -0.15660859929E+02 -0.56144574101E+02 -0.13046157699E+01  0.13801042615E+03  0.12509076693E+03 0.  0.
          5    1    3    3  502    0 -0.19864011887E+02 -0.72966698052E+02  0.45201957115E+02  0.88200948520E+02  0.41800000000E+01 0. -1.
         -5    1    3    3    0  502  0.42031519576E+01  0.16822123951E+02 -0.46506572885E+02  0.49809477633E+02  0.41800000000E+01 0. -1.
        -11    1    1    2    0    0  0.28762402209E+02  0.30778699637E+02  0.30426785295E+02  0.51965309539E+02  0.00000000000E+00 0. -1.
         11    1    1    2    0    0 -0.13101542280E+02  0.25365874464E+02 -0.43631960569E+02  0.52142362629E+02  0.00000000000E+00 0.  1.
</event>
<event>
 7    1  0.3265282E-009  0.2269012E+03  0.7561462E-02  0.1128840E+00
          3   -1    0    0  501    0  0.00000000000E+00  0.00000000000E+00  0.38734834186E+03  0.38734834186E+03  0.00000000000E+00 0. -1.
         -3   -1    0    0    0  501 -0.00000000000E+00 -0.00000000000E+00 -0.14676072658E+03  0.14676072658E+03  0.00000000000E+00 0.  1.
         25    2    1    2    0    0  0.36263187452E+02  0.20547640605E+03  0.16518389777E+03  0.29405586082E+03  0.12509019544E+03 0.  0.
          5    1    3    3  502    0  0.12275901234E+02  0.21624378320E+03  0.14590903656E+03  0.26118765452E+03  0.41800000000E+01 0.  1.
         -5    1    3    3    0  502  0.23987286218E+02 -0.10767377152E+02  0.19274861205E+02  0.32868206299E+02  0.41800000000E+01 0.  1.
        -11    1    1    2    0    0 -0.16014322866E+02 -0.15958715235E+03  0.94759715853E+02  0.18628988561E+03  0.00000000000E+00 0. -1.
         11    1    1    2    0    0 -0.20248864586E+02 -0.45889253693E+02 -0.19355998350E+02  0.53763322010E+02  0.00000000000E+00 0.  1.
</event>
<event>
 7    1  0.3265282E-009  0.1689456E+03  0.7561462E-02  0.1178952E+00
          2   -1    0    0  501    0  0.00000000000E+00  0.00000000000E+00  0.56615185171E+02  0.56615185171E+02  0.00000000000E+00 0. -1.
         -2   -1    0    0    0  501 -0.00000000000E+00 -0.00000000000E+00 -0.55630832996E+03  0.55630832996E+03  0.00000000000E+00 0.  1.
         25    2    1    2    0    0  0.12837383942E+03 -0.55663877693E+02 -0.24752025056E+03  0.31063847063E+03  0.12510665477E+03 0.  0.
          5    1    3    3  502    0  0.10142624937E+02 -0.53569870979E+02 -0.14175145410E+03  0.15193271885E+03  0.41800000000E+01 0.  1.
         -5    1    3    3    0  502  0.11823121449E+03 -0.20940067132E+01 -0.10576879646E+03  0.15870575178E+03  0.41800000000E+01 0.  1.
        -11    1    1    2    0    0 -0.13693575354E+02 -0.22331896178E+02 -0.58272632032E+02  0.63889961941E+02  0.00000000000E+00 0. -1.
         11    1    1    2    0    0 -0.11468026407E+03  0.77995773871E+02 -0.19390026219E+03  0.23839508256E+03  0.00000000000E+00 0.  1.
</event>
<event>
 7    1  0.3265282E-009  0.1183548E+03  0.7561462E-02  0.1245836E+00
         -2   -1    0    0    0  501 -0.00000000000E+00  0.00000000000E+00  0.98408835525E+02  0.98408835525E+02  0.00000000000E+00 0.  1.
          2   -1    0    0  501    0  0.00000000000E+00 -0.00000000000E+00 -0.46117865672E+03  0.46117865672E+03  0.00000000000E+00 0. -1.
         25    2    1    2    0    0 -0.97884580279E+02 -0.25975490147E+02 -0.39023334561E+03  0.42211961104E+03  0.12508710905E+03 0.  0.
          5    1    3    3  502    0 -0.62855595389E+02  0.28517103583E+02 -0.31613064816E+03  0.32360486735E+03  0.41800000000E+01 0.  1.
         -5    1    3    3    0  502 -0.35028984890E+02 -0.54492593730E+02 -0.74102697457E+02  0.98514743690E+02  0.41800000000E+01 0.  1.
        -11    1    1    2    0    0  0.48191219782E+02  0.41453681043E+01 -0.31190510423E+02  0.57553676523E+02  0.00000000000E+00 0. -1.
         11    1    1    2    0    0  0.49693360497E+02  0.21830122042E+02  0.58654034846E+02  0.79914204679E+02  0.00000000000E+00 0.  1.
</event>
<event>
 7    1  0.3265282E-009  0.9988222E+02  0.7561462E-02  0.1280544E+00
         -2   -1    0    0    0  501 -0.00000000000E+00  0.00000000000E+00  0.41630768534E+02  0.41630768534E+02  0.00000000000E+00 0.  1.
          2   -1    0    0  501    0  0.00000000000E+00 -0.00000000000E+00 -0.38279591400E+03  0.38279591400E+03  0.00000000000E+00 0. -1.
         25    2    1    2    0    0  0.76507762913E+01  0.43922398313E+02 -0.26782640745E+03  0.29896042447E+03  0.12513448532E+03 0.  0.
          5    1    3    3  502    0  0.38559969352E+02  0.58923106764E+02 -0.25052373747E+03  0.26026605462E+03  0.41800000000E+01 0. -1.
         -5    1    3    3    0  502 -0.30909193061E+02 -0.15000708452E+02 -0.17302669981E+02  0.38694369851E+02  0.41800000000E+01 0. -1.
        -11    1    1    2    0    0 -0.31397784572E+02  0.12189885043E+02 -0.52366628361E+01  0.34085727380E+02  0.00000000000E+00 0. -1.
         11    1    1    2    0    0  0.23747008280E+02 -0.56112283355E+02 -0.68102075175E+02  0.91380530687E+02  0.00000000000E+00 0.  1.
</event>
<event>
 7    1  0.3265282E-009  0.8364018E+02  0.7561462E-02  0.1319027E+00
         -1   -1    0    0    0  501 -0.00000000000E+00  0.00000000000E+00  0.14575526851E+03  0.14575526851E+03  0.00000000000E+00 0.  1.
          1   -1    0    0  501    0  0.00000000000E+00 -0.00000000000E+00 -0.12127228181E+03  0.12127228181E+03  0.00000000000E+00 0. -1.
         25    2    1    2    0    0 -0.18168308865E+02  0.13538102447E+02 -0.58408135877E+02  0.13989860644E+03  0.12508693810E+03 0.  0.
          5    1    3    3  502    0  0.10856342967E+02  0.60151861803E+02 -0.23436727049E+01  0.61311270275E+02  0.41800000000E+01 0.  1.
         -5    1    3    3    0  502 -0.29024651833E+02 -0.46613759356E+02 -0.56064463172E+02  0.78587336169E+02  0.41800000000E+01 0.  1.
        -11    1    1    2    0    0  0.14404023032E+02  0.15791137472E+02  0.93348712630E+02  0.95764388223E+02  0.00000000000E+00 0.  1.
         11    1    1    2    0    0  0.37642858331E+01 -0.29329239919E+02 -0.10457590054E+02  0.31364555661E+02  0.00000000000E+00 0. -1.
</event>
<event>
 7    1  0.3265282E-009  0.1173859E+03  0.7561462E-02  0.1247473E+00
         -2   -1    0    0    0  501 -0.00000000000E+00  0.00000000000E+00  0.16925001053E+03  0.16925001053E+03  0.00000000000E+00 0. -1.
          2   -1    0    0  501    0  0.00000000000E+00 -0.00000000000E+00 -0.14608913028E+03  0.14608913028E+03  0.00000000000E+00 0.  1.
         25    2    1    2    0    0 -0.37037701791E+02 -0.99311131900E+02 -0.29444509355E+02  0.16657498108E+03  0.12508298413E+03 0.  0.
          5    1    3    3  502    0  0.75875634897E+01  0.29550440829E+01  0.36004695003E+02  0.37149883816E+02  0.41800000000E+01 0.  1.
         -5    1    3    3    0  502 -0.44625265281E+02 -0.10226617598E+03 -0.65449204359E+02  0.12942509727E+03  0.41800000000E+01 0.  1.
        -11    1    1    2    0    0  0.45839589195E+02  0.72817318995E+02  0.74081600508E+02  0.11354168141E+03  0.00000000000E+00 0. -1.
         11    1    1    2    0    0 -0.88018874045E+01  0.26493812905E+02 -0.21476210899E+02  0.35222478316E+02  0.00000000000E+00 0.  1.
</event>
<event>
 7    1  0.3265282E-009  0.8096047E+02  0.7561462E-02  0.1326348E+00
          2   -1    0    0  501    0  0.00000000000E+00  0.00000000000E+00  0.67365956348E+03  0.67365956348E+03  0.00000000000E+00 0. -1.
         -2   -1    0    0    0  501 -0.00000000000E+00 -0.00000000000E+00 -0.21984850087E+02  0.21984850087E+02  0.00000000000E+00 0.  1.
         25    2    1    2    0    0 -0.48946727755E+02  0.28827162914E+02  0.33561830221E+03  0.36264943593E+03  0.12509269013E+03 0.  0.
          5    1    3    3  502    0 -0.11686482701E+02  0.32027807359E+02  0.11306278708E+02  0.36161563302E+02  0.41800000000E+01 0. -1.
         -5    1    3    3    0  502 -0.37260245054E+02 -0.32006444455E+01  0.32431202351E+03  0.32648787263E+03  0.41800000000E+01 0. -1.
        -11    1    1    2    0    0  0.23596140880E+02  0.22557744496E+02  0.42976270918E+02  0.53968412642E+02  0.00000000000E+00 0.  1.
         11    1    1    2    0    0  0.25350586875E+02 -0.51384907409E+02  0.27308014026E+03  0.27902656499E+03  0.00000000000E+00 0. -1.
</event>
<event>
 7    1  0.3265282E-009  0.1449076E+03  0.7561462E-02  0.1206874E+00
          1   -1    0    0  501    0  0.00000000000E+00  0.00000000000E+00  0.57681817410E+03  0.57681817410E+03  0.00000000000E+00 0. -1.
         -1   -1    0    0    0  501 -0.00000000000E+00 -0.00000000000E+00 -0.40548109158E+02  0.40548109158E+02  0.00000000000E+00 0.  1.
         25    2    1    2    0    0 -0.10281979133E+03  0.15042185970E+02  0.23703925263E+03  0.28745896087E+03  0.12508744961E+03 0.  0.
          5    1    3    3  502    0 -0.15477660935E+02 -0.48931031531E+02  0.10260053144E+03  0.11479610310E+03  0.41800000000E+01 0. -1.
         -5    1    3    3    0  502 -0.87342130393E+02  0.63973217501E+02  0.13443872119E+03  0.17266285777E+03  0.41800000000E+01 0. -1.
        -11    1    1    2    0    0  0.54634839738E+02  0.31434672910E+02  0.20387886844E+03  0.21340032186E+03  0.00000000000E+00 0. -1.
         11    1    1    2    0    0  0.48184951591E+02 -0.46476858880E+02  0.95351943876E+02  0.11650700053E+03  0.00000000000E+00 0.  1.
</event>
<event>
 7    1  0.3265282E-009  0.1545216E+03  0.7561462E-02  0.1195024E+00
          2   -1    0    0  501    0  0.00000000000E+00  0.00000000000E+00  0.19866551180E+03  0.19866551180E+03  0.00000000000E+00 0. -1.
         -2   -1    0    0    0  501 -0.00000000000E+00 -0.00000000000E+00 -0.13720304168E+03  0.13720304168E+03  0.00000000000E+00 0.  1.
         25    2    1    2    0    0  0.98399410923E+02 -0.57526332921E+02 -0.74207599492E+01  0.16939019152E+03  0.12508495615E+03 0.  0.
          5    1    3    3  502    0  0.81257428112E+02 -0.91535550507E+02  0.17456753137E+02  0.12370827482E+03  0.41800000000E+01 0.  1.
         -5    1    3    3    0  502  0.17141982811E+02  0.34009217586E+02 -0.24877513086E+02  0.45681916694E+02  0.41800000000E+01 0.  1.
        -11    1    1    2    0    0 -0.11042414890E+03  0.70151831649E+02  0.48184708948E+02  0.13941498600E+03  0.00000000000E+00 0.  1.
         11    1    1    2    0    0  0.12024737981E+02 -0.12625498728E+02  0.20698521118E+02  0.27063375955E+02  0.00000000000E+00 0. -1.
</event>
<event>
 7    1  0.3265282E-009  0.1070939E+03  0.7561462E-02  0.1266048E+00
          3   -1    0    0  501    0  0.00000000000E+00  0.00000000000E+00  0.79822995645E+02  0.79822995645E+02  0.00000000000E+00 0. -1.
         -3   -1    0    0    0  501 -0.00000000000E+00 -0.00000000000E+00 -0.32091598979E+03  0.32091598979E+03  0.00000000000E+00 0.  1.
         25    2    1    2    0    0 -0.26476101519E+02  0.11270688161E+02 -0.27061310922E+03  0.29951095979E+03  0.12508935922E+03 0.  0.
          5    1    3    3  502    0 -0.73664736380E+02 -0.86854216532E+01 -0.12909793385E+03  0.14894857790E+03  0.41800000000E+01 0.  1.
         -5    1    3    3    0  502  0.47188634861E+02  0.19956109815E+02 -0.14151517537E+03  0.15056238189E+03  0.41800000000E+01 0.  1.
        -11    1    1    2    0    0 -0.18619270897E+01  0.34557737313E+02  0.32211337691E+02  0.47278687128E+02  0.00000000000E+00 0. -1.
         11    1    1    2    0    0  0.28338028609E+02 -0.45828425475E+02 -0.26912226126E+01  0.53949338514E+02  0.00000000000E+00 0.  1.
</event>
<event>
 7    1  0.3265282E-009  0.3957548E+03  0.7561462E-02  0.1045260E+00
          1   -1    0    0  501    0  0.00000000000E+00  0.00000000000E+00  0.63917111220E+03  0.63917111220E+03  0.00000000000E+00 0. -1.
         -1   -1    0    0    0  501 -0.00000000000E+00 -0.00000000000E+00 -0.48965281038E+03  0.48965281038E+03  0.00000000000E+00 0.  1.
         25    2    1    2    0    0  0.11026901273E+03 -0.37074192552E+03  0.46794886403E+03  0.61986430028E+03  0.12508709332E+03 0.  0.
          5    1    3    3  502    0  0.66941671567E+02 -0.57422775225E+02  0.12807079115E+03  0.15555758565E+03  0.41800000000E+01 0.  1.
         -5    1    3    3    0  502  0.43327341166E+02 -0.31331915029E+03  0.33987807288E+03  0.46430671464E+03  0.41800000000E+01 0.  1.
        -11    1    1    2    0    0 -0.18476883227E+02  0.73965406564E+02 -0.21463300793E+02  0.79201956181E+02  0.00000000000E+00 0. -1.
         11    1    1    2    0    0 -0.91792129506E+02  0.29677651895E+03 -0.29696726141E+03  0.42975766612E+03  0.00000000000E+00 0.  1.
</event>
<event>
 7    1  0.3265282E-009  0.1229689E+03  0.7561462E-02  0.1238278E+00
         -2   -1    0    0    0  501 -0.00000000000E+00  0.00000000000E+00  0.25801008989E+02  0.25801008989E+02  0.00000000000E+00 0. -1.
          2   -1    0    0  501    0  0.00000000000E+00 -0.00000000000E+00 -0.14634297878E+04  0.14634297878E+04  0.00000000000E+00 0.  1.
         25    2    1    2    0    0  0.69132554726E+02  0.46437645846E+02 -0.12705059381E+04  0.12793634231E+04  0.12509861913E+03 0.  0.
          5    1    3    3  502    0  0.14374540154E+02  0.65330984343E+02 -0.31289412319E+03  0.31999213998E+03  0.41800000000E+01 0. -1.
         -5    1    3    3    0  502  0.54758014572E+02 -0.18893338496E+02 -0.95761181495E+03  0.95937128315E+03  0.41800000000E+01 0. -1.
        -11    1    1    2    0    0  0.22211183219E+01  0.21914937265E+02 -0.61050348395E+02  0.64902564518E+02  0.00000000000E+00 0.  1.
         11    1    1    2    0    0 -0.71353673048E+02 -0.68352583111E+02 -0.10607249231E+03  0.14496480918E+03  0.00000000000E+00 0. -1.
</event>
<event>
 7    1  0.3265282E-009  0.9889258E+02  0.7561462E-02  0.1282642E+00
         -2   -1    0    0    0  501 -0.00000000000E+00  0.00000000000E+00  0.42416321325E+02  0.42416321325E+02  0.00000000000E+00 0.  1.
          2   -1    0    0  501    0  0.00000000000E+00 -0.00000000000E+00 -0.31696755822E+03  0.31696755822E+03  0.00000000000E+00 0. -1.
         25    2    1    2    0    0 -0.22137070732E+02  0.16394804340E+02 -0.10820685293E+03  0.16768027699E+03  0.12509641386E+03 0.  0.
          5    1    3    3  502    0  0.49923258737E+02 -0.95602168326E+01 -0.36912364668E+02  0.62958117620E+02  0.41800000000E+01 0.  1.
         -5    1    3    3    0  502 -0.72060329469E+02  0.25955021173E+02 -0.71294488262E+02  0.10472215937E+03  0.41800000000E+01 0.  1.
        -11    1    1    2    0    0 -0.12532647096E+02  0.17544111030E+02 -0.12816591521E+03  0.12996678382E+03  0.00000000000E+00 0. -1.
         11    1    1    2    0    0  0.34669717828E+02 -0.33938915370E+02 -0.38178468759E+02  0.61736818735E+02  0.00000000000E+00 0.  1.
</event>
<event>
 7    1  0.3265282E-009  0.5893231E+02  0.7561462E-02  0.1402368E+00
          2   -1    0    0  501    0  0.00000000000E+00  0.00000000000E+00  0.13677748722E+03  0.13677748722E+03  0.00000000000E+00 0. -1.
         -2   -1    0    0    0  501 -0.00000000000E+00 -0.00000000000E+00 -0.10437160032E+03  0.10437160032E+03  0.00000000000E+00 0.  1.
         25    2    1    2    0    0  0.72293370056E+01  0.33351981279E+02  0.57863606609E+02  0.14198965691E+03  0.12509295636E+03 0.  0.
          5    1    3    3  502    0  0.16680948540E+02  0.31703619370E+02 -0.33979324103E+02  0.49552400465E+02  0.41800000000E+01 0.  1.
         -5    1    3    3    0  502 -0.94516115347E+01  0.16483619088E+01  0.91842930711E+02  0.92437256446E+02  0.41800000000E+01 0.  1.
        -11    1    1    2    0    0 -0.30136508337E+02  0.87223830171E+00  0.21252473835E+02  0.36886821203E+02  0.00000000000E+00 0. -1.
         11    1    1    2    0    0  0.22907171331E+02 -0.34224219581E+02 -0.46710193536E+02  0.62272609424E+02  0.00000000000E+00 0.  1.
</event>
<event>
 7    1  0.3265282E-009  0.1073658E+03  0.7561462E-02  0.1265527E+00
         -1   -1    0    0    0  501 -0.00000000000E+00  0.00000000000E+00  0.14304373079E+03  0.14304373079E+03  0.00000000000E+00 0.  1.
          1   -1    0    0  501    0  0.00000000000E+00 -0.00000000000E+00 -0.96540915493E+02  0.96540915493E+02  0.00000000000E+00 0. -1.
         25    2    1    2    0    0  0.43398058231E+00  0.27205345192E+02  0.61024106345E+02  0.14181511331E+03  0.12508903094E+03 0.  0.
          5    1    3    3  502    0  0.14339455349E+02  0.70882927164E+02  0.10046849011E+02  0.73132899013E+02  0.41800000000E+01 0.  1.
         -5    1    3    3    0  502 -0.13905474767E+02 -0.43677581972E+02  0.50977257334E+02  0.68682214297E+02  0.41800000000E+01 0.  1.
        -11    1    1    2    0    0 -0.34552575189E+02  0.18527651803E+02 -0.10403648811E+02  0.40563410139E+02  0.00000000000E+00 0. -1.
         11    1    1    2    0    0  0.34118594607E+02 -0.45732996995E+02 -0.41176422383E+01  0.57206122834E+02  0.00000000000E+00 0.  1.
</event>
<event>
 7    1  0.3265282E-009  0.1027439E+03  0.7561462E-02  0.1274630E+00
         -2   -1    0    0    0  501 -0.00000000000E+00  0.00000000000E+00  0.22159109867E+02  0.22159109867E+02  0.00000000000E+00 0.  1.
          2   -1    0    0  501    0  0.00000000000E+00 -0.00000000000E+00 -0.59106319162E+03  0.59106319162E+03  0.00000000000E+00 0. -1.
         25    2    1    2    0    0  0.30565148479E+02  0.11019490375E+02 -0.27649662412E+03  0.30521003035E+03  0.12508845674E+03 0.  0.
          5    1    3    3  502    0 -0.37492153016E+02 -0.65442543437E+01 -0.29389318436E+02  0.48266895911E+02  0.41800000000E+01 0.  1.
         -5    1    3    3    0  502  0.68057301496E+02  0.17563744719E+02 -0.24710730568E+03  0.25694313444E+03  0.41800000000E+01 0.  1.
        -11    1    1    2    0    0  0.67858611951E+01  0.36059578258E+02 -0.11268889246E+03  0.11851214106E+03  0.00000000000E+00 0. -1.
         11    1    1    2    0    0 -0.37351009675E+02 -0.47079068633E+02 -0.17971856518E+03  0.18950013007E+03  0.00000000000E+00 0.  1.
</event>
<event>
 7    1  0.3265282E-009  0.4874414E+03  0.7561462E-02  0.1017110E+00
         -3   -1    0    0    0  501 -0.00000000000E+00  0.00000000000E+00  0.29210168443E+03  0.29210168443E+03  0.00000000000E+00 0.  1.
          3   -1    0    0  501    0  0.00000000000E+00 -0.00000000000E+00 -0.87196783516E+03  0.87196783516E+03  0.00000000000E+00 0. -1.
         25    2    1    2    0    0  0.34752357122E+03 -0.33049884022E+03 -0.41855259824E+03  0.64871834042E+03  0.12508833583E+03 0.  0.
          5    1    3    3  502    0  0.26306807648E+03 -0.31049105380E+03 -0.32307428704E+03  0.51961906692E+03  0.41800000000E+01 0.  1.
         -5    1    3    3    0  502  0.84455494738E+02 -0.20007786414E+02 -0.95478311203E+02  0.12909927350E+03  0.41800000000E+01 0.  1.
        -11    1    1    2    0    0 -0.23488429899E+03  0.24662451532E+03 -0.15654309829E+03  0.37483333242E+03  0.00000000000E+00 0. -1.
         11    1    1    2    0    0 -0.11263927223E+03  0.83874324898E+02 -0.47704541957E+01  0.14051784676E+03  0.00000000000E+00 0.  1.
</event>
<event>
 7    1  0.3265282E-009  0.1106570E+03  0.7561462E-02  0.1259358E+00
          1   -1    0    0  501    0  0.00000000000E+00  0.00000000000E+00  0.30230609350E+03  0.30230609350E+03  0.00000000000E+00 0. -1.
         -1   -1    0    0    0  501 -0.00000000000E+00 -0.00000000000E+00 -0.45304084848E+02  0.45304084848E+02  0.00000000000E+00 0.  1.
         25    2    1    2    0    0 -0.38712522627E+02 -0.18354519268E+02  0.16527938282E+03  0.21165977153E+03  0.12508811579E+03 0.  0.
          5    1    3    3  502    0 -0.84775155464E+01 -0.69319173623E+02  0.67288589703E+02  0.97068237884E+02  0.41800000000E+01 0. -1.
         -5    1    3    3    0  502 -0.30235007081E+02  0.50964654355E+02  0.97990793121E+02  0.11459153365E+03  0.41800000000E+01 0. -1.
        -11    1    1    2    0    0  0.17056152205E+02 -0.32483552645E+02  0.11331477124E+02  0.38399165281E+02  0.00000000000E+00 0.  1.
         11    1    1    2    0    0  0.21656370422E+02  0.50838071913E+02  0.80391148705E+02  0.97551241538E+02  0.00000000000E+00 0. -1.
</event>
<event>
 7    1  0.3265282E-009  0.1070035E+03  0.7561462E-02  0.1266222E+00
         -1   -1    0    0    0  501 -0.00000000000E+00  0.00000000000E+00  0.19750733899E+03  0.19750733899E+03  0.00000000000E+00 0.  1.
          1   -1    0    0  501    0  0.00000000000E+00 -0.00000000000E+00 -0.79953851949E+02  0.79953851949E+02  0.00000000000E+00 0. -1.
         25    2    1    2    0    0  0.51229362869E+02  0.42870283330E+02  0.73035551329E+02  0.15951078363E+03  0.12508872661E+03 0.  0.
          5    1    3    3  502    0  0.13501134598E+02 -0.26221032168E+02  0.74953253917E+02  0.80655352185E+02  0.41800000000E+01 0. -1.
         -5    1    3    3    0  502  0.37728228271E+02  0.69091315498E+02 -0.19177025878E+01  0.78855431448E+02  0.41800000000E+01 0. -1.
        -11    1    1    2    0    0  0.19706456733E+02 -0.25730968885E+02  0.28672697587E+02  0.43272979833E+02  0.00000000000E+00 0.  1.
         11    1    1    2    0    0 -0.70935819602E+02 -0.17139314445E+02  0.15845238124E+02  0.74677427470E+02  0.00000000000E+00 0. -1.
</event>
<event>
 7    1  0.3265282E-009  0.8128016E+02  0.7561462E-02  0.1325457E+00
          1   -1    0    0  501    0  0.00000000000E+00  0.00000000000E+00  0.34966958377E+03  0.34966958377E+03  0.00000000000E+00 0. -1.
         -1   -1    0    0    0  501 -0.00000000000E+00 -0.00000000000E+00 -0.40205105089E+02  0.40205105089E+02  0.00000000000E+00 0.  1.
         25    2    1    2    0    0 -0.24288081467E+01 -0.36667977918E+02  0.23089999879E+03  0.26516514224E+03  0.12508918219E+03 0.  0.
          5    1    3    3  502    0 -0.53697381720E+02 -0.17646671333E+02  0.48167247155E+02  0.74379902603E+02  0.41800000000E+01 0.  1.
         -5    1    3    3    0  502  0.51268573574E+02 -0.19021306585E+02  0.18273275164E+03  0.19078523963E+03  0.41800000000E+01 0.  1.
        -11    1    1    2    0    0  0.16357970327E+02  0.61178645239E+01  0.88093328657E+02  0.89807828241E+02  0.00000000000E+00 0. -1.
         11    1    1    2    0    0 -0.13929162181E+02  0.30550113394E+02 -0.95288487658E+01  0.34901718385E+02  0.00000000000E+00 0.  1.
</event>
<event>
 7    1  0.3265282E-009  0.9461050E+02  0.7561462E-02  0.1292056E+00
          1   -1    0    0  501    0  0.00000000000E+00  0.00000000000E+00  0.37329045729E+02  0.37329045729E+02  0.00000000000E+00 0. -1.
         -1   -1    0    0    0  501 -0.00000000000E+00 -0.00000000000E+00 -0.33142932784E+03  0.33142932784E+03  0.00000000000E+00 0.  1.
         25    2    1    2    0    0 -0.72316561975E+01  0.22719210858E+02 -0.17521390517E+03  0.21659995556E+03  0.12508864372E+03 0.  0.
          5    1    3    3  502    0 -0.49452905546E+02  0.32766753141E+01 -0.15993806981E+03  0.16749323879E+03  0.41800000000E+01 0. -1.
         -5    1    3    3    0  502  0.42221249348E+02  0.19442535544E+02 -0.15275835367E+02  0.49106716761E+02  0.41800000000E+01 0. -1.
        -11    1    1    2    0    0 -0.34400000692E+02 -0.35332687960E+02 -0.46928809300E+02  0.68074018747E+02  0.00000000000E+00 0. -1.
         11    1    1    2    0    0  0.41631656889E+02  0.12613477103E+02 -0.71957567639E+02  0.84084399269E+02  0.00000000000E+00 0.  1.
</event>
<event>
 7    1  0.3265282E-009  0.1107524E+03  0.7561462E-02  0.1259183E+00
         -2   -1    0    0    0  501 -0.00000000000E+00  0.00000000000E+00  0.12321624111E+03  0.12321624111E+03  0.00000000000E+00 0.  1.
          2   -1    0    0  501    0  0.00000000000E+00 -0.00000000000E+00 -0.10507039112E+03  0.10507039112E+03  0.00000000000E+00 0. -1.
         25    2    1    2    0    0  0.63302117092E+01  0.32487213831E+02  0.26837423638E+02  0.13215024322E+03  0.12509176165E+03 0.  0.
          5    1    3    3  502    0  0.62818365569E+02 -0.11459019739E+01  0.19220916821E+02  0.65835979430E+02  0.41800000000E+01 0.  1.
         -5    1    3    3    0  502 -0.56488153860E+02  0.33633115805E+02  0.76165068175E+01  0.66314263785E+02  0.41800000000E+01 0.  1.
        -11    1    1    2    0    0 -0.43266629320E+02 -0.34984460229E+02 -0.17028873550E+02  0.58188454221E+02  0.00000000000E+00 0.  1.
         11    1    1    2    0    0  0.36936417611E+02  0.24972463978E+01  0.83372998974E+01  0.37947934793E+02  0.00000000000E+00 0. -1.
</event>
<event>
 7    1  0.3265282E-009  0.1584250E+03  0.7561462E-02  0.1190487E+00
          2   -1    0    0  501    0  0.00000000000E+00  0.00000000000E+00  0.80537009553E+03  0.80537009553E+03  0.00000000000E+00 0. -1.
         -2   -1    0    0    0  501 -0.00000000000E+00 -0.00000000000E+00 -0.43732006470E+02  0.43732006470E+02  0.00000000000E+00 0.  1.
         25    2    1    2    0    0  0.30165680090E+02 -0.14051547826E+03  0.51783719565E+03  0.55177574921E+03  0.12508616366E+03 0.  0.
          5    1    3    3  502    0  0.23330547303E+02 -0.21698094271E+02  0.15801268794E+02  0.35808856837E+02  0.41800000000E+01 0. -1.
         -5    1    3    3    0  502  0.68351327866E+01 -0.11881738399E+03  0.50203592685E+03  0.51596689238E+03  0.41800000000E+01 0. -1.
        -11    1    1    2    0    0 -0.58661691350E+02  0.10278095061E+03  0.14037359294E+03  0.18360246032E+03  0.00000000000E+00 0. -1.
         11    1    1    2    0    0  0.28496011260E+02  0.37734527648E+02  0.10342730047E+03  0.11372389247E+03  0.00000000000E+00 0.  1.
</event>
<event>
 7    1  0.3265282E-009  0.1091108E+03  0.7561462E-02  0.1262225E+00
         -2   -1    0    0    0  501 -0.00000000000E+00  0.00000000000E+00  0.18604799853E+02  0.18604799853E+02  0.00000000000E+00 0.  1.
          2   -1    0    0  501    0  0.00000000000E+00 -0.00000000000E+00 -0.99497726496E+03  0.99497726496E+03  0.00000000000E+00 0. -1.
         25    2    1    2    0    0  0.49031811366E+02 -0.55074981696E+01 -0.77342270900E+03  0.78502465232E+03  0.12508623784E+03 0.  0.
          5    1    3    3  502    0 -0.24418860742E+02 -0.40817827124E+02 -0.18928559322E+03  0.19521496861E+03  0.41800000000E+01 0. -1.
         -5    1    3    3    0  502  0.73450672108E+02  0.35310328954E+02 -0.58413711578E+03  0.58980968371E+03  0.41800000000E+01 0. -1.
        -11    1    1    2    0    0 -0.33663648140E+02 -0.33164331572E+02 -0.16702779628E+03  0.17358398205E+03  0.00000000000E+00 0. -1.
         11    1    1    2    0    0 -0.15368163226E+02  0.38671829742E+02 -0.35921959835E+02  0.54973430445E+02  0.00000000000E+00 0.  1.
</event>
<event>
 7    1  0.3265282E-009  0.1289176E+03  0.7561462E-02  0.1229071E+00
          2   -1    0    0  501    0  0.00000000000E+00  0.00000000000E+00  0.55105003347E+03  0.55105003347E+03  0.00000000000E+00 0. -1.
         -2   -1    0    0    0  501 -0.00000000000E+00 -0.00000000000E+00 -0.53555422193E+02  0.53555422193E+02  0.00000000000E+00 0.  1.
         25    2    1    2    0    0 -0.84827161876E+02 -0.20211777739E+02  0.77351702200E+02  0.17097950906E+03  0.12508614365E+03 0.  0.
          5    1    3    3  502    0 -0.81874742777E+02 -0.66363073491E+02  0.46770889055E+02  0.11537989206E+03  0.41800000000E+01 0.  1.
         -5    1    3    3    0  502 -0.29524190990E+01  0.46151295751E+02  0.30580813145E+02  0.55599617001E+02  0.41800000000E+01 0.  1.
        -11    1    1    2    0    0  0.82394995681E+01  0.27769644308E+02  0.86461864146E+02  0.91184957365E+02  0.00000000000E+00 0.  1.
         11    1    1    2    0    0  0.76587662308E+02 -0.75578665686E+01  0.33368104494E+03  0.34244098924E+03  0.00000000000E+00 0. -1.
</event>
<event>
 7    1  0.3265282E-009  0.1484038E+03  0.7561462E-02  0.1202448E+00
         -2   -1    0    0    0  501 -0.00000000000E+00  0.00000000000E+00  0.39313228621E+02  0.39313228621E+02  0.00000000000E+00 0.  1.
          2   -1    0    0  501    0  0.00000000000E+00 -0.00000000000E+00 -0.10928258337E+04  0.10928258337E+04  0.00000000000E+00 0. -1.
         25    2    1    2    0    0 -0.75363936366E+02  0.89254908932E+02 -0.88378037415E+03  0.90020228199E+03  0.12510090765E+03 0.  0.
          5    1    3    3  502    0  0.24258534824E+02  0.62223023822E+02 -0.39440823884E+03  0.40004438813E+03  0.41800000000E+01 0.  1.
         -5    1    3    3    0  502 -0.99622471190E+02  0.27031885111E+02 -0.48937213531E+03  0.50015789386E+03  0.41800000000E+01 0.  1.
        -11    1    1    2    0    0  0.54830967892E+02 -0.27175266473E+02 -0.13633059133E+02  0.62696016215E+02  0.00000000000E+00 0.  1.
         11    1    1    2    0    0  0.20532968473E+02 -0.62079642459E+02 -0.15609917176E+03  0.16924076408E+03  0.00000000000E+00 0. -1.
</event>
<event>
 7    1  0.3265282E-009  0.2112460E+03  0.7561462E-02  0.1140583E+00
          2   -1    0    0  501    0  0.00000000000E+00  0.00000000000E+00  0.21906188544E+04  0.21906188544E+04  0.00000000000E+00 0. -1.
         -2   -1    0    0    0  501 -0.00000000000E+00 -0.00000000000E+00 -0.30939727971E+02  0.30939727971E+02  0.00000000000E+00 0.  1.
         25    2    1    2    0    0  0.19243670470E+03  0.39558182862E+02  0.16710138998E+04  0.16871665815E+04  0.12508750926E+03 0.  0.
          5    1    3    3  502    0  0.12078109659E+02  0.43140019991E+02  0.53754895901E+03  0.53942867720E+03  0.41800000000E+01 0. -1.
         -5    1    3    3    0  502  0.18035859504E+03 -0.35818371295E+01  0.11334649408E+04  0.11477379043E+04  0.41800000000E+01 0. -1.
        -11    1    1    2    0    0 -0.75559448396E+02 -0.79275460745E+01  0.30563468243E+03  0.31493592258E+03  0.00000000000E+00 0.  1.
         11    1    1    2    0    0 -0.11687725630E+03 -0.31630636787E+02  0.18303054418E+03  0.21945607836E+03  0.00000000000E+00 0. -1.
</event>
<event>
 7    1  0.3265282E-009  0.1291895E+03  0.7561462E-02  0.1228663E+00
         -2   -1    0    0    0  501 -0.00000000000E+00  0.00000000000E+00  0.35717731114E+02  0.35717731114E+02  0.00000000000E+00 0.  1.
          2   -1    0    0  501    0  0.00000000000E+00 -0.00000000000E+00 -0.48876485988E+03  0.48876485988E+03  0.00000000000E+00 0. -1.
         25    2    1    2    0    0 -0.40076436148E+02 -0.64615635113E+02 -0.25891951382E+03  0.29743538072E+03  0.12508872864E+03 0.  0.
          5    1    3    3  502    0 -0.69992327336E+02  0.51842771306E+01 -0.12188077880E+03  0.14070607398E+03  0.41800000000E+01 0. -1.
         -5    1    3    3    0  502  0.29915891188E+02 -0.69799912244E+02 -0.13703873502E+03  0.15672930674E+03  0.41800000000E+01 0. -1.
        -11    1    1    2    0    0  0.90952331804E+01  0.77810947533E+02 -0.99710394563E+02  0.12680469079E+03  0.00000000000E+00 0.  1.
         11    1    1    2    0    0  0.30981202968E+02 -0.13195312420E+02 -0.94417220389E+02  0.10024251949E+03  0.00000000000E+00 0. -1.
</event>
<event>
 7    1  0.3265282E-009  0.1061746E+03  0.7561462E-02  0.1267822E+00
         -1   -1    0    0    0  501 -0.00000000000E+00  0.00000000000E+00  0.56068456777E+03  0.56068456777E+03  0.00000000000E+00 0.  1.
          1   -1    0    0  501    0  0.00000000000E+00 -0.00000000000E+00 -0.36595978706E+02  0.36595978706E+02  0.00000000000E+00 0. -1.
         25    2    1    2    0    0  0.80980160293E+02 -0.28754081704E+02  0.21270832680E+03  0.26129874698E+03  0.12509044451E+03 0.  0.
          5    1    3    3  502    0  0.54122232215E+02 -0.33601711649E+02  0.20404827725E+02  0.67023282822E+02  0.41800000000E+01 0. -1.
         -5    1    3    3    0  502  0.26857928078E+02  0.48476299453E+01  0.19230349908E+03  0.19427546416E+03  0.41800000000E+01 0. -1.
        -11    1    1    2    0    0 -0.95506188628E+02  0.83771319017E+01  0.27929331186E+03  0.29529030200E+03  0.00000000000E+00 0.  1.
         11    1    1    2    0    0  0.14526028334E+02  0.20376949802E+02  0.32086950397E+02  0.40691497492E+02  0.00000000000E+00 0. -1.
</event>
<event>
 7    1  0.3265282E-009  0.9974862E+02  0.7561462E-02  0.1280825E+00
         -1   -1    0    0    0  501 -0.00000000000E+00  0.00000000000E+00  0.10246353642E+04  0.10246353642E+04  0.00000000000E+00 0.  1.
          1   -1    0    0  501    0  0.00000000000E+00 -0.00000000000E+00 -0.12702270460E+02  0.12702270460E+02  0.00000000000E+00 0. -1.
         25    2    1    2    0    0  0.11456456710E+02  0.28707954976E+02  0.65864515433E+03  0.67113062794E+03  0.12508990114E+03 0.  0.
          5    1    3    3  502    0  0.46720200933E+02  0.44103655624E+02  0.57910858972E+03  0.58267670342E+03  0.41800000000E+01 0. -1.
         -5    1    3    3    0  502 -0.35263744223E+02 -0.15395700648E+02  0.79536564602E+02  0.88453924524E+02  0.41800000000E+01 0. -1.
        -11    1    1    2    0    0  0.20140638523E+02 -0.52905792854E+02  0.20591743771E+03  0.21355715720E+03  0.00000000000E+00 0. -1.
         11    1    1    2    0    0 -0.31597095233E+02  0.24197837878E+02  0.14737050167E+03  0.15264984949E+03  0.00000000000E+00 0.  1.
</event>
<event>
 7    1  0.3265282E-009  0.1094660E+03  0.7561462E-02  0.1261562E+00
         -2   -1    0    0    0  501 -0.00000000000E+00  0.00000000000E+00  0.13096738473E+02  0.13096738473E+02  0.00000000000E+00 0.  1.
          2   -1    0    0  501    0  0.00000000000E+00 -0.00000000000E+00 -0.12472229164E+04  0.12472229164E+04  0.00000000000E+00 0. -1.
         25    2    1    2    0    0  0.15536124940E+02  0.17023027224E+02 -0.93206401146E+03  0.94070290239E+03  0.12508986563E+03 0.  0.
          5    1    3    3  502    0  0.34848114160E+02 -0.41226637558E+02 -0.24604225428E+03  0.25192913685E+03  0.41800000000E+01 0. -1.
         -5    1    3    3    0  502 -0.19311989220E+02  0.58249664782E+02 -0.68602175718E+03  0.68877376554E+03  0.41800000000E+01 0. -1.
        -11    1    1    2    0    0  0.40290854628E+02  0.96151447487E+01 -0.14539158644E+03  0.15117710601E+03  0.00000000000E+00 0. -1.
         11    1    1    2    0    0 -0.55826979568E+02 -0.26638171973E+02 -0.15667057999E+03  0.16843964642E+03  0.00000000000E+00 0.  1.
</event>
<event>
 7    1  0.3265282E-009  0.1003201E+03  0.7561462E-02  0.1279624E+00
          2   -1    0    0  501    0  0.00000000000E+00  0.00000000000E+00  0.32536974275E+03  0.32536974275E+03  0.00000000000E+00 0. -1.
         -2   -1    0    0    0  501 -0.00000000000E+00 -0.00000000000E+00 -0.44471294193E+02  0.44471294193E+02  0.00000000000E+00 0.  1.
         25    2    1    2    0    0  0.41130789797E+02  0.30143515605E+02  0.15569385954E+03  0.20612654939E+03  0.12508878072E+03 0.  0.
          5    1    3    3  502    0 -0.29596702320E+02 -0.27925896138E+02  0.30637682768E+02  0.51107342611E+02  0.41800000000E+01 0. -1.
         -5    1    3    3    0  502  0.70727492117E+02  0.58069411744E+02  0.12505617678E+03  0.15501920678E+03  0.41800000000E+01 0. -1.
        -11    1    1    2    0    0 -0.35525778829E+01  0.11499267913E+02 -0.11067027559E+02  0.16350323273E+02  0.00000000000E+00 0.  1.
         11    1    1    2    0    0 -0.37578211915E+02 -0.41642783518E+02  0.13627161657E+03  0.14736416427E+03  0.00000000000E+00 0. -1.
</event>
<event>
 7    1  0.3265282E-009  0.1010258E+03  0.7561462E-02  0.1278153E+00
         -2   -1    0    0    0  501 -0.00000000000E+00  0.00000000000E+00  0.94896094610E+02  0.94896094610E+02  0.00000000000E+00 0.  1.
          2   -1    0    0  501    0  0.00000000000E+00 -0.00000000000E+00 -0.22000263890E+03  0.22000263890E+03  0.00000000000E+00 0. -1.
         25    2    1    2    0    0  0.75222456265E+01  0.33005488181E+02  0.28728985578E+02  0.13273841418E+03  0.12509270785E+03 0.  0.
          5    1    3    3  502    0  0.55629836512E+02  0.36189304847E+02  0.46546495052E+02  0.81168917064E+02  0.41800000000E+01 0. -1.
         -5    1    3    3    0  502 -0.48107590886E+02 -0.31838166655E+01 -0.17817509474E+02  0.51569497120E+02  0.41800000000E+01 0. -1.
        -11    1    1    2    0    0 -0.31610919573E+02  0.13822387388E+02 -0.23931527719E+02  0.41988410881E+02  0.00000000000E+00 0.  1.
         11    1    1    2    0    0  0.24088673947E+02 -0.46827875569E+02 -0.12990400215E+03  0.14017190845E+03  0.00000000000E+00 0. -1.
</event>
<event>
 7    1  0.3265282E-009  0.1048959E+03  0.7561462E-02  0.1270325E+00
         -2   -1    0    0    0  501 -0.00000000000E+00  0.00000000000E+00  0.21453581214E+02  0.21453581214E+02  0.00000000000E+00 0.  1.
          2   -1    0    0  501    0  0.00000000000E+00 -0.00000000000E+00 -0.91976143394E+03  0.91976143394E+03  0.00000000000E+00 0. -1.
         25    2    1    2    0    0  0.27136756456E+02  0.79916688257E+02 -0.41794775795E+03  0.44435427855E+03  0.12508923165E+03 0.  0.
          5    1    3    3  502    0  0.59580325500E+01  0.16089351067E+02  0.31175702890E+01  0.17932010878E+02  0.41800000000E+01 0. -1.
         -5    1    3    3    0  502  0.21178723906E+02  0.63827337190E+02 -0.42106532824E+03  0.42642226767E+03  0.41800000000E+01 0. -1.
        -11    1    1    2    0    0 -0.55058602998E+02 -0.19872987693E+02 -0.17963843938E+03  0.18893478850E+03  0.00000000000E+00 0.  1.
         11    1    1    2    0    0  0.27921846542E+02 -0.60043700564E+02 -0.30072165540E+03  0.30792594811E+03  0.00000000000E+00 0. -1.
</event>
<event>
 7    1  0.3265282E-009  0.6438995E+02  0.7561462E-02  0.1380281E+00
         -4   -1    0    0    0  501 -0.00000000000E+00  0.00000000000E+00  0.17047146515E+03  0.17047146515E+03  0.00000000000E+00 0.  1.
          4   -1    0    0  501    0  0.00000000000E+00 -0.00000000000E+00 -0.60318844250E+02  0.60318844250E+02  0.00000000000E+00 0. -1.
         25    2    1    2    0    0 -0.13327624927E+02  0.83760054984E-01  0.66686570969E+02  0.14238173572E+03  0.12509127594E+03 0.  0.
          5    1    3    3  502    0  0.32022331918E+02  0.16686030506E+02 -0.21151461170E+02  0.42056034824E+02  0.41800000000E+01 0. -1.
         -5    1    3    3    0  502 -0.45349956844E+02 -0.16602270451E+02  0.87838032139E+02  0.10032570089E+03  0.41800000000E+01 0. -1.
        -11    1    1    2    0    0 -0.15274750087E+01 -0.19471501221E+02 -0.15272965624E+02  0.24793870586E+02  0.00000000000E+00 0. -1.
         11    1    1    2    0    0  0.14855099935E+02  0.19387741166E+02  0.58739015554E+02  0.63614703095E+02  0.00000000000E+00 0.  1.
</event>
<event>
 7    1  0.3265282E-009  0.1251993E+03  0.7561462E-02  0.1234758E+00
         -2   -1    0    0    0  501 -0.00000000000E+00  0.00000000000E+00  0.14314366955E+02  0.14314366955E+02  0.00000000000E+00 0.  1.
          2   -1    0    0  501    0  0.00000000000E+00 -0.00000000000E+00 -0.13808094910E+04  0.13808094910E+04  0.00000000000E+00 0. -1.
         25    2    1    2    0    0 -0.82902459538E+02 -0.32994725657E+02 -0.78123720917E+03  0.79620163570E+03  0.12507596886E+03 0.  0.
          5    1    3    3  502    0 -0.70907647329E+02 -0.71491564751E+02 -0.67520047452E+03  0.68268007988E+03  0.41800000000E+01 0.  1.
         -5    1    3    3    0  502 -0.11994812209E+02  0.38496839094E+02 -0.10603673465E+03  0.11352155582E+03  0.41800000000E+01 0.  1.
        -11    1    1    2    0    0  0.86589557335E+02  0.44247472278E+02 -0.57527147767E+03  0.58343196969E+03  0.00000000000E+00 0. -1.
         11    1    1    2    0    0 -0.36870977965E+01 -0.11252746621E+02 -0.99864372475E+01  0.15490252599E+02  0.00000000000E+00 0.  1.
</event>
<event>
 7    1  0.3265282E-009  0.1051458E+03  0.7561462E-02  0.1269833E+00
         -2   -1    0    0    0  501 -0.00000000000E+00  0.00000000000E+00  0.67397290047E+03  0.67397290047E+03  0.00000000000E+00 0.  1.
          2   -1    0    0  501    0  0.00000000000E+00 -0.00000000000E+00 -0.28260040348E+02  0.28260040348E+02  0.00000000000E+00 0. -1.
         25    2    1    2    0    0  0.76413661120E+02  0.68041067799E+01  0.44178162099E+03  0.46551442028E+03  0.12508929356E+03 0.  0.
          5    1    3    3  502    0 -0.13743701995E+02 -0.14881311273E+02  0.84342496929E+01  0.22337227617E+02  0.41800000000E+01 0.  1.
         -5    1    3    3    0  502  0.90157363115E+02  0.21685418053E+02  0.43334737130E+03  0.44317719266E+03  0.41800000000E+01 0.  1.
        -11    1    1    2    0    0 -0.30944771067E+02 -0.32237755431E+02  0.26849842294E+02  0.52132195070E+02  0.00000000000E+00 0. -1.
         11    1    1    2    0    0 -0.45468890053E+02  0.25433648651E+02  0.17708139684E+03  0.18458632547E+03  0.00000000000E+00 0.  1.
</event>
<event>
 6    1  0.3265282E-009  0.2386812E+03  0.7561462E-02  0.1120674E+00
          1   -1    0    0  501    0  0.00000000000E+00  0.00000000000E+00  0.76279847299E+03  0.76279847299E+03  0.00000000000E+00 0. -1.
         -1   -1    0    0    0  501 -0.00000000000E+00 -0.00000000000E+00 -0.87456789550E+02  0.87456789550E+02  0.00000000000E+00 0.  1.
          5    1    1    2  502    0 -0.20156790756E+02 -0.21515284508E+03  0.21037389921E+03  0.30161514025E+03  0.41800000000E+01 0.  1.
         -5    1    1    2    0  502  0.14151638629E+02 -0.18886305085E+02  0.11856927243E+03  0.12096737643E+03  0.41800000000E+01 0.  1.
        -11    1    1    2    0    0  0.20913452807E+02  0.17969051453E+03  0.19434251899E+03  0.26550907368E+03  0.00000000000E+00 0.  1.
         11    1    1    2    0    0 -0.14908300680E+02  0.54348635635E+02  0.15205599281E+03  0.16216367217E+03  0.00000000000E+00 0. -1.
</event>
<event>
 7    1  0.3265282E-009  0.8471706E+02  0.7561462E-02  0.1316174E+00
          1   -1    0    0  501    0  0.00000000000E+00  0.00000000000E+00  0.34272963364E+03  0.34272963364E+03  0.00000000000E+00 0. -1.
         -1   -1    0    0    0  501 -0.00000000000E+00 -0.00000000000E+00 -0.50031525830E+02  0.50031525830E+02  0.00000000000E+00 0.  1.
         25    2    1    2    0    0 -0.63210222506E+02 -0.27946527508E+02  0.12897392122E+03  0.19250608877E+03  0.12509109172E+03 0.  0.
          5    1    3    3  502    0 -0.19908218440E+02 -0.22514161240E+02 -0.20576625899E+02  0.36661895085E+02  0.41800000000E+01 0.  1.
         -5    1    3    3    0  502 -0.43302004066E+02 -0.54323662681E+01  0.14955054712E+03  0.15584419368E+03  0.41800000000E+01 0.  1.
        -11    1    1    2    0    0  0.49230764055E+01  0.36065613055E+02  0.13342562969E+02  0.38768403538E+02  0.00000000000E+00 0.  1.
         11    1    1    2    0    0  0.58287146101E+02 -0.81190855461E+01  0.15038162361E+03  0.16148666716E+03  0.00000000000E+00 0. -1.
</event>
<event>
 7    1  0.3265282E-009  0.1122711E+03  0.7561462E-02  0.1256421E+00
         -2   -1    0    0    0  501 -0.00000000000E+00  0.00000000000E+00  0.17128652749E+02  0.17128652749E+02  0.00000000000E+00 0.  1.
          2   -1    0    0  501    0  0.00000000000E+00 -0.00000000000E+00 -0.76550601896E+03  0.76550601896E+03  0.00000000000E+00 0. -1.
         25    2    1    2    0    0  0.13193180325E+02 -0.35033245701E+02 -0.38678976771E+03  0.40823841791E+03  0.12510352972E+03 0.  0.
          5    1    3    3  502    0  0.64820195336E+02 -0.38597940033E+02 -0.27111085951E+03  0.28144276370E+03  0.41800000000E+01 0. -1.
         -5    1    3    3    0  502 -0.51627015011E+02  0.35646943320E+01 -0.11567890820E+03  0.12679565421E+03  0.41800000000E+01 0. -1.
        -11    1    1    2    0    0  0.33580379100E+02 -0.68606065654E+01 -0.12353980737E+03  0.12820605987E+03  0.00000000000E+00 0.  1.
         11    1    1    2    0    0 -0.46773559426E+02  0.41893852267E+02 -0.23804779114E+03  0.24619019393E+03  0.00000000000E+00 0. -1.
</event>
<event>
 7    1  0.3265282E-009  0.1298611E+03  0.7561462E-02  0.1227662E+00
          1   -1    0    0  501    0  0.00000000000E+00  0.00000000000E+00  0.19111445585E+02  0.19111445585E+02  0.00000000000E+00 0. -1.
         -1   -1    0    0    0  501 -0.00000000000E+00 -0.00000000000E+00 -0.89070822512E+03  0.89070822512E+03  0.00000000000E+00 0.  1.
         25    2    1    2    0    0 -0.37989240729E+01  0.72703134995E+02 -0.50455551761E+03  0.52491489167E+03  0.12513670716E+03 0.  0.
          5    1    3    3  502    0 -0.54142309757E+02 -0.17340084981E+01 -0.16965078912E+03  0.17813831463E+03  0.41800000000E+01 0. -1.
         -5    1    3    3    0  502  0.50343385684E+02  0.74437143493E+02 -0.33490472850E+03  0.34677657704E+03  0.41800000000E+01 0. -1.
        -11    1    1    2    0    0 -0.37161160137E+02 -0.63305651189E+02 -0.21639630496E+03  0.22850802633E+03  0.00000000000E+00 0. -1.
         11    1    1    2    0    0  0.40960084210E+02 -0.93974838054E+01 -0.15064495696E+03  0.15639675271E+03  0.00000000000E+00 0.  1.
</event>
<event>
 7    1  0.3265282E-009  0.1032548E+03  0.7561462E-02  0.1273597E+00
          3   -1    0    0  501    0  0.00000000000E+00  0.00000000000E+00  0.12671578874E+03  0.12671578874E+03  0.00000000000E+00 0. -1.
         -3   -1    0    0    0  501 -0.00000000000E+00 -0.00000000000E+00 -0.10258266036E+03  0.10258266036E+03  0.00000000000E+00 0.  1.
         25    2    1    2    0    0 -0.27126882723E+02  0.18853309250E+02  0.10281820886E+00  0.12937753293E+03  0.12508885010E+03 0.  0.
          5    1    3    3  502    0 -0.15407567550E+02 -0.47118394383E+02 -0.27436891693E+02  0.56813657274E+02  0.41800000000E+01 0.  1.
         -5    1    3    3    0  502 -0.11719315173E+02  0.65971703633E+02  0.27539709902E+02  0.72563875654E+02  0.41800000000E+01 0.  1.
        -11    1    1    2    0    0  0.50042278846E+02 -0.35454014887E+02 -0.21561840804E+01  0.61366651966E+02  0.00000000000E+00 0.  1.
         11    1    1    2    0    0 -0.22915396124E+02  0.16600705636E+02  0.26186494250E+02  0.38554264203E+02  0.00000000000E+00 0. -1.
</event>
<event>
 7    1  0.3265282E-009  0.9413691E+02  0.7561462E-02  0.1293132E+00
          1   -1    0    0  501    0  0.00000000000E+00  0.00000000000E+00  0.11831027309E+03  0.11831027309E+03  0.00000000000E+00 0. -1.
         -1   -1    0    0    0  501 -0.00000000000E+00 -0.00000000000E+00 -0.10776351592E+03  0.10776351592E+03  0.00000000000E+00 0.  1.
         25    2    1    2    0    0  0.15760480460E+02 -0.13014451864E+02 -0.19488116911E+02  0.12822398569E+03  0.12507531773E+03 0.  0.
          5    1    3    3  502    0  0.55908365401E+02 -0.22374616861E+02 -0.48671989905E+02  0.77542271071E+02  0.41800000000E+01 0.  1.
         -5    1    3    3    0  502 -0.40147884941E+02  0.93601649966E+01  0.29183872994E+02  0.50681714621E+02  0.41800000000E+01 0.  1.
        -11    1    1    2    0    0  0.13536697192E+02  0.42682770470E+02 -0.26706690409E+01  0.44857480301E+02  0.00000000000E+00 0.  1.
         11    1    1    2    0    0 -0.29297177652E+02 -0.29668318606E+02  0.32705543125E+02  0.52992323014E+02  0.00000000000E+00 0. -1.
</event>
<event>
 7    1  0.3265282E-009  0.1196912E+03  0.7561462E-02  0.1243607E+00
          3   -1    0    0  501    0  0.00000000000E+00  0.00000000000E+00  0.54093001056E+02  0.54093001056E+02  0.00000000000E+00 0. -1.
         -3   -1    0    0    0  501 -0.00000000000E+00 -0.00000000000E+00 -0.34914523897E+03  0.34914523897E+03  0.00000000000E+00 0.  1.
         25    2    1    2    0    0 -0.65528124497E+02 -0.28282467330E+02 -0.22336033460E+03  0.26576405655E+03  0.12508741592E+03 0.  0.
          5    1    3    3  502    0 -0.97155122822E+02 -0.15635852776E+02 -0.20357918179E+03  0.22615382694E+03  0.41800000000E+01 0.  1.
         -5    1    3    3    0  502  0.31626998325E+02 -0.12646614554E+02 -0.19781152804E+02  0.39610229601E+02  0.41800000000E+01 0.  1.
        -11    1    1    2    0    0  0.10663426187E+02  0.47312820389E+02 -0.61812455824E+02  0.78568386302E+02  0.00000000000E+00 0.  1.
         11    1    1    2    0    0  0.54864698310E+02 -0.19030353059E+02 -0.98794474923E+01  0.58905797176E+02  0.00000000000E+00 0. -1.
</event>
<event>
 7    1  0.3265282E-009  0.1872148E+03  0.7561462E-02  0.1160998E+00
          2   -1    0    0  501    0  0.00000000000E+00  0.00000000000E+00  0.98647314641E+03  0.98647314641E+03  0.00000000000E+00 0. -1.
         -2   -1    0    0    0  501 -0.00000000000E+00 -0.00000000000E+00 -0.46306378439E+02  0.46306378439E+02  0.00000000000E+00 0.  1.
         25    2    1    2    0    0  0.13847176223E+03 -0.77820644632E+02  0.27583478873E+03  0.34199775588E+03  0.12508857937E+03 0.  0.
          5    1    3    3  502    0  0.14191047056E+03 -0.31076419789E+02  0.24765286515E+03  0.28714759191E+03  0.41800000000E+01 0. -1.
         -5    1    3    3    0  502 -0.34387083349E+01 -0.46744224844E+02  0.28181923584E+02  0.54850163976E+02  0.41800000000E+01 0. -1.
        -11    1    1    2    0    0 -0.74679792940E+02  0.90152824269E+02  0.51125482330E+03  0.52448650845E+03  0.00000000000E+00 0. -1.
         11    1    1    2    0    0 -0.63791969286E+02 -0.12332179637E+02  0.15307715593E+03  0.16629526051E+03  0.00000000000E+00 0.  1.
</event>
<event>
 7    1  0.3265282E-009  0.1127580E+03  0.7561462E-02  0.1255546E+00
         -1   -1    0    0    0  501 -0.00000000000E+00  0.00000000000E+00  0.13460127972E+03  0.13460127972E+03  0.00000000000E+00 0.  1.
          1   -1    0    0  501    0  0.00000000000E+00 -0.00000000000E+00 -0.13567812336E+03  0.13567812336E+03  0.00000000000E+00 0. -1.
         25    2    1    2    0    0 -0.73899596821E+01  0.76269717434E+02 -0.26072327667E+02  0.14899054443E+03  0.12508690882E+03 0.  0.
          5    1    3    3  502    0  0.44752597656E+02 -0.97690704883E+01 -0.77931016753E+01  0.46652272923E+02  0.41800000000E+01 0. -1.
         -5    1    3    3    0  502 -0.52142557338E+02  0.86038787922E+02 -0.18279225992E+02  0.10233827151E+03  0.41800000000E+01 0. -1.
        -11    1    1    2    0    0  0.12470488434E+02 -0.33314284119E+02 -0.33281422207E+02  0.48713526584E+02  0.00000000000E+00 0. -1.
         11    1    1    2    0    0 -0.50805287517E+01 -0.42955433314E+02  0.58276906239E+02  0.72575332065E+02  0.00000000000E+00 0.  1.
</event>
<event>
 6    1  0.3265282E-009  0.2882791E+03  0.7561462E-02  0.1091251E+00
          2   -1    0    0  501    0  0.00000000000E+00  0.00000000000E+00  0.17344582173E+04  0.17344582173E+04  0.00000000000E+00 0. -1.
         -2   -1    0    0    0  501 -0.00000000000E+00 -0.00000000000E+00 -0.83282501576E+02  0.83282501576E+02  0.00000000000E+00 0.  1.
          5    1    1    2  502    0  0.19472236959E+03 -0.92486459220E+02  0.10381905332E+04  0.10603431530E+04  0.41800000000E+01 0.  1.
         -5    1    1    2    0  502  0.68618641208E+02  0.41530543957E+02  0.38615289871E+03  0.39441708582E+03  0.41800000000E+01 0.  1.
        -11    1    1    2    0    0 -0.21655763110E+03  0.73593469611E+01  0.19518108733E+03  0.29162822982E+03  0.00000000000E+00 0.  1.
         11    1    1    2    0    0 -0.46783379693E+02  0.43596568302E+02  0.31651196473E+02  0.71352250289E+02  0.00000000000E+00 0. -1.
</event>
<event>
 7    1  0.3265282E-009  0.9843143E+02  0.7561462E-02  0.1283629E+00
          2   -1    0    0  501    0  0.00000000000E+00  0.00000000000E+00  0.23784644073E+03  0.23784644073E+03  0.00000000000E+00 0. -1.
         -2   -1    0    0    0  501 -0.00000000000E+00 -0.00000000000E+00 -0.68751973650E+02  0.68751973650E+02  0.00000000000E+00 0.  1.
         25    2    1    2    0    0 -0.47507820082E+02 -0.16977781934E+02  0.14940117209E+03  0.20129216826E+03  0.12511030627E+03 0.  0.
          5    1    3    3  502    0 -0.73863843702E+01  0.34224510958E+02 -0.31468790788E+01  0.35401286309E+02  0.41800000000E+01 0.  1.
         -5    1    3    3    0  502 -0.40121435712E+02 -0.51202292892E+02  0.15254805116E+03  0.16589088195E+03  0.41800000000E+01 0.  1.
        -11    1    1    2    0    0  0.57951325477E+02 -0.17385597796E+02 -0.65041401861E+01  0.60851614397E+02  0.00000000000E+00 0.  1.
         11    1    1    2    0    0 -0.10443505394E+02  0.34363379730E+02  0.26197435178E+02  0.44454631719E+02  0.00000000000E+00 0. -1.
</event>
<event>
 7    1  0.3265282E-009  0.9215411E+02  0.7561462E-02  0.1297717E+00
         -2   -1    0    0    0  501 -0.00000000000E+00  0.00000000000E+00  0.21726780064E+03  0.21726780064E+03  0.00000000000E+00 0.  1.
          2   -1    0    0  501    0  0.00000000000E+00 -0.00000000000E+00 -0.58228081955E+02  0.58228081955E+02  0.00000000000E+00 0. -1.
         25    2    1    2    0    0 -0.13535353228E+02  0.26804323018E+02  0.94993890052E+02  0.15991219422E+03  0.12508554350E+03 0.  0.
          5    1    3    3  502    0 -0.39239895320E+02 -0.39861530058E+02  0.32062270932E+02  0.64607836836E+02  0.41800000000E+01 0. -1.
         -5    1    3    3    0  502  0.25704542092E+02  0.66665853076E+02  0.62931619120E+02  0.95304357380E+02  0.41800000000E+01 0. -1.
        -11    1    1    2    0    0 -0.63245466724E+00  0.13710409228E+02  0.70814883543E+02  0.72132676724E+02  0.00000000000E+00 0.  1.
         11    1    1    2    0    0  0.14167807895E+02 -0.40514732245E+02 -0.67690549099E+01  0.43451011655E+02  0.00000000000E+00 0. -1.
</event>
<event>
 7    1  0.3265282E-009  0.1106253E+03  0.7561462E-02  0.1259416E+00
          1   -1    0    0  501    0  0.00000000000E+00  0.00000000000E+00  0.21489469650E+03  0.21489469650E+03  0.00000000000E+00 0. -1.
         -1   -1    0    0    0  501 -0.00000000000E+00 -0.00000000000E+00 -0.94899697028E+02  0.94899697028E+02  0.00000000000E+00 0.  1.
         25    2    1    2    0    0  0.70314623297E+01 -0.61957690849E+02  0.13961566724E+03  0.19755334531E+03  0.12508634132E+03 0.  0.
          5    1    3    3  502    0  0.56191802933E+02 -0.41466697002E+01  0.91698196564E+02  0.10770675578E+03  0.41800000000E+01 0.  1.
         -5    1    3    3    0  502 -0.49160340604E+02 -0.57811021148E+02  0.47917470675E+02  0.89846589531E+02  0.41800000000E+01 0.  1.
        -11    1    1    2    0    0  0.19967359047E+02  0.58150410621E+02  0.19548763635E+02  0.64516043294E+02  0.00000000000E+00 0. -1.
         11    1    1    2    0    0 -0.26998821377E+02  0.38072802278E+01 -0.39169431405E+02  0.47725004925E+02  0.00000000000E+00 0.  1.
</event>
<event>
 7    1  0.3265282E-009  0.1288507E+03  0.7561462E-02  0.1229171E+00
         -1   -1    0    0    0  501 -0.00000000000E+00  0.00000000000E+00  0.40669959469E+03  0.40669959469E+03  0.00000000000E+00 0.  1.
          1   -1    0    0  501    0  0.00000000000E+00 -0.00000000000E+00 -0.78030075638E+02  0.78030075638E+02  0.00000000000E+00 0. -1.
         25    2    1    2    0    0  0.18744531139E+02 -0.77845243187E+02  0.15795575993E+02  0.14935471126E+03  0.12508433244E+03 0.  0.
          5    1    3    3  502    0  0.69946182980E+02 -0.27505608259E+02 -0.18432891562E+01  0.75298719206E+02  0.41800000000E+01 0. -1.
         -5    1    3    3    0  502 -0.51201651841E+02 -0.50339634927E+02  0.17638865149E+02  0.74055992057E+02  0.41800000000E+01 0. -1.
        -11    1    1    2    0    0 -0.47450935484E+02  0.60764490302E+02  0.27131121064E+03  0.28205263264E+03  0.00000000000E+00 0.  1.
         11    1    1    2    0    0  0.28706404345E+02  0.17080752885E+02  0.41562732428E+02  0.53322326435E+02  0.00000000000E+00 0. -1.
</event>
<event>
 7    1  0.3265282E-009  0.1033012E+03  0.7561462E-02  0.1273503E+00
         -2   -1    0    0    0  501 -0.00000000000E+00  0.00000000000E+00  0.40792865643E+02  0.40792865643E+02  0.00000000000E+00 0.  1.
          2   -1    0    0  501    0  0.00000000000E+00 -0.00000000000E+00 -0.34122616226E+03  0.34122616226E+03  0.00000000000E+00 0. -1.
         25    2    1    2    0    0 -0.58816617480E+01  0.27969857560E+02 -0.22614454040E+03  0.26001424224E+03  0.12509654727E+03 0.  0.
          5    1    3    3  502    0 -0.23662874191E+02 -0.39803959179E+02 -0.14724293669E+03  0.15440933128E+03  0.41800000000E+01 0. -1.
         -5    1    3    3    0  502  0.17781212443E+02  0.67773816739E+02 -0.78901603716E+02  0.10560491097E+03  0.41800000000E+01 0. -1.
        -11    1    1    2    0    0 -0.38100014692E+02 -0.58361585375E+00 -0.99197841287E+01  0.39374532939E+02  0.00000000000E+00 0.  1.
         11    1    1    2    0    0  0.43981676440E+02 -0.27386241706E+02 -0.64368972088E+02  0.82630252722E+02  0.00000000000E+00 0. -1.
</event>
<event>
 7    1  0.3265282E-009  0.7215211E+02  0.7561462E-02  0.1352924E+00
         -1   -1    0    0    0  501 -0.00000000000E+00  0.00000000000E+00  0.26039404897E+02  0.26039404897E+02  0.00000000000E+00 0.  1.
          1   -1    0    0  501    0  0.00000000000E+00 -0.00000000000E+00 -0.53395455329E+03  0.53395455329E+03  0.00000000000E+00 0. -1.
         25    2    1    2    0    0  0.33312686789E+02  0.23782274774E+02 -0.23036915675E+03  0.26531579028E+03  0.12508872250E+03 0.  0.
          5    1    3    3  502    0 -0.11690239742E+02  0.22798142010E+01  0.12248936135E+02  0.17588862796E+02  0.41800000000E+01 0. -1.
         -5    1    3    3    0  502  0.45002926531E+02  0.21502460573E+02 -0.24261809289E+03  0.24772692749E+03  0.41800000000E+01 0. -1.
        -11    1    1    2    0    0 -0.41931830418E+02  0.12961591142E+02 -0.62653822671E+02  0.76496945968E+02  0.00000000000E+00 0.  1.
         11    1    1    2    0    0  0.86191436294E+01 -0.36743865915E+02 -0.21489216897E+03  0.21818122193E+03  0.00000000000E+00 0. -1.
</event>
<event>
 7    1  0.3265282E-009  0.2414945E+03  0.7561462E-02  0.1118801E+00
          1   -1    0    0  501    0  0.00000000000E+00  0.00000000000E+00  0.45128299730E+03  0.45128299730E+03  0.00000000000E+00 0. -1.
         -1   -1    0    0    0  501 -0.00000000000E+00 -0.00000000000E+00 -0.14940188016E+03  0.14940188016E+03  0.00000000000E+00 0.  1.
         25    2    1    2    0    0  0.16847314163E+03  0.14888684228E+03  0.72241546992E+02  0.26723946798E+03  0.12509037085E+03 0.  0.
          5    1    3    3  502    0  0.27552318689E+02  0.10293807923E+03  0.48165056972E+02  0.11701591145E+03  0.41800000000E+01 0. -1.
         -5    1    3    3    0  502  0.14092082294E+03  0.45948763057E+02  0.24076490020E+02  0.15022355653E+03  0.41800000000E+01 0. -1.
        -11    1    1    2    0    0 -0.79628314971E+02 -0.45363257517E+02  0.14913575450E+03  0.17504275748E+03  0.00000000000E+00 0. -1.
         11    1    1    2    0    0 -0.88844826655E+02 -0.10352358477E+03  0.80503815656E+02  0.15840265200E+03  0.00000000000E+00 0.  1.
</event>
<event>
 7    1  0.3265282E-009  0.1575213E+03  0.7561462E-02  0.1191524E+00
          2   -1    0    0  501    0  0.00000000000E+00  0.00000000000E+00  0.52132618376E+03  0.52132618376E+03  0.00000000000E+00 0. -1.
         -2   -1    0    0    0  501 -0.00000000000E+00 -0.00000000000E+00 -0.76040363916E+02  0.76040363916E+02  0.00000000000E+00 0.  1.
         25    2    1    2    0    0  0.11033878680E+03  0.48237928296E+02  0.60602510183E+02  0.18390707589E+03  0.12509037822E+03 0.  0.
          5    1    3    3  502    0 -0.92684508374E+01 -0.29236826436E+02  0.13371999676E+02  0.33719118854E+02  0.41800000000E+01 0.  1.
         -5    1    3    3    0  502  0.11960723764E+03  0.77474754732E+02  0.47230510507E+02  0.15018795704E+03  0.41800000000E+01 0.  1.
        -11    1    1    2    0    0 -0.86306479334E+02 -0.68420554414E+02  0.22248992230E+03  0.24825782196E+03  0.00000000000E+00 0.  1.
         11    1    1    2    0    0 -0.24032307469E+02  0.20182626118E+02  0.16219338737E+03  0.16520164982E+03  0.00000000000E+00 0. -1.
</event>
<event>
 7    1  0.3265282E-009  0.1085695E+03  0.7561462E-02  0.1263242E+00
          4   -1    0    0  501    0  0.00000000000E+00  0.00000000000E+00  0.29646690063E+03  0.29646690063E+03  0.00000000000E+00 0. -1.
         -4   -1    0    0    0  501 -0.00000000000E+00 -0.00000000000E+00 -0.10491008883E+03  0.10491008883E+03  0.00000000000E+00 0.  1.
         25    2    1    2    0    0 -0.46399990763E+02 -0.56132870485E+02  0.23506264444E+03  0.27605494532E+03  0.12509207702E+03 0.  0.
          5    1    3    3  502    0 -0.65044750221E+02 -0.55668349599E+02  0.24120208449E+03  0.25597988718E+03  0.41800000000E+01 0.  1.
         -5    1    3    3    0  502  0.18644759458E+02 -0.46452088596E+00 -0.61394400554E+01  0.20075058134E+02  0.41800000000E+01 0.  1.
        -11    1    1    2    0    0 -0.24969325016E+02  0.21641535469E+02 -0.30553864191E+02  0.45004020556E+02  0.00000000000E+00 0.  1.
         11    1    1    2    0    0  0.71369315780E+02  0.34491335017E+02 -0.12951968442E+02  0.80318023585E+02  0.00000000000E+00 0. -1.
</event>
<event>
 7    1  0.3265282E-009  0.9853836E+02  0.7561462E-02  0.1283400E+00
          2   -1    0    0  501    0  0.00000000000E+00  0.00000000000E+00  0.35610994090E+03  0.35610994090E+03  0.00000000000E+00 0. -1.
         -2   -1    0    0    0  501 -0.00000000000E+00 -0.00000000000E+00 -0.54703709079E+02  0.54703709079E+02  0.00000000000E+00 0.  1.
         25    2    1    2    0    0 -0.11368643582E+02  0.66728198097E+02  0.83743662901E+02  0.16505249365E+03  0.12508967227E+03 0.  0.
          5    1    3    3  502    0  0.29125656582E+02  0.29631093815E+02 -0.20977115610E+02  0.46731331795E+02  0.41800000000E+01 0.  1.
         -5    1    3    3    0  502 -0.40494300164E+02  0.37097104282E+02  0.10472077851E+03  0.11832116186E+03  0.41800000000E+01 0.  1.
        -11    1    1    2    0    0  0.31226860939E+02 -0.63927956303E+00  0.21777161220E+02  0.38075848950E+02  0.00000000000E+00 0.  1.
         11    1    1    2    0    0 -0.19858217358E+02 -0.66088918534E+02  0.19588540770E+03  0.20768530738E+03  0.00000000000E+00 0. -1.
</event>
<event>
 7    1  0.3265282E-009  0.1196075E+03  0.7561462E-02  0.1243746E+00
         -3   -1    0    0    0  501 -0.00000000000E+00  0.00000000000E+00  0.17052305083E+03  0.17052305083E+03  0.00000000000E+00 0.  1.
          3   -1    0    0  501    0  0.00000000000E+00 -0.00000000000E+00 -0.15653045558E+03  0.15653045558E+03  0.00000000000E+00 0. -1.
         25    2    1    2    0    0 -0.61144214638E+02  0.31643567092E+02  0.10917538441E+03  0.17974462039E+03  0.12509569807E+03 0.  0.
          5    1    3    3  502    0 -0.75060765137E+02 -0.24104653247E+02  0.36422441652E+02  0.86943771641E+02  0.41800000000E+01 0. -1.
         -5    1    3    3    0  502  0.13916550499E+02  0.55748220339E+02  0.72752942757E+02  0.92800848749E+02  0.41800000000E+01 0. -1.
        -11    1    1    2    0    0  0.53091615471E+02  0.15122147172E+02 -0.80548462640E+02  0.97649648243E+02  0.00000000000E+00 0. -1.
         11    1    1    2    0    0  0.80525991669E+01 -0.46765714264E+02 -0.14634326519E+02  0.49659237777E+02  0.00000000000E+00 0.  1.
</event>
<event>
 7    1  0.3265282E-009  0.6842551E+02  0.7561462E-02  0.1365531E+00
         -2   -1    0    0    0  501 -0.00000000000E+00  0.00000000000E+00  0.45556648073E+02  0.45556648073E+02  0.00000000000E+00 0.  1.
          2   -1    0    0  501    0  0.00000000000E+00 -0.00000000000E+00 -0.64087263993E+03  0.64087263993E+03  0.00000000000E+00 0. -1.
         25    2    1    2    0    0  0.34884185308E+02  0.44439618742E+02 -0.55603029041E+03  0.57272022140E+03  0.12508789728E+03 0.  0.
          5    1    3    3  502    0  0.47032802894E+02  0.17227983351E+02 -0.53156948194E+03  0.53394051587E+03  0.41800000000E+01 0. -1.
         -5    1    3    3    0  502 -0.12148617586E+02  0.27211635391E+02 -0.24460808477E+02  0.38779705533E+02  0.41800000000E+01 0. -1.
        -11    1    1    2    0    0 -0.21530684128E+02 -0.27339884176E+02  0.26946984462E+02  0.44013402475E+02  0.00000000000E+00 0.  1.
         11    1    1    2    0    0 -0.13353501180E+02 -0.17099734565E+02 -0.66232685907E+02  0.69695664129E+02  0.00000000000E+00 0. -1.
</event>
<event>
 7    1  0.3265282E-009  0.5404305E+02  0.7561462E-02  0.1424679E+00
         -1   -1    0    0    0  501 -0.00000000000E+00  0.00000000000E+00  0.14718620966E+03  0.14718620966E+03  0.00000000000E+00 0.  1.
          1   -1    0    0  501    0  0.00000000000E+00 -0.00000000000E+00 -0.86441257854E+02  0.86441257854E+02  0.00000000000E+00 0. -1.
         25    2    1    2    0    0 -0.19736234763E+02 -0.20092044207E+02  0.27772089467E+02  0.13119335529E+03  0.12508876175E+03 0.  0.
          5    1    3    3  502    0 -0.10681496660E+02 -0.20310310604E+01 -0.49686737474E+02  0.51033946927E+02  0.41800000000E+01 0.  1.
         -5    1    3    3    0  502 -0.90547381029E+01 -0.18061013147E+02  0.77458826941E+02  0.80159408363E+02  0.41800000000E+01 0.  1.
        -11    1    1    2    0    0 -0.20918193842E+02  0.27428433831E+02  0.47446834262E+02  0.58660820805E+02  0.00000000000E+00 0.  1.
         11    1    1    2    0    0  0.40654428605E+02 -0.73363896233E+01 -0.14473971928E+02  0.43773291415E+02  0.00000000000E+00 0. -1.
</event>
<event>
 7    1  0.3265282E-009  0.1323131E+03  0.7561462E-02  0.1224063E+00
         -3   -1    0    0    0  501 -0.00000000000E+00  0.00000000000E+00  0.43870514449E+02  0.43870514449E+02  0.00000000000E+00 0.  1.
          3   -1    0    0  501    0  0.00000000000E+00 -0.00000000000E+00 -0.54810933117E+03  0.54810933117E+03  0.00000000000E+00 0. -1.
         25    2    1    2    0    0  0.90444566327E+02 -0.61409367131E+02 -0.24510852073E+03  0.29610338710E+03  0.12509076291E+03 0.  0.
          5    1    3    3  502    0  0.23523097456E+01 -0.26827512157E+02  0.58391896629E+01  0.27871442474E+02  0.41800000000E+01 0.  1.
         -5    1    3    3    0  502  0.88092256581E+02 -0.34581854974E+02 -0.25094771040E+03  0.26823194462E+03  0.41800000000E+01 0.  1.
        -11    1    1    2    0    0 -0.11887195622E+02  0.62959099744E+02 -0.12349070924E+03  0.13912263989E+03  0.00000000000E+00 0.  1.
         11    1    1    2    0    0 -0.78557370705E+02 -0.15497326131E+01 -0.13563958674E+03  0.15675381863E+03  0.00000000000E+00 0. -1.
</event>
<event>
 7    1  0.3265282E-009  0.8359359E+02  0.7561462E-02  0.1319152E+00
         -1   -1    0    0    0  501 -0.00000000000E+00  0.00000000000E+00  0.10195007564E+03  0.10195007564E+03  0.00000000000E+00 0.  1.
          1   -1    0    0  501    0  0.00000000000E+00 -0.00000000000E+00 -0.16664639477E+03  0.16664639477E+03  0.00000000000E+00 0. -1.
         25    2    1    2    0    0  0.54441737027E+02 -0.48622033674E+02 -0.35392609685E+02  0.14909629854E+03  0.12509622108E+03 0.  0.
          5    1    3    3  502    0  0.19411326485E+02 -0.51438117981E+02  0.38443507557E+02  0.67216480498E+02  0.41800000000E+01 0. -1.
         -5    1    3    3    0  502  0.35030410542E+02  0.28160843071E+01 -0.73836117241E+02  0.81879818043E+02  0.41800000000E+01 0. -1.
        -11    1    1    2    0    0 -0.14603174374E+02  0.28507032561E+02 -0.58130775569E+02  0.66370857125E+02  0.00000000000E+00 0. -1.
         11    1    1    2    0    0 -0.39838562653E+02  0.20115001113E+02  0.28827066119E+02  0.53129314743E+02  0.00000000000E+00 0.  1.
</event>
<event>
 7    1  0.3265282E-009  0.3387491E+03  0.7561462E-02  0.1067330E+00
          1   -1    0    0  501    0  0.00000000000E+00  0.00000000000E+00  0.35559914824E+03  0.35559914824E+03  0.00000000000E+00 0. -1.
         -1   -1    0    0    0  501 -0.00000000000E+00 -0.00000000000E+00 -0.37682055566E+03  0.37682055566E+03  0.00000000000E+00 0.  1.
         25    2    1    2    0    0  0.67925593837E+02 -0.32919711685E+03 -0.11067991487E+03  0.37534324094E+03  0.12509147421E+03 0.  0.
          5    1    3    3  502    0  0.20602717458E+02 -0.11955573674E+03  0.21096398737E+02  0.12320948256E+03  0.41800000000E+01 0.  1.
         -5    1    3    3    0  502  0.47322876379E+02 -0.20964138011E+03 -0.13177631361E+03  0.25213375838E+03  0.41800000000E+01 0.  1.
        -11    1    1    2    0    0 -0.24513880681E+01  0.15557071843E+03  0.12178190472E+02  0.15606590293E+03  0.00000000000E+00 0. -1.
         11    1    1    2    0    0 -0.65474205769E+02  0.17362639842E+03  0.77280316972E+02  0.20101056003E+03  0.00000000000E+00 0.  1.
</event>
<event>
 7    1  0.3265282E-009  0.1385457E+03  0.7561462E-02  0.1215299E+00
          3   -1    0    0  501    0  0.00000000000E+00  0.00000000000E+00  0.11126367993E+03  0.11126367993E+03  0.00000000000E+00 0. -1.
         -3   -1    0    0    0  501 -0.00000000000E+00 -0.00000000000E+00 -0.19618968599E+03  0.19618968599E+03  0.00000000000E+00 0.  1.
         25    2    1    2    0    0  0.67501353141E+02 -0.58117900220E+02  0.19207875407E+01  0.15357608013E+03  0.12509116660E+03 0.  0.
          5    1    3    3  502    0 -0.21037172788E+02  0.22459796842E+02 -0.11326894252E+02  0.33057163316E+02  0.41800000000E+01 0.  1.
         -5    1    3    3    0  502  0.88538525929E+02 -0.80577697062E+02  0.13247681793E+02  0.12051891682E+03  0.41800000000E+01 0.  1.
        -11    1    1    2    0    0 -0.74574230041E+02  0.72907150351E+01 -0.43079482413E+02  0.86430967348E+02  0.00000000000E+00 0. -1.
         11    1    1    2    0    0  0.70728768991E+01  0.50827185185E+02 -0.43767311192E+02  0.67446318435E+02  0.00000000000E+00 0.  1.
</event>
<event>
 7    1  0.3265282E-009  0.1293170E+03  0.7561462E-02  0.1228473E+00
         -4   -1    0    0    0  501 -0.00000000000E+00  0.00000000000E+00  0.25820189851E+03  0.25820189851E+03  0.00000000000E+00 0.  1.
          4   -1    0    0  501    0  0.00000000000E+00 -0.00000000000E+00 -0.10081263683E+03  0.10081263683E+03  0.00000000000E+00 0. -1.
         25    2    1    2    0    0  0.90238156677E+02  0.40454222883E+02  0.16122922323E+03  0.22676517904E+03  0.12509242556E+03 0.  0.
          5    1    3    3  502    0  0.34835126392E+02  0.61284827481E+02  0.15080415555E+03  0.16651931372E+03  0.41800000000E+01 0.  1.
         -5    1    3    3    0  502  0.55403030286E+02 -0.20830604598E+02  0.10425067684E+02  0.60245865327E+02  0.41800000000E+01 0.  1.
        -11    1    1    2    0    0 -0.86551278527E+02  0.14996219999E+01  0.11714379392E+02  0.87353301971E+02  0.00000000000E+00 0.  1.
         11    1    1    2    0    0 -0.36868781505E+01 -0.41953844883E+02 -0.15554340947E+02  0.44896054317E+02  0.00000000000E+00 0. -1.
</event>
<event>
 6    1  0.3265282E-009  0.7753207E+02  0.7561462E-02  0.1336205E+00
         -3   -1    0    0    0  501 -0.00000000000E+00  0.00000000000E+00  0.49139170316E+02  0.49139170316E+02  0.00000000000E+00 0.  1.
          3   -1    0    0  501    0  0.00000000000E+00 -0.00000000000E+00 -0.26994484956E+03  0.26994484956E+03  0.00000000000E+00 0. -1.
          5    1    1    2  502    0  0.84252817072E+01  0.56640939272E+02 -0.17585331958E+02  0.60049127167E+02  0.41800000000E+01 0.  1.
         -5    1    1    2    0  502  0.27667784527E+01 -0.28561364756E+02 -0.14257559313E+03  0.14549460050E+03  0.41800000000E+01 0.  1.
        -11    1    1    2    0    0  0.14903061849E+02  0.13137219144E+02  0.14045531231E+02  0.24330325252E+02  0.00000000000E+00 0.  1.
         11    1    1    2    0    0 -0.26095122009E+02 -0.41216793661E+02 -0.74690285397E+02  0.89209966960E+02  0.00000000000E+00 0. -1.
</event>
<event>
 6    1  0.4044884E-009  0.9871912E+02  0.7561462E-02  0.1283013E+00
          2   -1    0    0  501    0  0.00000000000E+00  0.00000000000E+00  0.57295173737E+03  0.57295173737E+03  0.00000000000E+00 0. -1.
         -2   -1    0    0    0  501 -0.00000000000E+00 -0.00000000000E+00 -0.23481993868E+02  0.23481993868E+02  0.00000000000E+00 0.  1.
          5    1    1    2  502    0  0.35401021400E+02 -0.15180301854E+02  0.46941472205E+02  0.60865820403E+02  0.41800000000E+01 0.  1.
         -5    1    1    2    0  502 -0.60965552157E+02  0.30321766238E+02  0.34252561414E+03  0.34925274057E+03  0.41800000000E+01 0.  1.
        -11    1    1    2    0    0  0.27281809948E+02  0.32709739303E+02  0.10546183751E+03  0.11373839884E+03  0.00000000000E+00 0.  1.
         11    1    1    2    0    0 -0.17172791908E+01 -0.47851203686E+02  0.54540819647E+02  0.72576771420E+02  0.00000000000E+00 0. -1.
</event>
<event>
 7    1  0.3265282E-009  0.1053646E+03  0.7561462E-02  0.1269403E+00
          4   -1    0    0  501    0  0.00000000000E+00  0.00000000000E+00  0.68128067111E+02  0.68128067111E+02  0.00000000000E+00 0.  1.
         -4   -1    0    0    0  501 -0.00000000000E+00 -0.00000000000E+00 -0.20148964691E+03  0.20148964691E+03  0.00000000000E+00 0. -1.
         25    2    1    2    0    0 -0.18780633152E+02  0.30699080528E+02 -0.46280646678E+02  0.13815460354E+03  0.12509856313E+03 0.  0.
          5    1    3    3  502    0  0.98801243357E+00 -0.40208823096E+02 -0.50029869273E+02  0.64328732638E+02  0.41800000000E+01 0. -1.
         -5    1    3    3    0  502 -0.19768645586E+02  0.70907903624E+02  0.37492225949E+01  0.73825870904E+02  0.41800000000E+01 0. -1.
        -11    1    1    2    0    0 -0.64201090676E+01 -0.58607690890E+02 -0.40173008146E+02  0.71343884219E+02  0.00000000000E+00 0.  1.
         11    1    1    2    0    0  0.25200742220E+02  0.27908610363E+02 -0.46907924975E+02  0.60119226261E+02  0.00000000000E+00 0. -1.
</event>
<event>
 7    1  0.3265282E-009  0.1898073E+03  0.7561462E-02  0.1158635E+00
          1   -1    0    0  501    0  0.00000000000E+00  0.00000000000E+00  0.17614217152E+03  0.17614217152E+03  0.00000000000E+00 0. -1.
         -1   -1    0    0    0  501 -0.00000000000E+00 -0.00000000000E+00 -0.22938334341E+03  0.22938334341E+03  0.00000000000E+00 0.  1.
         25    2    1    2    0    0  0.13171424755E+03  0.10169538106E+03 -0.54140667617E+02  0.21510172186E+03  0.12508775049E+03 0.  0.
          5    1    3    3  502    0  0.59669613921E+02 -0.21967445295E+02 -0.27786725492E+02  0.69516947516E+02  0.41800000000E+01 0.  1.
         -5    1    3    3    0  502  0.72044633625E+02  0.12366282636E+03 -0.26353942124E+02  0.14558477435E+03  0.41800000000E+01 0.  1.
        -11    1    1    2    0    0 -0.11474792136E+03 -0.64032232389E+02 -0.34681326839E+02  0.13590440270E+03  0.00000000000E+00 0.  1.
         11    1    1    2    0    0 -0.16966326184E+02 -0.37663148671E+02  0.35580822567E+02  0.54519390372E+02  0.00000000000E+00 0. -1.
</event>
<event>
 7    1  0.3265282E-009  0.1114268E+03  0.7561462E-02  0.1257950E+00
         -3   -1    0    0    0  501 -0.00000000000E+00  0.00000000000E+00  0.19639960923E+03  0.19639960923E+03  0.00000000000E+00 0.  1.
          3   -1    0    0  501    0  0.00000000000E+00 -0.00000000000E+00 -0.79254639780E+02  0.79254639780E+02  0.00000000000E+00 0. -1.
         25    2    1    2    0    0 -0.64129421470E+02 -0.83637652225E+01  0.63816013441E+02  0.15460360568E+03  0.12508899253E+03 0.  0.
          5    1    3    3  502    0 -0.27343930837E+01 -0.57483451714E+02  0.46206459776E+02  0.73921129939E+02  0.41800000000E+01 0. -1.
         -5    1    3    3    0  502 -0.61395028386E+02  0.49119686491E+02  0.17609553665E+02  0.80682475742E+02  0.41800000000E+01 0. -1.
        -11    1    1    2    0    0 -0.60459446271E+01  0.14759794568E+02 -0.15719067718E+02  0.22394063321E+02  0.00000000000E+00 0. -1.
         11    1    1    2    0    0  0.70175366097E+02 -0.63960293452E+01  0.69048023727E+02  0.98656580008E+02  0.00000000000E+00 0.  1.
</event>
<event>
 7    1  0.3265282E-009  0.8621893E+02  0.7561462E-02  0.1312275E+00
         -2   -1    0    0    0  501 -0.00000000000E+00  0.00000000000E+00  0.19519727354E+02  0.19519727354E+02  0.00000000000E+00 0.  1.
          2   -1    0    0  501    0  0.00000000000E+00 -0.00000000000E+00 -0.63523775503E+03  0.63523775503E+03  0.00000000000E+00 0. -1.
         25    2    1    2    0    0 -0.11986429883E+01  0.19712715475E+02 -0.34904325942E+03  0.37130657709E+03  0.12508936547E+03 0.  0.
          5    1    3    3  502    0  0.52512768326E+01  0.52759424758E+02 -0.32595923599E+03  0.33026963035E+03  0.41800000000E+01 0.  1.
         -5    1    3    3    0  502 -0.64499198209E+01 -0.33046709282E+02 -0.23084023431E+02  0.41036946741E+02  0.41800000000E+01 0.  1.
        -11    1    1    2    0    0  0.21051572624E+02  0.27193587885E+02 -0.17709342345E+03  0.18040160909E+03  0.00000000000E+00 0. -1.
         11    1    1    2    0    0 -0.19852929636E+02 -0.46906303361E+02 -0.89581344812E+02  0.10304929621E+03  0.00000000000E+00 0.  1.
</event>
<event>
 7    1  0.3265282E-009  0.1072843E+03  0.7561462E-02  0.1265683E+00
         -1   -1    0    0    0  501 -0.00000000000E+00  0.00000000000E+00  0.99133998089E+01  0.99133998089E+01  0.00000000000E+00 0.  1.
          1   -1    0    0  501    0  0.00000000000E+00 -0.00000000000E+00 -0.20108154326E+04  0.20108154326E+04  0.00000000000E+00 0. -1.
         25    2    1    2    0    0  0.42159775828E+01  0.40600691907E+02 -0.16725586473E+04  0.16777264889E+04  0.12509017646E+03 0.  0.
          5    1    3    3  502    0 -0.53314138824E+02  0.33161970748E+01 -0.10551085481E+04  0.10564681327E+04  0.41800000000E+01 0.  1.
         -5    1    3    3    0  502  0.57530116406E+02  0.37284494832E+02 -0.61745009916E+03  0.62125835624E+03  0.41800000000E+01 0.  1.
        -11    1    1    2    0    0  0.31950343685E+02 -0.45721048859E+02 -0.25545367842E+03  0.26147240885E+03  0.00000000000E+00 0. -1.
         11    1    1    2    0    0 -0.36166321268E+02  0.51203569523E+01 -0.72889707091E+02  0.81529934682E+02  0.00000000000E+00 0.  1.
</event>
<event>
 7    1  0.3265282E-009  0.1161587E+03  0.7561462E-02  0.1249572E+00
         -1   -1    0    0    0  501 -0.00000000000E+00  0.00000000000E+00  0.25063068417E+03  0.25063068417E+03  0.00000000000E+00 0.  1.
          1   -1    0    0  501    0  0.00000000000E+00 -0.00000000000E+00 -0.10012885086E+03  0.10012885086E+03  0.00000000000E+00 0. -1.
         25    2    1    2    0    0 -0.16151770836E+02 -0.10636569825E+03  0.12397743971E+03  0.20638299412E+03  0.12509593614E+03 0.  0.
          5    1    3    3  502    0  0.21518906215E+02 -0.54502725203E+02  0.12920606947E+03  0.14193410854E+03  0.41800000000E+01 0.  1.
         -5    1    3    3    0  502 -0.37670677051E+02 -0.51862973045E+02 -0.52286297604E+01  0.64448885574E+02  0.41800000000E+01 0.  1.
        -11    1    1    2    0    0  0.19893470303E+02  0.69836995637E+02  0.60374088516E+02  0.94435092442E+02  0.00000000000E+00 0.  1.
         11    1    1    2    0    0 -0.37416994667E+01  0.36528702610E+02 -0.33849694914E+02  0.49941448468E+02  0.00000000000E+00 0. -1.
</event>
<event>
 7    1  0.3265282E-009  0.1698696E+03  0.7561462E-02  0.1177984E+00
          1   -1    0    0  501    0  0.00000000000E+00  0.00000000000E+00  0.57035977686E+03  0.57035977686E+03  0.00000000000E+00 0. -1.
         -1   -1    0    0    0  501 -0.00000000000E+00 -0.00000000000E+00 -0.66649621113E+02  0.66649621113E+02  0.00000000000E+00 0.  1.
         25    2    1    2    0    0  0.97953243698E+02  0.12279549478E+03  0.34051826931E+03  0.39531543169E+03  0.12509207535E+03 0.  0.
          5    1    3    3  502    0 -0.17763405139E+02  0.19961271832E+02  0.75253181473E+01  0.28073007471E+02  0.41800000000E+01 0. -1.
         -5    1    3    3    0  502  0.11571664884E+03  0.10283422295E+03  0.33299295116E+03  0.36724242422E+03  0.41800000000E+01 0. -1.
        -11    1    1    2    0    0 -0.41111375174E+02 -0.39682940670E+02  0.11844667337E+03  0.13150853730E+03  0.00000000000E+00 0. -1.
         11    1    1    2    0    0 -0.56841868525E+02 -0.83112554108E+02  0.44745213069E+02  0.11018542898E+03  0.00000000000E+00 0.  1.
</event>
<event>
 7    1  0.3265282E-009  0.1263975E+03  0.7561462E-02  0.1232901E+00
         -2   -1    0    0    0  501 -0.00000000000E+00  0.00000000000E+00  0.24387143021E+02  0.24387143021E+02  0.00000000000E+00 0.  1.
          2   -1    0    0  501    0  0.00000000000E+00 -0.00000000000E+00 -0.86249507335E+03  0.86249507335E+03  0.00000000000E+00 0. -1.
         25    2    1    2    0    0  0.84066549811E+02  0.46524987322E+02 -0.43677595250E+03  0.46438429192E+03  0.12509108145E+03 0.  0.
          5    1    3    3  502    0  0.91775159039E+02  0.13108881066E+02 -0.15618742771E+03  0.18167693182E+03  0.41800000000E+01 0.  1.
         -5    1    3    3    0  502 -0.77086092275E+01  0.33416106256E+02 -0.28058852479E+03  0.28270736010E+03  0.41800000000E+01 0.  1.
        -11    1    1    2    0    0  0.62932699382E+01 -0.33579490322E+02 -0.17768352932E+03  0.18093817731E+03  0.00000000000E+00 0. -1.
         11    1    1    2    0    0 -0.90359819749E+02 -0.12945497000E+02 -0.22364844851E+03  0.24155974714E+03  0.00000000000E+00 0.  1.
</event>
<event>
 7    1  0.3265282E-009  0.9891193E+02  0.7561462E-02  0.1282601E+00
         -2   -1    0    0    0  501 -0.00000000000E+00  0.00000000000E+00  0.25822721356E+03  0.25822721356E+03  0.00000000000E+00 0.  1.
          2   -1    0    0  501    0  0.00000000000E+00 -0.00000000000E+00 -0.78198152695E+02  0.78198152695E+02  0.00000000000E+00 0. -1.
         25    2    1    2    0    0 -0.72230426410E+01  0.74890990027E+02  0.36185485834E+02  0.15038958585E+03  0.12508719125E+03 0.  0.
          5    1    3    3  502    0  0.10275876438E+02  0.11119742629E+02  0.72943986826E+02  0.74615949546E+02  0.41800000000E+01 0.  1.
         -5    1    3    3    0  502 -0.17498919079E+02  0.63771247398E+02 -0.36758500992E+02  0.75773636305E+02  0.41800000000E+01 0.  1.
        -11    1    1    2    0    0 -0.34796645411E+02 -0.62183847271E+01  0.61102288252E+02  0.70590115952E+02  0.00000000000E+00 0. -1.
         11    1    1    2    0    0  0.42019688051E+02 -0.68672605300E+02  0.82741286776E+02  0.11544566445E+03  0.00000000000E+00 0.  1.
</event>
<event>
 7    1  0.3265282E-009  0.1004284E+03  0.7561462E-02  0.1279398E+00
          3   -1    0    0  501    0  0.00000000000E+00  0.00000000000E+00  0.35572669931E+03  0.35572669931E+03  0.00000000000E+00 0. -1.
         -3   -1    0    0    0  501 -0.00000000000E+00 -0.00000000000E+00 -0.52790804708E+02  0.52790804708E+02  0.00000000000E+00 0.  1.
         25    2    1    2    0    0  0.64381873673E+02 -0.20781401217E+02  0.22410106198E+03  0.26541543597E+03  0.12508867005E+03 0.  0.
          5    1    3    3  502    0  0.29132350087E+02  0.44042087139E+02  0.38042421301E+02  0.65215776309E+02  0.41800000000E+01 0. -1.
         -5    1    3    3    0  502  0.35249523586E+02 -0.64823488357E+02  0.18605864068E+03  0.20019965966E+03  0.41800000000E+01 0. -1.
        -11    1    1    2    0    0 -0.11951159685E+02  0.17832294923E+02  0.87308849791E+02  0.89909155329E+02  0.00000000000E+00 0. -1.
         11    1    1    2    0    0 -0.52430713988E+02  0.29491062946E+01 -0.84740171658E+01  0.53192912725E+02  0.00000000000E+00 0.  1.
</event>
<event>
 7    1  0.3265282E-009  0.3103185E+03  0.7561462E-02  0.1080193E+00
          2   -1    0    0  501    0  0.00000000000E+00  0.00000000000E+00  0.16761543049E+04  0.16761543049E+04  0.00000000000E+00 0. -1.
         -2   -1    0    0    0  501 -0.00000000000E+00 -0.00000000000E+00 -0.69859244363E+02  0.69859244363E+02  0.00000000000E+00 0.  1.
         25    2    1    2    0    0  0.28923877058E+03 -0.42642914469E+02  0.45830677244E+03  0.55782693684E+03  0.12509320223E+03 0.  0.
          5    1    3    3  502    0  0.11497093166E+03 -0.79467376723E+02  0.19898549167E+03  0.24319966568E+03  0.41800000000E+01 0. -1.
         -5    1    3    3    0  502  0.17426783891E+03  0.36824462255E+02  0.25932128077E+03  0.31462727117E+03  0.41800000000E+01 0. -1.
        -11    1    1    2    0    0 -0.17701344960E+03 -0.12796754410E+02  0.76264917921E+03  0.78302700388E+03  0.00000000000E+00 0.  1.
         11    1    1    2    0    0 -0.11222532098E+03  0.55439668878E+02  0.38533910891E+03  0.40515960856E+03  0.00000000000E+00 0. -1.
</event>
<event>
 7    1  0.3265282E-009  0.1974728E+03  0.7561462E-02  0.1151889E+00
          1   -1    0    0  501    0  0.00000000000E+00  0.00000000000E+00  0.86971122285E+02  0.86971122285E+02  0.00000000000E+00 0. -1.
         -1   -1    0    0    0  501 -0.00000000000E+00 -0.00000000000E+00 -0.49851168381E+03  0.49851168381E+03  0.00000000000E+00 0.  1.
         25    2    1    2    0    0 -0.16532793765E+03 -0.58889332010E+02 -0.24173210681E+03  0.32387291149E+03  0.12513181428E+03 0.  0.
          5    1    3    3  502    0 -0.64071414072E+02 -0.70965039239E+02 -0.18197642406E+03  0.20560660060E+03  0.41800000000E+01 0. -1.
         -5    1    3    3    0  502 -0.10125652358E+03  0.12075707229E+02 -0.59755682748E+02  0.11826631089E+03  0.41800000000E+01 0. -1.
        -11    1    1    2    0    0  0.15168613413E+03  0.16412498114E+02 -0.14538570707E+03  0.21074880118E+03  0.00000000000E+00 0.  1.
         11    1    1    2    0    0  0.13641803519E+02  0.42476833895E+02 -0.24422747647E+02  0.50861093418E+02  0.00000000000E+00 0. -1.
</event>
<event>
 7    1  0.3265282E-009  0.9627190E+02  0.7561462E-02  0.1288337E+00
         -2   -1    0    0    0  501 -0.00000000000E+00  0.00000000000E+00  0.39286257640E+02  0.39286257640E+02  0.00000000000E+00 0.  1.
          2   -1    0    0  501    0  0.00000000000E+00 -0.00000000000E+00 -0.32914691889E+03  0.32914691889E+03  0.00000000000E+00 0. -1.
         25    2    1    2    0    0  0.78390103947E+01 -0.31257122073E+02 -0.19129103031E+03  0.23082067983E+03  0.12508984849E+03 0.  0.
          5    1    3    3  502    0  0.26248266495E+02 -0.74409136354E+02 -0.94519195282E+02  0.12319513685E+03  0.41800000000E+01 0.  1.
         -5    1    3    3    0  502 -0.18409256100E+02  0.43152014281E+02 -0.96771835024E+02  0.10762554297E+03  0.41800000000E+01 0.  1.
        -11    1    1    2    0    0  0.81492956497E+01  0.44763886737E+02 -0.10604007113E+03  0.11538939839E+03  0.00000000000E+00 0. -1.
         11    1    1    2    0    0 -0.15988306044E+02 -0.13506764664E+02  0.74704401903E+01  0.22223098310E+02  0.00000000000E+00 0.  1.
</event>
<event>
 7    1  0.3265282E-009  0.2361025E+03  0.7561462E-02  0.1122417E+00
          3   -1    0    0  501    0  0.00000000000E+00  0.00000000000E+00  0.51393369868E+02  0.51393369868E+02  0.00000000000E+00 0. -1.
         -3   -1    0    0    0  501 -0.00000000000E+00 -0.00000000000E+00 -0.16819540404E+04  0.16819540404E+04  0.00000000000E+00 0.  1.
         25    2    1    2    0    0  0.16803951829E+03  0.16389709010E+03 -0.12435422234E+04  0.12716697008E+04  0.12508809252E+03 0.  0.
          5    1    3    3  502    0  0.62482002972E+02  0.52751137292E+02 -0.75995939253E+03  0.76435753014E+03  0.41800000000E+01 0.  1.
         -5    1    3    3    0  502  0.10555751532E+03  0.11114595280E+03 -0.48358283083E+03  0.50731217070E+03  0.41800000000E+01 0.  1.
        -11    1    1    2    0    0 -0.10159104900E+03 -0.76379948076E+02 -0.28360569940E+03  0.31078421845E+03  0.00000000000E+00 0.  1.
         11    1    1    2    0    0 -0.66448469295E+02 -0.87517142020E+02 -0.10341274776E+03  0.15089349097E+03  0.00000000000E+00 0. -1.
</event>
<event>
 7    1  0.3265282E-009  0.1058683E+03  0.7561462E-02  0.1268418E+00
         -1   -1    0    0    0  501 -0.00000000000E+00  0.00000000000E+00  0.84248805314E+02  0.84248805314E+02  0.00000000000E+00 0.  1.
          1   -1    0    0  501    0  0.00000000000E+00 -0.00000000000E+00 -0.15671626942E+03  0.15671626942E+03  0.00000000000E+00 0. -1.
         25    2    1    2    0    0 -0.20257510128E+02  0.35620236928E+01 -0.48855162486E+01  0.12686341361E+03  0.12508957876E+03 0.  0.
          5    1    3    3  502    0 -0.30783307762E+02  0.57141175062E+02  0.18039766416E+02  0.67495418338E+02  0.41800000000E+01 0.  1.
         -5    1    3    3    0  502  0.10525797635E+02 -0.53579151369E+02 -0.22925282664E+02  0.59367995272E+02  0.41800000000E+01 0.  1.
        -11    1    1    2    0    0 -0.14157283593E+02 -0.39628907949E+02 -0.31117595289E+02  0.52337212006E+02  0.00000000000E+00 0.  1.
         11    1    1    2    0    0  0.34414793721E+02  0.36066884256E+02 -0.36464352569E+02  0.61764449120E+02  0.00000000000E+00 0. -1.
</event>
<event>
 7    1  0.3265282E-009  0.1726986E+03  0.7561462E-02  0.1175063E+00
         -2   -1    0    0    0  501 -0.00000000000E+00  0.00000000000E+00  0.83603931244E+02  0.83603931244E+02  0.00000000000E+00 0.  1.
          2   -1    0    0  501    0  0.00000000000E+00 -0.00000000000E+00 -0.55579366758E+03  0.55579366758E+03  0.00000000000E+00 0. -1.
         25    2    1    2    0    0 -0.14941816023E+03 -0.16174452911E+02 -0.40879717048E+03  0.45315560657E+03  0.12508987823E+03 0.  0.
          5    1    3    3  502    0  0.85713192236E+01 -0.34601866915E+02 -0.88885217884E+02  0.95858286369E+02  0.41800000000E+01 0.  1.
         -5    1    3    3    0  502 -0.15798947946E+03  0.18427414004E+02 -0.31991195260E+03  0.35729732020E+03  0.41800000000E+01 0.  1.
        -11    1    1    2    0    0  0.47011019075E+02  0.25471891790E+01 -0.68140595083E+02  0.82823093310E+02  0.00000000000E+00 0. -1.
         11    1    1    2    0    0  0.10240714116E+03  0.13627263732E+02  0.47480292325E+01  0.10341889894E+03  0.00000000000E+00 0.  1.
</event>
<event>
 7    1  0.3265282E-009  0.1129539E+03  0.7561462E-02  0.1255195E+00
         -4   -1    0    0    0  501 -0.00000000000E+00  0.00000000000E+00  0.29150762215E+03  0.29150762215E+03  0.00000000000E+00 0.  1.
          4   -1    0    0  501    0  0.00000000000E+00 -0.00000000000E+00 -0.79482456442E+02  0.79482456442E+02  0.00000000000E+00 0. -1.
         25    2    1    2    0    0 -0.97232489315E+02  0.29378478427E+02  0.76982547586E+02  0.17857932248E+03  0.12508800827E+03 0.  0.
          5    1    3    3  502    0 -0.21133698030E+02 -0.89400812569E+01 -0.32364882050E+02  0.39893811994E+02  0.41800000000E+01 0. -1.
         -5    1    3    3    0  502 -0.76098791285E+02  0.38318559684E+02  0.10934742964E+03  0.13868551049E+03  0.41800000000E+01 0. -1.
        -11    1    1    2    0    0  0.19059987319E+01 -0.21547385736E+02 -0.55827344412E+01  0.22340313048E+02  0.00000000000E+00 0. -1.
         11    1    1    2    0    0  0.95326490584E+02 -0.78310926907E+01  0.14062535256E+03  0.17007044306E+03  0.00000000000E+00 0.  1.
</event>
<event>
 7    1  0.3265282E-009  0.1079209E+03  0.7561462E-02  0.1264469E+00
         -1   -1    0    0    0  501 -0.00000000000E+00  0.00000000000E+00  0.19582327198E+02  0.19582327198E+02  0.00000000000E+00 0.  1.
          1   -1    0    0  501    0  0.00000000000E+00 -0.00000000000E+00 -0.10200441102E+04  0.10200441102E+04  0.00000000000E+00 0. -1.
         25    2    1    2    0    0  0.13791025531E+02  0.81104699726E+02 -0.69101720321E+03  0.70705134273E+03  0.12509460987E+03 0.  0.
          5    1    3    3  502    0  0.38975092050E+02  0.20811785728E+02 -0.71987762752E+02  0.84568898607E+02  0.41800000000E+01 0.  1.
         -5    1    3    3    0  502 -0.25184066519E+02  0.60292913998E+02 -0.61902944046E+03  0.62248244412E+03  0.41800000000E+01 0.  1.
        -11    1    1    2    0    0 -0.40378579952E+02 -0.38660969438E+02 -0.79172882739E+02  0.96919789713E+02  0.00000000000E+00 0.  1.
         11    1    1    2    0    0  0.26587554420E+02 -0.42443730287E+02 -0.23027169701E+03  0.23565530491E+03  0.00000000000E+00 0. -1.
</event>
<event>
 7    1  0.3265282E-009  0.9755231E+02  0.7561462E-02  0.1285529E+00
          2   -1    0    0  501    0  0.00000000000E+00  0.00000000000E+00  0.11117888143E+04  0.11117888143E+04  0.00000000000E+00 0. -1.
         -2   -1    0    0    0  501 -0.00000000000E+00 -0.00000000000E+00 -0.14620465515E+02  0.14620465515E+02  0.00000000000E+00 0.  1.
         25    2    1    2    0    0 -0.23850297052E+02 -0.76094912073E+02  0.72972262627E+03  0.74464875550E+03  0.12508950986E+03 0.  0.
          5    1    3    3  502    0 -0.15036038122E+02 -0.23705853425E-01  0.53699642641E+03  0.53722315417E+03  0.41800000000E+01 0.  1.
         -5    1    3    3    0  502 -0.88142589302E+01 -0.76071206219E+02  0.19272619985E+03  0.20742560133E+03  0.41800000000E+01 0.  1.
        -11    1    1    2    0    0 -0.22267090342E+02  0.18017341354E+02  0.12424228401E+03  0.12750134524E+03  0.00000000000E+00 0.  1.
         11    1    1    2    0    0  0.46117387395E+02  0.58077570719E+02  0.24320343855E+03  0.25425917912E+03  0.00000000000E+00 0. -1.
</event>
<event>
 7    1  0.3265282E-009  0.8500248E+02  0.7561462E-02  0.1315426E+00
          2   -1    0    0  501    0  0.00000000000E+00  0.00000000000E+00  0.46653678009E+03  0.46653678009E+03  0.00000000000E+00 0. -1.
         -2   -1    0    0    0  501 -0.00000000000E+00 -0.00000000000E+00 -0.34132155000E+02  0.34132155000E+02  0.00000000000E+00 0.  1.
         25    2    1    2    0    0  0.52058075275E+02  0.29456440857E+02  0.19217958723E+03  0.23697694970E+03  0.12508939136E+03 0.  0.
          5    1    3    3  502    0  0.51730840366E+01  0.20624700803E+02 -0.13675086458E+02  0.25624587241E+02  0.41800000000E+01 0. -1.
         -5    1    3    3    0  502  0.46884991239E+02  0.88317400542E+01  0.20585467369E+03  0.21135236245E+03  0.41800000000E+01 0. -1.
        -11    1    1    2    0    0 -0.59670887394E+02 -0.50431800451E+02  0.13368940725E+03  0.15484456371E+03  0.00000000000E+00 0. -1.
         11    1    1    2    0    0  0.76128121188E+01  0.20975359594E+02  0.10653563061E+03  0.10884742168E+03  0.00000000000E+00 0.  1.
</event>
<event>
 7    1  0.3265282E-009  0.1175209E+03  0.7561462E-02  0.1247244E+00
          1   -1    0    0  501    0  0.00000000000E+00  0.00000000000E+00  0.14396342675E+03  0.14396342675E+03  0.00000000000E+00 0. -1.
         -1   -1    0    0    0  501 -0.00000000000E+00 -0.00000000000E+00 -0.13983023151E+03  0.13983023151E+03  0.00000000000E+00 0.  1.
         25    2    1    2    0    0  0.73435889394E+02  0.15468736100E+02 -0.30243542936E+02  0.14898343681E+03  0.12509708592E+03 0.  0.
          5    1    3    3  502    0 -0.13341080022E+02  0.42400465446E+02 -0.36706174805E+02  0.57797919988E+02  0.41800000000E+01 0.  1.
         -5    1    3    3    0  502  0.86776969416E+02 -0.26931729346E+02  0.64626318692E+01  0.91185516818E+02  0.41800000000E+01 0.  1.
        -11    1    1    2    0    0 -0.71908058656E+02 -0.34912975663E+02 -0.15349321560E+02  0.81395862559E+02  0.00000000000E+00 0.  1.
         11    1    1    2    0    0 -0.15278307381E+01  0.19444239563E+02  0.49726059737E+02  0.53414358893E+02  0.00000000000E+00 0. -1.
</event>
<event>
 7    1  0.3265282E-009  0.1632548E+03  0.7561462E-02  0.1185070E+00
          2   -1    0    0  501    0  0.00000000000E+00  0.00000000000E+00  0.95418851687E+03  0.95418851687E+03  0.00000000000E+00 0. -1.
         -2   -1    0    0    0  501 -0.00000000000E+00 -0.00000000000E+00 -0.30575201576E+02  0.30575201576E+02  0.00000000000E+00 0.  1.
         25    2    1    2    0    0 -0.12005763535E+03  0.48179878587E+02  0.60856111922E+03  0.63461011909E+03  0.12509288916E+03 0.  0.
          5    1    3    3  502    0 -0.24444669099E+02 -0.37926629753E+02  0.96443117053E+02  0.10655852063E+03  0.41800000000E+01 0.  1.
         -5    1    3    3    0  502 -0.95612966252E+02  0.86106508340E+02  0.51211800217E+03  0.52805159846E+03  0.41800000000E+01 0.  1.
        -11    1    1    2    0    0  0.44798762087E+01 -0.35955583172E+02  0.65165577143E+02  0.74561556425E+02  0.00000000000E+00 0.  1.
         11    1    1    2    0    0  0.11557775914E+03 -0.12224295415E+02  0.24988661893E+03  0.27559204293E+03  0.00000000000E+00 0. -1.
</event>
<event>
 7    1  0.3265282E-009  0.7462792E+02  0.7561462E-02  0.1345027E+00
          2   -1    0    0  501    0  0.00000000000E+00  0.00000000000E+00  0.22560784752E+03  0.22560784752E+03  0.00000000000E+00 0. -1.
         -2   -1    0    0    0  501 -0.00000000000E+00 -0.00000000000E+00 -0.66947352467E+02  0.66947352467E+02  0.00000000000E+00 0.  1.
         25    2    1    2    0    0 -0.33820696254E+02 -0.32937137225E+02  0.49266320242E+02  0.14249064227E+03  0.12509084028E+03 0.  0.
          5    1    3    3  502    0 -0.37550036735E+02 -0.22747908953E+02 -0.35695267297E+02  0.56737087764E+02  0.41800000000E+01 0.  1.
         -5    1    3    3    0  502  0.37293404816E+01 -0.10189228272E+02  0.84961587540E+02  0.85753554506E+02  0.41800000000E+01 0.  1.
        -11    1    1    2    0    0 -0.10012026868E+02 -0.21452018768E+02  0.45895504738E+01  0.24114181819E+02  0.00000000000E+00 0.  1.
         11    1    1    2    0    0  0.43832723122E+02  0.54389155993E+02  0.10480462433E+03  0.12595037589E+03  0.00000000000E+00 0. -1.
</event>
<event>
 7    1  0.3265282E-009  0.7558917E+02  0.7561462E-02  0.1342056E+00
          1   -1    0    0  501    0  0.00000000000E+00  0.00000000000E+00  0.70254723619E+02  0.70254723619E+02  0.00000000000E+00 0. -1.
         -1   -1    0    0    0  501 -0.00000000000E+00 -0.00000000000E+00 -0.23517069685E+03  0.23517069685E+03  0.00000000000E+00 0.  1.
         25    2    1    2    0    0  0.64731637031E+02  0.23383845536E+02 -0.64116103642E+02  0.15651205205E+03  0.12509260021E+03 0.  0.
          5    1    3    3  502    0 -0.10131588467E+01  0.14920671623E+02 -0.85373593352E+02  0.86774280605E+02  0.41800000000E+01 0.  1.
         -5    1    3    3    0  502  0.65744795878E+02  0.84631739137E+01  0.21257489711E+02  0.69737771448E+02  0.41800000000E+01 0.  1.
        -11    1    1    2    0    0 -0.18546162952E+02 -0.31665200000E+01 -0.96496285650E+02  0.98313377286E+02  0.00000000000E+00 0.  1.
         11    1    1    2    0    0 -0.46185474079E+02 -0.20217325536E+02 -0.43035839394E+01  0.50599991131E+02  0.00000000000E+00 0. -1.
</event>
<event>
 7    1  0.3265282E-009  0.1047711E+03  0.7561462E-02  0.1270571E+00
          3   -1    0    0  501    0  0.00000000000E+00  0.00000000000E+00  0.16832724506E+03  0.16832724506E+03  0.00000000000E+00 0. -1.
         -3   -1    0    0    0  501 -0.00000000000E+00 -0.00000000000E+00 -0.10065607201E+03  0.10065607201E+03  0.00000000000E+00 0.  1.
         25    2    1    2    0    0  0.42553401205E+02  0.25026357586E+02 -0.76013607252E+01  0.13469521853E+03  0.12509160916E+03 0.  0.
          5    1    3    3  502    0  0.77531986059E+02  0.47264969906E+02  0.53845141489E+01  0.91058506660E+02  0.41800000000E+01 0. -1.
         -5    1    3    3    0  502 -0.34978584855E+02 -0.22238612320E+02 -0.12985874874E+02  0.43636711867E+02  0.41800000000E+01 0. -1.
        -11    1    1    2    0    0  0.15117947865E+02 -0.57801649666E+01 -0.17200967339E+02  0.23618550592E+02  0.00000000000E+00 0.  1.
         11    1    1    2    0    0 -0.57671349069E+02 -0.19246192619E+02  0.92473501123E+02  0.11066954795E+03  0.00000000000E+00 0. -1.
</event>
<event>
 7    1  0.3265282E-009  0.1030235E+03  0.7561462E-02  0.1274063E+00
          3   -1    0    0  501    0  0.00000000000E+00  0.00000000000E+00  0.11245540086E+03  0.11245540086E+03  0.00000000000E+00 0. -1.
         -3   -1    0    0    0  501 -0.00000000000E+00 -0.00000000000E+00 -0.17115581322E+03  0.17115581322E+03  0.00000000000E+00 0.  1.
         25    2    1    2    0    0 -0.88314975517E-01 -0.58727046882E+02 -0.10529253117E+03  0.17373533084E+03  0.12509426136E+03 0.  0.
          5    1    3    3  502    0  0.56314165649E+02 -0.15433655239E+01 -0.32015226084E+02  0.64931612726E+02  0.41800000000E+01 0.  1.
         -5    1    3    3    0  502 -0.56402480625E+02 -0.57183681358E+02 -0.73277305086E+02  0.10880371811E+03  0.41800000000E+01 0.  1.
        -11    1    1    2    0    0  0.15652500092E+02  0.11555733330E+02  0.56032362182E+02  0.59314090600E+02  0.00000000000E+00 0. -1.
         11    1    1    2    0    0 -0.15564185116E+02  0.47171313552E+02 -0.94402433776E+01  0.50561792647E+02  0.00000000000E+00 0.  1.
</event>
<event>
 7    1  0.3265282E-009  0.1204983E+03  0.7561462E-02  0.1242277E+00
          2   -1    0    0  501    0  0.00000000000E+00  0.00000000000E+00  0.70220404280E+02  0.70220404280E+02  0.00000000000E+00 0.  1.
         -2   -1    0    0    0  501 -0.00000000000E+00 -0.00000000000E+00 -0.21060984199E+03  0.21060984199E+03  0.00000000000E+00 0. -1.
         25    2    1    2    0    0 -0.32226508057E+02 -0.46993206107E+02 -0.79419631814E+02  0.15875205338E+03  0.12509127585E+03 0.  0.
          5    1    3    3  502    0 -0.55834397740E+02 -0.79392454971E+02 -0.55663185532E+02  0.11196653295E+03  0.41800000000E+01 0. -1.
         -5    1    3    3    0  502  0.23607889682E+02  0.32399248864E+02 -0.23756446282E+02  0.46785520432E+02  0.41800000000E+01 0. -1.
        -11    1    1    2    0    0  0.31263004133E+02  0.72011254376E+02 -0.56309979187E+02  0.96611644952E+02  0.00000000000E+00 0.  1.
         11    1    1    2    0    0  0.96350392410E+00 -0.25018048269E+02 -0.46598267142E+01  0.25466547941E+02  0.00000000000E+00 0. -1.
</event>
<event>
 7    1  0.3265282E-009  0.8026018E+02  0.7561462E-02  0.1328315E+00
         -1   -1    0    0    0  501 -0.00000000000E+00  0.00000000000E+00  0.45001674835E+02  0.45001674835E+02  0.00000000000E+00 0.  1.
          1   -1    0    0  501    0  0.00000000000E+00 -0.00000000000E+00 -0.36279454231E+03  0.36279454231E+03  0.00000000000E+00 0. -1.
         25    2    1    2    0    0  0.12637407527E+02 -0.16181057285E+02 -0.27692990007E+03  0.30457438962E+03  0.12511538106E+03 0.  0.
          5    1    3    3  502    0  0.38514831091E+02 -0.15703207239E+02 -0.27513858656E+03  0.27829606024E+03  0.41800000000E+01 0.  1.
         -5    1    3    3    0  502 -0.25877423564E+02 -0.47785004648E+00 -0.17913135077E+01  0.26278329381E+02  0.41800000000E+01 0.  1.
        -11    1    1    2    0    0  0.33872262997E+02 -0.14433615320E+02 -0.27510852094E+02  0.45962010777E+02  0.00000000000E+00 0.  1.
         11    1    1    2    0    0 -0.46509670524E+02  0.30614672605E+02 -0.13352115321E+02  0.57259816753E+02  0.00000000000E+00 0. -1.
</event>
<event>
 7    1  0.3265282E-009  0.1234187E+03  0.7561462E-02  0.1237561E+00
          2   -1    0    0  501    0  0.00000000000E+00  0.00000000000E+00  0.41054036082E+03  0.41054036082E+03  0.00000000000E+00 0. -1.
         -2   -1    0    0    0  501 -0.00000000000E+00 -0.00000000000E+00 -0.45391165686E+02  0.45391165686E+02  0.00000000000E+00 0.  1.
         25    2    1    2    0    0  0.14232088861E+02 -0.74949649519E+02  0.15114943530E+03  0.21051523445E+03  0.12510199770E+03 0.  0.
          5    1    3    3  502    0 -0.16265958425E+01  0.33577420724E+02  0.19404014484E+02  0.39039431023E+02  0.41800000000E+01 0. -1.
         -5    1    3    3    0  502  0.15858684704E+02 -0.10852707024E+03  0.13174542081E+03  0.17147580343E+03  0.41800000000E+01 0. -1.
        -11    1    1    2    0    0  0.54535879146E+01 -0.12461242295E+02  0.20358779009E+00  0.13603882852E+02  0.00000000000E+00 0.  1.
         11    1    1    2    0    0 -0.19685676776E+02  0.87410891814E+02  0.21379617205E+03  0.23181240920E+03  0.00000000000E+00 0. -1.
</event>
<event>
 7    1  0.3265282E-009  0.1102204E+03  0.7561462E-02  0.1260162E+00
          1   -1    0    0  501    0  0.00000000000E+00  0.00000000000E+00  0.73727325557E+02  0.73727325557E+02  0.00000000000E+00 0.  1.
         -1   -1    0    0    0  501 -0.00000000000E+00 -0.00000000000E+00 -0.18923123751E+03  0.18923123751E+03  0.00000000000E+00 0. -1.
         25    2    1    2    0    0 -0.33605862707E+02  0.29146940417E+02 -0.69061586424E+02  0.14965015013E+03  0.12508703599E+03 0.  0.
          5    1    3    3  502    0 -0.60246868887E+01  0.68626256715E+02 -0.47276510000E+01  0.69178631432E+02  0.41800000000E+01 0.  1.
         -5    1    3    3    0  502 -0.27581175818E+02 -0.39479316299E+02 -0.64333935424E+02  0.80471518701E+02  0.41800000000E+01 0.  1.
        -11    1    1    2    0    0  0.51863613612E+02 -0.52261331941E+02 -0.36819116076E+02  0.82320887639E+02  0.00000000000E+00 0.  1.
         11    1    1    2    0    0 -0.18257750905E+02  0.23114391524E+02 -0.96232094515E+01  0.30987525293E+02  0.00000000000E+00 0. -1.
</event>
<event>
 7    1  0.3265282E-009  0.1230796E+03  0.7561462E-02  0.1238101E+00
          1   -1    0    0  501    0  0.00000000000E+00  0.00000000000E+00  0.92040272247E+02  0.92040272247E+02  0.00000000000E+00 0. -1.
         -1   -1    0    0    0  501 -0.00000000000E+00 -0.00000000000E+00 -0.20453319654E+03  0.20453319654E+03  0.00000000000E+00 0.  1.
         25    2    1    2    0    0  0.46638791075E+02  0.71319672510E+02 -0.63607016968E+02  0.16417770230E+03  0.12508714084E+03 0.  0.
          5    1    3    3  502    0  0.73616588834E+02  0.33949334559E+02  0.51025862138E+01  0.81335528858E+02  0.41800000000E+01 0.  1.
         -5    1    3    3    0  502 -0.26977797759E+02  0.37370337951E+02 -0.68709603181E+02  0.82842173437E+02  0.41800000000E+01 0.  1.
        -11    1    1    2    0    0 -0.55331288903E+02 -0.93353346329E+01 -0.58073113346E+01  0.56412984936E+02  0.00000000000E+00 0. -1.
         11    1    1    2    0    0  0.86924978281E+01 -0.61984337877E+02 -0.43078595992E+02  0.75982781557E+02  0.00000000000E+00 0.  1.
</event>
<event>
 7    1  0.3265282E-009  0.1205245E+03  0.7561462E-02  0.1242234E+00
          1   -1    0    0  501    0  0.00000000000E+00  0.00000000000E+00  0.21084928061E+02  0.21084928061E+02  0.00000000000E+00 0. -1.
         -1   -1    0    0    0  501 -0.00000000000E+00 -0.00000000000E+00 -0.80375871742E+03  0.80375871742E+03  0.00000000000E+00 0.  1.
         25    2    1    2    0    0 -0.89341006713E+01 -0.68429704885E+02 -0.48382833878E+03  0.50448002998E+03  0.12509115307E+03 0.  0.
          5    1    3    3  502    0 -0.36947637232E+02  0.18582737017E+02 -0.24912609127E+03  0.25257024322E+03  0.41800000000E+01 0. -1.
         -5    1    3    3    0  502  0.28013536561E+02 -0.87012441902E+02 -0.23470224751E+03  0.25190978675E+03  0.41800000000E+01 0. -1.
        -11    1    1    2    0    0  0.44993134777E+02  0.50723014975E+02 -0.23786959730E+03  0.24734419691E+03  0.00000000000E+00 0.  1.
         11    1    1    2    0    0 -0.36059034105E+02  0.17706689910E+02 -0.60975853275E+02  0.73019418587E+02  0.00000000000E+00 0. -1.
</event>
<event>
 7    1  0.3265282E-009  0.1002053E+03  0.7561462E-02  0.1279865E+00
         -3   -1    0    0    0  501 -0.00000000000E+00  0.00000000000E+00  0.26820031777E+02  0.26820031777E+02  0.00000000000E+00 0.  1.
          3   -1    0    0  501    0  0.00000000000E+00 -0.00000000000E+00 -0.51204499247E+03  0.51204499247E+03  0.00000000000E+00 0. -1.
         25    2    1    2    0    0  0.20774663340E+02 -0.42038195019E+02 -0.22148447219E+03  0.25865351489E+03  0.12508985917E+03 0.  0.
          5    1    3    3  502    0  0.54605388066E+02 -0.70098010680E+02 -0.13738899866E+03  0.16367250490E+03  0.41800000000E+01 0. -1.
         -5    1    3    3    0  502 -0.33830724727E+02  0.28059815661E+02 -0.84095473535E+02  0.94981009994E+02  0.41800000000E+01 0. -1.
        -11    1    1    2    0    0 -0.86968255274E+01  0.51332750779E+02 -0.25910188455E+03  0.26428104861E+03  0.00000000000E+00 0. -1.
         11    1    1    2    0    0 -0.12077837812E+02 -0.92945557598E+01 -0.46386039532E+01  0.15930460748E+02  0.00000000000E+00 0.  1.
</event>
<event>
 7    1  0.3265282E-009  0.1217254E+03  0.7561462E-02  0.1240277E+00
          1   -1    0    0  501    0  0.00000000000E+00  0.00000000000E+00  0.25759820633E+04  0.25759820633E+04  0.00000000000E+00 0. -1.
         -1   -1    0    0    0  501 -0.00000000000E+00 -0.00000000000E+00 -0.21515395521E+02  0.21515395521E+02  0.00000000000E+00 0.  1.
         25    2    1    2    0    0 -0.62997916057E+02 -0.44823472052E+02  0.23875485739E+04  0.23920730594E+04  0.12508975798E+03 0.  0.
          5    1    3    3  502    0 -0.87026490865E+02 -0.53473865004E+02  0.22356407611E+04  0.22379767982E+04  0.41800000000E+01 0.  1.
         -5    1    3    3    0  502  0.24028574809E+02  0.86503929523E+01  0.15190781282E+03  0.15409626115E+03  0.41800000000E+01 0.  1.
        -11    1    1    2    0    0  0.27840903021E+02 -0.24840872914E+02  0.30190310404E+02  0.47996246629E+02  0.00000000000E+00 0.  1.
         11    1    1    2    0    0  0.35157013035E+02  0.69664344966E+02  0.13672778343E+03  0.15742815277E+03  0.00000000000E+00 0. -1.
</event>
<event>
 7    1  0.3265282E-009  0.1153782E+03  0.7561462E-02  0.1250922E+00
          1   -1    0    0  501    0  0.00000000000E+00  0.00000000000E+00  0.13616053658E+03  0.13616053658E+03  0.00000000000E+00 0. -1.
         -1   -1    0    0    0  501 -0.00000000000E+00 -0.00000000000E+00 -0.12061247152E+03  0.12061247152E+03  0.00000000000E+00 0.  1.
         25    2    1    2    0    0  0.37501601667E+02  0.25530413743E+02 -0.41806149049E+02  0.13947902735E+03  0.12509385604E+03 0.  0.
          5    1    3    3  502    0 -0.27451192562E+02  0.51420172451E+02 -0.37213351775E+02  0.69281368767E+02  0.41800000000E+01 0. -1.
         -5    1    3    3    0  502  0.64952794229E+02 -0.25889758708E+02 -0.45927972740E+01  0.70197658586E+02  0.41800000000E+01 0. -1.
        -11    1    1    2    0    0  0.18669157446E+02  0.21882727850E+02  0.17696949227E+02  0.33772373767E+02  0.00000000000E+00 0.  1.
         11    1    1    2    0    0 -0.56170759112E+02 -0.47413141593E+02  0.39657264882E+02  0.83521606982E+02  0.00000000000E+00 0. -1.
</event>
<event>
 7    1  0.3265282E-009  0.1621876E+03  0.7561462E-02  0.1186249E+00
          1   -1    0    0  501    0  0.00000000000E+00  0.00000000000E+00  0.36964185752E+03  0.36964185752E+03  0.00000000000E+00 0.  1.
         -1   -1    0    0    0  501 -0.00000000000E+00 -0.00000000000E+00 -0.79640806130E+02  0.79640806130E+02  0.00000000000E+00 0. -1.
         25    2    1    2    0    0 -0.10528395605E+03  0.73649049443E+02  0.11462728929E+03  0.21282738220E+03  0.12508870965E+03 0.  0.
          5    1    3    3  502    0 -0.59481536628E+02  0.97644383904E+02  0.38519814831E+02  0.12072169417E+03  0.41800000000E+01 0. -1.
         -5    1    3    3    0  502 -0.45802419417E+02 -0.23995334461E+02  0.76107474460E+02  0.92105688039E+02  0.41800000000E+01 0. -1.
        -11    1    1    2    0    0  0.74732977885E+02  0.38014759014E+01  0.73528162024E+02  0.10490881666E+03  0.00000000000E+00 0. -1.
         11    1    1    2    0    0  0.30550978160E+02 -0.77450525344E+02  0.10184560007E+03  0.13154646478E+03  0.00000000000E+00 0.  1.
</event>
<event>
 7    1  0.3265282E-009  0.1237102E+03  0.7561462E-02  0.1237099E+00
         -2   -1    0    0    0  501 -0.00000000000E+00  0.00000000000E+00  0.26028644708E+02  0.26028644708E+02  0.00000000000E+00 0. -1.
          2   -1    0    0  501    0  0.00000000000E+00 -0.00000000000E+00 -0.10241371740E+04  0.10241371740E+04  0.00000000000E+00 0.  1.
         25    2    1    2    0    0  0.78501709563E+02 -0.85395323044E+01 -0.83300562506E+03  0.84603843371E+03  0.12508884009E+03 0.  0.
          5    1    3    3  502    0  0.15517631541E+02 -0.53554114903E+02 -0.18099825855E+03  0.18943780539E+03  0.41800000000E+01 0.  1.
         -5    1    3    3    0  502  0.62984078022E+02  0.45014582598E+02 -0.65200736651E+03  0.65660062832E+03  0.41800000000E+01 0.  1.
        -11    1    1    2    0    0 -0.24563171675E+02  0.43319032801E+02 -0.41372560762E+02  0.64742387889E+02  0.00000000000E+00 0. -1.
         11    1    1    2    0    0 -0.53938537888E+02 -0.34779500496E+02 -0.12373034348E+03  0.13938499712E+03  0.00000000000E+00 0.  1.
</event>
<event>
 7    1  0.3265282E-009  0.1331594E+03  0.7561462E-02  0.1222842E+00
          2   -1    0    0  501    0  0.00000000000E+00  0.00000000000E+00  0.57535899891E+03  0.57535899891E+03  0.00000000000E+00 0. -1.
         -2   -1    0    0    0  501 -0.00000000000E+00 -0.00000000000E+00 -0.45977294813E+02  0.45977294813E+02  0.00000000000E+00 0.  1.
         25    2    1    2    0    0 -0.99462484944E+02  0.30460633745E+02  0.40166995892E+03  0.43336677093E+03  0.12508943255E+03 0.  0.
          5    1    3    3  502    0 -0.69391747733E+01  0.52497428925E+02  0.23947369709E+03  0.24529422372E+03  0.41800000000E+01 0. -1.
         -5    1    3    3    0  502 -0.92523310171E+02 -0.22036795181E+02  0.16219626183E+03  0.18807254722E+03  0.41800000000E+01 0. -1.
        -11    1    1    2    0    0  0.57892267811E+02  0.11397699642E+02  0.11251962189E+03  0.12705151530E+03  0.00000000000E+00 0. -1.
         11    1    1    2    0    0  0.41570217133E+02 -0.41858333387E+02  0.15192123288E+02  0.60918007489E+02  0.00000000000E+00 0.  1.
</event>
<event>
 7    1  0.4685915E-009  0.1275853E+03  0.7561462E-02  0.1231083E+00
         -2   -1    0    0    0  501 -0.00000000000E+00  0.00000000000E+00  0.43629337030E+02  0.43629337030E+02  0.00000000000E+00 0.  1.
          2   -1    0    0  501    0  0.00000000000E+00 -0.00000000000E+00 -0.52725971822E+03  0.52725971822E+03  0.00000000000E+00 0. -1.
         25    2    1    2    0    0  0.82422533469E+02 -0.52965513019E+02 -0.33346868593E+03  0.36938788667E+03  0.12508887533E+03 0.  0.
          5    1    3    3  502    0  0.24138128343E+02 -0.85050949164E+02 -0.14977856496E+03  0.17397529743E+03  0.41800000000E+01 0. -1.
         -5    1    3    3    0  502  0.58284405126E+02  0.32085436145E+02 -0.18369012097E+03  0.19541258925E+03  0.41800000000E+01 0. -1.
        -11    1    1    2    0    0 -0.28425339360E+02  0.29977681031E+02 -0.11261501708E+01  0.41327103599E+02  0.00000000000E+00 0.  1.
         11    1    1    2    0    0 -0.53997194109E+02  0.22987831989E+02 -0.14903554509E+03  0.16017406498E+03  0.00000000000E+00 0. -1.
</event>
<event>
 7    1  0.3265282E-009  0.1150069E+03  0.7561462E-02  0.1251569E+00
         -2   -1    0    0    0  501 -0.00000000000E+00  0.00000000000E+00  0.38638245336E+02  0.38638245336E+02  0.00000000000E+00 0.  1.
          2   -1    0    0  501    0  0.00000000000E+00 -0.00000000000E+00 -0.68117079399E+03  0.68117079399E+03  0.00000000000E+00 0. -1.
         25    2    1    2    0    0  0.15142879270E+02  0.41967897879E+02 -0.96693540332E+02  0.16427839156E+03  0.12508852044E+03 0.  0.
          5    1    3    3  502    0 -0.21896207739E+02  0.74943961577E+02 -0.36828020422E+02  0.86428101787E+02  0.41800000000E+01 0. -1.
         -5    1    3    3    0  502  0.37039087009E+02 -0.32976063697E+02 -0.59865519910E+02  0.77850289771E+02  0.41800000000E+01 0. -1.
        -11    1    1    2    0    0 -0.38476695326E+02  0.14374776735E+02 -0.17856502808E+03  0.18322816253E+03  0.00000000000E+00 0. -1.
         11    1    1    2    0    0  0.23333816056E+02 -0.56342674615E+02 -0.36727398024E+03  0.37230248524E+03  0.00000000000E+00 0.  1.
</event>
<event>
 7    1  0.3265282E-009  0.1150251E+03  0.7561462E-02  0.1251537E+00
          2   -1    0    0  501    0  0.00000000000E+00  0.00000000000E+00  0.74946429292E+03  0.74946429292E+03  0.00000000000E+00 0. -1.
         -2   -1    0    0    0  501 -0.00000000000E+00 -0.00000000000E+00 -0.38085281962E+02  0.38085281962E+02  0.00000000000E+00 0.  1.
         25    2    1    2    0    0  0.25772840174E+02  0.71685476306E+02  0.62364927624E+03  0.64061602991E+03  0.12508969266E+03 0.  0.
          5    1    3    3  502    0 -0.32956936384E+01  0.83400062165E+02  0.21385330263E+03  0.22960213285E+03  0.41800000000E+01 0. -1.
         -5    1    3    3    0  502  0.29068533812E+02 -0.11714585859E+02  0.40979597361E+03  0.41101389705E+03  0.41800000000E+01 0. -1.
        -11    1    1    2    0    0 -0.52790062607E+02 -0.19831091632E+02  0.26628221918E+02  0.62362850383E+02  0.00000000000E+00 0.  1.
         11    1    1    2    0    0  0.27017222433E+02 -0.51854384674E+02  0.61101512796E+02  0.84570694593E+02  0.00000000000E+00 0. -1.
</event>
<event>
 7    1  0.3265282E-009  0.2077972E+03  0.7561462E-02  0.1143322E+00
          2   -1    0    0  501    0  0.00000000000E+00  0.00000000000E+00  0.63851997198E+03  0.63851997198E+03  0.00000000000E+00 0. -1.
         -2   -1    0    0    0  501 -0.00000000000E+00 -0.00000000000E+00 -0.72578586290E+02  0.72578586290E+02  0.00000000000E+00 0.  1.
         25    2    1    2    0    0 -0.11735287937E+03  0.14346209401E+03  0.30753838364E+03  0.38023685390E+03  0.12508851639E+03 0.  0.
          5    1    3    3  502    0 -0.12666292810E+03  0.15937905728E+03  0.29068021377E+03  0.35490511455E+03  0.41800000000E+01 0. -1.
         -5    1    3    3    0  502  0.93100487283E+01 -0.15916963269E+02  0.16858169871E+02  0.25331739349E+02  0.41800000000E+01 0. -1.
        -11    1    1    2    0    0  0.12031318020E+03 -0.12181280220E+03  0.17571465618E+03  0.24533499650E+03  0.00000000000E+00 0.  1.
         11    1    1    2    0    0 -0.29603008346E+01 -0.21649291810E+02  0.82688345872E+02  0.85526707875E+02  0.00000000000E+00 0. -1.
</event>
<event>
 7    1  0.3265282E-009  0.1059015E+03  0.7561462E-02  0.1268354E+00
         -2   -1    0    0    0  501 -0.00000000000E+00  0.00000000000E+00  0.32437156044E+02  0.32437156044E+02  0.00000000000E+00 0.  1.
          2   -1    0    0  501    0  0.00000000000E+00 -0.00000000000E+00 -0.38206196071E+03  0.38206196071E+03  0.00000000000E+00 0. -1.
         25    2    1    2    0    0 -0.30043883652E+02 -0.12234155295E+02 -0.20931736251E+03  0.24599269805E+03  0.12508532987E+03 0.  0.
          5    1    3    3  502    0 -0.45729778257E+02  0.41795468221E+02 -0.59885201134E+02  0.86265772460E+02  0.41800000000E+01 0. -1.
         -5    1    3    3    0  502  0.15685894605E+02 -0.54029623516E+02 -0.14943216137E+03  0.15972692559E+03  0.41800000000E+01 0. -1.
        -11    1    1    2    0    0  0.54620015012E+02  0.30605809140E+02 -0.92368931279E+02  0.11158889308E+03  0.00000000000E+00 0.  1.
         11    1    1    2    0    0 -0.24576131360E+02 -0.18371653845E+02 -0.47938510883E+02  0.56917525626E+02  0.00000000000E+00 0. -1.
</event>
<event>
 7    1  0.3265282E-009  0.1336878E+03  0.7561462E-02  0.1222084E+00
         -2   -1    0    0    0  501 -0.00000000000E+00  0.00000000000E+00  0.45424770399E+03  0.45424770399E+03  0.00000000000E+00 0.  1.
          2   -1    0    0  501    0  0.00000000000E+00 -0.00000000000E+00 -0.51960376347E+02  0.51960376347E+02  0.00000000000E+00 0. -1.
         25    2    1    2    0    0 -0.47721235364E+02 -0.97938530798E+02  0.19557294864E+03  0.25644454325E+03  0.12508298607E+03 0.  0.
          5    1    3    3  502    0 -0.69142404470E+02 -0.74512136158E+02  0.62114238025E+02  0.11919891567E+03  0.41800000000E+01 0. -1.
         -5    1    3    3    0  502  0.21421169106E+02 -0.23426394640E+02  0.13345871061E+03  0.13724562758E+03  0.41800000000E+01 0. -1.
        -11    1    1    2    0    0  0.64456006790E+02  0.46360250748E+02  0.15818960782E+03  0.17699661489E+03  0.00000000000E+00 0.  1.
         11    1    1    2    0    0 -0.16734771425E+02  0.51578280049E+02  0.48524771185E+02  0.72766922197E+02  0.00000000000E+00 0. -1.
</event>
<event>
 7    1  0.3265282E-009  0.1647030E+03  0.7561462E-02  0.1183487E+00
          2   -1    0    0  501    0  0.00000000000E+00  0.00000000000E+00  0.39011310910E+03  0.39011310910E+03  0.00000000000E+00 0. -1.
         -2   -1    0    0    0  501 -0.00000000000E+00 -0.00000000000E+00 -0.11552715087E+03  0.11552715087E+03  0.00000000000E+00 0.  1.
         25    2    1    2    0    0  0.56675029859E+02  0.13944246115E+03  0.19131054221E+02  0.19664589678E+03  0.12508937805E+03 0.  0.
          5    1    3    3  502    0  0.14957606424E+02  0.10437381824E+03  0.66152602633E+02  0.12454422170E+03  0.41800000000E+01 0.  1.
         -5    1    3    3    0  502  0.41717423435E+02  0.35068642913E+02 -0.47021548412E+02  0.72101675076E+02  0.41800000000E+01 0.  1.
        -11    1    1    2    0    0 -0.82464266697E+01 -0.11441257181E+03  0.13760197365E+03  0.17914391782E+03  0.00000000000E+00 0.  1.
         11    1    1    2    0    0 -0.48428603190E+02 -0.25029889349E+02  0.11785293036E+03  0.12985044536E+03  0.00000000000E+00 0. -1.
</event>
<event>
 7    1  0.3265282E-009  0.1422172E+03  0.7561462E-02  0.1210376E+00
          2   -1    0    0  501    0  0.00000000000E+00  0.00000000000E+00  0.95189575337E+03  0.95189575337E+03  0.00000000000E+00 0. -1.
         -2   -1    0    0    0  501 -0.00000000000E+00 -0.00000000000E+00 -0.31081337718E+02  0.31081337718E+02  0.00000000000E+00 0.  1.
         25    2    1    2    0    0  0.10265849077E+03 -0.56592072052E+02  0.68325749066E+03  0.70443507723E+03  0.12508617487E+03 0.  0.
          5    1    3    3  502    0  0.78835762992E+02 -0.92034007044E+02  0.58138251233E+03  0.59389261153E+03  0.41800000000E+01 0. -1.
         -5    1    3    3    0  502  0.23822727773E+02  0.35441934992E+02  0.10187497833E+03  0.11054246570E+03  0.41800000000E+01 0. -1.
        -11    1    1    2    0    0 -0.83731091461E+02  0.32938808352E+02  0.87675833322E+02  0.12563006217E+03  0.00000000000E+00 0.  1.
         11    1    1    2    0    0 -0.18927399304E+02  0.23653263700E+02  0.14988109167E+03  0.15291195169E+03  0.00000000000E+00 0. -1.
</event>
<event>
 7    1  0.3265282E-009  0.1087374E+03  0.7561462E-02  0.1262926E+00
         -1   -1    0    0    0  501 -0.00000000000E+00  0.00000000000E+00  0.10759076408E+03  0.10759076408E+03  0.00000000000E+00 0.  1.
          1   -1    0    0  501    0  0.00000000000E+00 -0.00000000000E+00 -0.28012629994E+03  0.28012629994E+03  0.00000000000E+00 0. -1.
         25    2    1    2    0    0  0.45283182622E+02 -0.62158018393E+02  0.35148252164E+02  0.15098669423E+03  0.12508955322E+03 0.  0.
          5    1    3    3  502    0 -0.38148017947E+02 -0.32714483027E+02  0.36751716818E+02  0.62399276935E+02  0.41800000000E+01 0.  1.
         -5    1    3    3    0  502  0.83431200569E+02 -0.29443535366E+02 -0.16034646535E+01  0.88587417290E+02  0.41800000000E+01 0.  1.
        -11    1    1    2    0    0 -0.13070240813E+02  0.31065915302E+02 -0.11666872267E+02  0.35665644491E+02  0.00000000000E+00 0.  1.
         11    1    1    2    0    0 -0.32212941809E+02  0.31092103091E+02 -0.19601691577E+03  0.20106472530E+03  0.00000000000E+00 0. -1.
</event>
<event>
 7    1  0.3265282E-009  0.1150874E+03  0.7561462E-02  0.1251429E+00
          2   -1    0    0  501    0  0.00000000000E+00  0.00000000000E+00  0.14714403531E+03  0.14714403531E+03  0.00000000000E+00 0. -1.
         -2   -1    0    0    0  501 -0.00000000000E+00 -0.00000000000E+00 -0.10500410318E+03  0.10500410318E+03  0.00000000000E+00 0.  1.
         25    2    1    2    0    0 -0.10467499762E+02  0.47680311647E+02 -0.16483614245E+02  0.13528619369E+03  0.12509062313E+03 0.  0.
          5    1    3    3  502    0  0.45957892882E+01 -0.42232547513E+02 -0.96829113510E+01  0.43771457834E+02  0.41800000000E+01 0.  1.
         -5    1    3    3    0  502 -0.15063289050E+02  0.89912859161E+02 -0.68007028943E+01  0.91514735859E+02  0.41800000000E+01 0.  1.
        -11    1    1    2    0    0  0.46032603723E+02 -0.37095846476E+02  0.52870339976E+02  0.79311886123E+02  0.00000000000E+00 0. -1.
         11    1    1    2    0    0 -0.35565103961E+02 -0.10584465171E+02  0.57532063938E+01  0.37550058676E+02  0.00000000000E+00 0.  1.
</event>
<event>
 7    1  0.3265282E-009  0.1102318E+03  0.7561462E-02  0.1260141E+00
         -2   -1    0    0    0  501 -0.00000000000E+00  0.00000000000E+00  0.32790635797E+03  0.32790635797E+03  0.00000000000E+00 0.  1.
          2   -1    0    0  501    0  0.00000000000E+00 -0.00000000000E+00 -0.44681311823E+02  0.44681311823E+02  0.00000000000E+00 0. -1.
         25    2    1    2    0    0  0.51912766282E+02  0.79359776947E+01  0.13891345096E+03  0.19417115239E+03  0.12509026548E+03 0.  0.
          5    1    3    3  502    0 -0.57651468264E+01  0.46438311870E+02  0.10456598384E+02  0.48130723836E+02  0.41800000000E+01 0.  1.
         -5    1    3    3    0  502  0.57677913108E+02 -0.38502334175E+02  0.12845685258E+03  0.14604042855E+03  0.41800000000E+01 0.  1.
        -11    1    1    2    0    0 -0.68082473913E+02 -0.31831363173E+02  0.93242057891E+02  0.11976034525E+03  0.00000000000E+00 0. -1.
         11    1    1    2    0    0  0.16169707631E+02  0.23895385479E+02  0.51069537294E+02  0.58656172151E+02  0.00000000000E+00 0.  1.
</event>
<event>
 7    1  0.3265282E-009  0.1180689E+03  0.7561462E-02  0.1246317E+00
          3   -1    0    0  501    0  0.00000000000E+00  0.00000000000E+00  0.16876345184E+03  0.16876345184E+03  0.00000000000E+00 0. -1.
         -3   -1    0    0    0  501 -0.00000000000E+00 -0.00000000000E+00 -0.14284967964E+03  0.14284967964E+03  0.00000000000E+00 0.  1.
         25    2    1    2    0    0  0.84394986044E+02  0.42017850457E+01  0.84835890746E+02  0.17316149706E+03  0.12509039547E+03 0.  0.
          5    1    3    3  502    0  0.10100321969E+03  0.41949018845E+02  0.63653032221E+02  0.12661181414E+03  0.41800000000E+01 0. -1.
         -5    1    3    3    0  502 -0.16608233645E+02 -0.37747233800E+02  0.21182858525E+02  0.46549682917E+02  0.41800000000E+01 0. -1.
        -11    1    1    2    0    0 -0.58088543796E+02 -0.80825541742E+01  0.14456402385E+02  0.60403594034E+02  0.00000000000E+00 0. -1.
         11    1    1    2    0    0 -0.26306442248E+02  0.38807691285E+01 -0.73378520937E+02  0.78048040383E+02  0.00000000000E+00 0.  1.
</event>
<event>
 7    1  0.3265282E-009  0.1434604E+03  0.7561462E-02  0.1208747E+00
         -1   -1    0    0    0  501 -0.00000000000E+00  0.00000000000E+00  0.19695442299E+03  0.19695442299E+03  0.00000000000E+00 0.  1.
          1   -1    0    0  501    0  0.00000000000E+00 -0.00000000000E+00 -0.13251060668E+03  0.13251060668E+03  0.00000000000E+00 0. -1.
         25    2    1    2    0    0 -0.11364687085E+03  0.33242684647E+02  0.54403701642E+02  0.18063078648E+03  0.12508809270E+03 0.  0.
          5    1    3    3  502    0 -0.20936979883E+02 -0.43099057377E+02 -0.14417889142E+01  0.48118988234E+02  0.41800000000E+01 0.  1.
         -5    1    3    3    0  502 -0.92709890965E+02  0.76341742024E+02  0.55845490556E+02  0.13251179824E+03  0.41800000000E+01 0.  1.
        -11    1    1    2    0    0  0.85428401877E+02 -0.28384253675E+02  0.47421018666E+02  0.10174689536E+03  0.00000000000E+00 0.  1.
         11    1    1    2    0    0  0.28218468971E+02 -0.48584309719E+01 -0.37380903997E+02  0.47087347836E+02  0.00000000000E+00 0. -1.
</event>
<event>
 7    1  0.3265282E-009  0.9269749E+02  0.7561462E-02  0.1296448E+00
          2   -1    0    0  501    0  0.00000000000E+00  0.00000000000E+00  0.11402817475E+03  0.11402817475E+03  0.00000000000E+00 0. -1.
         -2   -1    0    0    0  501 -0.00000000000E+00 -0.00000000000E+00 -0.18007239977E+03  0.18007239977E+03  0.00000000000E+00 0.  1.
         25    2    1    2    0    0  0.53336665814E+02  0.51975428693E+02  0.21818542845E+02  0.14720346388E+03  0.12508623369E+03 0.  0.
          5    1    3    3  502    0  0.12605508574E+02  0.12010742141E+02 -0.51314018796E+02  0.54348483863E+02  0.41800000000E+01 0.  1.
         -5    1    3    3    0  502  0.40731157240E+02  0.39964686552E+02  0.73132561641E+02  0.92854980015E+02  0.41800000000E+01 0.  1.
        -11    1    1    2    0    0 -0.15533598923E+02  0.22156080738E+02 -0.17010459909E+01  0.27112324995E+02  0.00000000000E+00 0. -1.
         11    1    1    2    0    0 -0.37803066892E+02 -0.74131509431E+02 -0.86161721873E+02  0.11978478565E+03  0.00000000000E+00 0.  1.
</event>
<event>
 7    1  0.3265282E-009  0.9748008E+02  0.7561462E-02  0.1285686E+00
         -1   -1    0    0    0  501 -0.00000000000E+00  0.00000000000E+00  0.48633300804E+02  0.48633300804E+02  0.00000000000E+00 0.  1.
          1   -1    0    0  501    0  0.00000000000E+00 -0.00000000000E+00 -0.36836009980E+03  0.36836009980E+03  0.00000000000E+00 0. -1.
         25    2    1    2    0    0  0.39626465779E+02 -0.16092410041E+02 -0.28506182078E+03  0.31422398799E+03  0.12508897038E+03 0.  0.
          5    1    3    3  502    0 -0.33018224483E+02  0.27630391911E+02 -0.62383753517E+02  0.75913416522E+02  0.41800000000E+01 0. -1.
         -5    1    3    3    0  502  0.72644690262E+02 -0.43722801953E+02 -0.22267806726E+03  0.23831057147E+03  0.41800000000E+01 0. -1.
        -11    1    1    2    0    0  0.34268062343E+01  0.22961173291E+02 -0.51139894224E+02  0.56162685664E+02  0.00000000000E+00 0. -1.
         11    1    1    2    0    0 -0.43053272013E+02 -0.68687632491E+01  0.16474916006E+02  0.46606726950E+02  0.00000000000E+00 0.  1.
</event>
<event>
 7    1  0.3265282E-009  0.1625760E+03  0.7561462E-02  0.1185819E+00
         -2   -1    0    0    0  501 -0.00000000000E+00  0.00000000000E+00  0.27173184621E+02  0.27173184621E+02  0.00000000000E+00 0.  1.
          2   -1    0    0  501    0  0.00000000000E+00 -0.00000000000E+00 -0.10769403426E+04  0.10769403426E+04  0.00000000000E+00 0. -1.
         25    2    1    2    0    0  0.12346882713E+03  0.26620132994E+02 -0.67468176291E+03  0.69770778402E+03  0.12508991938E+03 0.  0.
          5    1    3    3  502    0  0.23436987401E+01 -0.36422856193E+02 -0.21643894479E+03  0.21953452257E+03  0.41800000000E+01 0.  1.
         -5    1    3    3    0  502  0.12112512839E+03  0.63042989186E+02 -0.45824281811E+03  0.47817326145E+03  0.41800000000E+01 0.  1.
        -11    1    1    2    0    0 -0.43640074127E+02 -0.52140433687E+02 -0.12023650797E+03  0.13813000668E+03  0.00000000000E+00 0.  1.
         11    1    1    2    0    0 -0.79828753000E+02  0.25520300694E+02 -0.25484888712E+03  0.26827573654E+03  0.00000000000E+00 0. -1.
</event>
<event>
 7    1  0.3265282E-009  0.2469550E+03  0.7561462E-02  0.1115244E+00
          2   -1    0    0  501    0  0.00000000000E+00  0.00000000000E+00  0.49059411788E+03  0.49059411788E+03  0.00000000000E+00 0. -1.
         -2   -1    0    0    0  501 -0.00000000000E+00 -0.00000000000E+00 -0.13453388610E+03  0.13453388610E+03  0.00000000000E+00 0.  1.
         25    2    1    2    0    0  0.50101721789E+02 -0.22239451237E+03  0.12700534616E+03  0.28939099627E+03  0.12508912466E+03 0.  0.
          5    1    3    3  502    0  0.86955622238E+02 -0.17428289689E+03  0.11856405420E+03  0.22805857962E+03  0.41800000000E+01 0. -1.
         -5    1    3    3    0  502 -0.36853900449E+02 -0.48111615483E+02  0.84412919523E+01  0.61332416653E+02  0.41800000000E+01 0. -1.
        -11    1    1    2    0    0 -0.67684342824E+02  0.18583933240E+03  0.15492803277E+03  0.25123718488E+03  0.00000000000E+00 0.  1.
         11    1    1    2    0    0  0.17582621034E+02  0.36555179974E+02  0.74126852849E+02  0.84499822832E+02  0.00000000000E+00 0. -1.
</event>
<event>
 7    1  0.3265282E-009  0.1168547E+03  0.7561462E-02  0.1248378E+00
         -1   -1    0    0    0  501 -0.00000000000E+00  0.00000000000E+00  0.13886011786E+03  0.13886011786E+03  0.00000000000E+00 0.  1.
          1   -1    0    0  501    0  0.00000000000E+00 -0.00000000000E+00 -0.18758173012E+03  0.18758173012E+03  0.00000000000E+00 0. -1.
         25    2    1    2    0    0 -0.55535540255E+02 -0.67518968461E+01 -0.13210301434E+03  0.19033913310E+03  0.12509194558E+03 0.  0.
          5    1    3    3  502    0 -0.71274438720E+02 -0.48217607185E+02 -0.11241997212E+03  0.14163582100E+03  0.41800000000E+01 0.  1.
         -5    1    3    3    0  502  0.15738898466E+02  0.41465710339E+02 -0.19683042218E+02  0.48703312103E+02  0.41800000000E+01 0.  1.
        -11    1    1    2    0    0 -0.14523544264E+02  0.26499024972E+02  0.43902367064E+02  0.53296805685E+02  0.00000000000E+00 0.  1.
         11    1    1    2    0    0  0.70059084518E+02 -0.19747128126E+02  0.39479035010E+02  0.82805909198E+02  0.00000000000E+00 0. -1.
</event>
<event>
 7    1  0.3265282E-009  0.9493964E+02  0.7561462E-02  0.1291312E+00
         -1   -1    0    0    0  501 -0.00000000000E+00  0.00000000000E+00  0.41719949950E+02  0.41719949950E+02  0.00000000000E+00 0.  1.
          1   -1    0    0  501    0  0.00000000000E+00 -0.00000000000E+00 -0.43637096516E+03  0.43637096516E+03  0.00000000000E+00 0. -1.
         25    2    1    2    0    0 -0.29966507889E+01  0.76199605055E+02 -0.26166974591E+03  0.29988436526E+03  0.12507684388E+03 0.  0.
          5    1    3    3  502    0 -0.25604763481E+02  0.17117163320E+02 -0.22398562308E+03  0.22613189279E+03  0.41800000000E+01 0.  1.
         -5    1    3    3    0  502  0.22608112692E+02  0.59082441736E+02 -0.37684122830E+02  0.73752472463E+02  0.41800000000E+01 0.  1.
        -11    1    1    2    0    0 -0.15118630558E+02 -0.75786036696E+02 -0.47246223910E+02  0.90577602209E+02  0.00000000000E+00 0.  1.
         11    1    1    2    0    0  0.18115281347E+02 -0.41356835890E+00 -0.85735045397E+02  0.87628947650E+02  0.00000000000E+00 0. -1.
</event>
<event>
 7    1  0.3265282E-009  0.1160799E+03  0.7561462E-02  0.1249708E+00
         -2   -1    0    0    0  501 -0.00000000000E+00  0.00000000000E+00  0.36891956227E+02  0.36891956227E+02  0.00000000000E+00 0.  1.
          2   -1    0    0  501    0  0.00000000000E+00 -0.00000000000E+00 -0.42424919937E+03  0.42424919937E+03  0.00000000000E+00 0. -1.
         25    2    1    2    0    0 -0.59673512838E+02 -0.52117085440E+01 -0.19399792471E+03  0.23847765986E+03  0.12509320293E+03 0.  0.
          5    1    3    3  502    0 -0.96706581558E+02 -0.15615665074E+02 -0.15595035928E+03  0.18421183152E+03  0.41800000000E+01 0. -1.
         -5    1    3    3    0  502  0.37033068720E+02  0.10403956530E+02 -0.38047565433E+02  0.54265828342E+02  0.41800000000E+01 0. -1.
        -11    1    1    2    0    0 -0.10515508941E+01  0.29862107884E+02 -0.16680974491E+02  0.34221428324E+02  0.00000000000E+00 0.  1.
         11    1    1    2    0    0  0.60725063732E+02 -0.24650399340E+02 -0.17667834394E+03  0.18844206741E+03  0.00000000000E+00 0. -1.
</event>
<event>
 7    1  0.3265282E-009  0.1104350E+03  0.7561462E-02  0.1259766E+00
          3   -1    0    0  501    0  0.00000000000E+00  0.00000000000E+00  0.14392954656E+03  0.14392954656E+03  0.00000000000E+00 0. -1.
         -3   -1    0    0    0  501 -0.00000000000E+00 -0.00000000000E+00 -0.97088536739E+02  0.97088536739E+02  0.00000000000E+00 0.  1.
         25    2    1    2    0    0 -0.87610410801E+01  0.20263281878E+02 -0.14308908450E+02  0.12782793575E+03  0.12509148598E+03 0.  0.
          5    1    3    3  502    0 -0.62928578270E+02 -0.11054656989E+02 -0.29358721646E+01  0.64096046287E+02  0.41800000000E+01 0.  1.
         -5    1    3    3    0  502  0.54167537190E+02  0.31317938867E+02 -0.11373036285E+02  0.63731889463E+02  0.41800000000E+01 0.  1.
        -11    1    1    2    0    0  0.11406548121E+02 -0.56580515239E+02  0.45761788082E+02  0.73658708196E+02  0.00000000000E+00 0.  1.
         11    1    1    2    0    0 -0.26455070406E+01  0.36317233360E+02  0.15388130187E+02  0.39531439350E+02  0.00000000000E+00 0. -1.
</event>
<event>
 7    1  0.3265282E-009  0.1132726E+03  0.7561462E-02  0.1254627E+00
          1   -1    0    0  501    0  0.00000000000E+00  0.00000000000E+00  0.20146025584E+03  0.20146025584E+03  0.00000000000E+00 0. -1.
         -1   -1    0    0    0  501 -0.00000000000E+00 -0.00000000000E+00 -0.10040650518E+03  0.10040650518E+03  0.00000000000E+00 0.  1.
         25    2    1    2    0    0  0.76994320282E+02  0.31529288104E+02  0.12871935821E+02  0.15078529986E+03  0.12509315952E+03 0.  0.
          5    1    3    3  502    0  0.83014926184E+02  0.66881204530E+02 -0.11380726906E+02  0.10729197003E+03  0.41800000000E+01 0. -1.
         -5    1    3    3    0  502 -0.60206059027E+01 -0.35351916426E+02  0.24252662727E+02  0.43493329831E+02  0.41800000000E+01 0. -1.
        -11    1    1    2    0    0 -0.93148267217E+01 -0.74216114723E+01 -0.18775547378E+02  0.22234376381E+02  0.00000000000E+00 0.  1.
         11    1    1    2    0    0 -0.67679493560E+02 -0.24107676631E+02  0.10695736222E+03  0.12884708477E+03  0.00000000000E+00 0. -1.
</event>
<event>
 7    1  0.3265282E-009  0.1198428E+03  0.7561462E-02  0.1243357E+00
         -2   -1    0    0    0  501 -0.00000000000E+00  0.00000000000E+00  0.43335044283E+02  0.43335044283E+02  0.00000000000E+00 0.  1.
          2   -1    0    0  501    0  0.00000000000E+00 -0.00000000000E+00 -0.65255446306E+03  0.65255446306E+03  0.00000000000E+00 0. -1.
         25    2    1    2    0    0 -0.20038824446E+02  0.80976785385E+02 -0.52606774211E+03  0.54713215080E+03  0.12509007515E+03 0.  0.
          5    1    3    3  502    0 -0.17272987874E+01  0.11274781569E+03 -0.37412432691E+03  0.39077044142E+03  0.41800000000E+01 0. -1.
         -5    1    3    3    0  502 -0.18311525659E+02 -0.31771030304E+02 -0.15194341520E+03  0.15636170938E+03  0.41800000000E+01 0. -1.
        -11    1    1    2    0    0 -0.53832592296E+01 -0.48000457838E+02 -0.94040086765E+02  0.10571925724E+03  0.00000000000E+00 0. -1.
         11    1    1    2    0    0  0.25422083676E+02 -0.32976327547E+02  0.10888410095E+02  0.43038099300E+02  0.00000000000E+00 0.  1.
</event>
<event>
 7    1  0.3265282E-009  0.9367064E+02  0.7561462E-02  0.1294199E+00
         -2   -1    0    0    0  501 -0.00000000000E+00  0.00000000000E+00  0.63286607166E+02  0.63286607166E+02  0.00000000000E+00 0.  1.
          2   -1    0    0  501    0  0.00000000000E+00 -0.00000000000E+00 -0.28463525943E+03  0.28463525943E+03  0.00000000000E+00 0. -1.
         25    2    1    2    0    0  0.74076946222E+02 -0.10695175931E+02 -0.10613626002E+03  0.18031712043E+03  0.12509027732E+03 0.  0.
          5    1    3    3  502    0  0.27625567264E+02 -0.19851604384E+02 -0.12467485646E+03  0.12930023355E+03  0.41800000000E+01 0.  1.
         -5    1    3    3    0  502  0.46451378958E+02  0.91564284527E+01  0.18538596435E+02  0.51016886880E+02  0.41800000000E+01 0.  1.
        -11    1    1    2    0    0 -0.70890616211E+02 -0.20801967204E+02 -0.11409643940E+03  0.13592718194E+03  0.00000000000E+00 0. -1.
         11    1    1    2    0    0 -0.31863300115E+01  0.31497143135E+02 -0.11159528419E+01  0.31677564227E+02  0.00000000000E+00 0.  1.
</event>
<event>
 7    1  0.3265282E-009  0.1497612E+03  0.7561462E-02  0.1200767E+00
          2   -1    0    0  501    0  0.00000000000E+00  0.00000000000E+00  0.51312707567E+03  0.51312707567E+03  0.00000000000E+00 0. -1.
         -2   -1    0    0    0  501 -0.00000000000E+00 -0.00000000000E+00 -0.56510671988E+02  0.56510671988E+02  0.00000000000E+00 0.  1.
         25    2    1    2    0    0  0.23691508791E+02  0.12021723376E+03  0.16701090145E+03  0.24197816240E+03  0.12508924413E+03 0.  0.
          5    1    3    3  502    0  0.61741372175E+02  0.67989347071E+02  0.14845837016E+03  0.17461932432E+03  0.41800000000E+01 0.  1.
         -5    1    3    3    0  502 -0.38049863384E+02  0.52227886686E+02  0.18552531284E+02  0.67358838085E+02  0.41800000000E+01 0.  1.
        -11    1    1    2    0    0  0.23362895231E+02 -0.15517612436E+02  0.11739792461E+03  0.12070167303E+03  0.00000000000E+00 0. -1.
         11    1    1    2    0    0 -0.47054404022E+02 -0.10469962132E+03  0.17220757763E+03  0.20695791223E+03  0.00000000000E+00 0.  1.
</event>
<event>
 7    1  0.3265282E-009  0.1835249E+03  0.7561462E-02  0.1164435E+00
         -2   -1    0    0    0  501 -0.00000000000E+00  0.00000000000E+00  0.99411214452E+02  0.99411214452E+02  0.00000000000E+00 0.  1.
          2   -1    0    0  501    0  0.00000000000E+00 -0.00000000000E+00 -0.47825335149E+03  0.47825335149E+03  0.00000000000E+00 0. -1.
         25    2    1    2    0    0 -0.16098048105E+03  0.69140530073E+02 -0.10594808254E+03  0.23993175628E+03  0.12508846190E+03 0.  0.
          5    1    3    3  502    0 -0.14513349024E+03  0.75421648941E+02 -0.35620128326E+02  0.16744677083E+03  0.41800000000E+01 0.  1.
         -5    1    3    3    0  502 -0.15846990804E+02 -0.62811188684E+01 -0.70327954216E+02  0.72484985452E+02  0.41800000000E+01 0.  1.
        -11    1    1    2    0    0  0.12769187586E+03 -0.24211893993E+02 -0.12796587077E+03  0.18239159809E+03  0.00000000000E+00 0.  1.
         11    1    1    2    0    0  0.33288605194E+02 -0.44928636080E+02 -0.14492818372E+03  0.15534121157E+03  0.00000000000E+00 0. -1.
</event>
<event>
 7    1  0.3265282E-009  0.3000757E+03  0.7561462E-02  0.1085203E+00
          1   -1    0    0  501    0  0.00000000000E+00  0.00000000000E+00  0.70113786819E+03  0.70113786819E+03  0.00000000000E+00 0. -1.
         -1   -1    0    0    0  501 -0.00000000000E+00 -0.00000000000E+00 -0.17161868734E+03  0.17161868734E+03  0.00000000000E+00 0.  1.
         25    2    1    2    0    0  0.96291347784E+02  0.27475017589E+03  0.46253874415E+03  0.56066954159E+03  0.12509421339E+03 0.  0.
          5    1    3    3  502    0  0.66008299801E+02  0.26997950931E+03  0.36789489509E+03  0.46109668977E+03  0.41800000000E+01 0. -1.
         -5    1    3    3    0  502  0.30283047982E+02  0.47706665850E+01  0.94643849059E+02  0.99572851819E+02  0.41800000000E+01 0. -1.
        -11    1    1    2    0    0 -0.29909420756E+02 -0.97024209454E+02 -0.19834277712E+02  0.10344887260E+03  0.00000000000E+00 0.  1.
         11    1    1    2    0    0 -0.66381927028E+02 -0.17772596644E+03  0.86814714420E+02  0.20863814134E+03  0.00000000000E+00 0. -1.
</event>
<event>
 7    1  0.3404697E-009  0.1212873E+03  0.7561462E-02  0.1240988E+00
          2   -1    0    0  501    0  0.00000000000E+00  0.00000000000E+00  0.36217252694E+03  0.36217252694E+03  0.00000000000E+00 0. -1.
         -2   -1    0    0    0  501 -0.00000000000E+00 -0.00000000000E+00 -0.87063436133E+02  0.87063436133E+02  0.00000000000E+00 0.  1.
         25    2    1    2    0    0  0.86734158703E+02 -0.77218292626E+02  0.46466258270E+02  0.17689613201E+03  0.12509056463E+03 0.  0.
          5    1    3    3  502    0  0.70207495162E+02 -0.81938485873E+02 -0.18506971487E+02  0.10955815003E+03  0.41800000000E+01 0.  1.
         -5    1    3    3    0  502  0.16526663541E+02  0.47201932472E+01  0.64973229757E+02  0.67337981980E+02  0.41800000000E+01 0.  1.
        -11    1    1    2    0    0 -0.59791603772E+02  0.44586987710E+02  0.52562844049E+02  0.91246303647E+02  0.00000000000E+00 0.  1.
         11    1    1    2    0    0 -0.26942554930E+02  0.32631304916E+02  0.17607998849E+03  0.18109352742E+03  0.00000000000E+00 0. -1.
</event>
<event>
 7    1  0.3265282E-009  0.8781007E+02  0.7561462E-02  0.1308243E+00
          1   -1    0    0  501    0  0.00000000000E+00  0.00000000000E+00  0.76150295941E+02  0.76150295941E+02  0.00000000000E+00 0. -1.
         -1   -1    0    0    0  501 -0.00000000000E+00 -0.00000000000E+00 -0.24644403798E+03  0.24644403798E+03  0.00000000000E+00 0.  1.
         25    2    1    2    0    0 -0.10182890117E+02 -0.37160870409E+01 -0.19065201734E+03  0.22828356742E+03  0.12509074659E+03 0.  0.
          5    1    3    3  502    0  0.18037737265E+02  0.43976949103E+02 -0.15518767640E+03  0.16235768946E+03  0.41800000000E+01 0. -1.
         -5    1    3    3    0  502 -0.28220627383E+02 -0.47693036144E+02 -0.35464340937E+02  0.65925877959E+02  0.41800000000E+01 0. -1.
        -11    1    1    2    0    0  0.36532915281E+02  0.19705080463E+02 -0.17881441273E+02  0.45196128562E+02  0.00000000000E+00 0.  1.
         11    1    1    2    0    0 -0.26350025164E+02 -0.15988993422E+02  0.38239716574E+02  0.49114637945E+02  0.00000000000E+00 0. -1.
</event>
<event>
 7    1  0.3265282E-009  0.1081763E+03  0.7561462E-02  0.1263985E+00
         -2   -1    0    0    0  501 -0.00000000000E+00  0.00000000000E+00  0.14079456693E+03  0.14079456693E+03  0.00000000000E+00 0.  1.
          2   -1    0    0  501    0  0.00000000000E+00 -0.00000000000E+00 -0.96348114704E+02  0.96348114704E+02  0.00000000000E+00 0. -1.
         25    2    1    2    0    0 -0.34336758191E+02  0.25171122030E+02  0.20883888947E+02  0.13377868309E+03  0.12509196970E+03 0.  0.
          5    1    3    3  502    0 -0.35761915930E+02 -0.47138772668E+02  0.14434311966E+02  0.61047524779E+02  0.41800000000E+01 0.  1.
         -5    1    3    3    0  502  0.14251577398E+01  0.72309894699E+02  0.64495769808E+01  0.72731158310E+02  0.41800000000E+01 0.  1.
        -11    1    1    2    0    0  0.19477381699E+02  0.25328226001E+02  0.37148445925E+02  0.48998923099E+02  0.00000000000E+00 0.  1.
         11    1    1    2    0    0  0.14859376492E+02 -0.50499348031E+02 -0.13585882643E+02  0.54365075448E+02  0.00000000000E+00 0. -1.
</event>
<event>
 7    1  0.3265282E-009  0.1156570E+03  0.7561462E-02  0.1250439E+00
          2   -1    0    0  501    0  0.00000000000E+00  0.00000000000E+00  0.14345859011E+03  0.14345859011E+03  0.00000000000E+00 0. -1.
         -2   -1    0    0    0  501 -0.00000000000E+00 -0.00000000000E+00 -0.10098181976E+03  0.10098181976E+03  0.00000000000E+00 0.  1.
         25    2    1    2    0    0  0.24098150143E+02 -0.44106214278E+02  0.37153323672E+02  0.13985810330E+03  0.12511530930E+03 0.  0.
          5    1    3    3  502    0  0.30618352743E+02  0.35403097382E+02  0.37260596253E+02  0.59972387497E+02  0.41800000000E+01 0.  1.
         -5    1    3    3    0  502 -0.65202026002E+01 -0.79509311660E+02 -0.10727258123E+00  0.79885715807E+02  0.41800000000E+01 0.  1.
        -11    1    1    2    0    0  0.30692170850E+02  0.38679249446E+02  0.17509365591E+01  0.49408091119E+02  0.00000000000E+00 0.  1.
         11    1    1    2    0    0 -0.54790320993E+02  0.54269648316E+01  0.35725101116E+01  0.55174215448E+02  0.00000000000E+00 0. -1.
</event>
<event>
 7    1  0.7003127E-009  0.1273186E+03  0.7561462E-02  0.1231490E+00
         -2   -1    0    0    0  501 -0.00000000000E+00  0.00000000000E+00  0.24905747749E+02  0.24905747749E+02  0.00000000000E+00 0.  1.
          2   -1    0    0  501    0  0.00000000000E+00 -0.00000000000E+00 -0.77481088865E+03  0.77481088865E+03  0.00000000000E+00 0. -1.
         25    2    1    2    0    0  0.79318458851E+02  0.33557817967E+02 -0.41130404533E+03  0.43843772052E+03  0.12505627538E+03 0.  0.
          5    1    3    3  502    0 -0.26957805651E+02 -0.16253313986E+02 -0.57988953552E+02  0.66114178775E+02  0.41800000000E+01 0.  1.
         -5    1    3    3    0  502  0.10627626450E+03  0.49811131952E+02 -0.35331509177E+03  0.37232354175E+03  0.41800000000E+01 0.  1.
        -11    1    1    2    0    0  0.10250897474E+02 -0.51462728626E+01 -0.17945201186E+01  0.11609708259E+02  0.00000000000E+00 0.  1.
         11    1    1    2    0    0 -0.89569356324E+02 -0.28411545104E+02 -0.33680657546E+03  0.34966920762E+03  0.00000000000E+00 0. -1.
</event>
<event>
 7    1  0.3265282E-009  0.6766234E+02  0.7561462E-02  0.1368228E+00
          3   -1    0    0  501    0  0.00000000000E+00  0.00000000000E+00  0.22779025935E+02  0.22779025935E+02  0.00000000000E+00 0. -1.
         -3   -1    0    0    0  501 -0.00000000000E+00 -0.00000000000E+00 -0.65631118031E+03  0.65631118031E+03  0.00000000000E+00 0.  1.
         25    2    1    2    0    0 -0.37345686230E+02 -0.14705947156E+02 -0.46206293811E+03  0.48037330262E+03  0.12508151715E+03 0.  0.
          5    1    3    3  502    0  0.75459616532E+00 -0.62694502908E+01  0.66149205374E+01  0.10055098012E+02  0.41800000000E+01 0.  1.
         -5    1    3    3    0  502 -0.38100282395E+02 -0.84364968653E+01 -0.46867785865E+03  0.47031820461E+03  0.41800000000E+01 0.  1.
        -11    1    1    2    0    0  0.60623320532E+02 -0.63614659758E+00 -0.65973414028E+02  0.89599570497E+02  0.00000000000E+00 0. -1.
         11    1    1    2    0    0 -0.23277634302E+02  0.15342093754E+02 -0.10549580224E+03  0.10911733313E+03  0.00000000000E+00 0.  1.
</event>
<event>
 7    1  0.3265282E-009  0.8410111E+02  0.7561462E-02  0.1317800E+00
          4   -1    0    0  501    0  0.00000000000E+00  0.00000000000E+00  0.25223516899E+03  0.25223516899E+03  0.00000000000E+00 0. -1.
         -4   -1    0    0    0  501 -0.00000000000E+00 -0.00000000000E+00 -0.47066134658E+02  0.47066134658E+02  0.00000000000E+00 0.  1.
         25    2    1    2    0    0  0.65872280754E+01  0.61232486076E+01  0.12677412641E+03  0.17832020837E+03  0.12508210040E+03 0.  0.
          5    1    3    3  502    0 -0.42757107286E+02  0.39253635611E+02  0.93351576896E+02  0.11000457918E+03  0.41800000000E+01 0. -1.
         -5    1    3    3    0  502  0.49344335362E+02 -0.33130387004E+02  0.33422549510E+02  0.68315629186E+02  0.41800000000E+01 0. -1.
        -11    1    1    2    0    0 -0.16211853885E+02 -0.24676809785E+02  0.91611292239E+02  0.96251742910E+02  0.00000000000E+00 0. -1.
         11    1    1    2    0    0  0.96246258099E+01  0.18553561177E+02 -0.13216384312E+02  0.24729352370E+02  0.00000000000E+00 0.  1.
</event>
<event>
 7    1  0.3265282E-009  0.8754546E+02  0.7561462E-02  0.1308907E+00
          2   -1    0    0  501    0  0.00000000000E+00  0.00000000000E+00  0.13289828766E+04  0.13289828766E+04  0.00000000000E+00 0. -1.
         -2   -1    0    0    0  501 -0.00000000000E+00 -0.00000000000E+00 -0.13880892652E+02  0.13880892652E+02  0.00000000000E+00 0.  1.
         25    2    1    2    0    0  0.46902671383E+01  0.13774238415E+02  0.11370474972E+04  0.11440001797E+04  0.12509065513E+03 0.  0.
          5    1    3    3  502    0  0.28625407716E+02 -0.40887452877E+02  0.80860859395E+03  0.81015833537E+03  0.41800000000E+01 0.  1.
         -5    1    3    3    0  502 -0.23935140577E+02  0.54661691292E+02  0.32843890322E+03  0.33384184429E+03  0.41800000000E+01 0.  1.
        -11    1    1    2    0    0  0.27057136976E+02 -0.18930903971E+02  0.15696850188E+03  0.16040442128E+03  0.00000000000E+00 0. -1.
         11    1    1    2    0    0 -0.31747404114E+02  0.51566655560E+01  0.21085984910E+02  0.38459168312E+02  0.00000000000E+00 0.  1.
</event>
<event>
 7    1  0.3265282E-009  0.1051392E+03  0.7561462E-02  0.1269846E+00
         -1   -1    0    0    0  501 -0.00000000000E+00  0.00000000000E+00  0.20889828022E+02  0.20889828022E+02  0.00000000000E+00 0.  1.
          1   -1    0    0  501    0  0.00000000000E+00 -0.00000000000E+00 -0.10474876561E+04  0.10474876561E+04  0.00000000000E+00 0. -1.
         25    2    1    2    0    0  0.20513511426E+01  0.59202725061E+02 -0.84871290635E+03  0.85992443507E+03  0.12508903205E+03 0.  0.
          5    1    3    3  502    0  0.45123824108E+02  0.13662797784E+02 -0.64525116695E+03  0.64698483166E+03  0.41800000000E+01 0. -1.
         -5    1    3    3    0  502 -0.43072472966E+02  0.45539927277E+02 -0.20346173940E+03  0.21293960342E+03  0.41800000000E+01 0. -1.
        -11    1    1    2    0    0  0.72249119867E+01  0.19542318384E+02 -0.10706967873E+02  0.23425215518E+02  0.00000000000E+00 0.  1.
         11    1    1    2    0    0 -0.92762631294E+01 -0.78745043445E+02 -0.16717795384E+03  0.18502783352E+03  0.00000000000E+00 0. -1.
</event>
<event>
 7    1  0.3265282E-009  0.1092538E+03  0.7561462E-02  0.1261958E+00
         -2   -1    0    0    0  501 -0.00000000000E+00  0.00000000000E+00  0.21431795764E+03  0.21431795764E+03  0.00000000000E+00 0. -1.
          2   -1    0    0  501    0  0.00000000000E+00 -0.00000000000E+00 -0.74748165553E+02  0.74748165553E+02  0.00000000000E+00 0.  1.
         25    2    1    2    0    0  0.41373168970E+02  0.17263428295E+02  0.13311634025E+03  0.18809037794E+03  0.12509302605E+03 0.  0.
          5    1    3    3  502    0  0.74699578910E+02 -0.19586633585E+02  0.10635856561E+03  0.13150391699E+03  0.41800000000E+01 0.  1.
         -5    1    3    3    0  502 -0.33326409940E+02  0.36850061880E+02  0.26757774641E+02  0.56586460958E+02  0.41800000000E+01 0.  1.
        -11    1    1    2    0    0 -0.24165996221E+01  0.29979202558E+02 -0.17987844262E+02  0.35045043600E+02  0.00000000000E+00 0.  1.
         11    1    1    2    0    0 -0.38956569348E+02 -0.47242630853E+02  0.24441296105E+02  0.65930701653E+02  0.00000000000E+00 0. -1.
</event>
<event>
 7    1  0.3265282E-009  0.1861525E+03  0.7561462E-02  0.1161978E+00
         -2   -1    0    0    0  501 -0.00000000000E+00  0.00000000000E+00  0.17162105892E+03  0.17162105892E+03  0.00000000000E+00 0.  1.
          2   -1    0    0  501    0  0.00000000000E+00 -0.00000000000E+00 -0.22745269534E+03  0.22745269534E+03  0.00000000000E+00 0. -1.
         25    2    1    2    0    0  0.11336585890E+03  0.11813845584E+03 -0.48888980480E+02  0.21176942103E+03  0.12509053745E+03 0.  0.
          5    1    3    3  502    0 -0.37519307172E+01  0.83283936657E+02 -0.14145736999E+02  0.84663246833E+02  0.41800000000E+01 0. -1.
         -5    1    3    3    0  502  0.11711778961E+03  0.34854519187E+02 -0.34743243481E+02  0.12710617420E+03  0.41800000000E+01 0. -1.
        -11    1    1    2    0    0 -0.71797980107E+02 -0.52785744786E+02  0.38974506423E+02  0.97264057858E+02  0.00000000000E+00 0.  1.
         11    1    1    2    0    0 -0.41567878790E+02 -0.65352711058E+02 -0.45917162362E+02  0.90040275372E+02  0.00000000000E+00 0. -1.
</event>
<event>
 7    1  0.3265282E-009  0.1295834E+03  0.7561462E-02  0.1228075E+00
         -1   -1    0    0    0  501 -0.00000000000E+00  0.00000000000E+00  0.42120397133E+02  0.42120397133E+02  0.00000000000E+00 0.  1.
          1   -1    0    0  501    0  0.00000000000E+00 -0.00000000000E+00 -0.42750132039E+03  0.42750132039E+03  0.00000000000E+00 0. -1.
         25    2    1    2    0    0 -0.73912622058E+02 -0.56329328082E+00 -0.16414967104E+03  0.21921451700E+03  0.12508595829E+03 0.  0.
          5    1    3    3  502    0 -0.10328262086E+03 -0.21532682460E+02 -0.99633745174E+02  0.14517338517E+03  0.41800000000E+01 0.  1.
         -5    1    3    3    0  502  0.29369998798E+02  0.20969389179E+02 -0.64515925865E+02  0.74041131827E+02  0.41800000000E+01 0.  1.
        -11    1    1    2    0    0  0.81098390615E+02 -0.29533909050E+02 -0.15947381084E+03  0.18133145642E+03  0.00000000000E+00 0.  1.
         11    1    1    2    0    0 -0.71857685576E+01  0.30097202331E+02 -0.61757441375E+02  0.69075744101E+02  0.00000000000E+00 0. -1.
</event>
<event>
 7    1  0.3265282E-009  0.8524803E+02  0.7561462E-02  0.1314785E+00
          2   -1    0    0  501    0  0.00000000000E+00  0.00000000000E+00  0.17217032093E+03  0.17217032093E+03  0.00000000000E+00 0. -1.
         -2   -1    0    0    0  501 -0.00000000000E+00 -0.00000000000E+00 -0.94650105664E+02  0.94650105664E+02  0.00000000000E+00 0.  1.
         25    2    1    2    0    0  0.39872007556E+02 -0.42187965332E+02  0.77926336477E+02  0.15839682590E+03  0.12508972433E+03 0.  0.
          5    1    3    3  502    0  0.19833973451E+01 -0.18920831535E+02  0.10458714762E+03  0.10638550454E+03  0.41800000000E+01 0.  1.
         -5    1    3    3    0  502  0.37888610210E+02 -0.23267133797E+02 -0.26660811139E+02  0.52011321358E+02  0.41800000000E+01 0. -1.
        -11    1    1    2    0    0 -0.67871424581E+02  0.20368067091E+02  0.96826747754E+01  0.71520225268E+02  0.00000000000E+00 0.  1.
         11    1    1    2    0    0  0.27999417025E+02  0.21819898241E+02 -0.10088795989E+02  0.36903375421E+02  0.00000000000E+00 0. -1.
</event>
<event>
 7    1  0.3265282E-009  0.7883251E+02  0.7561462E-02  0.1332398E+00
          1   -1    0    0  501    0  0.00000000000E+00  0.00000000000E+00  0.66452853697E+02  0.66452853697E+02  0.00000000000E+00 0. -1.
         -1   -1    0    0    0  501 -0.00000000000E+00 -0.00000000000E+00 -0.22400881869E+03  0.22400881869E+03  0.00000000000E+00 0.  1.
         25    2    1    2    0    0  0.52617849831E+02  0.17602338156E+02 -0.95542184497E+02  0.16689615638E+03  0.12509011779E+03 0.  0.
          5    1    3    3  502    0  0.63164249586E+02 -0.16665661903E+02 -0.11000629078E+03  0.12800907438E+03  0.41800000000E+01 0. -1.
         -5    1    3    3    0  502 -0.10546399755E+02  0.34268000060E+02  0.14464106286E+02  0.38887082001E+02  0.41800000000E+01 0. -1.
        -11    1    1    2    0    0 -0.25137434014E+02 -0.40272406514E+01 -0.82738076625E+02  0.86566151466E+02  0.00000000000E+00 0.  1.
         11    1    1    2    0    0 -0.27480415817E+02 -0.13575097505E+02  0.20724296133E+02  0.36999364534E+02  0.00000000000E+00 0. -1.
</event>
<event>
 7    1  0.3265282E-009  0.9871673E+02  0.7561462E-02  0.1283018E+00
         -2   -1    0    0    0  501 -0.00000000000E+00  0.00000000000E+00  0.52090723766E+02  0.52090723766E+02  0.00000000000E+00 0.  1.
          2   -1    0    0  501    0  0.00000000000E+00 -0.00000000000E+00 -0.27361717326E+03  0.27361717326E+03  0.00000000000E+00 0. -1.
         25    2    1    2    0    0 -0.35952049144E+02 -0.34109083586E+02 -0.11799563612E+03  0.17895053380E+03  0.12507735200E+03 0.  0.
          5    1    3    3  502    0 -0.39292171844E+02 -0.60237935028E+02 -0.13082899884E+03  0.14935254575E+03  0.41800000000E+01 0. -1.
         -5    1    3    3    0  502  0.33401227002E+01  0.26128851442E+02  0.12833362725E+02  0.29597988042E+02  0.41800000000E+01 0. -1.
        -11    1    1    2    0    0  0.32643635357E+01 -0.28184064835E+02 -0.10792460799E+02  0.30355803235E+02  0.00000000000E+00 0.  1.
         11    1    1    2    0    0  0.32687685608E+02  0.62293148421E+02 -0.92738352574E+02  0.11640155999E+03  0.00000000000E+00 0. -1.
</event>
<event>
 6    1  0.3265282E-009  0.9891020E+02  0.7561462E-02  0.1282604E+00
         -2   -1    0    0    0  501 -0.00000000000E+00  0.00000000000E+00  0.21716169234E+02  0.21716169234E+02  0.00000000000E+00 0.  1.
          2   -1    0    0  501    0  0.00000000000E+00 -0.00000000000E+00 -0.86245771061E+03  0.86245771061E+03  0.00000000000E+00 0. -1.
          5    1    1    2  502    0 -0.74640221100E+02 -0.58051673562E+02 -0.19968826327E+03  0.22098423993E+03  0.41800000000E+01 0.  1.
         -5    1    1    2    0  502  0.31782110894E+01  0.17830385839E+02 -0.30312324103E+03  0.30369260007E+03  0.41800000000E+01 0.  1.
        -11    1    1    2    0    0  0.46265788465E+02  0.36879330359E+02 -0.32616748850E+03  0.33149032979E+03  0.00000000000E+00 0. -1.
         11    1    1    2    0    0  0.25196221545E+02  0.33419573645E+01 -0.11762548579E+02  0.28006710058E+02  0.00000000000E+00 0.  1.
</event>
<event>
 7    1  0.3265282E-009  0.2069603E+03  0.7561462E-02  0.1143996E+00
          1   -1    0    0  501    0  0.00000000000E+00  0.00000000000E+00  0.16612565615E+03  0.16612565615E+03  0.00000000000E+00 0. -1.
         -1   -1    0    0    0  501 -0.00000000000E+00 -0.00000000000E+00 -0.30887183330E+03  0.30887183330E+03  0.00000000000E+00 0.  1.
         25    2    1    2    0    0  0.14490827132E+03  0.11901218138E+03  0.17267990355E+01  0.22541380628E+03  0.12508435480E+03 0.  0.
          5    1    3    3  502    0  0.16021697665E+03  0.12491806633E+03  0.15206187472E+02  0.20377120365E+03  0.41800000000E+01 0.  1.
         -5    1    3    3    0  502 -0.15308705330E+02 -0.59058849517E+01 -0.13479388436E+02  0.21642602629E+02  0.41800000000E+01 0.  1.
        -11    1    1    2    0    0 -0.12860857016E+03 -0.79886822482E+02 -0.76881793590E+02  0.16980247028E+03  0.00000000000E+00 0. -1.
         11    1    1    2    0    0 -0.16299701153E+02 -0.39125358894E+02 -0.67591182597E+02  0.79781212896E+02  0.00000000000E+00 0.  1.
</event>
<event>
 7    1  0.3265282E-009  0.1101146E+03  0.7561462E-02  0.1260358E+00
         -4   -1    0    0    0  501 -0.00000000000E+00  0.00000000000E+00  0.16986574091E+03  0.16986574091E+03  0.00000000000E+00 0.  1.
          4   -1    0    0  501    0  0.00000000000E+00 -0.00000000000E+00 -0.12257388765E+03  0.12257388765E+03  0.00000000000E+00 0. -1.
         25    2    1    2    0    0 -0.54078608370E+01 -0.62534475274E+02 -0.45020546190E+02  0.14699201897E+03  0.12505997963E+03 0.  0.
          5    1    3    3  502    0 -0.56995767101E+02 -0.47200116435E+02  0.37877713039E+01  0.74217168299E+02  0.41800000000E+01 0. -1.
         -5    1    3    3    0  502  0.51587906264E+02 -0.15334358840E+02 -0.48808317494E+02  0.72774850672E+02  0.41800000000E+01 0. -1.
        -11    1    1    2    0    0  0.32710169006E+02  0.12286202542E+02 -0.21675615077E+01  0.35008631110E+02  0.00000000000E+00 0. -1.
         11    1    1    2    0    0 -0.27302308169E+02  0.50248272732E+02  0.94479960965E+02  0.11043897848E+03  0.00000000000E+00 0.  1.
</event>
<event>
 7    1  0.3265282E-009  0.1730946E+03  0.7561462E-02  0.1174659E+00
         -2   -1    0    0    0  501 -0.00000000000E+00  0.00000000000E+00  0.49127580744E+02  0.49127580744E+02  0.00000000000E+00 0. -1.
          2   -1    0    0  501    0  0.00000000000E+00 -0.00000000000E+00 -0.79767243763E+03  0.79767243763E+03  0.00000000000E+00 0.  1.
         25    2    1    2    0    0 -0.13261007045E+03 -0.72673708231E+02 -0.53819046704E+03  0.57285510884E+03  0.12508836178E+03 0.  0.
          5    1    3    3  502    0  0.10361092015E+02 -0.48671863660E+02 -0.11098345119E+03  0.12170086844E+03  0.41800000000E+01 0. -1.
         -5    1    3    3    0  502 -0.14297116247E+03 -0.24001844571E+02 -0.42720701585E+03  0.45115424040E+03  0.41800000000E+01 0. -1.
        -11    1    1    2    0    0  0.10438347340E+03  0.56898023560E+02 -0.21033686629E+03  0.24160896491E+03  0.00000000000E+00 0.  1.
         11    1    1    2    0    0  0.28226597052E+02  0.15775684671E+02 -0.17523555554E-01  0.32335944629E+02  0.00000000000E+00 0. -1.
</event>
<event>
 7    1  0.3265282E-009  0.1145952E+03  0.7561462E-02  0.1252289E+00
          1   -1    0    0  501    0  0.00000000000E+00  0.00000000000E+00  0.27485282506E+03  0.27485282506E+03  0.00000000000E+00 0. -1.
         -1   -1    0    0    0  501 -0.00000000000E+00 -0.00000000000E+00 -0.64874042961E+02  0.64874042961E+02  0.00000000000E+00 0.  1.
         25    2    1    2    0    0 -0.60403809084E+02 -0.36025221945E+02  0.72726373617E+02  0.16088059402E+03  0.12508798242E+03 0.  0.
          5    1    3    3  502    0  0.33724753638E+02 -0.73791906243E+00  0.45230177057E+02  0.56578660722E+02  0.41800000000E+01 0.  1.
         -5    1    3    3    0  502 -0.94128562723E+02 -0.35287302883E+02  0.27496196560E+02  0.10430193330E+03  0.41800000000E+01 0.  1.
        -11    1    1    2    0    0  0.72317992022E+02  0.20790842980E+02  0.52095901937E+02  0.91521222242E+02  0.00000000000E+00 0.  1.
         11    1    1    2    0    0 -0.11914182938E+02  0.15234378966E+02  0.85156506543E+02  0.87325051756E+02  0.00000000000E+00 0. -1.
</event>
<event>
 7    1  0.3265282E-009  0.1084186E+03  0.7561462E-02  0.1263527E+00
         -2   -1    0    0    0  501 -0.00000000000E+00  0.00000000000E+00  0.57503719457E+02  0.57503719457E+02  0.00000000000E+00 0.  1.
          2   -1    0    0  501    0  0.00000000000E+00 -0.00000000000E+00 -0.26528239247E+03  0.26528239247E+03  0.00000000000E+00 0. -1.
         25    2    1    2    0    0 -0.38712510782E+02  0.44672540740E+02 -0.10241673106E+03  0.17213618189E+03  0.12508950367E+03 0.  0.
          5    1    3    3  502    0  0.42895249157E+02  0.23347339457E+02 -0.16641428224E+02  0.51763985485E+02  0.41800000000E+01 0. -1.
         -5    1    3    3    0  502 -0.81607759938E+02  0.21325201283E+02 -0.85775302832E+02  0.12037219641E+03  0.41800000000E+01 0. -1.
        -11    1    1    2    0    0 -0.15819132565E+02 -0.11231466015E+02 -0.79194018154E+02  0.81535779234E+02  0.00000000000E+00 0. -1.
         11    1    1    2    0    0  0.54531643346E+02 -0.33441074725E+02 -0.26167923804E+02  0.69114150802E+02  0.00000000000E+00 0.  1.
</event>
<event>
 7    1  0.3265282E-009  0.8791462E+02  0.7561462E-02  0.1307982E+00
          1   -1    0    0  501    0  0.00000000000E+00  0.00000000000E+00  0.56850358691E+03  0.56850358691E+03  0.00000000000E+00 0. -1.
         -1   -1    0    0    0  501 -0.00000000000E+00 -0.00000000000E+00 -0.26559264788E+02  0.26559264788E+02  0.00000000000E+00 0.  1.
         25    2    1    2    0    0 -0.52937127617E+02 -0.23729360886E+02  0.29641094226E+03  0.32691326214E+03  0.12508961676E+03 0.  0.
          5    1    3    3  502    0  0.20542176981E+02 -0.36258941994E+01  0.21226739455E+03  0.21333084008E+03  0.41800000000E+01 0.  1.
         -5    1    3    3    0  502 -0.73479304599E+02 -0.20103466687E+02  0.84143547715E+02  0.11358242205E+03  0.41800000000E+01 0.  1.
        -11    1    1    2    0    0  0.26940652215E+01  0.27727965808E+02  0.13971079846E+02  0.31165512146E+02  0.00000000000E+00 0.  1.
         11    1    1    2    0    0  0.50243062396E+02 -0.39986049214E+01  0.23156230001E+03  0.23698407742E+03  0.00000000000E+00 0. -1.
</event>
<event>
 7    1  0.3265282E-009  0.1252839E+03  0.7561462E-02  0.1234626E+00
         -2   -1    0    0    0  501 -0.00000000000E+00  0.00000000000E+00  0.10775391610E+03  0.10775391610E+03  0.00000000000E+00 0.  1.
          2   -1    0    0  501    0  0.00000000000E+00 -0.00000000000E+00 -0.15086671991E+03  0.15086671991E+03  0.00000000000E+00 0. -1.
         25    2    1    2    0    0 -0.50830891286E+02  0.37130121119E+02 -0.13205624188E+01  0.14003358479E+03  0.12508091614E+03 0.  0.
          5    1    3    3  502    0 -0.24711525284E+02  0.83004676142E+02  0.40981310289E+01  0.86802665980E+02  0.41800000000E+01 0. -1.
         -5    1    3    3    0  502 -0.26119366002E+02 -0.45874555023E+02 -0.54186934477E+01  0.53230918812E+02  0.41800000000E+01 0. -1.
        -11    1    1    2    0    0  0.66048180190E+02  0.48781012447E+01 -0.22866950177E+02  0.70064651491E+02  0.00000000000E+00 0. -1.
         11    1    1    2    0    0 -0.15217288904E+02 -0.42008222364E+02 -0.18925291221E+02  0.48522399730E+02  0.00000000000E+00 0.  1.
</event>
<event>
 7    1  0.3265282E-009  0.3236069E+02  0.7561462E-02  0.1573370E+00
         -1   -1    0    0    0  501 -0.00000000000E+00  0.00000000000E+00  0.13898274230E+03  0.13898274230E+03  0.00000000000E+00 0.  1.
          1   -1    0    0  501    0  0.00000000000E+00 -0.00000000000E+00 -0.86380272536E+02  0.86380272536E+02  0.00000000000E+00 0. -1.
         25    2    1    2    0    0  0.75074110880E+01 -0.13331305042E+02  0.34370221699E+02  0.13062465359E+03  0.12508958018E+03 0.  0.
          5    1    3    3  502    0 -0.40863004942E+01  0.47218869483E+01  0.79829875018E+02  0.80182762571E+02  0.41800000000E+01 0.  1.
         -5    1    3    3    0  502  0.11593711582E+02 -0.18053191990E+02 -0.45459653319E+02  0.50441891015E+02  0.41800000000E+01 0.  1.
        -11    1    1    2    0    0 -0.15487039417E+02  0.19756643501E+02  0.52918466603E+02  0.58570790159E+02  0.00000000000E+00 0.  1.
         11    1    1    2    0    0  0.79796283286E+01 -0.64253384589E+01 -0.34686218535E+02  0.36167571094E+02  0.00000000000E+00 0. -1.
</event>
<event>
 7    1  0.3265282E-009  0.1228096E+03  0.7561462E-02  0.1238533E+00
          1   -1    0    0  501    0  0.00000000000E+00  0.00000000000E+00  0.11157466712E+04  0.11157466712E+04  0.00000000000E+00 0. -1.
         -1   -1    0    0    0  501 -0.00000000000E+00 -0.00000000000E+00 -0.28279311786E+02  0.28279311786E+02  0.00000000000E+00 0.  1.
         25    2    1    2    0    0 -0.75761228968E+02  0.50448490929E+02  0.91631978437E+03  0.92928709996E+03  0.12509097835E+03 0.  0.
          5    1    3    3  502    0 -0.49714251389E+02 -0.37734990271E+02  0.35419483705E+03  0.35967609217E+03  0.41800000000E+01 0.  1.
         -5    1    3    3    0  502 -0.26046977579E+02  0.88183481199E+02  0.56212494732E+03  0.56961100779E+03  0.41800000000E+01 0.  1.
        -11    1    1    2    0    0  0.56319880985E+02 -0.37423710024E+02  0.34144485948E+02  0.75751626958E+02  0.00000000000E+00 0.  1.
         11    1    1    2    0    0  0.19441347983E+02 -0.13024780905E+02  0.13700308912E+03  0.13898725610E+03  0.00000000000E+00 0. -1.
</event>
<event>
 7    1  0.3265282E-009  0.1818109E+03  0.7561462E-02  0.1166062E+00
         -1   -1    0    0    0  501 -0.00000000000E+00  0.00000000000E+00  0.19902836288E+03  0.19902836288E+03  0.00000000000E+00 0.  1.
          1   -1    0    0  501    0  0.00000000000E+00 -0.00000000000E+00 -0.18783942355E+03  0.18783942355E+03  0.00000000000E+00 0. -1.
         25    2    1    2    0    0  0.15847614813E+03 -0.54337306886E+01 -0.11467125026E+02  0.20229230982E+03  0.12508584533E+03 0.  0.
          5    1    3    3  502    0  0.37936830044E+02  0.36557658216E+02  0.38254562846E+02  0.65242236524E+02  0.41800000000E+01 0. -1.
         -5    1    3    3    0  502  0.12053931808E+03 -0.41991388905E+02 -0.49721687873E+02  0.13705007330E+03  0.41800000000E+01 0. -1.
        -11    1    1    2    0    0 -0.90693578220E+02 -0.42382702072E+02  0.15721431023E+02  0.10133499869E+03  0.00000000000E+00 0.  1.
         11    1    1    2    0    0 -0.67782569908E+02  0.47816432761E+02  0.69346333339E+01  0.83240477922E+02  0.00000000000E+00 0. -1.
</event>
<event>
 7    1  0.3265282E-009  0.9004910E+02  0.7561462E-02  0.1302733E+00
          1   -1    0    0  501    0  0.00000000000E+00  0.00000000000E+00  0.52190517926E+03  0.52190517926E+03  0.00000000000E+00 0. -1.
         -1   -1    0    0    0  501 -0.00000000000E+00 -0.00000000000E+00 -0.25559541929E+02  0.25559541929E+02  0.00000000000E+00 0.  1.
         25    2    1    2    0    0 -0.16807143360E+02 -0.49592470332E+01  0.36198406089E+03  0.38338721805E+03  0.12508486889E+03 0.  0.
          5    1    3    3  502    0 -0.46335787341E+02 -0.38959645567E+02  0.95895596783E+02  0.11348258480E+03  0.41800000000E+01 0.  1.
         -5    1    3    3    0  502  0.29528643981E+02  0.34000398534E+02  0.26608846411E+03  0.26990463324E+03  0.41800000000E+01 0.  1.
        -11    1    1    2    0    0 -0.23980640475E+02  0.19478269250E+02  0.10122159961E+02  0.32510493888E+02  0.00000000000E+00 0.  1.
         11    1    1    2    0    0  0.40787783835E+02 -0.14519022217E+02  0.12423941648E+03  0.13156700925E+03  0.00000000000E+00 0. -1.
</event>
<event>
 7    1  0.3265282E-009  0.1638240E+03  0.7561462E-02  0.1184446E+00
          1   -1    0    0  501    0  0.00000000000E+00  0.00000000000E+00  0.66512815984E+02  0.66512815984E+02  0.00000000000E+00 0. -1.
         -1   -1    0    0    0  501 -0.00000000000E+00 -0.00000000000E+00 -0.58156885123E+03  0.58156885123E+03  0.00000000000E+00 0.  1.
         25    2    1    2    0    0 -0.15548467785E+03  0.42917708574E+01 -0.18455518264E+03  0.27184945720E+03  0.12509039770E+03 0.  0.
          5    1    3    3  502    0 -0.12854540648E+03  0.19139659229E+02 -0.19891639272E+03  0.23764564329E+03  0.41800000000E+01 0. -1.
         -5    1    3    3    0  502 -0.26939271371E+02 -0.14847888372E+02  0.14361210076E+02  0.34203813909E+02  0.41800000000E+01 0. -1.
        -11    1    1    2    0    0  0.17577008258E+02 -0.21307807217E+02 -0.12598620997E+03  0.12897867642E+03  0.00000000000E+00 0.  1.
         11    1    1    2    0    0  0.13790766959E+03  0.17016036360E+02 -0.20451464264E+03  0.24725353360E+03  0.00000000000E+00 0. -1.
</event>
<event>
 7    1  0.3265282E-009  0.3475747E+03  0.7561462E-02  0.1063615E+00
          2   -1    0    0  501    0  0.00000000000E+00  0.00000000000E+00  0.26025981386E+03  0.26025981386E+03  0.00000000000E+00 0. -1.
         -2   -1    0    0    0  501 -0.00000000000E+00 -0.00000000000E+00 -0.58883499208E+03  0.58883499208E+03  0.00000000000E+00 0.  1.
         25    2    1    2    0    0  0.31020875070E+03  0.14919101197E+03 -0.32978509894E+03  0.49284477852E+03  0.12510130762E+03 0.  0.
          5    1    3    3  502    0  0.15770834152E+03  0.66270450023E+02 -0.80650309376E+02  0.18917092359E+03  0.41800000000E+01 0. -1.
         -5    1    3    3    0  502  0.15250040918E+03  0.82920561943E+02 -0.24913478956E+03  0.30367385492E+03  0.41800000000E+01 0. -1.
        -11    1    1    2    0    0 -0.16608832371E+03 -0.43548138351E+02 -0.31555451647E+02  0.17457811477E+03  0.00000000000E+00 0. -1.
         11    1    1    2    0    0 -0.14412042699E+03 -0.10564287362E+03  0.32765372367E+02  0.18167191265E+03  0.00000000000E+00 0.  1.
</event>
<event>
 7    1  0.3265282E-009  0.1123993E+03  0.7561462E-02  0.1256190E+00
          1   -1    0    0  501    0  0.00000000000E+00  0.00000000000E+00  0.20915260799E+03  0.20915260799E+03  0.00000000000E+00 0. -1.
         -1   -1    0    0    0  501 -0.00000000000E+00 -0.00000000000E+00 -0.74431536797E+02  0.74431536797E+02  0.00000000000E+00 0.  1.
         25    2    1    2    0    0 -0.11701296201E+02 -0.34222729375E+02  0.18930726149E+02  0.13158336579E+03  0.12509074394E+03 0.  0.
          5    1    3    3  502    0  0.54719174482E+02 -0.35460279659E+01  0.19357214375E+02  0.58300398958E+02  0.41800000000E+01 0. -1.
         -5    1    3    3    0  502 -0.66420470683E+02 -0.30676701409E+02 -0.42648822553E+00  0.73282966829E+02  0.41800000000E+01 0. -1.
        -11    1    1    2    0    0  0.13601534390E+02  0.64635857779E+02  0.92427413338E+02  0.11360291627E+03  0.00000000000E+00 0. -1.
         11    1    1    2    0    0 -0.19002381892E+01 -0.30413128405E+02  0.23362931709E+02  0.38397862735E+02  0.00000000000E+00 0.  1.
</event>
<event>
 7    1  0.3265282E-009  0.5996354E+02  0.7561462E-02  0.1397985E+00
         -3   -1    0    0    0  501 -0.00000000000E+00  0.00000000000E+00  0.55736835311E+02  0.55736835311E+02  0.00000000000E+00 0.  1.
          3   -1    0    0  501    0  0.00000000000E+00 -0.00000000000E+00 -0.22235251968E+03  0.22235251968E+03  0.00000000000E+00 0. -1.
         25    2    1    2    0    0  0.68025138345E+01 -0.25636114630E+02 -0.96210282767E+02  0.16002244489E+03  0.12508908742E+03 0.  0.
          5    1    3    3  502    0  0.28402495912E+02 -0.49100939730E+02 -0.11092006172E+03  0.12465286418E+03  0.41800000000E+01 0. -1.
         -5    1    3    3    0  502 -0.21599982077E+02  0.23464825100E+02  0.14709778954E+02  0.35369580710E+02  0.41800000000E+01 0. -1.
        -11    1    1    2    0    0 -0.10819293297E+02  0.99757967811E+01  0.20777788383E+02  0.25461541960E+02  0.00000000000E+00 0.  1.
         11    1    1    2    0    0  0.40167794630E+01  0.15660317849E+02 -0.91183189983E+02  0.92605368138E+02  0.00000000000E+00 0. -1.
</event>
<event>
 7    1  0.3265282E-009  0.9950175E+02  0.7561462E-02  0.1281347E+00
         -2   -1    0    0    0  501 -0.00000000000E+00  0.00000000000E+00  0.20901338406E+02  0.20901338406E+02  0.00000000000E+00 0.  1.
          2   -1    0    0  501    0  0.00000000000E+00 -0.00000000000E+00 -0.68967839880E+03  0.68967839880E+03  0.00000000000E+00 0. -1.
         25    2    1    2    0    0  0.13658841353E+02  0.30956578081E+02 -0.49316447385E+03  0.50990466224E+03  0.12508674043E+03 0.  0.
          5    1    3    3  502    0  0.32516324913E+02  0.67861679005E+02 -0.19877497227E+03  0.21258287999E+03  0.41800000000E+01 0.  1.
         -5    1    3    3    0  502 -0.18857483560E+02 -0.36905100925E+02 -0.29438950158E+03  0.29732178225E+03  0.41800000000E+01 0.  1.
        -11    1    1    2    0    0 -0.37860829246E+02 -0.40976127412E+02 -0.59175017575E+02  0.81327536013E+02  0.00000000000E+00 0.  1.
         11    1    1    2    0    0  0.24201987892E+02  0.10019549331E+02 -0.11643756897E+03  0.11934753895E+03  0.00000000000E+00 0. -1.
</event>
<event>
 7    1  0.3265282E-009  0.1135676E+03  0.7561462E-02  0.1254102E+00
          2   -1    0    0  501    0  0.00000000000E+00  0.00000000000E+00  0.14358890523E+03  0.14358890523E+03  0.00000000000E+00 0. -1.
         -2   -1    0    0    0  501 -0.00000000000E+00 -0.00000000000E+00 -0.13481167138E+03  0.13481167138E+03  0.00000000000E+00 0.  1.
         25    2    1    2    0    0  0.87817316303E+02  0.82611183418E+01 -0.10777197487E+02  0.15344034053E+03  0.12509061914E+03 0.  0.
          5    1    3    3  502    0  0.25237858809E+02 -0.25141756201E+02  0.48901156103E+02  0.60645303943E+02  0.41800000000E+01 0. -1.
         -5    1    3    3    0  502  0.62579457494E+02  0.33402874543E+02 -0.59678353590E+02  0.92795036587E+02  0.41800000000E+01 0. -1.
        -11    1    1    2    0    0 -0.80801857628E+02 -0.38258013452E+02  0.26763780329E+02  0.93321571606E+02  0.00000000000E+00 0.  1.
         11    1    1    2    0    0 -0.70154586743E+01  0.29996895110E+02 -0.72093489893E+01  0.31638664471E+02  0.00000000000E+00 0. -1.
</event>
<event>
 7    1  0.3265282E-009  0.1048118E+03  0.7561462E-02  0.1270491E+00
         -2   -1    0    0    0  501 -0.00000000000E+00  0.00000000000E+00  0.25022251363E+02  0.25022251363E+02  0.00000000000E+00 0.  1.
          2   -1    0    0  501    0  0.00000000000E+00 -0.00000000000E+00 -0.68041658909E+03  0.68041658909E+03  0.00000000000E+00 0. -1.
         25    2    1    2    0    0  0.64768566401E+02 -0.63504273859E+02 -0.34510333006E+03  0.37811437082E+03  0.12508560674E+03 0.  0.
          5    1    3    3  502    0  0.73582726109E+02 -0.38668239979E+02 -0.34113069699E+03  0.35113711737E+03  0.41800000000E+01 0.  1.
         -5    1    3    3    0  502 -0.88141597077E+01 -0.24836033881E+02 -0.39726330634E+01  0.26977253450E+02  0.41800000000E+01 0.  1.
        -11    1    1    2    0    0 -0.66429373001E+02  0.42983089207E+02 -0.19914163287E+03  0.21428438464E+03  0.00000000000E+00 0.  1.
         11    1    1    2    0    0  0.16608065999E+01  0.20521184653E+02 -0.11114937480E+03  0.11304008500E+03  0.00000000000E+00 0. -1.
</event>
<event>
 7    1  0.3265282E-009  0.1284403E+03  0.7561462E-02  0.1229789E+00
         -1   -1    0    0    0  501 -0.00000000000E+00  0.00000000000E+00  0.49637403768E+02  0.49637403768E+02  0.00000000000E+00 0.  1.
          1   -1    0    0  501    0  0.00000000000E+00 -0.00000000000E+00 -0.42985784133E+03  0.42985784133E+03  0.00000000000E+00 0. -1.
         25    2    1    2    0    0  0.16164791065E+02  0.88153425248E+02 -0.14623499808E+03  0.21228242903E+03  0.12508728215E+03 0.  0.
          5    1    3    3  502    0 -0.44123610898E+02  0.64089488294E+02 -0.11791794234E+03  0.14133813737E+03  0.41800000000E+01 0.  1.
         -5    1    3    3    0  502  0.60288401963E+02  0.24063936954E+02 -0.28317055738E+02  0.70944291657E+02  0.41800000000E+01 0.  1.
        -11    1    1    2    0    0 -0.38321801770E+02 -0.22094356628E+02 -0.15818882269E+03  0.16425719074E+03  0.00000000000E+00 0. -1.
         11    1    1    2    0    0  0.22157010704E+02 -0.66059068620E+02 -0.75796616784E+02  0.10295562533E+03  0.00000000000E+00 0.  1.
</event>
<event>
 7    1  0.3265282E-009  0.1141576E+03  0.7561462E-02  0.1253059E+00
         -2   -1    0    0    0  501 -0.00000000000E+00  0.00000000000E+00  0.39055032469E+02  0.39055032469E+02  0.00000000000E+00 0. -1.
          2   -1    0    0  501    0  0.00000000000E+00 -0.00000000000E+00 -0.41678645839E+03  0.41678645839E+03  0.00000000000E+00 0.  1.
         25    2    1    2    0    0 -0.22066821027E+02 -0.44623775746E+02 -0.13339321386E+03  0.18952408541E+03  0.12508958188E+03 0.  0.
          5    1    3    3  502    0 -0.64822734097E+02  0.79707928849E+01 -0.52467449613E+02  0.83879831091E+02  0.41800000000E+01 0. -1.
         -5    1    3    3    0  502  0.42755913070E+02 -0.52594568631E+02 -0.80925764251E+02  0.10564425432E+03  0.41800000000E+01 0. -1.
        -11    1    1    2    0    0  0.45335866874E+02  0.80040269724E+00 -0.58761232491E+02  0.74221721305E+02  0.00000000000E+00 0. -1.
         11    1    1    2    0    0 -0.23269045847E+02  0.43823373049E+02 -0.18557697957E+03  0.19209568414E+03  0.00000000000E+00 0.  1.
</event>
<event>
 7    1  0.3265282E-009  0.1132909E+03  0.7561462E-02  0.1254594E+00
          2   -1    0    0  501    0  0.00000000000E+00  0.00000000000E+00  0.13410526833E+03  0.13410526833E+03  0.00000000000E+00 0. -1.
         -2   -1    0    0    0  501 -0.00000000000E+00 -0.00000000000E+00 -0.12099247241E+03  0.12099247241E+03  0.00000000000E+00 0.  1.
         25    2    1    2    0    0  0.56639592243E+02 -0.36615015259E+01 -0.42694876821E+02  0.14384519099E+03  0.12508851451E+03 0.  0.
          5    1    3    3  502    0  0.15291402032E+02 -0.61137227625E+02 -0.45772522708E+01  0.63324649357E+02  0.41800000000E+01 0. -1.
         -5    1    3    3    0  502  0.41348190211E+02  0.57475726099E+02 -0.38117624551E+02  0.80520541638E+02  0.41800000000E+01 0. -1.
        -11    1    1    2    0    0 -0.59414809716E+01 -0.30687659131E+02  0.49452033795E+01  0.31646305560E+02  0.00000000000E+00 0.  1.
         11    1    1    2    0    0 -0.50698111271E+02  0.34349160657E+02  0.50862469356E+02  0.79606244185E+02  0.00000000000E+00 0. -1.
</event>
<event>
 7    1  0.3265282E-009  0.9316943E+02  0.7561462E-02  0.1295353E+00
          2   -1    0    0  501    0  0.00000000000E+00  0.00000000000E+00  0.28515993125E+03  0.28515993125E+03  0.00000000000E+00 0. -1.
         -2   -1    0    0    0  501 -0.00000000000E+00 -0.00000000000E+00 -0.55636916748E+02  0.55636916748E+02  0.00000000000E+00 0.  1.
         25    2    1    2    0    0  0.58608521644E+02  0.60382515873E+01  0.18291447213E+03  0.22929623503E+03  0.12509052719E+03 0.  0.
          5    1    3    3  502    0  0.74058803138E+02  0.12673481284E+02  0.39784039845E+02  0.85120888602E+02  0.41800000000E+01 0. -1.
         -5    1    3    3    0  502 -0.15450281494E+02 -0.66352296969E+01  0.14313043229E+03  0.14417534643E+03  0.41800000000E+01 0. -1.
        -11    1    1    2    0    0 -0.65278290465E+01 -0.34018909627E+02 -0.23789127428E+01  0.34721146152E+02  0.00000000000E+00 0.  1.
         11    1    1    2    0    0 -0.52080692597E+02  0.27980658040E+02  0.48987455112E+02  0.76779466813E+02  0.00000000000E+00 0. -1.
</event>
<event>
 7    1  0.3265282E-009  0.9109417E+02  0.7561462E-02  0.1300223E+00
         -2   -1    0    0    0  501 -0.00000000000E+00  0.00000000000E+00  0.16462800482E+02  0.16462800482E+02  0.00000000000E+00 0.  1.
          2   -1    0    0  501    0  0.00000000000E+00 -0.00000000000E+00 -0.82475921397E+03  0.82475921397E+03  0.00000000000E+00 0. -1.
         25    2    1    2    0    0 -0.42578850291E+02  0.15286657709E+02 -0.44641902585E+03  0.46581485307E+03  0.12508753058E+03 0.  0.
          5    1    3    3  502    0  0.25374492730E+02  0.11188211197E+02 -0.32770364334E+03  0.32890149165E+03  0.41800000000E+01 0.  1.
         -5    1    3    3    0  502 -0.67953343020E+02  0.40984465120E+01 -0.11871538251E+03  0.13691336142E+03  0.41800000000E+01 0.  1.
        -11    1    1    2    0    0  0.42428577094E+01  0.27883025698E+02 -0.43540334020E+02  0.51877024300E+02  0.00000000000E+00 0. -1.
         11    1    1    2    0    0  0.38335992581E+02 -0.43169683407E+02 -0.31833705362E+03  0.32353013708E+03  0.00000000000E+00 0.  1.
</event>
<event>
 7    1  0.3265282E-009  0.2704925E+03  0.7561462E-02  0.1100998E+00
         -1   -1    0    0    0  501 -0.00000000000E+00  0.00000000000E+00  0.14668086736E+03  0.14668086736E+03  0.00000000000E+00 0.  1.
          1   -1    0    0  501    0  0.00000000000E+00 -0.00000000000E+00 -0.61279537662E+03  0.61279537662E+03  0.00000000000E+00 0. -1.
         25    2    1    2    0    0 -0.16916426098E+03 -0.19662109989E+03 -0.10671907514E+03  0.30710425394E+03  0.12509059789E+03 0.  0.
          5    1    3    3  502    0 -0.51320705830E+01 -0.75370269165E+02  0.24681855892E+01  0.75700594202E+02  0.41800000000E+01 0. -1.
         -5    1    3    3    0  502 -0.16403219039E+03 -0.12125083072E+03 -0.10918726073E+03  0.23140365974E+03  0.41800000000E+01 0. -1.
        -11    1    1    2    0    0  0.10259799946E+03  0.95049050496E+02 -0.26084629044E+03  0.29597543603E+03  0.00000000000E+00 0. -1.
         11    1    1    2    0    0  0.66566261513E+02  0.10157204939E+03 -0.98549143670E+02  0.15639655401E+03  0.00000000000E+00 0.  1.
</event>
<event>
 6    1  0.3265282E-009  0.1065000E+03  0.7561462E-02  0.1267192E+00
         -1   -1    0    0    0  501 -0.00000000000E+00  0.00000000000E+00  0.19075748015E+02  0.19075748015E+02  0.00000000000E+00 0.  1.
          1   -1    0    0  501    0  0.00000000000E+00 -0.00000000000E+00 -0.75599538743E+03  0.75599538743E+03  0.00000000000E+00 0. -1.
          5    1    1    2  502    0 -0.63161088128E+01  0.26061321797E+02 -0.25394130116E+03  0.25538743618E+03  0.41800000000E+01 0. -1.
         -5    1    1    2    0  502  0.25758610114E+02 -0.79439574950E+02 -0.15614777463E+03  0.17712637292E+03  0.41800000000E+01 0. -1.
        -11    1    1    2    0    0  0.17451406828E+02  0.61955635720E+02 -0.21927229588E+03  0.22852437975E+03  0.00000000000E+00 0.  1.
         11    1    1    2    0    0 -0.36893908129E+02 -0.85773825667E+01 -0.10755826774E+03  0.11403294659E+03  0.00000000000E+00 0. -1.
</event>
<event>
 7    1  0.3265282E-009  0.2533084E+03  0.7561462E-02  0.1111232E+00
         -1   -1    0    0    0  501 -0.00000000000E+00  0.00000000000E+00  0.19317760088E+03  0.19317760088E+03  0.00000000000E+00 0.  1.
          1   -1    0    0  501    0  0.00000000000E+00 -0.00000000000E+00 -0.35345723054E+03  0.35345723054E+03  0.00000000000E+00 0. -1.
         25    2    1    2    0    0  0.23631832063E+03  0.26131995703E+02 -0.92610993384E+02  0.28417175634E+03  0.12509021201E+03 0.  0.
          5    1    3    3  502    0  0.14735923800E+03 -0.40500021583E+02 -0.79092609254E+02  0.17212817901E+03  0.41800000000E+01 0. -1.
         -5    1    3    3    0  502  0.88959082634E+02  0.66632017287E+02 -0.13518384130E+02  0.11204357733E+03  0.41800000000E+01 0. -1.
        -11    1    1    2    0    0 -0.86928497990E+02 -0.32954976916E+02 -0.64013175623E+02  0.11287285289E+03  0.00000000000E+00 0. -1.
         11    1    1    2    0    0 -0.14938982264E+03  0.68229812127E+01 -0.36554606518E+01  0.14959022219E+03  0.00000000000E+00 0.  1.
</event>
<event>
 7    1  0.3265282E-009  0.1048818E+03  0.7561462E-02  0.1270353E+00
          2   -1    0    0  501    0  0.00000000000E+00  0.00000000000E+00  0.22615620677E+03  0.22615620677E+03  0.00000000000E+00 0. -1.
         -2   -1    0    0    0  501 -0.00000000000E+00 -0.00000000000E+00 -0.78346633913E+02  0.78346633913E+02  0.00000000000E+00 0.  1.
         25    2    1    2    0    0  0.47351670738E+01  0.53934276981E+02  0.20063484279E+02  0.13777511128E+03  0.12509240523E+03 0.  0.
          5    1    3    3  502    0  0.48557242826E+02  0.67464733740E+02 -0.83768866462E+01  0.83647718196E+02  0.41800000000E+01 0. -1.
         -5    1    3    3    0  502 -0.43822075752E+02 -0.13530456759E+02  0.28440370926E+02  0.54127393081E+02  0.41800000000E+01 0. -1.
        -11    1    1    2    0    0  0.22940625241E+02 -0.46460891332E+02  0.12796727323E+03  0.13805980490E+03  0.00000000000E+00 0. -1.
         11    1    1    2    0    0 -0.27675792315E+02 -0.74733856491E+01 -0.22118464901E+00  0.28667924514E+02  0.00000000000E+00 0.  1.
</event>
<event>
 7    1  0.3265282E-009  0.1154071E+03  0.7561462E-02  0.1250872E+00
          1   -1    0    0  501    0  0.00000000000E+00  0.00000000000E+00  0.40166075583E+03  0.40166075583E+03  0.00000000000E+00 0. -1.
         -1   -1    0    0    0  501 -0.00000000000E+00 -0.00000000000E+00 -0.12778532606E+03  0.12778532606E+03  0.00000000000E+00 0.  1.
         25    2    1    2    0    0 -0.11341290513E+02  0.80324699169E+02  0.35286131142E+03  0.38306279375E+03  0.12508124036E+03 0.  0.
          5    1    3    3  502    0 -0.42092075161E+02 -0.45223974556E+01  0.43762032101E+02  0.61030998057E+02  0.41800000000E+01 0. -1.
         -5    1    3    3    0  502  0.30750784648E+02  0.84847096624E+02  0.30909927932E+03  0.32203179570E+03  0.41800000000E+01 0. -1.
        -11    1    1    2    0    0  0.33291239894E+02 -0.40217545423E+02  0.32311934473E+01  0.52308682115E+02  0.00000000000E+00 0.  1.
         11    1    1    2    0    0 -0.21949949381E+02 -0.40107153746E+02 -0.82217075098E+02  0.94074606016E+02  0.00000000000E+00 0. -1.
</event>
<event>
 7    1  0.3265282E-009  0.1424969E+03  0.7561462E-02  0.1210008E+00
          2   -1    0    0  501    0  0.00000000000E+00  0.00000000000E+00  0.26897371354E+03  0.26897371354E+03  0.00000000000E+00 0. -1.
         -2   -1    0    0    0  501 -0.00000000000E+00 -0.00000000000E+00 -0.12273926382E+03  0.12273926382E+03  0.00000000000E+00 0.  1.
         25    2    1    2    0    0  0.12226492445E+03 -0.11430917091E+02 -0.71797229029E+01  0.17542917609E+03  0.12507785490E+03 0.  0.
          5    1    3    3  502    0  0.75851521934E+02  0.17149002318E+02  0.52942222597E+02  0.94169490780E+02  0.41800000000E+01 0. -1.
         -5    1    3    3    0  502  0.46413402513E+02 -0.28579919409E+02 -0.60121945500E+02  0.81259685312E+02  0.41800000000E+01 0. -1.
        -11    1    1    2    0    0 -0.11259122268E+03 -0.24510293960E+02  0.11504472864E+03  0.16282760061E+03  0.00000000000E+00 0.  1.
         11    1    1    2    0    0 -0.96737017719E+01  0.35941211051E+02  0.38369443987E+02  0.53456200666E+02  0.00000000000E+00 0. -1.
</event>
<event>
 7    1  0.3265282E-009  0.1103466E+03  0.7561462E-02  0.1259929E+00
         -1   -1    0    0    0  501 -0.00000000000E+00  0.00000000000E+00  0.16882858024E+02  0.16882858024E+02  0.00000000000E+00 0.  1.
          1   -1    0    0  501    0  0.00000000000E+00 -0.00000000000E+00 -0.75113677997E+03  0.75113677997E+03  0.00000000000E+00 0. -1.
         25    2    1    2    0    0 -0.24027995898E+02 -0.15170890074E+02 -0.47374004922E+03  0.49079905025E+03  0.12508626223E+03 0.  0.
          5    1    3    3  502    0 -0.38247381766E+02 -0.64899203820E+02 -0.30914896180E+03  0.31822212659E+03  0.41800000000E+01 0. -1.
         -5    1    3    3    0  502  0.14219385868E+02  0.49728313746E+02 -0.16459108742E+03  0.17257692366E+03  0.41800000000E+01 0. -1.
        -11    1    1    2    0    0  0.42171741014E+01 -0.37161321842E+02 -0.12863236006E+03  0.13395907006E+03  0.00000000000E+00 0. -1.
         11    1    1    2    0    0  0.19810821797E+02  0.52332211916E+02 -0.13188151267E+03  0.14326151768E+03  0.00000000000E+00 0.  1.
</event>
<event>
 7    1  0.3265282E-009  0.1181995E+03  0.7561462E-02  0.1246097E+00
         -2   -1    0    0    0  501 -0.00000000000E+00  0.00000000000E+00  0.55972045455E+02  0.55972045455E+02  0.00000000000E+00 0.  1.
          2   -1    0    0  501    0  0.00000000000E+00 -0.00000000000E+00 -0.25512678037E+03  0.25512678037E+03  0.00000000000E+00 0. -1.
         25    2    1    2    0    0 -0.14959354273E+02 -0.47236225679E+02 -0.97214380219E+02  0.16599221510E+03  0.12509091276E+03 0.  0.
          5    1    3    3  502    0  0.22333226509E+02  0.35661572397E+02 -0.20586850205E+02  0.47029900632E+02  0.41800000000E+01 0.  1.
         -5    1    3    3    0  502 -0.37292580782E+02 -0.82897798077E+02 -0.76627530015E+02  0.11896231447E+03  0.41800000000E+01 0.  1.
        -11    1    1    2    0    0  0.19733649410E+02 -0.24367379146E+02 -0.27473234572E+02  0.41688903840E+02  0.00000000000E+00 0. -1.
         11    1    1    2    0    0 -0.47742951373E+01  0.71603604826E+02 -0.74467120125E+02  0.10341770689E+03  0.00000000000E+00 0.  1.
</event>
<event>
 7    1  0.3265282E-009  0.1125948E+03  0.7561462E-02  0.1255839E+00
          1   -1    0    0  501    0  0.00000000000E+00  0.00000000000E+00  0.15878937566E+03  0.15878937566E+03  0.00000000000E+00 0.  1.
         -1   -1    0    0    0  501 -0.00000000000E+00 -0.00000000000E+00 -0.13630521509E+03  0.13630521509E+03  0.00000000000E+00 0. -1.
         25    2    1    2    0    0 -0.29207781889E+02  0.64771440371E+02  0.81373296628E+02  0.16528093755E+03  0.12509093054E+03 0.  0.
          5    1    3    3  502    0 -0.62421992189E+02  0.21395028041E+02 -0.12616228162E+01  0.66131054928E+02  0.41800000000E+01 0.  1.
         -5    1    3    3    0  502  0.33214210300E+02  0.43376412330E+02  0.82634919445E+02  0.99149882623E+02  0.41800000000E+01 0.  1.
        -11    1    1    2    0    0  0.31392225735E+01 -0.75877699514E+02 -0.14749727738E+02  0.77361711914E+02  0.00000000000E+00 0.  1.
         11    1    1    2    0    0  0.26068559316E+02  0.11106259143E+02 -0.44139408329E+02  0.52451941285E+02  0.00000000000E+00 0. -1.
</event>
<event>
 7    1  0.3265282E-009  0.9959953E+02  0.7561462E-02  0.1281140E+00
          1   -1    0    0  501    0  0.00000000000E+00  0.00000000000E+00  0.42495006447E+03  0.42495006447E+03  0.00000000000E+00 0. -1.
         -1   -1    0    0    0  501 -0.00000000000E+00 -0.00000000000E+00 -0.35585546880E+02  0.35585546880E+02  0.00000000000E+00 0.  1.
         25    2    1    2    0    0 -0.64468653628E+02 -0.26105076450E+02  0.20609473503E+03  0.25092011907E+03  0.12509270175E+03 0.  0.
          5    1    3    3  502    0 -0.70115610431E+02  0.17855426094E+02  0.19038221485E+03  0.20371027269E+03  0.41800000000E+01 0.  1.
         -5    1    3    3    0  502  0.56469568031E+01 -0.43960502544E+02  0.15712520178E+02  0.47209846382E+02  0.41800000000E+01 0.  1.
        -11    1    1    2    0    0  0.21742734402E+02  0.32400164981E+02  0.26904739956E+02  0.47396014834E+02  0.00000000000E+00 0.  1.
         11    1    1    2    0    0  0.42725919226E+02 -0.62950885309E+01  0.15636504260E+03  0.16221947744E+03  0.00000000000E+00 0. -1.
</event>
<event>
 7    1  0.3265282E-009  0.7865325E+02  0.7561462E-02  0.1332917E+00
          2   -1    0    0  501    0  0.00000000000E+00  0.00000000000E+00  0.11420191079E+03  0.11420191079E+03  0.00000000000E+00 0. -1.
         -2   -1    0    0    0  501 -0.00000000000E+00 -0.00000000000E+00 -0.12210069864E+03  0.12210069864E+03  0.00000000000E+00 0.  1.
         25    2    1    2    0    0  0.92940412074E+01 -0.33357763285E+02  0.30184831925E+02  0.13325879366E+03  0.12509061689E+03 0.  0.
          5    1    3    3  502    0 -0.30781954554E+02  0.23718021022E+02 -0.23093364756E+02  0.45396576337E+02  0.41800000000E+01 0. -1.
         -5    1    3    3    0  502  0.40075995761E+02 -0.57075784307E+02  0.53278196681E+02  0.87862217318E+02  0.41800000000E+01 0. -1.
        -11    1    1    2    0    0 -0.20729894336E+02  0.11544099365E+02  0.25515002042E+02  0.34842647410E+02  0.00000000000E+00 0. -1.
         11    1    1    2    0    0  0.11435853129E+02  0.21813663919E+02 -0.63598621810E+02  0.68201168366E+02  0.00000000000E+00 0.  1.
</event>
<event>
 7    1  0.3265282E-009  0.1153055E+03  0.7561462E-02  0.1251049E+00
          2   -1    0    0  501    0  0.00000000000E+00  0.00000000000E+00  0.11039081003E+03  0.11039081003E+03  0.00000000000E+00 0. -1.
         -2   -1    0    0    0  501 -0.00000000000E+00 -0.00000000000E+00 -0.21267351219E+03  0.21267351219E+03  0.00000000000E+00 0.  1.
         25    2    1    2    0    0  0.39057115071E+02  0.26336522891E+02  0.47538626053E+02  0.14187088098E+03  0.12509338603E+03 0.  0.
          5    1    3    3  502    0  0.20599559194E+02 -0.50159201710E+02  0.25359462036E+02  0.60007183486E+02  0.41800000000E+01 0.  1.
         -5    1    3    3    0  502  0.18457555878E+02  0.76495724601E+02  0.22179164017E+02  0.81863697496E+02  0.41800000000E+01 0.  1.
        -11    1    1    2    0    0  0.42475433185E+01  0.27786150065E+02 -0.70253355669E+02  0.75667996818E+02  0.00000000000E+00 0.  1.
         11    1    1    2    0    0 -0.43304658390E+02 -0.54122672956E+02 -0.79567972546E+02  0.10552544443E+03  0.00000000000E+00 0. -1.
</event>
<event>
 7    1  0.3265282E-009  0.1084826E+03  0.7561462E-02  0.1263406E+00
          1   -1    0    0  501    0  0.00000000000E+00  0.00000000000E+00  0.66229345756E+03  0.66229345756E+03  0.00000000000E+00 0. -1.
         -1   -1    0    0    0  501 -0.00000000000E+00 -0.00000000000E+00 -0.19260828041E+02  0.19260828041E+02  0.00000000000E+00 0.  1.
         25    2    1    2    0    0  0.24776916673E+02 -0.11950820467E+02  0.45752726496E+03  0.47511597364E+03  0.12508905831E+03 0.  0.
          5    1    3    3  502    0 -0.38823662016E+02  0.30765409528E+02  0.21814940458E+03  0.22374186527E+03  0.41800000000E+01 0. -1.
         -5    1    3    3    0  502  0.63600578689E+02 -0.42716229995E+02  0.23937786038E+03  0.25137410836E+03  0.41800000000E+01 0. -1.
        -11    1    1    2    0    0 -0.50886283898E+02 -0.14950481465E+02  0.10517263526E+03  0.11778885343E+03  0.00000000000E+00 0.  1.
         11    1    1    2    0    0  0.26109367225E+02  0.26901301931E+02  0.80332729300E+02  0.88649458539E+02  0.00000000000E+00 0. -1.
</event>
<event>
 7    1  0.3265282E-009  0.9565942E+02  0.7561462E-02  0.1289698E+00
         -1   -1    0    0    0  501 -0.00000000000E+00  0.00000000000E+00  0.17067283122E+03  0.17067283122E+03  0.00000000000E+00 0.  1.
          1   -1    0    0  501    0  0.00000000000E+00 -0.00000000000E+00 -0.83184870497E+02  0.83184870497E+02  0.00000000000E+00 0. -1.
         25    2    1    2    0    0 -0.97125155112E+00  0.22442497624E+02  0.10009240217E+03  0.16177400500E+03  0.12509088972E+03 0.  0.
          5    1    3    3  502    0  0.11904314692E+02  0.72898334506E+02  0.67855372140E+02  0.10038776723E+03  0.41800000000E+01 0. -1.
         -5    1    3    3    0  502 -0.12875566243E+02 -0.50455836881E+02  0.32237030031E+02  0.61386237763E+02  0.41800000000E+01 0. -1.
        -11    1    1    2    0    0 -0.13257233021E+02  0.17924976911E+02  0.26135961433E+02  0.34353275021E+02  0.00000000000E+00 0.  1.
         11    1    1    2    0    0  0.14228484572E+02 -0.40367474536E+02 -0.38740402883E+02  0.57730421696E+02  0.00000000000E+00 0. -1.
</event>
<event>
 7    1  0.3265282E-009  0.8368213E+02  0.7561462E-02  0.1318915E+00
         -2   -1    0    0    0  501 -0.00000000000E+00  0.00000000000E+00  0.64584697199E+02  0.64584697199E+02  0.00000000000E+00 0.  1.
          2   -1    0    0  501    0  0.00000000000E+00 -0.00000000000E+00 -0.45803873381E+03  0.45803873381E+03  0.00000000000E+00 0. -1.
         25    2    1    2    0    0  0.16953138216E+01  0.61693173488E+02 -0.28709973139E+02  0.14240267730E+03  0.12508132635E+03 0.  0.
          5    1    3    3  502    0  0.15162154592E+02  0.28118959248E+02  0.47814067093E+02  0.57656085655E+02  0.41800000000E+01 0.  1.
         -5    1    3    3    0  502 -0.13466840770E+02  0.33574214240E+02 -0.76524040231E+02  0.84746591645E+02  0.41800000000E+01 0.  1.
        -11    1    1    2    0    0  0.32562147606E+02 -0.54863643887E+02 -0.15546867403E+03  0.16805005648E+03  0.00000000000E+00 0.  1.
         11    1    1    2    0    0 -0.34257461428E+02 -0.68295296016E+01 -0.20927538943E+03  0.21217069722E+03  0.00000000000E+00 0. -1.
</event>
<event>
 7    1  0.3265282E-009  0.1025117E+03  0.7561462E-02  0.1275101E+00
          1   -1    0    0  501    0  0.00000000000E+00  0.00000000000E+00  0.30904484330E+03  0.30904484330E+03  0.00000000000E+00 0.  1.
         -1   -1    0    0    0  501 -0.00000000000E+00 -0.00000000000E+00 -0.36937920465E+02  0.36937920465E+02  0.00000000000E+00 0. -1.
         25    2    1    2    0    0 -0.20050783718E+02 -0.22000887931E+01  0.15904010835E+03  0.20334266836E+03  0.12509040887E+03 0.  0.
          5    1    3    3  502    0  0.39469192782E+01 -0.61899037496E+02  0.81288347751E+02  0.10233443650E+03  0.41800000000E+01 0. -1.
         -5    1    3    3    0  502 -0.23997702996E+02  0.59698948702E+02  0.77751760600E+02  0.10100823185E+03  0.41800000000E+01 0. -1.
        -11    1    1    2    0    0  0.21472313261E+02  0.37414122854E+02  0.30397360374E+02  0.52771927608E+02  0.00000000000E+00 0. -1.
         11    1    1    2    0    0 -0.14215295438E+01 -0.35214034061E+02  0.82669454111E+02  0.89868167803E+02  0.00000000000E+00 0.  1.
</event>
<event>
 7    1  0.3265282E-009  0.1044261E+03  0.7561462E-02  0.1271254E+00
         -2   -1    0    0    0  501 -0.00000000000E+00  0.00000000000E+00  0.19188453798E+02  0.19188453798E+02  0.00000000000E+00 0.  1.
          2   -1    0    0  501    0  0.00000000000E+00 -0.00000000000E+00 -0.65644925452E+03  0.65644925452E+03  0.00000000000E+00 0. -1.
         25    2    1    2    0    0 -0.13628439706E+02 -0.85313350101E+01 -0.43808911310E+03  0.45588152935E+03  0.12508948693E+03 0.  0.
          5    1    3    3  502    0  0.41989655790E+02 -0.36464016747E+02 -0.28793000385E+03  0.29328129028E+03  0.41800000000E+01 0. -1.
         -5    1    3    3    0  502 -0.55618095496E+02  0.27932681736E+02 -0.15015910924E+03  0.16260023906E+03  0.41800000000E+01 0. -1.
        -11    1    1    2    0    0 -0.19752972565E+02  0.40137030297E+02 -0.74743233832E+02  0.87107474592E+02  0.00000000000E+00 0.  1.
         11    1    1    2    0    0  0.33381412271E+02 -0.31605695287E+02 -0.12442845380E+03  0.13264870438E+03  0.00000000000E+00 0. -1.
</event>
<event>
 7    1  0.3265282E-009  0.7514361E+02  0.7561462E-02  0.1343427E+00
          1   -1    0    0  501    0  0.00000000000E+00  0.00000000000E+00  0.52172247023E+02  0.52172247023E+02  0.00000000000E+00 0. -1.
         -1   -1    0    0    0  501 -0.00000000000E+00 -0.00000000000E+00 -0.28744241928E+03  0.28744241928E+03  0.00000000000E+00 0.  1.
         25    2    1    2    0    0 -0.91839825999E+00  0.52607921864E+02 -0.95975850885E+02  0.16621873461E+03  0.12509543111E+03 0.  0.
          5    1    3    3  502    0 -0.22708388621E+02  0.17448581553E+02 -0.11636749241E+03  0.11991242472E+03  0.41800000000E+01 0. -1.
         -5    1    3    3    0  502  0.21789990361E+02  0.35159340311E+02  0.20391641530E+02  0.46306309886E+02  0.41800000000E+01 0. -1.
        -11    1    1    2    0    0 -0.20385694587E+02  0.26420599027E+01  0.15454172082E+01  0.20614202353E+02  0.00000000000E+00 0.  1.
         11    1    1    2    0    0  0.21304092847E+02 -0.55249981766E+02 -0.14083973858E+03  0.15278172934E+03  0.00000000000E+00 0. -1.
</event>
<event>
 7    1  0.3265282E-009  0.8803595E+02  0.7561462E-02  0.1307679E+00
          2   -1    0    0  501    0  0.00000000000E+00  0.00000000000E+00  0.24079118212E+03  0.24079118212E+03  0.00000000000E+00 0. -1.
         -2   -1    0    0    0  501 -0.00000000000E+00 -0.00000000000E+00 -0.82059057823E+02  0.82059057823E+02  0.00000000000E+00 0.  1.
         25    2    1    2    0    0  0.36309680887E+02  0.73736779604E+01  0.17818386786E+03  0.22084197770E+03  0.12509566058E+03 0.  0.
          5    1    3    3  502    0  0.73070204021E+02  0.10090135330E+02  0.54758403269E+02  0.91962061065E+02  0.41800000000E+01 0.  1.
         -5    1    3    3    0  502 -0.36760523135E+02 -0.27164573691E+01  0.12342546459E+03  0.12887991663E+03  0.41800000000E+01 0.  1.
        -11    1    1    2    0    0 -0.49173099960E+02  0.19406921856E+01  0.24717843837E+02  0.55070244686E+02  0.00000000000E+00 0. -1.
         11    1    1    2    0    0  0.12863419073E+02 -0.93143701460E+01 -0.44169587399E+02  0.46938017560E+02  0.00000000000E+00 0.  1.
</event>
<event>
 7    1  0.3265282E-009  0.7884826E+02  0.7561462E-02  0.1332352E+00
          1   -1    0    0  501    0  0.00000000000E+00  0.00000000000E+00  0.23526571948E+03  0.23526571948E+03  0.00000000000E+00 0. -1.
         -1   -1    0    0    0  501 -0.00000000000E+00 -0.00000000000E+00 -0.56955383855E+02  0.56955383855E+02  0.00000000000E+00 0.  1.
         25    2    1    2    0    0 -0.29724597026E+02 -0.28000994750E+02  0.99731029835E+02  0.16510998183E+03  0.12508964950E+03 0.  0.
          5    1    3    3  502    0 -0.25190514508E+02 -0.69947523666E+02  0.23852103845E+02  0.78189598707E+02  0.41800000000E+01 0.  1.
         -5    1    3    3    0  502 -0.45340825181E+01  0.41946528916E+02  0.75878925990E+02  0.86920383120E+02  0.41800000000E+01 0.  1.
        -11    1    1    2    0    0  0.15384576097E+02  0.14546731216E+02 -0.18465692017E+02  0.28094026989E+02  0.00000000000E+00 0.  1.
         11    1    1    2    0    0  0.14340020929E+02  0.13454263534E+02  0.97044997810E+02  0.99017094521E+02  0.00000000000E+00 0. -1.
</event>
<event>
 7    1  0.3265282E-009  0.7793415E+02  0.7561462E-02  0.1335018E+00
          3   -1    0    0  501    0  0.00000000000E+00  0.00000000000E+00  0.37777067606E+02  0.37777067606E+02  0.00000000000E+00 0. -1.
         -3   -1    0    0    0  501 -0.00000000000E+00 -0.00000000000E+00 -0.43578718073E+03  0.43578718073E+03  0.00000000000E+00 0.  1.
         25    2    1    2    0    0  0.61429254470E+02 -0.57138527264E+01 -0.18211627570E+03  0.22938792193E+03  0.12508508878E+03 0.  0.
          5    1    3    3  502    0  0.47946131046E+02 -0.15818835858E+02 -0.19889435193E+03  0.20524498211E+03  0.41800000000E+01 0.  1.
         -5    1    3    3    0  502  0.13483123425E+02  0.10104983132E+02  0.16778076232E+02  0.24142939825E+02  0.41800000000E+01 0.  1.
        -11    1    1    2    0    0 -0.13041373869E+02  0.30724413894E+02 -0.16911327655E+03  0.17237565764E+03  0.00000000000E+00 0.  1.
         11    1    1    2    0    0 -0.48387880601E+02 -0.25010561168E+02 -0.46780560873E+02  0.71800668762E+02  0.00000000000E+00 0. -1.
</event>
<event>
 7    1  0.3265282E-009  0.1616987E+03  0.7561462E-02  0.1186792E+00
          3   -1    0    0  501    0  0.00000000000E+00  0.00000000000E+00  0.25371526252E+03  0.25371526252E+03  0.00000000000E+00 0. -1.
         -3   -1    0    0    0  501 -0.00000000000E+00 -0.00000000000E+00 -0.21318581762E+03  0.21318581762E+03  0.00000000000E+00 0.  1.
         25    2    1    2    0    0  0.13391300014E+03 -0.27775409486E+02  0.17431762335E+03  0.25444148292E+03  0.12509863884E+03 0.  0.
          5    1    3    3  502    0  0.13781099226E+02  0.37149964639E+02  0.10639329372E+02  0.41239620489E+02  0.41800000000E+01 0.  1.
         -5    1    3    3    0  502  0.12013190092E+03 -0.64925374125E+02  0.16367829398E+03  0.21320186243E+03  0.41800000000E+01 0.  1.
        -11    1    1    2    0    0 -0.61633014071E+02 -0.14342654123E+02 -0.10755033147E+03  0.12478547171E+03  0.00000000000E+00 0.  1.
         11    1    1    2    0    0 -0.72279986070E+02  0.42118063609E+02 -0.26237846983E+02  0.87674125504E+02  0.00000000000E+00 0. -1.
</event>
<event>
 7    1  0.3265282E-009  0.5948655E+02  0.7561462E-02  0.1399999E+00
         -2   -1    0    0    0  501 -0.00000000000E+00  0.00000000000E+00  0.47883572851E+02  0.47883572851E+02  0.00000000000E+00 0.  1.
          2   -1    0    0  501    0  0.00000000000E+00 -0.00000000000E+00 -0.29944916130E+03  0.29944916130E+03  0.00000000000E+00 0. -1.
         25    2    1    2    0    0 -0.12476601401E+01  0.16313809829E+01 -0.21930033256E+03  0.25247369907E+03  0.12508443069E+03 0.  0.
          5    1    3    3  502    0 -0.14376482784E+02  0.21519321133E+02 -0.22588353530E+03  0.22739966657E+03  0.41800000000E+01 0. -1.
         -5    1    3    3    0  502  0.13128822644E+02 -0.19887940151E+02  0.65832027348E+01  0.25074032498E+02  0.41800000000E+01 0. -1.
        -11    1    1    2    0    0 -0.33643062927E+02 -0.13953249787E+01  0.14374840864E+02  0.36612001649E+02  0.00000000000E+00 0.  1.
         11    1    1    2    0    0  0.34890723067E+02 -0.23605600424E+00 -0.46640096749E+02  0.58247033430E+02  0.00000000000E+00 0. -1.
</event>
<event>
 7    1  0.3265282E-009  0.1430998E+03  0.7561462E-02  0.1209218E+00
         -1   -1    0    0    0  501 -0.00000000000E+00  0.00000000000E+00  0.43210740510E+02  0.43210740510E+02  0.00000000000E+00 0.  1.
          1   -1    0    0  501    0  0.00000000000E+00 -0.00000000000E+00 -0.55688888526E+03  0.55688888526E+03  0.00000000000E+00 0. -1.
         25    2    1    2    0    0 -0.10063265755E+03  0.49254592441E+01 -0.35924427584E+03  0.39351613990E+03  0.12508921107E+03 0.  0.
          5    1    3    3  502    0 -0.47595572751E+02  0.57729006858E+02 -0.25029385709E+03  0.26127086343E+03  0.41800000000E+01 0.  1.
         -5    1    3    3    0  502 -0.53037084797E+02 -0.52803547614E+02 -0.10895041875E+03  0.13224527647E+03  0.41800000000E+01 0.  1.
        -11    1    1    2    0    0  0.84262740434E+02 -0.43190023818E+02 -0.95960224071E+02  0.13481080145E+03  0.00000000000E+00 0.  1.
         11    1    1    2    0    0  0.16369917113E+02  0.38264564574E+02 -0.58473644839E+02  0.71772684422E+02  0.00000000000E+00 0. -1.
</event>
<event>
 6    1  0.3265282E-009  0.1022454E+03  0.7561462E-02  0.1275644E+00
          3   -1    0    0  501    0  0.00000000000E+00  0.00000000000E+00  0.49632559695E+03  0.49632559695E+03  0.00000000000E+00 0. -1.
         -3   -1    0    0    0  501 -0.00000000000E+00 -0.00000000000E+00 -0.41138039992E+02  0.41138039992E+02  0.00000000000E+00 0.  1.
          5    1    1    2  502    0 -0.70031783294E+01 -0.21841838258E+02 -0.71492048303E+01  0.24386347305E+02  0.41800000000E+01 0.  1.
         -5    1    1    2    0  502  0.75333215023E+02 -0.28412280722E+02  0.24138210248E+03  0.25448996597E+03  0.41800000000E+01 0.  1.
        -11    1    1    2    0    0 -0.75530951728E+02  0.34107268912E+02  0.22557222980E+03  0.24031450501E+03  0.00000000000E+00 0. -1.
         11    1    1    2    0    0  0.72009150343E+01  0.16146850067E+02 -0.46175704911E+01  0.18272818657E+02  0.00000000000E+00 0.  1.
</event>
<event>
 7    1  0.3265282E-009  0.1176843E+03  0.7561462E-02  0.1246967E+00
          2   -1    0    0  501    0  0.00000000000E+00  0.00000000000E+00  0.75292151329E+02  0.75292151329E+02  0.00000000000E+00 0. -1.
         -2   -1    0    0    0  501 -0.00000000000E+00 -0.00000000000E+00 -0.24042959119E+03  0.24042959119E+03  0.00000000000E+00 0.  1.
         25    2    1    2    0    0  0.57892084772E+02  0.53175087781E+02 -0.83474255825E+02  0.16968926754E+03  0.12508961865E+03 0.  0.
          5    1    3    3  502    0 -0.13000473477E+02  0.72591984489E+02 -0.36868522898E+02  0.82555247582E+02  0.41800000000E+01 0. -1.
         -5    1    3    3    0  502  0.70892558248E+02 -0.19416896708E+02 -0.46605732928E+02  0.87134019961E+02  0.41800000000E+01 0. -1.
        -11    1    1    2    0    0  0.22694754535E+01 -0.18099542504E+02 -0.73717448481E+02  0.75940807002E+02  0.00000000000E+00 0.  1.
         11    1    1    2    0    0 -0.60161560225E+02 -0.35075545278E+02 -0.79457355515E+01  0.70091667969E+02  0.00000000000E+00 0. -1.
</event>
<event>
 7    1  0.3265282E-009  0.1330225E+03  0.7561462E-02  0.1223039E+00
          2   -1    0    0  501    0  0.00000000000E+00  0.00000000000E+00  0.59622988369E+03  0.59622988369E+03  0.00000000000E+00 0. -1.
         -2   -1    0    0    0  501 -0.00000000000E+00 -0.00000000000E+00 -0.10096604084E+03  0.10096604084E+03  0.00000000000E+00 0.  1.
         25    2    1    2    0    0  0.76642470654E+01  0.11425006687E+03  0.52200480066E+03  0.54886069707E+03  0.12508890603E+03 0.  0.
          5    1    3    3  502    0 -0.42268419373E+02  0.34571099659E+02  0.33560543725E+03  0.34004450020E+03  0.41800000000E+01 0.  1.
         -5    1    3    3    0  502  0.49932666439E+02  0.79678967206E+02  0.18639936342E+03  0.20881619687E+03  0.41800000000E+01 0.  1.
        -11    1    1    2    0    0 -0.13821024266E+02 -0.34471162821E+02 -0.52470589057E+02  0.64284092076E+02  0.00000000000E+00 0.  1.
         11    1    1    2    0    0  0.61567772006E+01 -0.79778904044E+02  0.25729631237E+02  0.84051135386E+02  0.00000000000E+00 0. -1.
</event>
<event>
 7    1  0.3265282E-009  0.1342812E+03  0.7561462E-02  0.1221238E+00
         -2   -1    0    0    0  501 -0.00000000000E+00  0.00000000000E+00  0.97880393046E+02  0.97880393046E+02  0.00000000000E+00 0.  1.
          2   -1    0    0  501    0  0.00000000000E+00 -0.00000000000E+00 -0.27686722357E+03  0.27686722357E+03  0.00000000000E+00 0. -1.
         25    2    1    2    0    0 -0.11572722936E+03 -0.42205098151E+02 -0.10658811011E+03  0.20538505567E+03  0.12509170217E+03 0.  0.
          5    1    3    3  502    0 -0.72001722050E+02 -0.12868345998E+02  0.13224310587E+02  0.74445934055E+02  0.41800000000E+01 0.  1.
         -5    1    3    3    0  502 -0.43725507312E+02 -0.29336752154E+02 -0.11981242069E+03  0.13093912162E+03  0.41800000000E+01 0.  1.
        -11    1    1    2    0    0  0.51955908008E+02  0.56884442807E+02 -0.69663280485E+02  0.10386639908E+03  0.00000000000E+00 0.  1.
         11    1    1    2    0    0  0.63771321354E+02 -0.14679344656E+02 -0.27354399298E+01  0.65496161860E+02  0.00000000000E+00 0. -1.
</event>
<event>
 7    1  0.3265282E-009  0.1627816E+03  0.7561462E-02  0.1185592E+00
          2   -1    0    0  501    0  0.00000000000E+00  0.00000000000E+00  0.18191418461E+04  0.18191418461E+04  0.00000000000E+00 0. -1.
         -2   -1    0    0    0  501 -0.00000000000E+00 -0.00000000000E+00 -0.23096189766E+02  0.23096189766E+02  0.00000000000E+00 0.  1.
         25    2    1    2    0    0 -0.46534518549E+01  0.12355351065E+03  0.14912932869E+04  0.15016334692E+04  0.12514105532E+03 0.  0.
          5    1    3    3  502    0 -0.63094767840E+02  0.51216888260E+02  0.60017710132E+03  0.60566834548E+03  0.41800000000E+01 0.  1.
         -5    1    3    3    0  502  0.58441315985E+02  0.72336622387E+02  0.89111618556E+03  0.89596512372E+03  0.41800000000E+01 0.  1.
        -11    1    1    2    0    0  0.45674162527E+02 -0.58922686049E+02  0.13081326228E+03  0.15056600427E+03  0.00000000000E+00 0.  1.
         11    1    1    2    0    0 -0.41020710672E+02 -0.64630824598E+02  0.17393910718E+03  0.19003856240E+03  0.00000000000E+00 0. -1.
</event>
<event>
 7    1  0.3265282E-009  0.1593793E+03  0.7561462E-02  0.1189399E+00
         -1   -1    0    0    0  501 -0.00000000000E+00  0.00000000000E+00  0.25246412923E+03  0.25246412923E+03  0.00000000000E+00 0.  1.
          1   -1    0    0  501    0  0.00000000000E+00 -0.00000000000E+00 -0.13625734679E+03  0.13625734679E+03  0.00000000000E+00 0. -1.
         25    2    1    2    0    0  0.94400412794E+02 -0.30031526695E+02 -0.33135964878E+02  0.16296850603E+03  0.12508961291E+03 0.  0.
          5    1    3    3  502    0  0.10994589688E+03 -0.56164147311E+02 -0.42886645612E+02  0.13076409468E+03  0.41800000000E+01 0. -1.
         -5    1    3    3    0  502 -0.15545484089E+02  0.26132620616E+02  0.97506807339E+01  0.32204411353E+02  0.41800000000E+01 0. -1.
        -11    1    1    2    0    0  0.29547303008E+02 -0.14392599799E+02  0.10732657648E+02  0.34574267659E+02  0.00000000000E+00 0. -1.
         11    1    1    2    0    0 -0.12394771580E+03  0.44424126494E+02  0.13861008967E+03  0.19117870233E+03  0.00000000000E+00 0.  1.
</event>
<event>
 7    1  0.3265282E-009  0.2808576E+03  0.7561462E-02  0.1095221E+00
          1   -1    0    0  501    0  0.00000000000E+00  0.00000000000E+00  0.15613450082E+04  0.15613450082E+04  0.00000000000E+00 0. -1.
         -1   -1    0    0    0  501 -0.00000000000E+00 -0.00000000000E+00 -0.56598884486E+02  0.56598884486E+02  0.00000000000E+00 0.  1.
         25    2    1    2    0    0  0.14751652933E+03 -0.22609676619E+03  0.91179817427E+03  0.95911560481E+03  0.12508380664E+03 0.  0.
          5    1    3    3  502    0  0.53847815531E+02 -0.17475486489E+03  0.46437787475E+03  0.49910232718E+03  0.41800000000E+01 0. -1.
         -5    1    3    3    0  502  0.93668713802E+02 -0.51341901297E+02  0.44742029952E+03  0.46001327763E+03  0.41800000000E+01 0. -1.
        -11    1    1    2    0    0 -0.86987188688E+02  0.16113183233E+03  0.48876596779E+03  0.52194100208E+03  0.00000000000E+00 0. -1.
         11    1    1    2    0    0 -0.60529340645E+02  0.64964933860E+02  0.10418198166E+03  0.13688728580E+03  0.00000000000E+00 0.  1.
</event>
<event>
 7    1  0.3265282E-009  0.9385451E+02  0.7561462E-02  0.1293777E+00
          1   -1    0    0  501    0  0.00000000000E+00  0.00000000000E+00  0.37906631576E+03  0.37906631576E+03  0.00000000000E+00 0. -1.
         -1   -1    0    0    0  501 -0.00000000000E+00 -0.00000000000E+00 -0.59171688490E+02  0.59171688490E+02  0.00000000000E+00 0.  1.
         25    2    1    2    0    0 -0.52036991012E+02  0.75388289898E+01  0.43889722450E+02  0.14261418660E+03  0.12509123114E+03 0.  0.
          5    1    3    3  502    0 -0.49513397851E+02 -0.20409931635E+02  0.80203528336E+02  0.96530928896E+02  0.41800000000E+01 0. -1.
         -5    1    3    3    0  502 -0.25235931602E+01  0.27948760625E+02 -0.36313805886E+02  0.46083257706E+02  0.41800000000E+01 0. -1.
        -11    1    1    2    0    0  0.31149721304E+00 -0.42938729045E+02  0.10178275896E+03  0.11046973117E+03  0.00000000000E+00 0.  1.
         11    1    1    2    0    0  0.51725493799E+02  0.35399900056E+02  0.17422214586E+03  0.18515408648E+03  0.00000000000E+00 0. -1.
</event>
<event>
 7    1  0.3265282E-009  0.8200101E+02  0.7561462E-02  0.1323467E+00
         -1   -1    0    0    0  501 -0.00000000000E+00  0.00000000000E+00  0.10467785808E+03  0.10467785808E+03  0.00000000000E+00 0.  1.
          1   -1    0    0  501    0  0.00000000000E+00 -0.00000000000E+00 -0.14599938337E+03  0.14599938337E+03  0.00000000000E+00 0. -1.
         25    2    1    2    0    0  0.30448312842E+01 -0.49612376682E+02 -0.61326800391E+02  0.14791400217E+03  0.12508763598E+03 0.  0.
          5    1    3    3  502    0  0.31528801472E+02 -0.21502673284E+02 -0.90439012174E+02  0.98250280425E+02  0.41800000000E+01 0.  1.
         -5    1    3    3    0  502 -0.28483970188E+02 -0.28109703398E+02  0.29112211783E+02  0.49663721746E+02  0.41800000000E+01 0.  1.
        -11    1    1    2    0    0 -0.26701585667E+02 -0.37874676223E+01  0.33312858206E+02  0.42861009204E+02  0.00000000000E+00 0.  1.
         11    1    1    2    0    0  0.23656754383E+02  0.53399844304E+02 -0.13307583109E+02  0.59902230074E+02  0.00000000000E+00 0. -1.
</event>
<event>
 7    1  0.3265282E-009  0.1395228E+03  0.7561462E-02  0.1213972E+00
          1   -1    0    0  501    0  0.00000000000E+00  0.00000000000E+00  0.91845000006E+02  0.91845000006E+02  0.00000000000E+00 0. -1.
         -1   -1    0    0    0  501 -0.00000000000E+00 -0.00000000000E+00 -0.35167758565E+03  0.35167758565E+03  0.00000000000E+00 0.  1.
         25    2    1    2    0    0  0.31349876732E+02  0.85952941047E+02 -0.38940213369E+01  0.15502528897E+03  0.12508778507E+03 0.  0.
          5    1    3    3  502    0  0.74280984510E+00 -0.27886665787E+02  0.20121199018E+02  0.34648996307E+02  0.41800000000E+01 0. -1.
         -5    1    3    3    0  502  0.30607066887E+02  0.11383960683E+03 -0.24015220355E+02  0.12037629267E+03  0.41800000000E+01 0. -1.
        -11    1    1    2    0    0  0.31981017132E+02 -0.90085069731E+01 -0.56459050566E+02  0.65510022481E+02  0.00000000000E+00 0. -1.
         11    1    1    2    0    0 -0.63330893864E+02 -0.76944434074E+02 -0.19947951374E+03  0.22298727420E+03  0.00000000000E+00 0.  1.
</event>
<event>
 7    1  0.3265282E-009  0.9378011E+02  0.7561462E-02  0.1293947E+00
         -1   -1    0    0    0  501 -0.00000000000E+00  0.00000000000E+00  0.16781000433E+03  0.16781000433E+03  0.00000000000E+00 0.  1.
          1   -1    0    0  501    0  0.00000000000E+00 -0.00000000000E+00 -0.94239996944E+02  0.94239996944E+02  0.00000000000E+00 0. -1.
         25    2    1    2    0    0 -0.24720024520E+02  0.35790905434E+02  0.89345228225E+02  0.15975140505E+03  0.12508346447E+03 0.  0.
          5    1    3    3  502    0 -0.82198880377E+01 -0.31114434453E+02 -0.14101739970E+02  0.35383697670E+02  0.41800000000E+01 0.  1.
         -5    1    3    3    0  502 -0.16500136482E+02  0.66905339886E+02  0.10344696819E+03  0.12436770738E+03  0.41800000000E+01 0.  1.
        -11    1    1    2    0    0 -0.19514347379E+02 -0.36988780678E+02  0.19081485675E+02  0.45968279772E+02  0.00000000000E+00 0.  1.
         11    1    1    2    0    0  0.44234371898E+02  0.11978752441E+01 -0.34856706518E+02  0.56330316452E+02  0.00000000000E+00 0. -1.
</event>
<event>
 7    1  0.3265282E-009  0.1051574E+03  0.7561462E-02  0.1269810E+00
         -1   -1    0    0    0  501 -0.00000000000E+00  0.00000000000E+00  0.38211593411E+03  0.38211593411E+03  0.00000000000E+00 0.  1.
          1   -1    0    0  501    0  0.00000000000E+00 -0.00000000000E+00 -0.40523719142E+02  0.40523719142E+02  0.00000000000E+00 0. -1.
         25    2    1    2    0    0  0.48339576861E+00  0.59094466134E+02  0.16175515133E+03  0.21285255451E+03  0.12509632841E+03 0.  0.
          5    1    3    3  502    0 -0.18334478327E+02  0.82340748868E+02  0.52379094003E+02  0.99384072709E+02  0.41800000000E+01 0.  1.
         -5    1    3    3    0  502  0.18817874096E+02 -0.23246282734E+02  0.10937605733E+03  0.11346848180E+03  0.41800000000E+01 0.  1.
        -11    1    1    2    0    0 -0.37697096703E+02 -0.34054303828E+02  0.14296678301E+03  0.15172431497E+03  0.00000000000E+00 0.  1.
         11    1    1    2    0    0  0.37213700934E+02 -0.25040162306E+02  0.36870280630E+02  0.58062783771E+02  0.00000000000E+00 0. -1.
</event>
<event>
 7    1  0.3265282E-009  0.1460882E+03  0.7561462E-02  0.1205364E+00
          2   -1    0    0  501    0  0.00000000000E+00  0.00000000000E+00  0.98978855011E+02  0.98978855011E+02  0.00000000000E+00 0. -1.
         -2   -1    0    0    0  501 -0.00000000000E+00 -0.00000000000E+00 -0.23412532702E+03  0.23412532702E+03  0.00000000000E+00 0.  1.
         25    2    1    2    0    0  0.35374116362E+02  0.99504793064E+02 -0.58438182742E+02  0.17382547031E+03  0.12509093083E+03 0.  0.
          5    1    3    3  502    0 -0.12777806914E+02 -0.24180803271E+02 -0.24031787072E+02  0.36646729543E+02  0.41800000000E+01 0. -1.
         -5    1    3    3    0  502  0.48151923276E+02  0.12368559633E+03 -0.34406395670E+02  0.13717874077E+03  0.41800000000E+01 0. -1.
        -11    1    1    2    0    0 -0.32679358676E+02 -0.11316658570E+03 -0.47663911340E+02  0.12706874143E+03  0.00000000000E+00 0.  1.
         11    1    1    2    0    0 -0.26947576863E+01  0.13661792639E+02 -0.29044377926E+02  0.32209970292E+02  0.00000000000E+00 0. -1.
</event>
<event>
 7    1  0.3265282E-009  0.1096197E+03  0.7561462E-02  0.1261276E+00
          1   -1    0    0  501    0  0.00000000000E+00  0.00000000000E+00  0.34913424134E+03  0.34913424134E+03  0.00000000000E+00 0. -1.
         -1   -1    0    0    0  501 -0.00000000000E+00 -0.00000000000E+00 -0.10259667524E+03  0.10259667524E+03  0.00000000000E+00 0.  1.
         25    2    1    2    0    0  0.85903178367E+02  0.56009855556E+02 -0.84657481416E+01  0.16197135429E+03  0.12508633317E+03 0.  0.
          5    1    3    3  502    0 -0.10280336370E+01 -0.13491643105E+01 -0.49681010454E+02  0.49885391622E+02  0.41800000000E+01 0.  1.
         -5    1    3    3    0  502  0.86931212004E+02  0.57359019867E+02  0.41215262313E+02  0.11208596267E+03  0.41800000000E+01 0.  1.
        -11    1    1    2    0    0 -0.37086174826E+02 -0.48576871814E+02  0.22226210439E+03  0.23051147452E+03  0.00000000000E+00 0. -1.
         11    1    1    2    0    0 -0.48817003541E+02 -0.74329837416E+01  0.32741209852E+02  0.59248087771E+02  0.00000000000E+00 0.  1.
</event>
<event>
 7    1  0.3265282E-009  0.1214638E+03  0.7561462E-02  0.1240702E+00
          2   -1    0    0  501    0  0.00000000000E+00  0.00000000000E+00  0.10508787905E+04  0.10508787905E+04  0.00000000000E+00 0.  1.
         -2   -1    0    0    0  501 -0.00000000000E+00 -0.00000000000E+00 -0.15127938662E+02  0.15127938662E+02  0.00000000000E+00 0. -1.
         25    2    1    2    0    0 -0.56422852263E+02 -0.21256058083E+02  0.55700037324E+03  0.57404883051E+03  0.12508911127E+03 0.  0.
          5    1    3    3  502    0 -0.44719337861E+02 -0.68892882654E+02  0.25144136018E+03  0.26454919858E+03  0.41800000000E+01 0.  1.
         -5    1    3    3    0  502 -0.11703514402E+02  0.47636824572E+02  0.30555901306E+03  0.30949963194E+03  0.41800000000E+01 0.  1.
        -11    1    1    2    0    0 -0.26427340819E+02  0.28046945532E+01  0.15520398189E+03  0.15746284212E+03  0.00000000000E+00 0. -1.
         11    1    1    2    0    0  0.82850193081E+02  0.18451363530E+02  0.32354649667E+03  0.33449505649E+03  0.00000000000E+00 0.  1.
</event>
<event>
 7    1  0.3265282E-009  0.1053138E+03  0.7561462E-02  0.1269503E+00
          1   -1    0    0  501    0  0.00000000000E+00  0.00000000000E+00  0.87266281826E+03  0.87266281826E+03  0.00000000000E+00 0. -1.
         -1   -1    0    0    0  501 -0.00000000000E+00 -0.00000000000E+00 -0.17719109557E+02  0.17719109557E+02  0.00000000000E+00 0.  1.
         25    2    1    2    0    0 -0.44004723454E+02 -0.34015569746E+02  0.43899983619E+03  0.45985007586E+03  0.12509101256E+03 0.  0.
          5    1    3    3  502    0 -0.28264513582E+02  0.26838800281E+02  0.40361152088E+02  0.56264544132E+02  0.41800000000E+01 0.  1.
         -5    1    3    3    0  502 -0.15740209872E+02 -0.60854370027E+02  0.39863868410E+03  0.40358553173E+03  0.41800000000E+01 0.  1.
        -11    1    1    2    0    0  0.24054992775E+02  0.66272857208E+02  0.22243597860E+03  0.23334202120E+03  0.00000000000E+00 0.  1.
         11    1    1    2    0    0  0.19949730679E+02 -0.32257287462E+02  0.19350789391E+03  0.19718983076E+03  0.00000000000E+00 0. -1.
</event>
<event>
 7    1  0.3265282E-009  0.1810516E+03  0.7561462E-02  0.1166789E+00
          3   -1    0    0  501    0  0.00000000000E+00  0.00000000000E+00  0.12502130794E+03  0.12502130794E+03  0.00000000000E+00 0. -1.
         -3   -1    0    0    0  501 -0.00000000000E+00 -0.00000000000E+00 -0.30506736678E+03  0.30506736678E+03  0.00000000000E+00 0.  1.
         25    2    1    2    0    0 -0.99936217574E+02  0.12284807609E+03 -0.13435824199E+03  0.24244418638E+03  0.12509256147E+03 0.  0.
          5    1    3    3  502    0 -0.12699552468E+03  0.83751101134E+02 -0.11580600649E+03  0.19123444713E+03  0.41800000000E+01 0. -1.
         -5    1    3    3    0  502  0.27059307105E+02  0.39096974960E+02 -0.18552235499E+02  0.51209739250E+02  0.41800000000E+01 0. -1.
        -11    1    1    2    0    0  0.25480407543E+02 -0.58393803473E+02 -0.60736505395E+02  0.88022784211E+02  0.00000000000E+00 0.  1.
         11    1    1    2    0    0  0.74455810031E+02 -0.64454272621E+02  0.15048688548E+02  0.99621704129E+02  0.00000000000E+00 0. -1.
</event>
<event>
 7    1  0.3265282E-009  0.8985591E+02  0.7561462E-02  0.1303201E+00
          1   -1    0    0  501    0  0.00000000000E+00  0.00000000000E+00  0.22721682186E+03  0.22721682186E+03  0.00000000000E+00 0. -1.
         -1   -1    0    0    0  501 -0.00000000000E+00 -0.00000000000E+00 -0.65294766632E+02  0.65294766632E+02  0.00000000000E+00 0.  1.
         25    2    1    2    0    0 -0.50459415946E+02  0.26461803597E+02  0.83051459638E+02  0.16059404801E+03  0.12508606477E+03 0.  0.
          5    1    3    3  502    0 -0.48615096563E+02  0.54197501324E+02  0.12539609022E-01  0.72926465160E+02  0.41800000000E+01 0. -1.
         -5    1    3    3    0  502 -0.18443193833E+01 -0.27735697727E+02  0.83038920029E+02  0.87667582846E+02  0.41800000000E+01 0. -1.
        -11    1    1    2    0    0  0.25554225537E+02 -0.42113983652E+02  0.88229121705E+02  0.10104941355E+03  0.00000000000E+00 0. -1.
         11    1    1    2    0    0  0.24905190409E+02  0.15652180055E+02 -0.93585261125E+01  0.30868126940E+02  0.00000000000E+00 0.  1.
</event>
<event>
 7    1  0.3265282E-009  0.1389751E+03  0.7561462E-02  0.1214715E+00
         -2   -1    0    0    0  501 -0.00000000000E+00  0.00000000000E+00  0.18442404489E+03  0.18442404489E+03  0.00000000000E+00 0.  1.
          2   -1    0    0  501    0  0.00000000000E+00 -0.00000000000E+00 -0.13875251200E+03  0.13875251200E+03  0.00000000000E+00 0. -1.
         25    2    1    2    0    0  0.59167334398E+02 -0.94727766466E+02  0.52734422451E+02  0.17579132076E+03  0.12509015127E+03 0.  0.
          5    1    3    3  502    0 -0.11190127943E+02 -0.44627890791E+02 -0.30828096376E+02  0.55540179384E+02  0.41800000000E+01 0.  1.
         -5    1    3    3    0  502  0.70357462342E+02 -0.50099875676E+02  0.83562518827E+02  0.12025114138E+03  0.41800000000E+01 0.  1.
        -11    1    1    2    0    0 -0.41856752726E+02  0.11276217809E+03  0.32978591830E+01  0.12032527761E+03  0.00000000000E+00 0.  1.
         11    1    1    2    0    0 -0.17310581672E+02 -0.18034411628E+02 -0.10360748738E+02  0.27059958518E+02  0.00000000000E+00 0. -1.
</event>
<event>
 7    1  0.3265282E-009  0.2223066E+03  0.7561462E-02  0.1132175E+00
         -2   -1    0    0    0  501 -0.00000000000E+00  0.00000000000E+00  0.34835554327E+02  0.34835554327E+02  0.00000000000E+00 0. -1.
          2   -1    0    0  501    0  0.00000000000E+00 -0.00000000000E+00 -0.17401063330E+04  0.17401063330E+04  0.00000000000E+00 0.  1.
         25    2    1    2    0    0 -0.75869511594E+02  0.20855955380E+03 -0.88446497526E+03  0.92042325392E+03  0.12508958234E+03 0.  0.
          5    1    3    3  502    0 -0.58564577409E+02  0.15774072574E+03 -0.81672984618E+03  0.83389271512E+03  0.41800000000E+01 0.  1.
         -5    1    3    3    0  502 -0.17304934185E+02  0.50818828063E+02 -0.67735129082E+02  0.86530538798E+02  0.41800000000E+01 0.  1.
        -11    1    1    2    0    0  0.61502207072E+02 -0.14919260730E+03 -0.70883005912E+03  0.72696699256E+03  0.00000000000E+00 0.  1.
         11    1    1    2    0    0  0.14367304522E+02 -0.59366946497E+02 -0.11197574426E+03  0.12755164082E+03  0.00000000000E+00 0. -1.
</event>
<event>
 7    1  0.3265282E-009  0.1905828E+03  0.7561462E-02  0.1157937E+00
          2   -1    0    0  501    0  0.00000000000E+00  0.00000000000E+00  0.11898270720E+03  0.11898270720E+03  0.00000000000E+00 0. -1.
         -2   -1    0    0    0  501 -0.00000000000E+00 -0.00000000000E+00 -0.49419486357E+03  0.49419486357E+03  0.00000000000E+00 0.  1.
         25    2    1    2    0    0 -0.11730313650E+03  0.12584641589E+03 -0.35882156714E+03  0.41713064696E+03  0.12509082044E+03 0.  0.
          5    1    3    3  502    0 -0.11072953443E+03  0.35415215451E+02 -0.24765364901E+03  0.27361481968E+03  0.41800000000E+01 0. -1.
         -5    1    3    3    0  502 -0.65736020705E+01  0.90431200439E+02 -0.11116791813E+03  0.14351582728E+03  0.41800000000E+01 0. -1.
        -11    1    1    2    0    0  0.11569838236E+03 -0.11508626377E+03 -0.41755587303E+02  0.16844729995E+03  0.00000000000E+00 0.  1.
         11    1    1    2    0    0  0.16047541377E+01 -0.10760152117E+02  0.25364998077E+02  0.27599623854E+02  0.00000000000E+00 0. -1.
</event>
<event>
 7    1  0.3338963E-009  0.1109568E+03  0.7561462E-02  0.1258808E+00
          1   -1    0    0  501    0  0.00000000000E+00  0.00000000000E+00  0.11216647788E+04  0.11216647788E+04  0.00000000000E+00 0. -1.
         -1   -1    0    0    0  501 -0.00000000000E+00 -0.00000000000E+00 -0.17374429249E+02  0.17374429249E+02  0.00000000000E+00 0.  1.
         25    2    1    2    0    0  0.37799119177E-01 -0.47498970772E+02  0.90262420794E+03  0.91249058400E+03  0.12510975773E+03 0.  0.
          5    1    3    3  502    0  0.36565561164E+02  0.29613557542E+02  0.38097184887E+03  0.38388933963E+03  0.41800000000E+01 0. -1.
         -5    1    3    3    0  502 -0.36527762045E+02 -0.77112528314E+02  0.52165235907E+03  0.52860124437E+03  0.41800000000E+01 0. -1.
        -11    1    1    2    0    0  0.35817797875E+02  0.96172259233E+01  0.31795674426E+02  0.48850492232E+02  0.00000000000E+00 0.  1.
         11    1    1    2    0    0 -0.35855596994E+02  0.37881744849E+02  0.16987046716E+03  0.17769813179E+03  0.00000000000E+00 0. -1.
</event>
<event>
 7    1  0.3265282E-009  0.9351640E+02  0.7561462E-02  0.1294553E+00
         -2   -1    0    0    0  501 -0.00000000000E+00  0.00000000000E+00  0.20656595177E+02  0.20656595177E+02  0.00000000000E+00 0.  1.
          2   -1    0    0  501    0  0.00000000000E+00 -0.00000000000E+00 -0.13075443248E+04  0.13075443248E+04  0.00000000000E+00 0. -1.
         25    2    1    2    0    0  0.26433274797E+02  0.43770140204E+02 -0.11419778662E+04  0.11499459180E+04  0.12509046459E+03 0.  0.
          5    1    3    3  502    0 -0.23541002879E+02  0.24063636165E+02 -0.94847096038E+03  0.94907737961E+03  0.41800000000E+01 0.  1.
         -5    1    3    3    0  502  0.49974277676E+02  0.19706504039E+02 -0.19350690582E+03  0.20086853843E+03  0.41800000000E+01 0.  1.
        -11    1    1    2    0    0  0.31078934426E+02 -0.20245105511E+02 -0.30339942402E+02  0.47919480038E+02  0.00000000000E+00 0.  1.
         11    1    1    2    0    0 -0.57512209224E+02 -0.23525034693E+02 -0.11456992106E+03  0.13033552194E+03  0.00000000000E+00 0. -1.
</event>
<event>
 7    1  0.3265282E-009  0.2025060E+03  0.7561462E-02  0.1147642E+00
         -1   -1    0    0    0  501 -0.00000000000E+00  0.00000000000E+00  0.52168537371E+02  0.52168537371E+02  0.00000000000E+00 0.  1.
          1   -1    0    0  501    0  0.00000000000E+00 -0.00000000000E+00 -0.86741526683E+03  0.86741526683E+03  0.00000000000E+00 0. -1.
         25    2    1    2    0    0  0.17911735006E+03  0.37268328572E+02 -0.42313359402E+03  0.47766324279E+03  0.12509269250E+03 0.  0.
          5    1    3    3  502    0  0.40683520844E+02  0.47171188559E+02 -0.51480418808E+02  0.80919563882E+02  0.41800000000E+01 0.  1.
         -5    1    3    3    0  502  0.13843382922E+03 -0.99028599872E+01 -0.37165317522E+03  0.39674367891E+03  0.41800000000E+01 0.  1.
        -11    1    1    2    0    0 -0.16164666950E+03  0.10132332120E+01 -0.31624447247E+03  0.35516367884E+03  0.00000000000E+00 0. -1.
         11    1    1    2    0    0 -0.17470680563E+02 -0.38281561784E+02 -0.75868662966E+02  0.86756882564E+02  0.00000000000E+00 0.  1.
</event>
<event>
 7    1  0.3265282E-009  0.1664096E+03  0.7561462E-02  0.1181645E+00
         -2   -1    0    0    0  501 -0.00000000000E+00  0.00000000000E+00  0.53822283640E+02  0.53822283640E+02  0.00000000000E+00 0.  1.
          2   -1    0    0  501    0  0.00000000000E+00 -0.00000000000E+00 -0.74172032385E+03  0.74172032385E+03  0.00000000000E+00 0. -1.
         25    2    1    2    0    0  0.13582736490E+03 -0.83672075886E+02 -0.33211559649E+03  0.38909944302E+03  0.12509003870E+03 0.  0.
          5    1    3    3  502    0  0.41363574681E+02 -0.57401537927E+02 -0.25389640752E+03  0.26360337634E+03  0.41800000000E+01 0. -1.
         -5    1    3    3    0  502  0.94463790221E+02 -0.26270537960E+02 -0.78219188975E+02  0.12549606668E+03  0.41800000000E+01 0. -1.
        -11    1    1    2    0    0 -0.50332407915E+02  0.10822540504E+02 -0.23872093410E+03  0.24420926078E+03  0.00000000000E+00 0. -1.
         11    1    1    2    0    0 -0.85494956987E+02  0.72849535383E+02 -0.11706150961E+03  0.16223390369E+03  0.00000000000E+00 0.  1.
</event>
<event>
 7    1  0.3265282E-009  0.1010044E+03  0.7561462E-02  0.1278198E+00
         -1   -1    0    0    0  501 -0.00000000000E+00  0.00000000000E+00  0.19760106712E+02  0.19760106712E+02  0.00000000000E+00 0.  1.
          1   -1    0    0  501    0  0.00000000000E+00 -0.00000000000E+00 -0.60427270493E+03  0.60427270493E+03  0.00000000000E+00 0. -1.
         25    2    1    2    0    0 -0.53328864137E+01  0.21069607989E+02 -0.36740700146E+03  0.38872599061E+03  0.12509045925E+03 0.  0.
          5    1    3    3  502    0  0.60514818991E+01 -0.44344632605E+02 -0.64621744954E+02  0.78717908985E+02  0.41800000000E+01 0. -1.
         -5    1    3    3    0  502 -0.11384368313E+02  0.65414240594E+02 -0.30278525651E+03  0.31000808162E+03  0.41800000000E+01 0. -1.
        -11    1    1    2    0    0  0.31077697957E+02  0.23565424161E+02 -0.85597359979E+02  0.94064130047E+02  0.00000000000E+00 0.  1.
         11    1    1    2    0    0 -0.25744811543E+02 -0.44635032150E+02 -0.13150823678E+03  0.14124269099E+03  0.00000000000E+00 0. -1.
</event>
<event>
 7    1  0.3265282E-009  0.9676807E+02  0.7561462E-02  0.1287243E+00
          2   -1    0    0  501    0  0.00000000000E+00  0.00000000000E+00  0.19083985071E+03  0.19083985071E+03  0.00000000000E+00 0.  1.
         -2   -1    0    0    0  501 -0.00000000000E+00 -0.00000000000E+00 -0.84159129876E+02  0.84159129876E+02  0.00000000000E+00 0. -1.
         25    2    1    2    0    0  0.26563722146E+02 -0.49178971376E+02  0.23036855457E+02  0.13893290522E+03  0.12508977929E+03 0.  0.
          5    1    3    3  502    0  0.50458540151E+02 -0.59407407108E+01 -0.35575380763E+02  0.62164594351E+02  0.41800000000E+01 0. -1.
         -5    1    3    3    0  502 -0.23894818005E+02 -0.43238230665E+02  0.58612236221E+02  0.76768310867E+02  0.41800000000E+01 0. -1.
        -11    1    1    2    0    0 -0.67326538284E+01  0.66384401428E+02  0.86952831585E+02  0.10960388817E+03  0.00000000000E+00 0.  1.
         11    1    1    2    0    0 -0.19831068317E+02 -0.17205430052E+02 -0.33089662126E+01  0.26462187198E+02  0.00000000000E+00 0. -1.
</event>
<event>
 7    1  0.3265282E-009  0.1388384E+03  0.7561462E-02  0.1214901E+00
         -1   -1    0    0    0  501 -0.00000000000E+00  0.00000000000E+00  0.44384868991E+02  0.44384868991E+02  0.00000000000E+00 0.  1.
          1   -1    0    0  501    0  0.00000000000E+00 -0.00000000000E+00 -0.55681886342E+03  0.55681886342E+03  0.00000000000E+00 0. -1.
         25    2    1    2    0    0 -0.99598075985E+02 -0.51138365555E+02 -0.30992556605E+03  0.35247018897E+03  0.12508584431E+03 0.  0.
          5    1    3    3  502    0 -0.63790280313E+02  0.20812168531E+02 -0.60715093122E+02  0.90587753886E+02  0.41800000000E+01 0.  1.
         -5    1    3    3    0  502 -0.35807795672E+02 -0.71950534086E+02 -0.24921047293E+03  0.26188243508E+03  0.41800000000E+01 0.  1.
        -11    1    1    2    0    0  0.16014669794E+02  0.43126099187E+02 -0.12962873088E+03  0.13754976535E+03  0.00000000000E+00 0. -1.
         11    1    1    2    0    0  0.83583406191E+02  0.80122663674E+01 -0.72879697499E+02  0.11118377809E+03  0.00000000000E+00 0.  1.
</event>
<event>
 7    1  0.3265282E-009  0.9539935E+02  0.7561462E-02  0.1290279E+00
          2   -1    0    0  501    0  0.00000000000E+00  0.00000000000E+00  0.63662436741E+02  0.63662436741E+02  0.00000000000E+00 0. -1.
         -2   -1    0    0    0  501 -0.00000000000E+00 -0.00000000000E+00 -0.22878405220E+03  0.22878405220E+03  0.00000000000E+00 0.  1.
         25    2    1    2    0    0 -0.35171510177E+01 -0.11864414335E+02 -0.15121958684E+03  0.19663902191E+03  0.12508559794E+03 0.  0.
          5    1    3    3  502    0  0.46727862114E+02 -0.34631667990E+01 -0.13508119646E+03  0.14303806717E+03  0.41800000000E+01 0.  1.
         -5    1    3    3    0  502 -0.50245013132E+02 -0.84012475361E+01 -0.16138390384E+02  0.53600954739E+02  0.41800000000E+01 0.  1.
        -11    1    1    2    0    0  0.25013137581E+02  0.45966375941E+02 -0.17876646283E+02  0.55300445306E+02  0.00000000000E+00 0.  1.
         11    1    1    2    0    0 -0.21495986563E+02 -0.34101961606E+02  0.39746176671E+01  0.40507021728E+02  0.00000000000E+00 0. -1.
</event>
<event>
 7    1  0.3265282E-009  0.1045079E+03  0.7561462E-02  0.1271092E+00
          1   -1    0    0  501    0  0.00000000000E+00  0.00000000000E+00  0.62321538397E+03  0.62321538397E+03  0.00000000000E+00 0. -1.
         -1   -1    0    0    0  501 -0.00000000000E+00 -0.00000000000E+00 -0.29103463081E+02  0.29103463081E+02  0.00000000000E+00 0.  1.
         25    2    1    2    0    0  0.33713004343E+02  0.24845880631E+02  0.48384189265E+03  0.50150132445E+03  0.12508683741E+03 0.  0.
          5    1    3    3  502    0  0.52472408197E+02  0.51316500692E+02  0.44355706982E+03  0.44960769951E+03  0.41800000000E+01 0. -1.
         -5    1    3    3    0  502 -0.18759403853E+02 -0.26470620061E+02  0.40284822832E+02  0.51893624945E+02  0.41800000000E+01 0. -1.
        -11    1    1    2    0    0 -0.56423215502E+01  0.35652898160E+02  0.41929093293E+02  0.55326429526E+02  0.00000000000E+00 0.  1.
         11    1    1    2    0    0 -0.28070682793E+02 -0.60498778791E+02  0.68340934940E+02  0.95491093073E+02  0.00000000000E+00 0. -1.
</event>
<event>
 7    1  0.3265282E-009  0.1391623E+03  0.7561462E-02  0.1214461E+00
         -4   -1    0    0    0  501 -0.00000000000E+00  0.00000000000E+00  0.11937125485E+04  0.11937125485E+04  0.00000000000E+00 0.  1.
          4   -1    0    0  501    0  0.00000000000E+00 -0.00000000000E+00 -0.16410924779E+02  0.16410924779E+02  0.00000000000E+00 0. -1.
         25    2    1    2    0    0 -0.33333297545E+02  0.80499768899E+02  0.67125109425E+03  0.68834356776E+03  0.12509002447E+03 0.  0.
          5    1    3    3  502    0 -0.63015111701E+02  0.98831614595E+02  0.52123697628E+03  0.53426964184E+03  0.41800000000E+01 0. -1.
         -5    1    3    3    0  502  0.29681814156E+02 -0.18331845696E+02  0.15001411797E+03  0.15407392592E+03  0.41800000000E+01 0. -1.
        -11    1    1    2    0    0 -0.24811145341E+02 -0.58835394282E+02  0.29303502699E+03  0.29991119285E+03  0.00000000000E+00 0. -1.
         11    1    1    2    0    0  0.58144442887E+02 -0.21664374617E+02  0.21301550249E+03  0.22186871268E+03  0.00000000000E+00 0.  1.
</event>
<event>
 7    1  0.3265282E-009  0.1199076E+03  0.7561462E-02  0.1243250E+00
          2   -1    0    0  501    0  0.00000000000E+00  0.00000000000E+00  0.28186470424E+03  0.28186470424E+03  0.00000000000E+00 0. -1.
         -2   -1    0    0    0  501 -0.00000000000E+00 -0.00000000000E+00 -0.85808818321E+02  0.85808818321E+02  0.00000000000E+00 0.  1.
         25    2    1    2    0    0  0.10718428342E+02 -0.72584548170E+02  0.20226235732E+03  0.24887818499E+03  0.12508752310E+03 0.  0.
          5    1    3    3  502    0  0.48175507158E+02 -0.84132730292E+02  0.17759405783E+03  0.20237667250E+03  0.41800000000E+01 0. -1.
         -5    1    3    3    0  502 -0.37457078815E+02  0.11548182122E+02  0.24668299491E+02  0.46501512486E+02  0.41800000000E+01 0. -1.
        -11    1    1    2    0    0  0.24284651735E+02  0.62312448462E+02 -0.31979516084E+02  0.74130122030E+02  0.00000000000E+00 0.  1.
         11    1    1    2    0    0 -0.35003080078E+02  0.10272099708E+02  0.25773044680E+02  0.44665215542E+02  0.00000000000E+00 0. -1.
</event>
<event>
 7    1  0.3265282E-009  0.1295797E+03  0.7561462E-02  0.1228081E+00
         -4   -1    0    0    0  501 -0.00000000000E+00  0.00000000000E+00  0.69835308694E+03  0.69835308694E+03  0.00000000000E+00 0.  1.
          4   -1    0    0  501    0  0.00000000000E+00 -0.00000000000E+00 -0.43599577766E+02  0.43599577766E+02  0.00000000000E+00 0. -1.
         25    2    1    2    0    0  0.11070759068E+03 -0.48092712404E+02  0.47987573299E+03  0.51038999169E+03  0.12509254528E+03 0.  0.
          5    1    3    3  502    0  0.11759423084E+03 -0.51965875907E+02  0.48381420635E+03  0.50062212701E+03  0.41800000000E+01 0. -1.
         -5    1    3    3    0  502 -0.68866401511E+01  0.38731635034E+01 -0.39384733582E+01  0.97678646842E+01  0.41800000000E+01 0. -1.
        -11    1    1    2    0    0 -0.41597711669E+02  0.10444132220E+02  0.13826388615E+03  0.14476308828E+03  0.00000000000E+00 0. -1.
         11    1    1    2    0    0 -0.69109879016E+02  0.37648580184E+02  0.36613890035E+02  0.86799584740E+02  0.00000000000E+00 0.  1.
</event>
<event>
 7    1  0.3265282E-009  0.1087661E+03  0.7561462E-02  0.1262872E+00
         -1   -1    0    0    0  501 -0.00000000000E+00  0.00000000000E+00  0.39268354228E+03  0.39268354228E+03  0.00000000000E+00 0.  1.
          1   -1    0    0  501    0  0.00000000000E+00 -0.00000000000E+00 -0.56260991714E+02  0.56260991714E+02  0.00000000000E+00 0. -1.
         25    2    1    2    0    0 -0.24756327738E+02 -0.95493702458E+02  0.20741170097E+03  0.26153232172E+03  0.12509044180E+03 0.  0.
          5    1    3    3  502    0  0.36014572989E+01 -0.41929412231E+02 -0.31245452373E+01  0.42406146815E+02  0.41800000000E+01 0. -1.
         -5    1    3    3    0  502 -0.28357785037E+02 -0.53564290227E+02  0.21053624621E+03  0.21912617490E+03  0.41800000000E+01 0. -1.
        -11    1    1    2    0    0 -0.78236664068E+01  0.76250967138E+02  0.12843526909E+03  0.14956950923E+03  0.00000000000E+00 0.  1.
         11    1    1    2    0    0  0.32579994145E+02  0.19242735320E+02  0.57558050864E+00  0.37842703048E+02  0.00000000000E+00 0. -1.
</event>
<event>
 7    1  0.3265282E-009  0.9091352E+02  0.7561462E-02  0.1300654E+00
          2   -1    0    0  501    0  0.00000000000E+00  0.00000000000E+00  0.74010072668E+03  0.74010072668E+03  0.00000000000E+00 0. -1.
         -2   -1    0    0    0  501 -0.00000000000E+00 -0.00000000000E+00 -0.28872305014E+02  0.28872305014E+02  0.00000000000E+00 0.  1.
         25    2    1    2    0    0  0.71569481679E+02  0.31159927783E+02  0.53834493838E+03  0.55816954440E+03  0.12507931806E+03 0.  0.
          5    1    3    3  502    0  0.32941180719E+02 -0.15084316808E+02  0.32866186682E+02  0.49094975585E+02  0.41800000000E+01 0. -1.
         -5    1    3    3    0  502  0.38628300960E+02  0.46244244591E+02  0.50547875170E+03  0.50907456881E+03  0.41800000000E+01 0. -1.
        -11    1    1    2    0    0 -0.58040806696E+02 -0.86333850756E+01  0.30724596126E+02  0.66236480786E+02  0.00000000000E+00 0.  1.
         11    1    1    2    0    0 -0.13528674983E+02 -0.22526542707E+02  0.14215888716E+03  0.14456700651E+03  0.00000000000E+00 0. -1.
</event>
<event>
 7    1  0.3265282E-009  0.1414822E+03  0.7561462E-02  0.1211348E+00
          2   -1    0    0  501    0  0.00000000000E+00  0.00000000000E+00  0.30124271594E+02  0.30124271594E+02  0.00000000000E+00 0. -1.
         -2   -1    0    0    0  501 -0.00000000000E+00 -0.00000000000E+00 -0.74235340964E+03  0.74235340964E+03  0.00000000000E+00 0.  1.
         25    2    1    2    0    0 -0.67255235210E+02 -0.62379155919E+02 -0.44138854796E+03  0.46785219533E+03  0.12508957050E+03 0.  0.
          5    1    3    3  502    0 -0.97742840752E+02 -0.57538495147E+02 -0.25834968444E+03  0.28218145438E+03  0.41800000000E+01 0.  1.
         -5    1    3    3    0  502  0.30487605542E+02 -0.48406607717E+01 -0.18303886351E+03  0.18567074095E+03  0.41800000000E+01 0.  1.
        -11    1    1    2    0    0  0.84750407940E+02  0.12764645579E+02 -0.18602048522E+03  0.20481501103E+03  0.00000000000E+00 0.  1.
         11    1    1    2    0    0 -0.17495172730E+02  0.49614510340E+02 -0.84820104871E+02  0.99810474878E+02  0.00000000000E+00 0. -1.
</event>
<event>
 7    1  0.3265282E-009  0.1410474E+03  0.7561462E-02  0.1211927E+00
          1   -1    0    0  501    0  0.00000000000E+00  0.00000000000E+00  0.82133949791E+03  0.82133949791E+03  0.00000000000E+00 0. -1.
         -1   -1    0    0    0  501 -0.00000000000E+00 -0.00000000000E+00 -0.56611667649E+02  0.56611667649E+02  0.00000000000E+00 0.  1.
         25    2    1    2    0    0  0.86683218005E+02  0.71823937429E+02  0.69894421006E+03  0.71891758111E+03  0.12508725508E+03 0.  0.
          5    1    3    3  502    0  0.70301791769E+02  0.10000855181E+03  0.40299560654E+03  0.42114959771E+03  0.41800000000E+01 0.  1.
         -5    1    3    3    0  502  0.16381426236E+02 -0.28184614382E+02  0.29594860352E+03  0.29776798340E+03  0.41800000000E+01 0.  1.
        -11    1    1    2    0    0 -0.27698097606E+02  0.68964168835E+01 -0.14543452319E+02  0.32035249058E+02  0.00000000000E+00 0.  1.
         11    1    1    2    0    0 -0.58985120399E+02 -0.78720354313E+02  0.80327072515E+02  0.12699833538E+03  0.00000000000E+00 0. -1.
</event>
<event>
 7    1  0.3265282E-009  0.9947008E+02  0.7561462E-02  0.1281414E+00
          3   -1    0    0  501    0  0.00000000000E+00  0.00000000000E+00  0.14859409482E+03  0.14859409482E+03  0.00000000000E+00 0. -1.
         -3   -1    0    0    0  501 -0.00000000000E+00 -0.00000000000E+00 -0.12592144786E+03  0.12592144786E+03  0.00000000000E+00 0.  1.
         25    2    1    2    0    0 -0.18938442110E+01  0.37157456087E+01  0.95687067924E+02  0.15754546470E+03  0.12508862886E+03 0.  0.
          5    1    3    3  502    0 -0.91641962367E+01  0.63127725786E+02  0.60344568304E+02  0.87909223517E+02  0.41800000000E+01 0. -1.
         -5    1    3    3    0  502  0.72703520257E+01 -0.59411980177E+02  0.35342499620E+02  0.69636241186E+02  0.41800000000E+01 0. -1.
        -11    1    1    2    0    0 -0.10872251493E+01 -0.39294500715E+02 -0.43133754323E+01  0.39545480811E+02  0.00000000000E+00 0. -1.
         11    1    1    2    0    0  0.29810693603E+01  0.35578755106E+02 -0.68701045527E+02  0.77424597163E+02  0.00000000000E+00 0.  1.
</event>
<event>
 7    1  0.3265282E-009  0.1306774E+03  0.7561462E-02  0.1226454E+00
         -2   -1    0    0    0  501 -0.00000000000E+00  0.00000000000E+00  0.26868710637E+02  0.26868710637E+02  0.00000000000E+00 0.  1.
          2   -1    0    0  501    0  0.00000000000E+00 -0.00000000000E+00 -0.70043116729E+03  0.70043116729E+03  0.00000000000E+00 0. -1.
         25    2    1    2    0    0  0.50613523609E+02  0.62505073787E+02 -0.30209405193E+03  0.33671367815E+03  0.12508665724E+03 0.  0.
          5    1    3    3  502    0 -0.29691618078E+02  0.61354779765E+02 -0.13834758647E+03  0.15428392096E+03  0.41800000000E+01 0.  1.
         -5    1    3    3    0  502  0.80305141687E+02  0.11502940222E+01 -0.16374646546E+03  0.18242975719E+03  0.41800000000E+01 0.  1.
        -11    1    1    2    0    0  0.19233359479E+02 -0.29921563630E+02 -0.60250771081E+02  0.69966974372E+02  0.00000000000E+00 0.  1.
         11    1    1    2    0    0 -0.69846883088E+02 -0.32583510156E+02 -0.31121763365E+03  0.32061922541E+03  0.00000000000E+00 0. -1.
</event>
<event>
 7    1  0.3265282E-009  0.2191521E+03  0.7561462E-02  0.1134517E+00
          2   -1    0    0  501    0  0.00000000000E+00  0.00000000000E+00  0.80555438697E+03  0.80555438697E+03  0.00000000000E+00 0. -1.
         -2   -1    0    0    0  501 -0.00000000000E+00 -0.00000000000E+00 -0.82091684962E+02  0.82091684962E+02  0.00000000000E+00 0.  1.
         25    2    1    2    0    0  0.19898552918E+03 -0.28119143851E+02  0.16735618480E+03  0.28989808422E+03  0.12508748766E+03 0.  0.
          5    1    3    3  502    0  0.12014396536E+03  0.35425115736E+02  0.13334227402E+03  0.18299493347E+03  0.41800000000E+01 0.  1.
         -5    1    3    3    0  502  0.78841563818E+02 -0.63544259588E+02  0.34013910786E+02  0.10690315074E+03  0.41800000000E+01 0.  1.
        -11    1    1    2    0    0 -0.70854293513E+02 -0.21777054321E+02  0.12589409177E+03  0.14609549393E+03  0.00000000000E+00 0. -1.
         11    1    1    2    0    0 -0.12813123566E+03  0.49896198172E+02  0.43021242544E+03  0.45165249379E+03  0.00000000000E+00 0.  1.
</event>
<event>
 7    1  0.3265282E-009  0.9141713E+02  0.7561462E-02  0.1299456E+00
          3   -1    0    0  501    0  0.00000000000E+00  0.00000000000E+00  0.79877985151E+02  0.79877985151E+02  0.00000000000E+00 0. -1.
         -3   -1    0    0    0  501 -0.00000000000E+00 -0.00000000000E+00 -0.16627542261E+03  0.16627542261E+03  0.00000000000E+00 0.  1.
         25    2    1    2    0    0  0.42028687147E+01 -0.27471475113E+01 -0.69524020591E+01  0.12538421197E+03  0.12509058235E+03 0.  0.
          5    1    3    3  502    0 -0.42224233595E+02 -0.13194309626E+02  0.38982846597E+02  0.59111000989E+02  0.41800000000E+01 0. -1.
         -5    1    3    3    0  502  0.46427102310E+02  0.10447162114E+02 -0.45935248656E+02  0.66273210984E+02  0.41800000000E+01 0. -1.
        -11    1    1    2    0    0 -0.47256785786E+02  0.49672962030E+01 -0.46784579614E+02  0.66683391666E+02  0.00000000000E+00 0.  1.
         11    1    1    2    0    0  0.43053917071E+02 -0.22201486917E+01 -0.32660455787E+02  0.54085804123E+02  0.00000000000E+00 0. -1.
</event>
<event>
 7    1  0.3265282E-009  0.1198267E+03  0.7561462E-02  0.1243383E+00
         -2   -1    0    0    0  501 -0.00000000000E+00  0.00000000000E+00  0.20840594630E+02  0.20840594630E+02  0.00000000000E+00 0. -1.
          2   -1    0    0  501    0  0.00000000000E+00 -0.00000000000E+00 -0.10505852364E+04  0.10505852364E+04  0.00000000000E+00 0.  1.
         25    2    1    2    0    0  0.80654013011E+02 -0.52420450685E+02 -0.47894857592E+03  0.50427427519E+03  0.12509129778E+03 0.  0.
          5    1    3    3  502    0  0.16380123546E+02 -0.34691606312E+02 -0.26249523811E+02  0.46672538995E+02  0.41800000000E+01 0.  1.
         -5    1    3    3    0  502  0.64273889465E+02 -0.17728844373E+02 -0.45269905211E+03  0.45760173620E+03  0.41800000000E+01 0.  1.
        -11    1    1    2    0    0 -0.59219584301E+02  0.79870535945E+02 -0.37634761413E+03  0.38926056612E+03  0.00000000000E+00 0. -1.
         11    1    1    2    0    0 -0.21434428710E+02 -0.27450085260E+02 -0.17444845174E+03  0.17789098974E+03  0.00000000000E+00 0.  1.
</event>
<event>
 7    1  0.3265282E-009  0.1166651E+03  0.7561462E-02  0.1248702E+00
         -1   -1    0    0    0  501 -0.00000000000E+00  0.00000000000E+00  0.30425600246E+02  0.30425600246E+02  0.00000000000E+00 0.  1.
          1   -1    0    0  501    0  0.00000000000E+00 -0.00000000000E+00 -0.86110113488E+03  0.86110113488E+03  0.00000000000E+00 0. -1.
         25    2    1    2    0    0  0.62061595343E+00  0.48061902764E+02 -0.74519601996E+03  0.75714924079E+03  0.12509009951E+03 0.  0.
          5    1    3    3  502    0  0.48387399165E+02 -0.14654358658E+02 -0.20335662004E+03  0.20958883067E+03  0.41800000000E+01 0. -1.
         -5    1    3    3    0  502 -0.47766783211E+02  0.62716261422E+02 -0.54183939992E+03  0.54756041012E+03  0.41800000000E+01 0. -1.
        -11    1    1    2    0    0 -0.37688450668E+02 -0.54266622009E+02 -0.56060158430E+02  0.86648871551E+02  0.00000000000E+00 0.  1.
         11    1    1    2    0    0  0.37067834714E+02  0.62047192443E+01 -0.29419356238E+02  0.47728622783E+02  0.00000000000E+00 0. -1.
</event>
<event>
 7    1  0.3265282E-009  0.9312175E+02  0.7561462E-02  0.1295463E+00
         -2   -1    0    0    0  501 -0.00000000000E+00  0.00000000000E+00  0.24316786165E+02  0.24316786165E+02  0.00000000000E+00 0.  1.
          2   -1    0    0  501    0  0.00000000000E+00 -0.00000000000E+00 -0.61828061480E+03  0.61828061480E+03  0.00000000000E+00 0. -1.
         25    2    1    2    0    0 -0.54970865078E+02 -0.12895098049E+02 -0.37990663428E+03  0.40393635480E+03  0.12508976135E+03 0.  0.
          5    1    3    3  502    0 -0.15012555055E+02 -0.53537784484E+02 -0.30318235094E+03  0.30826722417E+03  0.41800000000E+01 0. -1.
         -5    1    3    3    0  502 -0.39958310022E+02  0.40642686435E+02 -0.76724283345E+02  0.95669130629E+02  0.41800000000E+01 0. -1.
        -11    1    1    2    0    0  0.15517377803E+02  0.27244152654E+02 -0.14159335290E+02  0.34402320322E+02  0.00000000000E+00 0.  1.
         11    1    1    2    0    0  0.39453487275E+02 -0.14349054605E+02 -0.19989785906E+03  0.20425872585E+03  0.00000000000E+00 0. -1.
</event>
<event>
 7    1  0.3265282E-009  0.1817004E+03  0.7561462E-02  0.1166167E+00
          2   -1    0    0  501    0  0.00000000000E+00  0.00000000000E+00  0.91487128299E+03  0.91487128299E+03  0.00000000000E+00 0. -1.
         -2   -1    0    0    0  501 -0.00000000000E+00 -0.00000000000E+00 -0.38596735656E+02  0.38596735656E+02  0.00000000000E+00 0.  1.
         25    2    1    2    0    0 -0.33865055102E+02 -0.14573049737E+03  0.36359050888E+03  0.41258938841E+03  0.12509086882E+03 0.  0.
          5    1    3    3  502    0 -0.54015639089E+02 -0.72377975269E+01  0.91325017531E+02  0.10643216716E+03  0.41800000000E+01 0. -1.
         -5    1    3    3    0  502  0.20150583987E+02 -0.13849269984E+03  0.27226549135E+03  0.30615722125E+03  0.41800000000E+01 0. -1.
        -11    1    1    2    0    0  0.54668607730E+02  0.13428077533E+03  0.47206989409E+03  0.49383192303E+03  0.00000000000E+00 0. -1.
         11    1    1    2    0    0 -0.20803552628E+02  0.11449722037E+02  0.40614144366E+02  0.47046707210E+02  0.00000000000E+00 0.  1.
</event>
<event>
 7    1  0.3265282E-009  0.2279346E+03  0.7561462E-02  0.1128102E+00
          1   -1    0    0  501    0  0.00000000000E+00  0.00000000000E+00  0.12841150138E+04  0.12841150138E+04  0.00000000000E+00 0. -1.
         -1   -1    0    0    0  501 -0.00000000000E+00 -0.00000000000E+00 -0.53196655204E+02  0.53196655204E+02  0.00000000000E+00 0.  1.
         25    2    1    2    0    0 -0.19887135149E+03  0.91743058253E+02  0.86775645670E+03  0.90367090802E+03  0.12511290375E+03 0.  0.
          5    1    3    3  502    0 -0.90607732058E+02  0.31615075302E+02  0.17233969114E+03  0.19730107865E+03  0.41800000000E+01 0.  1.
         -5    1    3    3    0  502 -0.10826361943E+03  0.60127982952E+02  0.69541676556E+03  0.70636982937E+03  0.41800000000E+01 0.  1.
        -11    1    1    2    0    0  0.41965625321E+02 -0.64047118000E+02  0.99135520312E+02  0.12526371550E+03  0.00000000000E+00 0.  1.
         11    1    1    2    0    0  0.15690572617E+03 -0.27695940254E+02  0.26402638162E+03  0.30837704551E+03  0.00000000000E+00 0. -1.
</event>
<event>
 7    1  0.3265282E-009  0.1329836E+03  0.7561462E-02  0.1223095E+00
          1   -1    0    0  501    0  0.00000000000E+00  0.00000000000E+00  0.37462155055E+02  0.37462155055E+02  0.00000000000E+00 0. -1.
         -1   -1    0    0    0  501 -0.00000000000E+00 -0.00000000000E+00 -0.57813693818E+03  0.57813693818E+03  0.00000000000E+00 0.  1.
         25    2    1    2    0    0 -0.81153233050E+01 -0.79639455991E+02 -0.17374923295E+03  0.22857330369E+03  0.12509459536E+03 0.  0.
          5    1    3    3  502    0  0.13256042366E+02 -0.11001529299E+03 -0.12403493328E+03  0.16637675446E+03  0.41800000000E+01 0. -1.
         -5    1    3    3    0  502 -0.21371365672E+02  0.30375837003E+02 -0.49714299670E+02  0.62196549229E+02  0.41800000000E+01 0. -1.
        -11    1    1    2    0    0 -0.74470307738E+01  0.95319787390E+02 -0.33369348096E+03  0.34712052571E+03  0.00000000000E+00 0.  1.
         11    1    1    2    0    0  0.15562354079E+02 -0.15680331399E+02 -0.33232069224E+02  0.39905263840E+02  0.00000000000E+00 0. -1.
</event>
<event>
 6    1  0.3265282E-009  0.9122285E+02  0.7561462E-02  0.1299917E+00
          2   -1    0    0  501    0  0.00000000000E+00  0.00000000000E+00  0.84334148971E+03  0.84334148971E+03  0.00000000000E+00 0. -1.
         -2   -1    0    0    0  501 -0.00000000000E+00 -0.00000000000E+00 -0.23262079939E+02  0.23262079939E+02  0.00000000000E+00 0.  1.
          5    1    1    2  502    0 -0.81005444612E+01  0.18032273819E+02  0.40785814500E+03  0.40835832373E+03  0.41800000000E+01 0.  1.
         -5    1    1    2    0  502  0.25937395082E+02  0.60068868774E+02  0.91330403074E+02  0.11242656441E+03  0.41800000000E+01 0.  1.
        -11    1    1    2    0    0 -0.37163246269E+02 -0.57181432821E+02  0.30633454989E+03  0.31383384074E+03  0.00000000000E+00 0. -1.
         11    1    1    2    0    0  0.19326395649E+02 -0.20919709772E+02  0.14556311803E+02  0.31984840769E+02  0.00000000000E+00 0.  1.
</event>
<event>
 7    1  0.3265282E-009  0.1429611E+03  0.7561462E-02  0.1209399E+00
         -1   -1    0    0    0  501 -0.00000000000E+00  0.00000000000E+00  0.15441067549E+03  0.15441067549E+03  0.00000000000E+00 0.  1.
          1   -1    0    0  501    0  0.00000000000E+00 -0.00000000000E+00 -0.16342032827E+03  0.16342032827E+03  0.00000000000E+00 0. -1.
         25    2    1    2    0    0 -0.10795950619E+03  0.75139458166E+01 -0.50018709133E+02  0.17280565410E+03  0.12509279942E+03 0.  0.
          5    1    3    3  502    0 -0.13599184131E+03 -0.95394632212E-01 -0.40567968664E+02  0.14197542916E+03  0.41800000000E+01 0. -1.
         -5    1    3    3    0  502  0.28032335123E+02  0.76093404488E+01 -0.94507404689E+01  0.30830224941E+02  0.41800000000E+01 0. -1.
        -11    1    1    2    0    0  0.48848133277E+02 -0.29944646666E+02  0.55925430649E+02  0.80065446866E+02  0.00000000000E+00 0.  1.
         11    1    1    2    0    0  0.59111372913E+02  0.22430700849E+02 -0.14916374299E+02  0.64959902790E+02  0.00000000000E+00 0. -1.
</event>
<event>
 7    1  0.3265282E-009  0.1003416E+03  0.7561462E-02  0.1279579E+00
         -1   -1    0    0    0  501 -0.00000000000E+00  0.00000000000E+00  0.96236589401E+01  0.96236589401E+01  0.00000000000E+00 0.  1.
          1   -1    0    0  501    0  0.00000000000E+00 -0.00000000000E+00 -0.17199763610E+04  0.17199763610E+04  0.00000000000E+00 0. -1.
         25    2    1    2    0    0 -0.24350712655E+02  0.21170297057E+02 -0.13649253560E+04  0.13710251952E+04  0.12509084612E+03 0.  0.
          5    1    3    3  502    0 -0.39702413981E+02  0.58594168539E+02 -0.48441322126E+03  0.48957450873E+03  0.41800000000E+01 0.  1.
         -5    1    3    3    0  502  0.15351701326E+02 -0.37423871483E+02 -0.88051213473E+03  0.88145068648E+03  0.41800000000E+01 0.  1.
        -11    1    1    2    0    0 -0.30637599152E+02 -0.13592721798E+01 -0.61837954237E+02  0.69024942498E+02  0.00000000000E+00 0.  1.
         11    1    1    2    0    0  0.54988311807E+02 -0.19811024877E+02 -0.28358939179E+03  0.28954988220E+03  0.00000000000E+00 0. -1.
</event>
<event>
 7    1  0.3265282E-009  0.1326928E+03  0.7561462E-02  0.1223514E+00
          1   -1    0    0  501    0  0.00000000000E+00  0.00000000000E+00  0.77955853855E+03  0.77955853855E+03  0.00000000000E+00 0. -1.
         -1   -1    0    0    0  501 -0.00000000000E+00 -0.00000000000E+00 -0.23829570467E+02  0.23829570467E+02  0.00000000000E+00 0.  1.
         25    2    1    2    0    0  0.82369445147E+02  0.80067842376E+01  0.46593261325E+03  0.48947684130E+03  0.12508214896E+03 0.  0.
          5    1    3    3  502    0  0.78504736458E+02 -0.47330491791E+02  0.33206027540E+03  0.34450641213E+03  0.41800000000E+01 0. -1.
         -5    1    3    3    0  502  0.38647086896E+01  0.55337276028E+02  0.13387233785E+03  0.14497042917E+03  0.41800000000E+01 0. -1.
        -11    1    1    2    0    0 -0.77599568433E+02 -0.38850685866E+02  0.23928245658E+03  0.25453322541E+03  0.00000000000E+00 0.  1.
         11    1    1    2    0    0 -0.47698767140E+01  0.30843901628E+02  0.50513898259E+02  0.59378042313E+02  0.00000000000E+00 0. -1.
</event>
<event>
 7    1  0.3265282E-009  0.1124277E+03  0.7561462E-02  0.1256139E+00
         -2   -1    0    0    0  501 -0.00000000000E+00  0.00000000000E+00  0.34718508578E+02  0.34718508578E+02  0.00000000000E+00 0.  1.
          2   -1    0    0  501    0  0.00000000000E+00 -0.00000000000E+00 -0.39334666177E+03  0.39334666177E+03  0.00000000000E+00 0. -1.
         25    2    1    2    0    0 -0.23425759589E+02  0.13351131084E+01 -0.25263873619E+03  0.28288535455E+03  0.12508894457E+03 0.  0.
          5    1    3    3  502    0 -0.69394055913E+02  0.26333790636E+02 -0.15947308742E+03  0.17594925841E+03  0.41800000000E+01 0.  1.
         -5    1    3    3    0  502  0.45968296324E+02 -0.24998677527E+02 -0.93165648775E+02  0.10693609614E+03  0.41800000000E+01 0.  1.
        -11    1    1    2    0    0 -0.36904390626E+02  0.54778841674E+01 -0.51543626810E+02  0.63629291425E+02  0.00000000000E+00 0. -1.
         11    1    1    2    0    0  0.60330150215E+02 -0.68129972758E+01 -0.54445790194E+02  0.81550524380E+02  0.00000000000E+00 0.  1.
</event>
<event>
 7    1  0.3265282E-009  0.1142234E+03  0.7561462E-02  0.1252943E+00
         -1   -1    0    0    0  501 -0.00000000000E+00  0.00000000000E+00  0.14881791810E+02  0.14881791810E+02  0.00000000000E+00 0.  1.
          1   -1    0    0  501    0  0.00000000000E+00 -0.00000000000E+00 -0.12262017760E+04  0.12262017760E+04  0.00000000000E+00 0. -1.
         25    2    1    2    0    0 -0.54731251663E+01  0.61603488879E+02 -0.88418723305E+03  0.89513059341E+03  0.12508705460E+03 0.  0.
          5    1    3    3  502    0 -0.32939400196E+02  0.81750938033E+02 -0.39473725744E+03  0.40447891758E+03  0.41800000000E+01 0.  1.
         -5    1    3    3    0  502  0.27466275029E+02 -0.20147449154E+02 -0.48944997560E+03  0.49065167582E+03  0.41800000000E+01 0.  1.
        -11    1    1    2    0    0  0.27925253104E+02 -0.74803729756E+02 -0.18564195488E+03  0.20208501467E+03  0.00000000000E+00 0. -1.
         11    1    1    2    0    0 -0.22452127938E+02  0.13200240876E+02 -0.14149079628E+03  0.14386795974E+03  0.00000000000E+00 0.  1.
</event>
<event>
 7    1  0.3265282E-009  0.1961854E+03  0.7561462E-02  0.1152998E+00
          2   -1    0    0  501    0  0.00000000000E+00  0.00000000000E+00  0.40377835149E+03  0.40377835149E+03  0.00000000000E+00 0. -1.
         -2   -1    0    0    0  501 -0.00000000000E+00 -0.00000000000E+00 -0.10459543422E+03  0.10459543422E+03  0.00000000000E+00 0.  1.
         25    2    1    2    0    0 -0.15516042121E+03 -0.75280949403E+02  0.19181153262E+03  0.28667358518E+03  0.12509237684E+03 0.  0.
          5    1    3    3  502    0 -0.16266939367E+03 -0.31376144330E+02  0.13135989449E+03  0.21146793693E+03  0.41800000000E+01 0.  1.
         -5    1    3    3    0  502  0.75089724619E+01 -0.43904805073E+02  0.60451638134E+02  0.75205648252E+02  0.41800000000E+01 0.  1.
        -11    1    1    2    0    0  0.78800282132E+02  0.63735950017E+01  0.85683596961E+02  0.11658381520E+03  0.00000000000E+00 0. -1.
         11    1    1    2    0    0  0.76360139077E+02  0.68907354401E+02  0.21687787688E+02  0.10511638533E+03  0.00000000000E+00 0.  1.
</event>
<event>
 7    1  0.3265282E-009  0.9497093E+02  0.7561462E-02  0.1291242E+00
         -2   -1    0    0    0  501 -0.00000000000E+00  0.00000000000E+00  0.74435860557E+02  0.74435860557E+02  0.00000000000E+00 0.  1.
          2   -1    0    0  501    0  0.00000000000E+00 -0.00000000000E+00 -0.23031207872E+03  0.23031207872E+03  0.00000000000E+00 0. -1.
         25    2    1    2    0    0  0.26341499825E+02 -0.40229593539E+02 -0.14218562010E+03  0.19538913334E+03  0.12509143877E+03 0.  0.
          5    1    3    3  502    0  0.47050474404E+02  0.22449453529E+02 -0.11006526510E+03  0.12185877108E+03  0.41800000000E+01 0.  1.
         -5    1    3    3    0  502 -0.20708974579E+02 -0.62679047067E+02 -0.32120354991E+02  0.73530362260E+02  0.41800000000E+01 0.  1.
        -11    1    1    2    0    0  0.16345124978E+02  0.12780641873E+02  0.33925853850E+02  0.39767719028E+02  0.00000000000E+00 0.  1.
         11    1    1    2    0    0 -0.42686624803E+02  0.27448951665E+02 -0.47616451920E+02  0.69591086915E+02  0.00000000000E+00 0. -1.
</event>
<event>
 7    1  0.3265282E-009  0.5803779E+02  0.7561462E-02  0.1406256E+00
          1   -1    0    0  501    0  0.00000000000E+00  0.00000000000E+00  0.27410977005E+02  0.27410977005E+02  0.00000000000E+00 0.  1.
         -1   -1    0    0    0  501 -0.00000000000E+00 -0.00000000000E+00 -0.44945108601E+03  0.44945108601E+03  0.00000000000E+00 0. -1.
         25    2    1    2    0    0 -0.13778832252E+02 -0.13442725813E+02 -0.21602849290E+03  0.25037278498E+03  0.12509060165E+03 0.  0.
          5    1    3    3  502    0 -0.23140744981E+02 -0.48342976815E+01  0.84836053750E+01  0.25461902374E+02  0.41800000000E+01 0. -1.
         -5    1    3    3    0  502  0.93619127288E+01 -0.86084281312E+01 -0.22451209827E+03  0.22491088261E+03  0.41800000000E+01 0. -1.
        -11    1    1    2    0    0 -0.14271442317E+02 -0.26367118696E+02 -0.24988080363E+02  0.39029516707E+02  0.00000000000E+00 0.  1.
         11    1    1    2    0    0  0.28050274569E+02  0.39809844508E+02 -0.18102353574E+03  0.18745976132E+03  0.00000000000E+00 0. -1.
</event>
<event>
 7    1  0.3265282E-009  0.1008450E+03  0.7561462E-02  0.1278529E+00
          2   -1    0    0  501    0  0.00000000000E+00  0.00000000000E+00  0.41231962522E+03  0.41231962522E+03  0.00000000000E+00 0. -1.
         -2   -1    0    0    0  501 -0.00000000000E+00 -0.00000000000E+00 -0.72618927430E+02  0.72618927430E+02  0.00000000000E+00 0.  1.
         25    2    1    2    0    0 -0.19843597645E+02  0.13917342201E+02  0.36476429093E+03  0.38637851394E+03  0.12509159571E+03 0.  0.
          5    1    3    3  502    0 -0.48140118848E+02 -0.36973467064E+02  0.11752923526E+03  0.13234463287E+03  0.41800000000E+01 0. -1.
         -5    1    3    3    0  502  0.28296521204E+02  0.50890809265E+02  0.24723505567E+03  0.25403388107E+03  0.41800000000E+01 0. -1.
        -11    1    1    2    0    0  0.74362872336E+01 -0.46766250089E+02 -0.38432487151E+02  0.60987183767E+02  0.00000000000E+00 0.  1.
         11    1    1    2    0    0  0.12407310411E+02  0.32848907888E+02  0.13368894009E+02  0.37572854937E+02  0.00000000000E+00 0. -1.
</event>
<event>
 7    1  0.3265282E-009  0.1437487E+03  0.7561462E-02  0.1208372E+00
          2   -1    0    0  501    0  0.00000000000E+00  0.00000000000E+00  0.98763812258E+03  0.98763812258E+03  0.00000000000E+00 0. -1.
         -2   -1    0    0    0  501 -0.00000000000E+00 -0.00000000000E+00 -0.28593675298E+02  0.28593675298E+02  0.00000000000E+00 0.  1.
         25    2    1    2    0    0 -0.79185641819E+02 -0.10395437087E+03  0.50696393638E+03  0.53827217564E+03  0.12509046803E+03 0.  0.
          5    1    3    3  502    0 -0.33559312837E+02 -0.51241276867E+01  0.32049779160E+03  0.32231784155E+03  0.41800000000E+01 0.  1.
         -5    1    3    3    0  502 -0.45626328982E+02 -0.98830243186E+02  0.18646614477E+03  0.21595433409E+03  0.41800000000E+01 0.  1.
        -11    1    1    2    0    0  0.43903889856E+02  0.99552094402E+02  0.24818163681E+03  0.27098394029E+03  0.00000000000E+00 0. -1.
         11    1    1    2    0    0  0.35281751963E+02  0.44022764706E+01  0.20389887409E+03  0.20697568194E+03  0.00000000000E+00 0.  1.
</event>
<event>
 7    1  0.4152499E-009  0.2203968E+03  0.7561462E-02  0.1133588E+00
          1   -1    0    0  501    0  0.00000000000E+00  0.00000000000E+00  0.12302381120E+04  0.12302381120E+04  0.00000000000E+00 0. -1.
         -1   -1    0    0    0  501 -0.00000000000E+00 -0.00000000000E+00 -0.45060878046E+02  0.45060878046E+02  0.00000000000E+00 0.  1.
         25    2    1    2    0    0 -0.18590603496E+03 -0.80848212007E+02  0.74601568756E+03  0.78312178735E+03  0.12507134174E+03 0.  0.
          5    1    3    3  502    0 -0.12944782997E+03 -0.11385995778E+03  0.55529917695E+03  0.58145978278E+03  0.41800000000E+01 0. -1.
         -5    1    3    3    0  502 -0.56458204995E+02  0.33011745770E+02  0.19071651061E+03  0.20166200457E+03  0.41800000000E+01 0. -1.
        -11    1    1    2    0    0  0.45646586081E+02  0.17101708327E+02  0.36050058707E+02  0.60627435879E+02  0.00000000000E+00 0.  1.
         11    1    1    2    0    0  0.14025944888E+03  0.63746503680E+02  0.40311148771E+03  0.43154976684E+03  0.00000000000E+00 0. -1.
</event>
<event>
 7    1  0.3265282E-009  0.7651681E+02  0.7561462E-02  0.1339237E+00
          2   -1    0    0  501    0  0.00000000000E+00  0.00000000000E+00  0.16975474773E+03  0.16975474773E+03  0.00000000000E+00 0. -1.
         -2   -1    0    0    0  501 -0.00000000000E+00 -0.00000000000E+00 -0.79114772686E+02  0.79114772686E+02  0.00000000000E+00 0.  1.
         25    2    1    2    0    0 -0.27102950618E+02 -0.27514762563E+02  0.35570123749E+02  0.13566711975E+03  0.12509477042E+03 0.  0.
          5    1    3    3  502    0  0.35219775114E+02 -0.19630978559E+01  0.54969152691E+02  0.65447432798E+02  0.41800000000E+01 0. -1.
         -5    1    3    3    0  502 -0.62322725732E+02 -0.25551664707E+02 -0.19399028942E+02  0.70219686954E+02  0.41800000000E+01 0. -1.
        -11    1    1    2    0    0  0.75662319262E+01  0.29437551354E+02 -0.19486686538E+02  0.36104684565E+02  0.00000000000E+00 0.  1.
         11    1    1    2    0    0  0.19536718692E+02 -0.19227887905E+01  0.74556537835E+02  0.77097716100E+02  0.00000000000E+00 0. -1.
</event>
<event>
 7    1  0.3265282E-009  0.1827003E+03  0.7561462E-02  0.1165215E+00
          1   -1    0    0  501    0  0.00000000000E+00  0.00000000000E+00  0.13998552709E+04  0.13998552709E+04  0.00000000000E+00 0. -1.
         -1   -1    0    0    0  501 -0.00000000000E+00 -0.00000000000E+00 -0.27744049817E+02  0.27744049817E+02  0.00000000000E+00 0.  1.
         25    2    1    2    0    0 -0.15743156545E+03  0.46185121559E+02  0.75954681490E+03  0.78707789949E+03  0.12514988046E+03 0.  0.
          5    1    3    3  502    0  0.15944432720E+02  0.56458688860E+01  0.17849347701E+03  0.17934183702E+03  0.41800000000E+01 0.  1.
         -5    1    3    3    0  502 -0.17337599817E+03  0.40539252673E+02  0.58105333789E+03  0.60773606246E+03  0.41800000000E+01 0.  1.
        -11    1    1    2    0    0  0.67763027414E+02  0.25655980887E+01  0.12322574009E+03  0.14065202877E+03  0.00000000000E+00 0.  1.
         11    1    1    2    0    0  0.89668538036E+02 -0.48750719647E+02  0.48933866607E+03  0.49986939243E+03  0.00000000000E+00 0. -1.
</event>
<event>
 7    1  0.3265282E-009  0.1017706E+03  0.7561462E-02  0.1276616E+00
         -1   -1    0    0    0  501 -0.00000000000E+00  0.00000000000E+00  0.45236992989E+03  0.45236992989E+03  0.00000000000E+00 0.  1.
          1   -1    0    0  501    0  0.00000000000E+00 -0.00000000000E+00 -0.29197301809E+02  0.29197301809E+02  0.00000000000E+00 0. -1.
         25    2    1    2    0    0  0.31379969526E+02 -0.17193564344E+02  0.26441155397E+03  0.29468889761E+03  0.12509098832E+03 0.  0.
          5    1    3    3  502    0  0.48972002009E+02  0.29652728932E+02  0.55565288929E+02  0.79890644306E+02  0.41800000000E+01 0.  1.
         -5    1    3    3    0  502 -0.17592032483E+02 -0.46846293276E+02  0.20884626504E+03  0.21479825330E+03  0.41800000000E+01 0.  1.
        -11    1    1    2    0    0 -0.55120961633E+02 -0.13858380645E+02  0.11448559163E+03  0.12781754894E+03  0.00000000000E+00 0.  1.
         11    1    1    2    0    0  0.23740992107E+02  0.31051944990E+02  0.44275482483E+02  0.59060785154E+02  0.00000000000E+00 0. -1.
</event>
<event>
 7    1  0.3265282E-009  0.1340367E+03  0.7561462E-02  0.1221586E+00
          1   -1    0    0  501    0  0.00000000000E+00  0.00000000000E+00  0.22031658993E+03  0.22031658993E+03  0.00000000000E+00 0. -1.
         -1   -1    0    0    0  501 -0.00000000000E+00 -0.00000000000E+00 -0.99715430922E+02  0.99715430922E+02  0.00000000000E+00 0.  1.
         25    2    1    2    0    0 -0.89342027858E+02 -0.46856988457E+02  0.65583737275E+02  0.17356911799E+03  0.12508971506E+03 0.  0.
          5    1    3    3  502    0 -0.10759419693E+03 -0.65622220547E+02  0.30742919665E+02  0.12978977830E+03  0.41800000000E+01 0. -1.
         -5    1    3    3    0  502  0.18252169072E+02  0.18765232090E+02  0.34840817610E+02  0.43779339682E+02  0.41800000000E+01 0. -1.
        -11    1    1    2    0    0  0.73401907479E+02  0.84528344823E+01 -0.43126388692E+01  0.74012764348E+02  0.00000000000E+00 0.  1.
         11    1    1    2    0    0  0.15940120379E+02  0.38404153975E+02  0.59330060603E+02  0.72450138519E+02  0.00000000000E+00 0. -1.
</event>
<event>
 7    1  0.3265282E-009  0.7628516E+02  0.7561462E-02  0.1339937E+00
          1   -1    0    0  501    0  0.00000000000E+00  0.00000000000E+00  0.38376891667E+03  0.38376891667E+03  0.00000000000E+00 0. -1.
         -1   -1    0    0    0  501 -0.00000000000E+00 -0.00000000000E+00 -0.47796279463E+02  0.47796279463E+02  0.00000000000E+00 0.  1.
         25    2    1    2    0    0 -0.10419559352E+00  0.28870699522E+02  0.30619290375E+03  0.33201712052E+03  0.12509095035E+03 0.  0.
          5    1    3    3  502    0 -0.41367317721E+02  0.79215200665E+01  0.26952069856E+03  0.27282390806E+03  0.41800000000E+01 0.  1.
         -5    1    3    3    0  502  0.41263122128E+02  0.20949179455E+02  0.36672205194E+02  0.59193212460E+02  0.41800000000E+01 0.  1.
        -11    1    1    2    0    0  0.57928359878E+00  0.17448412501E+02 -0.23289490677E+02  0.29106408990E+02  0.00000000000E+00 0.  1.
         11    1    1    2    0    0 -0.47508800526E+00 -0.46319112023E+02  0.53069224132E+02  0.70441666627E+02  0.00000000000E+00 0. -1.
</event>
<event>
 7    1  0.3265282E-009  0.3048479E+03  0.7561462E-02  0.1082842E+00
          2   -1    0    0  501    0  0.00000000000E+00  0.00000000000E+00  0.82077336734E+03  0.82077336734E+03  0.00000000000E+00 0. -1.
         -2   -1    0    0    0  501 -0.00000000000E+00 -0.00000000000E+00 -0.13460304275E+03  0.13460304275E+03  0.00000000000E+00 0.  1.
         25    2    1    2    0    0  0.27198711746E+03  0.10895392465E+03  0.51368251448E+03  0.60445641238E+03  0.12509947652E+03 0.  0.
          5    1    3    3  502    0  0.14062332385E+03  0.50941534925E+01  0.31192888562E+03  0.34222503079E+03  0.41800000000E+01 0. -1.
         -5    1    3    3    0  502  0.13136379361E+03  0.10385977115E+03  0.20175362885E+03  0.26223138159E+03  0.41800000000E+01 0. -1.
        -11    1    1    2    0    0 -0.25376187409E+02 -0.36344266342E+02  0.62230372101E+01  0.44761398275E+02  0.00000000000E+00 0.  1.
         11    1    1    2    0    0 -0.24661093005E+03 -0.72609658305E+02  0.16626477291E+03  0.30615859944E+03  0.00000000000E+00 0. -1.
</event>
<event>
 7    1  0.3265282E-009  0.1153121E+03  0.7561462E-02  0.1251037E+00
         -3   -1    0    0    0  501 -0.00000000000E+00  0.00000000000E+00  0.26093816651E+02  0.26093816651E+02  0.00000000000E+00 0.  1.
          3   -1    0    0  501    0  0.00000000000E+00 -0.00000000000E+00 -0.58917243712E+03  0.58917243712E+03  0.00000000000E+00 0. -1.
         25    2    1    2    0    0 -0.13554928213E+02  0.58791996119E+02 -0.30611918052E+03  0.33614578841E+03  0.12507918891E+03 0.  0.
          5    1    3    3  502    0 -0.66156766197E+02  0.22086360003E+02 -0.20242910391E+03  0.21414840537E+03  0.41800000000E+01 0.  1.
         -5    1    3    3    0  502  0.52601837984E+02  0.36705636116E+02 -0.10369007661E+03  0.12199738305E+03  0.41800000000E+01 0.  1.
        -11    1    1    2    0    0 -0.30717084987E+02 -0.33649008439E+02 -0.18776290766E+03  0.19321155393E+03  0.00000000000E+00 0. -1.
         11    1    1    2    0    0  0.44272013200E+02 -0.25142987680E+02 -0.69196532292E+02  0.85908911433E+02  0.00000000000E+00 0.  1.
</event>
<event>
 7    1  0.3265282E-009  0.1076553E+03  0.7561462E-02  0.1264975E+00
         -1   -1    0    0    0  501 -0.00000000000E+00  0.00000000000E+00  0.38363108450E+02  0.38363108450E+02  0.00000000000E+00 0.  1.
          1   -1    0    0  501    0  0.00000000000E+00 -0.00000000000E+00 -0.47765981882E+03  0.47765981882E+03  0.00000000000E+00 0. -1.
         25    2    1    2    0    0  0.16242933802E+02 -0.45469007239E+02 -0.11737907422E+03  0.17821093206E+03  0.12510006284E+03 0.  0.
          5    1    3    3  502    0 -0.26115335155E+02  0.21400602680E+02  0.29177498241E+01  0.34146481361E+02  0.41800000000E+01 0. -1.
         -5    1    3    3    0  502  0.42358268957E+02 -0.66869609919E+02 -0.12029682404E+03  0.14406445070E+03  0.41800000000E+01 0. -1.
        -11    1    1    2    0    0  0.39034778742E+01  0.70095838232E+02 -0.20761303598E+03  0.21916166724E+03  0.00000000000E+00 0. -1.
         11    1    1    2    0    0 -0.20146411676E+02 -0.24626830993E+02 -0.11430460017E+03  0.11865032797E+03  0.00000000000E+00 0.  1.
</event>
<event>
 7    1  0.3265282E-009  0.1140301E+03  0.7561462E-02  0.1253284E+00
          3   -1    0    0  501    0  0.00000000000E+00  0.00000000000E+00  0.11897772791E+03  0.11897772791E+03  0.00000000000E+00 0. -1.
         -3   -1    0    0    0  501 -0.00000000000E+00 -0.00000000000E+00 -0.15792381689E+03  0.15792381689E+03  0.00000000000E+00 0.  1.
         25    2    1    2    0    0  0.22066303272E+02  0.73256115587E+02 -0.54825900592E+02  0.15654174265E+03  0.12508420206E+03 0.  0.
          5    1    3    3  502    0  0.58610987878E+02 -0.53042205923E+01 -0.30678780636E+02  0.66498440865E+02  0.41800000000E+01 0. -1.
         -5    1    3    3    0  502 -0.36544684607E+02  0.78560336179E+02 -0.24147119956E+02  0.90043301782E+02  0.41800000000E+01 0. -1.
        -11    1    1    2    0    0 -0.25964409460E+02 -0.33570109210E+02  0.51609117872E+02  0.66817691059E+02  0.00000000000E+00 0. -1.
         11    1    1    2    0    0  0.38981061884E+01 -0.39686006377E+02 -0.35729306269E+02  0.53542111095E+02  0.00000000000E+00 0.  1.
</event>
<event>
 7    1  0.4139057E-009  0.1462485E+03  0.7561462E-02  0.1205160E+00
         -4   -1    0    0    0  501 -0.00000000000E+00  0.00000000000E+00  0.12601503682E+03  0.12601503682E+03  0.00000000000E+00 0.  1.
          4   -1    0    0  501    0  0.00000000000E+00 -0.00000000000E+00 -0.20207808474E+03  0.20207808474E+03  0.00000000000E+00 0. -1.
         25    2    1    2    0    0  0.33618974839E+02  0.11125038598E+03 -0.30908643243E+02  0.17352338585E+03  0.12509251521E+03 0.  0.
          5    1    3    3  502    0  0.47395600341E+02 -0.66807334161E+01 -0.25966132582E+02  0.54613986963E+02  0.41800000000E+01 0.  1.
         -5    1    3    3    0  502 -0.13776625503E+02  0.11793111940E+03 -0.49425106609E+01  0.11890939889E+03  0.41800000000E+01 0.  1.
        -11    1    1    2    0    0 -0.33969314714E+02 -0.32889742985E+02  0.21266973250E+02  0.51845286063E+02  0.00000000000E+00 0.  1.
         11    1    1    2    0    0  0.35033987536E+00 -0.78360642999E+02 -0.66421377924E+02  0.10272444964E+03  0.00000000000E+00 0. -1.
</event>
<event>
 7    1  0.3265282E-009  0.1537565E+03  0.7561462E-02  0.1195932E+00
         -4   -1    0    0    0  501 -0.00000000000E+00  0.00000000000E+00  0.75508728301E+03  0.75508728301E+03  0.00000000000E+00 0.  1.
          4   -1    0    0  501    0  0.00000000000E+00 -0.00000000000E+00 -0.44955281883E+02  0.44955281883E+02  0.00000000000E+00 0. -1.
         25    2    1    2    0    0 -0.50981210060E+02  0.13614838643E+03  0.44892149796E+03  0.48817391016E+03  0.12509112009E+03 0.  0.
          5    1    3    3  502    0 -0.34708959439E+02  0.36784333058E+02  0.33746056382E+02  0.60943151750E+02  0.41800000000E+01 0. -1.
         -5    1    3    3    0  502 -0.16272250621E+02  0.99364053376E+02  0.41517544158E+03  0.42723075841E+03  0.41800000000E+01 0. -1.
        -11    1    1    2    0    0  0.57697950393E+02 -0.75753031307E+02  0.21621689001E+03  0.23625689145E+03  0.00000000000E+00 0.  1.
         11    1    1    2    0    0 -0.67167403328E+01 -0.60395355128E+02  0.44993613156E+02  0.75611763282E+02  0.00000000000E+00 0. -1.
</event>
<event>
 7    1  0.3265282E-009  0.2118272E+03  0.7561462E-02  0.1140127E+00
         -2   -1    0    0    0  501 -0.00000000000E+00  0.00000000000E+00  0.12364490936E+03  0.12364490936E+03  0.00000000000E+00 0.  1.
          2   -1    0    0  501    0  0.00000000000E+00 -0.00000000000E+00 -0.42732259599E+03  0.42732259599E+03  0.00000000000E+00 0. -1.
         25    2    1    2    0    0  0.17093616074E+03 -0.10799412301E+03 -0.14293039593E+03  0.27741461626E+03  0.12509144489E+03 0.  0.
          5    1    3    3  502    0  0.45651462304E+02 -0.45724800027E+02 -0.11891657438E+03  0.13540102441E+03  0.41800000000E+01 0.  1.
         -5    1    3    3    0  502  0.12528469844E+03 -0.62269322984E+02 -0.24013821548E+02  0.14201359186E+03  0.41800000000E+01 0.  1.
        -11    1    1    2    0    0 -0.10450397881E+03  0.11097959079E+03 -0.92721301752E+02  0.17842306733E+03  0.00000000000E+00 0.  1.
         11    1    1    2    0    0 -0.66432181934E+02 -0.29854677756E+01 -0.68025988950E+02  0.95129821754E+02  0.00000000000E+00 0. -1.
</event>
<event>
 7    1  0.3265282E-009  0.1300202E+03  0.7561462E-02  0.1227426E+00
         -2   -1    0    0    0  501 -0.00000000000E+00  0.00000000000E+00  0.29680412702E+03  0.29680412702E+03  0.00000000000E+00 0. -1.
          2   -1    0    0  501    0  0.00000000000E+00 -0.00000000000E+00 -0.91498262364E+02  0.91498262364E+02  0.00000000000E+00 0.  1.
         25    2    1    2    0    0  0.12062737897E+03  0.11233565871E+02  0.85166539355E+02  0.19385212044E+03  0.12509255619E+03 0.  0.
          5    1    3    3  502    0  0.23528697922E+02 -0.87531689319E+01  0.90967292030E+02  0.94460246726E+02  0.41800000000E+01 0.  1.
         -5    1    3    3    0  502  0.97098681050E+02  0.19986734802E+02 -0.58007526749E+01  0.99391873718E+02  0.41800000000E+01 0.  1.
        -11    1    1    2    0    0 -0.19257819916E+01 -0.16440104233E+02  0.58101747654E+02  0.60413564238E+02  0.00000000000E+00 0. -1.
         11    1    1    2    0    0 -0.11870159698E+03  0.52065383620E+01  0.62037577650E+02  0.13403670470E+03  0.00000000000E+00 0.  1.
</event>
<event>
 7    1  0.3265282E-009  0.1236176E+03  0.7561462E-02  0.1237246E+00
         -3   -1    0    0    0  501 -0.00000000000E+00  0.00000000000E+00  0.37401290783E+02  0.37401290783E+02  0.00000000000E+00 0.  1.
          3   -1    0    0  501    0  0.00000000000E+00 -0.00000000000E+00 -0.68123227343E+03  0.68123227343E+03  0.00000000000E+00 0. -1.
         25    2    1    2    0    0 -0.59401063152E+02 -0.39868127636E+02 -0.55615370101E+03  0.57451924336E+03  0.12508983947E+03 0.  0.
          5    1    3    3  502    0 -0.66522729575E+02 -0.72940089508E+02 -0.49249110611E+03  0.50230517836E+03  0.41800000000E+01 0. -1.
         -5    1    3    3    0  502  0.71216664230E+01  0.33071961871E+02 -0.63662594891E+02  0.72214064993E+02  0.41800000000E+01 0. -1.
        -11    1    1    2    0    0 -0.23269189452E+02  0.16184275166E+02 -0.20208758226E+02  0.34810628398E+02  0.00000000000E+00 0. -1.
         11    1    1    2    0    0  0.82670252604E+02  0.23683852470E+02 -0.67468523413E+02  0.10930369246E+03  0.00000000000E+00 0.  1.
</event>
<event>
 7    1  0.3265282E-009  0.1207394E+03  0.7561462E-02  0.1241882E+00
          4   -1    0    0  501    0  0.00000000000E+00  0.00000000000E+00  0.10034090833E+03  0.10034090833E+03  0.00000000000E+00 0. -1.
         -4   -1    0    0    0  501 -0.00000000000E+00 -0.00000000000E+00 -0.17170186847E+03  0.17170186847E+03  0.00000000000E+00 0.  1.
         25    2    1    2    0    0 -0.12342146238E+02  0.66821032297E+02 -0.10314249699E+02  0.14272611265E+03  0.12508789132E+03 0.  0.
          5    1    3    3  502    0  0.34801996978E+01  0.99868483264E+02 -0.24899069680E+02  0.10306920884E+03  0.41800000000E+01 0.  1.
         -5    1    3    3    0  502 -0.15822345936E+02 -0.33047450968E+02  0.14584819981E+02  0.39656903816E+02  0.41800000000E+01 0.  1.
        -11    1    1    2    0    0 -0.33003060155E+02 -0.40165310127E+02 -0.46418889081E+01  0.52191965376E+02  0.00000000000E+00 0. -1.
         11    1    1    2    0    0  0.45345206393E+02 -0.26655722170E+02 -0.56404821542E+02  0.77124698770E+02  0.00000000000E+00 0.  1.
</event>
<event>
 7    1  0.3265282E-009  0.1506770E+03  0.7561462E-02  0.1199644E+00
         -2   -1    0    0    0  501 -0.00000000000E+00  0.00000000000E+00  0.12103828443E+03  0.12103828443E+03  0.00000000000E+00 0.  1.
          2   -1    0    0  501    0  0.00000000000E+00 -0.00000000000E+00 -0.44373723824E+03  0.44373723824E+03  0.00000000000E+00 0. -1.
         25    2    1    2    0    0  0.13133953035E+03 -0.42547782199E+02  0.17209311541E+02  0.18709370909E+03  0.12509000590E+03 0.  0.
          5    1    3    3  502    0  0.30146935302E+02 -0.21836260249E+02  0.63580733382E+02  0.73794593482E+02  0.41800000000E+01 0. -1.
         -5    1    3    3    0  502  0.10119259505E+03 -0.20711521949E+02 -0.46371421841E+02  0.11329911561E+03  0.41800000000E+01 0. -1.
        -11    1    1    2    0    0 -0.52278674146E+02  0.59975182883E+02 -0.12657742436E+03  0.14950560755E+03  0.00000000000E+00 0.  1.
         11    1    1    2    0    0 -0.79060856204E+02 -0.17427400684E+02 -0.21333084099E+03  0.22817620602E+03  0.00000000000E+00 0. -1.
</event>
<event>
 7    1  0.3265282E-009  0.8424159E+02  0.7561462E-02  0.1317428E+00
         -1   -1    0    0    0  501 -0.00000000000E+00  0.00000000000E+00  0.57671814484E+02  0.57671814484E+02  0.00000000000E+00 0.  1.
          1   -1    0    0  501    0  0.00000000000E+00 -0.00000000000E+00 -0.30340896880E+03  0.30340896880E+03  0.00000000000E+00 0. -1.
         25    2    1    2    0    0  0.68045555783E+02 -0.15916030273E+02 -0.97217510770E+02  0.17315598936E+03  0.12509290375E+03 0.  0.
          5    1    3    3  502    0  0.37643144065E+02 -0.24590489695E+02  0.21654261109E+02  0.50080713880E+02  0.41800000000E+01 0. -1.
         -5    1    3    3    0  502  0.30402411718E+02  0.86744594224E+01 -0.11887177188E+03  0.12307527548E+03  0.41800000000E+01 0. -1.
        -11    1    1    2    0    0 -0.39476928672E+02 -0.21032424277E+02 -0.13034805919E+03  0.13780931501E+03  0.00000000000E+00 0. -1.
         11    1    1    2    0    0 -0.28568627111E+02  0.36948454550E+02 -0.18171584348E+02  0.50115478910E+02  0.00000000000E+00 0.  1.
</event>
<event>
 7    1  0.3265282E-009  0.1072665E+03  0.7561462E-02  0.1265717E+00
          1   -1    0    0  501    0  0.00000000000E+00  0.00000000000E+00  0.25349046615E+02  0.25349046615E+02  0.00000000000E+00 0. -1.
         -1   -1    0    0    0  501 -0.00000000000E+00 -0.00000000000E+00 -0.53352240437E+03  0.53352240437E+03  0.00000000000E+00 0.  1.
         25    2    1    2    0    0  0.20541820621E+02  0.13019510029E+02 -0.37111196927E+03  0.39238153216E+03  0.12509076307E+03 0.  0.
          5    1    3    3  502    0 -0.40041055036E+01 -0.51254745597E+02 -0.22486290055E+03  0.23070300876E+03  0.41800000000E+01 0.  1.
         -5    1    3    3    0  502  0.24545926124E+02  0.64274255626E+02 -0.14624906872E+03  0.16167852340E+03  0.41800000000E+01 0.  1.
        -11    1    1    2    0    0 -0.53317352330E+02 -0.25309826521E+02 -0.94050224072E+02  0.11103500361E+03  0.00000000000E+00 0.  1.
         11    1    1    2    0    0  0.32775531709E+02  0.12290316492E+02 -0.43011164414E+02  0.55454915225E+02  0.00000000000E+00 0. -1.
</event>
<event>
 7    1  0.3265282E-009  0.9445482E+02  0.7561462E-02  0.1292409E+00
          2   -1    0    0  501    0  0.00000000000E+00  0.00000000000E+00  0.15510872527E+03  0.15510872527E+03  0.00000000000E+00 0. -1.
         -2   -1    0    0    0  501 -0.00000000000E+00 -0.00000000000E+00 -0.11615821447E+03  0.11615821447E+03  0.00000000000E+00 0.  1.
         25    2    1    2    0    0  0.40874078241E+02 -0.48000656372E+02  0.65570146919E+02  0.15467805872E+03  0.12510437402E+03 0.  0.
          5    1    3    3  502    0  0.27240379584E+02 -0.61157566668E+02 -0.17538104084E+02  0.69335010893E+02  0.41800000000E+01 0. -1.
         -5    1    3    3    0  502  0.13633698658E+02  0.13156910296E+02  0.83108251003E+02  0.85343047827E+02  0.41800000000E+01 0. -1.
        -11    1    1    2    0    0 -0.79357602723E+00  0.60451799204E+02 -0.40053621937E+02  0.72521323900E+02  0.00000000000E+00 0.  1.
         11    1    1    2    0    0 -0.40080502214E+02 -0.12451142832E+02  0.13433985819E+02  0.44067557120E+02  0.00000000000E+00 0. -1.
</event>
<event>
 7    1  0.3265282E-009  0.1472490E+03  0.7561462E-02  0.1203895E+00
         -2   -1    0    0    0  501 -0.00000000000E+00  0.00000000000E+00  0.30832083815E+03  0.30832083815E+03  0.00000000000E+00 0.  1.
          2   -1    0    0  501    0  0.00000000000E+00 -0.00000000000E+00 -0.74275735360E+02  0.74275735360E+02  0.00000000000E+00 0. -1.
         25    2    1    2    0    0 -0.75476462405E+02  0.72500189702E+02  0.14045765312E+03  0.21523816549E+03  0.12508453813E+03 0.  0.
          5    1    3    3  502    0  0.28621345566E+02 -0.80033422857E+01  0.37918233939E+02  0.48358037334E+02  0.41800000000E+01 0. -1.
         -5    1    3    3    0  502 -0.10409780797E+03  0.80503531988E+02  0.10253941918E+03  0.16688012815E+03  0.41800000000E+01 0. -1.
        -11    1    1    2    0    0  0.60388446071E+02 -0.90837169160E+02  0.55277039979E+02  0.12228535018E+03  0.00000000000E+00 0.  1.
         11    1    1    2    0    0  0.15088016334E+02  0.18336979458E+02  0.38310409691E+02  0.45073057842E+02  0.00000000000E+00 0. -1.
</event>
<event>
 7    1  0.3265282E-009  0.1212109E+03  0.7561462E-02  0.1241113E+00
          2   -1    0    0  501    0  0.00000000000E+00  0.00000000000E+00  0.46311405465E+03  0.46311405465E+03  0.00000000000E+00 0.  1.
         -2   -1    0    0    0  501 -0.00000000000E+00 -0.00000000000E+00 -0.44107785499E+02  0.44107785499E+02  0.00000000000E+00 0. -1.
         25    2    1    2    0    0 -0.46855081315E+02  0.73567133287E+02  0.25458033624E+03  0.29675607904E+03  0.12508197753E+03 0.  0.
          5    1    3    3  502    0  0.21363767857E+01 -0.11710866572E+02 -0.89316142012E+01  0.15458157519E+02  0.41800000000E+01 0. -1.
         -5    1    3    3    0  502 -0.48991458101E+02  0.85277999859E+02  0.26351195044E+03  0.28129792152E+03  0.41800000000E+01 0. -1.
        -11    1    1    2    0    0 -0.27949468069E+02 -0.22919014408E+01  0.34059382930E+02  0.44118784470E+02  0.00000000000E+00 0. -1.
         11    1    1    2    0    0  0.74804549384E+02 -0.71275231846E+02  0.13036654999E+03  0.16634697664E+03  0.00000000000E+00 0.  1.
</event>
<event>
 7    1  0.3265282E-009  0.4055500E+03  0.7561462E-02  0.1041875E+00
          2   -1    0    0  501    0  0.00000000000E+00  0.00000000000E+00  0.18372151156E+04  0.18372151156E+04  0.00000000000E+00 0. -1.
         -2   -1    0    0    0  501 -0.00000000000E+00 -0.00000000000E+00 -0.91371220697E+02  0.91371220697E+02  0.00000000000E+00 0.  1.
         25    2    1    2    0    0 -0.44863628553E+02 -0.39039149941E+03  0.79565117185E+03  0.89617341638E+03  0.12509091492E+03 0.  0.
          5    1    3    3  502    0 -0.15846318896E+02  0.38278881261E+01  0.39172428534E+02  0.42634611613E+02  0.41800000000E+01 0. -1.
         -5    1    3    3    0  502 -0.29017309656E+02 -0.39421938753E+03  0.75647874331E+03  0.85353880477E+03  0.41800000000E+01 0. -1.
        -11    1    1    2    0    0 -0.13830984375E+01  0.26985859161E+03  0.71301988380E+03  0.76237977879E+03  0.00000000000E+00 0. -1.
         11    1    1    2    0    0  0.46246726990E+02  0.12053290780E+03  0.23717283925E+03  0.27003314111E+03  0.00000000000E+00 0.  1.
</event>
<event>
 7    1  0.3265282E-009  0.8819436E+02  0.7561462E-02  0.1307284E+00
         -1   -1    0    0    0  501 -0.00000000000E+00  0.00000000000E+00  0.16825769293E+02  0.16825769293E+02  0.00000000000E+00 0.  1.
          1   -1    0    0  501    0  0.00000000000E+00 -0.00000000000E+00 -0.88873903527E+03  0.88873903527E+03  0.00000000000E+00 0. -1.
         25    2    1    2    0    0 -0.56955472500E+01  0.54218094172E+02 -0.49392887347E+03  0.51242978802E+03  0.12508602883E+03 0.  0.
          5    1    3    3  502    0 -0.18133989866E+02  0.12323560245E+01 -0.35042088196E+01  0.18976621651E+02  0.41800000000E+01 0.  1.
         -5    1    3    3    0  502  0.12438442616E+02  0.52985738147E+02 -0.49042466465E+03  0.49345316637E+03  0.41800000000E+01 0.  1.
        -11    1    1    2    0    0  0.22917181009E+02 -0.73681620587E+02 -0.32610810698E+03  0.33511292997E+03  0.00000000000E+00 0. -1.
         11    1    1    2    0    0 -0.17221633759E+02  0.19463526415E+02 -0.51876285531E+02  0.58022086574E+02  0.00000000000E+00 0.  1.
</event>
<event>
 7    1  0.3265282E-009  0.1006579E+03  0.7561462E-02  0.1278919E+00
          2   -1    0    0  501    0  0.00000000000E+00  0.00000000000E+00  0.37381642728E+03  0.37381642728E+03  0.00000000000E+00 0. -1.
         -2   -1    0    0    0  501 -0.00000000000E+00 -0.00000000000E+00 -0.45374906354E+02  0.45374906354E+02  0.00000000000E+00 0.  1.
         25    2    1    2    0    0  0.61469003918E+02  0.33866901867E+02  0.20003480346E+03  0.24614489217E+03  0.12509188568E+03 0.  0.
          5    1    3    3  502    0  0.91130852568E+01 -0.29675923496E+02  0.14178180800E+03  0.14520076528E+03  0.41800000000E+01 0. -1.
         -5    1    3    3    0  502  0.52355918661E+02  0.63542825362E+02  0.58252995456E+02  0.10094412689E+03  0.41800000000E+01 0. -1.
        -11    1    1    2    0    0 -0.43854241265E+02  0.57176619250E+01  0.78189748395E+01  0.44911273666E+02  0.00000000000E+00 0.  1.
         11    1    1    2    0    0 -0.17614762653E+02 -0.39584563792E+02  0.12058774263E+03  0.12813516779E+03  0.00000000000E+00 0. -1.
</event>
<event>
 7    1  0.3265282E-009  0.1101129E+03  0.7561462E-02  0.1260361E+00
         -2   -1    0    0    0  501 -0.00000000000E+00  0.00000000000E+00  0.30178054836E+02  0.30178054836E+02  0.00000000000E+00 0.  1.
          2   -1    0    0  501    0  0.00000000000E+00 -0.00000000000E+00 -0.57763224060E+03  0.57763224060E+03  0.00000000000E+00 0. -1.
         25    2    1    2    0    0 -0.66856524810E+02 -0.29827681215E+02 -0.35054763470E+03  0.37933805482E+03  0.12511686603E+03 0.  0.
          5    1    3    3  502    0  0.52887802048E+01  0.21645512448E+02 -0.22194171330E+03  0.22309660667E+03  0.41800000000E+01 0.  1.
         -5    1    3    3    0  502 -0.72145305014E+02 -0.51473193664E+02 -0.12860592140E+03  0.15624144815E+03  0.41800000000E+01 0.  1.
        -11    1    1    2    0    0  0.49530690188E+02  0.57680901681E+02 -0.16934163992E+03  0.18562587832E+03  0.00000000000E+00 0. -1.
         11    1    1    2    0    0  0.17325834622E+02 -0.27853220466E+02 -0.27564911136E+02  0.42846362291E+02  0.00000000000E+00 0.  1.
</event>
<event>
 7    1  0.3265282E-009  0.1925025E+03  0.7561462E-02  0.1156223E+00
          1   -1    0    0  501    0  0.00000000000E+00  0.00000000000E+00  0.87368256023E+03  0.87368256023E+03  0.00000000000E+00 0. -1.
         -1   -1    0    0    0  501 -0.00000000000E+00 -0.00000000000E+00 -0.51766343702E+02  0.51766343702E+02  0.00000000000E+00 0.  1.
         25    2    1    2    0    0 -0.16580094896E+03 -0.12936210997E+02  0.26643270099E+03  0.33807097606E+03  0.12509316714E+03 0.  0.
          5    1    3    3  502    0 -0.14166550593E+03  0.30183729517E+02  0.13680848031E+03  0.19928423366E+03  0.41800000000E+01 0. -1.
         -5    1    3    3    0  502 -0.24135443029E+02 -0.43119940514E+02  0.12962422067E+03  0.13878674240E+03  0.41800000000E+01 0. -1.
        -11    1    1    2    0    0  0.31696622893E+02 -0.35806263016E+02  0.12327167725E+03  0.13222205106E+03  0.00000000000E+00 0. -1.
         11    1    1    2    0    0  0.13410432607E+03  0.48742474013E+02  0.43221183829E+03  0.45515587682E+03  0.00000000000E+00 0.  1.
</event>
<event>
 7    1  0.3265282E-009  0.2036178E+03  0.7561462E-02  0.1146722E+00
         -1   -1    0    0    0  501 -0.00000000000E+00  0.00000000000E+00  0.21822503378E+03  0.21822503378E+03  0.00000000000E+00 0.  1.
          1   -1    0    0  501    0  0.00000000000E+00 -0.00000000000E+00 -0.23996186181E+03  0.23996186181E+03  0.00000000000E+00 0. -1.
         25    2    1    2    0    0  0.83624236002E+02  0.17850355736E+03  0.25694792483E+02  0.23487002252E+03  0.12508865768E+03 0.  0.
          5    1    3    3  502    0  0.11247792133E+02 -0.48447045125E+01  0.35176566231E+02  0.37481291353E+02  0.41800000000E+01 0.  1.
         -5    1    3    3    0  502  0.72376443869E+02  0.18334826187E+03 -0.94817737487E+01  0.19738873117E+03  0.41800000000E+01 0.  1.
        -11    1    1    2    0    0 -0.46889644661E+02 -0.97362130608E+02  0.22124155997E+02  0.11030639842E+03  0.00000000000E+00 0. -1.
         11    1    1    2    0    0 -0.36734591341E+02 -0.81141426751E+02 -0.69555776514E+02  0.11301047466E+03  0.00000000000E+00 0.  1.
</event>
<event>
 7    1  0.3265282E-009  0.9612219E+02  0.7561462E-02  0.1288668E+00
         -4   -1    0    0    0  501 -0.00000000000E+00  0.00000000000E+00  0.73795358603E+03  0.73795358603E+03  0.00000000000E+00 0.  1.
          4   -1    0    0  501    0  0.00000000000E+00 -0.00000000000E+00 -0.18399239398E+02  0.18399239398E+02  0.00000000000E+00 0. -1.
         25    2    1    2    0    0  0.22301571266E+02 -0.19731122950E+02  0.50022242163E+03  0.51648382577E+03  0.12508554628E+03 0.  0.
          5    1    3    3  502    0  0.36528964473E+02  0.47274025838E+02  0.24136412374E+03  0.24868315463E+03  0.41800000000E+01 0.  1.
         -5    1    3    3    0  502 -0.14227393207E+02 -0.67005148788E+02  0.25885829789E+03  0.26780067115E+03  0.41800000000E+01 0.  1.
        -11    1    1    2    0    0 -0.13678114435E+02  0.39693345218E+02  0.21317358875E+03  0.21726856977E+03  0.00000000000E+00 0.  1.
         11    1    1    2    0    0 -0.86234568306E+01 -0.19962222268E+02  0.61583362496E+01  0.22600429884E+02  0.00000000000E+00 0. -1.
</event>
<event>
 7    1  0.3265282E-009  0.9918497E+02  0.7561462E-02  0.1282019E+00
         -1   -1    0    0    0  501 -0.00000000000E+00  0.00000000000E+00  0.20678550253E+02  0.20678550253E+02  0.00000000000E+00 0.  1.
          1   -1    0    0  501    0  0.00000000000E+00 -0.00000000000E+00 -0.92092734237E+03  0.92092734237E+03  0.00000000000E+00 0. -1.
         25    2    1    2    0    0 -0.35183573299E+02 -0.49896782296E+02 -0.69620577495E+03  0.70998524653E+03  0.12509594922E+03 0.  0.
          5    1    3    3  502    0 -0.23942242715E+02  0.26009877660E+02 -0.64921300354E+02  0.74040477860E+02  0.41800000000E+01 0.  1.
         -5    1    3    3    0  502 -0.11241330584E+02 -0.75906659956E+02 -0.63128447460E+03  0.63594476867E+03  0.41800000000E+01 0.  1.
        -11    1    1    2    0    0 -0.17208031185E+02  0.16181691318E+02 -0.65195093376E+01  0.24504437826E+02  0.00000000000E+00 0.  1.
         11    1    1    2    0    0  0.52391604484E+02  0.33715090978E+02 -0.19752350783E+03  0.20711620827E+03  0.00000000000E+00 0. -1.
</event>
<event>
 7    1  0.3265282E-009  0.1360214E+03  0.7561462E-02  0.1218785E+00
         -2   -1    0    0    0  501 -0.00000000000E+00  0.00000000000E+00  0.27107508838E+03  0.27107508838E+03  0.00000000000E+00 0.  1.
          2   -1    0    0  501    0  0.00000000000E+00 -0.00000000000E+00 -0.77171249217E+02  0.77171249217E+02  0.00000000000E+00 0. -1.
         25    2    1    2    0    0 -0.40381114172E+02 -0.71345461827E+02  0.50102673840E+02  0.15772833642E+03  0.12508853217E+03 0.  0.
          5    1    3    3  502    0  0.42658590230E+02 -0.10359975506E+02  0.25285122459E+01  0.44169561772E+02  0.41800000000E+01 0.  1.
         -5    1    3    3    0  502 -0.83039704402E+02 -0.60985486321E+02  0.47574161594E+02  0.11355877465E+03  0.41800000000E+01 0.  1.
        -11    1    1    2    0    0 -0.30991627617E+02  0.19482708814E+02  0.38121790372E+02  0.52851942502E+02  0.00000000000E+00 0.  1.
         11    1    1    2    0    0  0.71372741789E+02  0.51862753013E+02  0.10567937495E+03  0.13766605867E+03  0.00000000000E+00 0. -1.
</event>
<event>
 7    1  0.3265282E-009  0.7355221E+02  0.7561462E-02  0.1348414E+00
          1   -1    0    0  501    0  0.00000000000E+00  0.00000000000E+00  0.44188315507E+02  0.44188315507E+02  0.00000000000E+00 0. -1.
         -1   -1    0    0    0  501 -0.00000000000E+00 -0.00000000000E+00 -0.38848020439E+03  0.38848020439E+03  0.00000000000E+00 0.  1.
         25    2    1    2    0    0 -0.10739307410E+02 -0.75969557518E+00 -0.30694842967E+03  0.33163378592E+03  0.12509084548E+03 0.  0.
          5    1    3    3  502    0 -0.76056063828E+01 -0.56011797131E+02 -0.22923207552E+03  0.23613551938E+03  0.41800000000E+01 0.  1.
         -5    1    3    3    0  502 -0.31337010274E+01  0.55252101555E+02 -0.77716354149E+02  0.95498266532E+02  0.41800000000E+01 0.  1.
        -11    1    1    2    0    0 -0.11304077210E+02  0.51948420951E+01  0.28693687252E+02  0.31274530117E+02  0.00000000000E+00 0. -1.
         11    1    1    2    0    0  0.22043384620E+02 -0.44351465199E+01 -0.66037146465E+02  0.69760203866E+02  0.00000000000E+00 0.  1.
</event>
<event>
 7    1  0.3265282E-009  0.1688558E+03  0.7561462E-02  0.1179046E+00
         -1   -1    0    0    0  501 -0.00000000000E+00  0.00000000000E+00  0.51217644715E+02  0.51217644715E+02  0.00000000000E+00 0.  1.
          1   -1    0    0  501    0  0.00000000000E+00 -0.00000000000E+00 -0.73964337848E+03  0.73964337848E+03  0.00000000000E+00 0. -1.
         25    2    1    2    0    0  0.14129568626E+03 -0.18843208150E+02 -0.50528416452E+03  0.53970380909E+03  0.12509427320E+03 0.  0.
          5    1    3    3  502    0  0.12148393705E+03  0.37124893494E+02 -0.29629410609E+03  0.32240389945E+03  0.41800000000E+01 0.  1.
         -5    1    3    3    0  502  0.19811749214E+02 -0.55968101644E+02 -0.20899005843E+03  0.21729990964E+03  0.41800000000E+01 0.  1.
        -11    1    1    2    0    0 -0.57686857089E+02  0.32753361728E+02 -0.23437487261E+02  0.70355326695E+02  0.00000000000E+00 0.  1.
         11    1    1    2    0    0 -0.83608829170E+02 -0.13910153578E+02 -0.15970408199E+03  0.18080188741E+03  0.00000000000E+00 0. -1.
</event>
<event>
 7    1  0.3265282E-009  0.8754243E+02  0.7561462E-02  0.1308915E+00
         -1   -1    0    0    0  501 -0.00000000000E+00  0.00000000000E+00  0.51334713526E+02  0.51334713526E+02  0.00000000000E+00 0.  1.
          1   -1    0    0  501    0  0.00000000000E+00 -0.00000000000E+00 -0.29760312056E+03  0.29760312056E+03  0.00000000000E+00 0. -1.
         25    2    1    2    0    0  0.41891607122E+02  0.29301327258E+02 -0.18187341266E+03  0.22657965990E+03  0.12508768732E+03 0.  0.
          5    1    3    3  502    0  0.50934235567E+02  0.13558196758E+02 -0.10137829157E+02  0.53836502785E+02  0.41800000000E+01 0. -1.
         -5    1    3    3    0  502 -0.90426284455E+01  0.15743130500E+02 -0.17173558351E+03  0.17274315711E+03  0.41800000000E+01 0. -1.
        -11    1    1    2    0    0 -0.57110015002E+01 -0.57454467750E+02 -0.41577878258E+02  0.71150202832E+02  0.00000000000E+00 0. -1.
         11    1    1    2    0    0 -0.36180605621E+02  0.28153140491E+02 -0.22817116112E+02  0.51207971355E+02  0.00000000000E+00 0.  1.
</event>
<event>
 7    1  0.3265282E-009  0.1317322E+03  0.7561462E-02  0.1224908E+00
          1   -1    0    0  501    0  0.00000000000E+00  0.00000000000E+00  0.27547759391E+03  0.27547759391E+03  0.00000000000E+00 0. -1.
         -1   -1    0    0    0  501 -0.00000000000E+00 -0.00000000000E+00 -0.67179455656E+02  0.67179455656E+02  0.00000000000E+00 0.  1.
         25    2    1    2    0    0  0.14606979075E+02 -0.74931897914E+02  0.86636808607E+02  0.17024079077E+03  0.12509131493E+03 0.  0.
          5    1    3    3  502    0  0.66542529167E+02 -0.26150847428E+02  0.24758144541E+02  0.75777391947E+02  0.41800000000E+01 0. -1.
         -5    1    3    3    0  502 -0.51935550091E+02 -0.48781050486E+02  0.61878664066E+02  0.94463398819E+02  0.41800000000E+01 0. -1.
        -11    1    1    2    0    0  0.25870339649E+02 -0.89162136724E+01  0.16469797382E+02  0.31937870399E+02  0.00000000000E+00 0.  1.
         11    1    1    2    0    0 -0.40477318724E+02  0.83848111587E+02  0.10519153226E+03  0.14047838840E+03  0.00000000000E+00 0. -1.
</event>
<event>
 7    1  0.3265282E-009  0.9636427E+02  0.7561462E-02  0.1288133E+00
          1   -1    0    0  501    0  0.00000000000E+00  0.00000000000E+00  0.15991695384E+02  0.15991695384E+02  0.00000000000E+00 0.  1.
         -1   -1    0    0    0  501 -0.00000000000E+00 -0.00000000000E+00 -0.78436631507E+03  0.78436631507E+03  0.00000000000E+00 0. -1.
         25    2    1    2    0    0 -0.26368318798E+02  0.51082454022E+01 -0.44254536649E+03  0.46066931407E+03  0.12509369734E+03 0.  0.
          5    1    3    3  502    0 -0.35833233114E+02  0.48612215611E+02 -0.11382731526E+03  0.12892361383E+03  0.41800000000E+01 0. -1.
         -5    1    3    3    0  502  0.94649143157E+01 -0.43503970209E+02 -0.32871805122E+03  0.33174570024E+03  0.41800000000E+01 0. -1.
        -11    1    1    2    0    0 -0.15851135356E+02 -0.33181895545E+02 -0.72022912794E+02  0.80867772638E+02  0.00000000000E+00 0.  1.
         11    1    1    2    0    0  0.42219454154E+02  0.28073650142E+02 -0.25380634041E+03  0.25882092375E+03  0.00000000000E+00 0. -1.
</event>
<event>
 7    1  0.3265282E-009  0.1992460E+03  0.7561462E-02  0.1150377E+00
          1   -1    0    0  501    0  0.00000000000E+00  0.00000000000E+00  0.36600942383E+03  0.36600942383E+03  0.00000000000E+00 0.  1.
         -1   -1    0    0    0  501 -0.00000000000E+00 -0.00000000000E+00 -0.12174612022E+03  0.12174612022E+03  0.00000000000E+00 0. -1.
         25    2    1    2    0    0  0.70876272493E+02 -0.16551475061E+03  0.11235687726E+03  0.24635411148E+03  0.12509077386E+03 0.  0.
          5    1    3    3  502    0 -0.27432668470E+02 -0.75095179706E+02  0.69500334324E+02  0.10601700894E+03  0.41800000000E+01 0.  1.
         -5    1    3    3    0  502  0.98308940963E+02 -0.90419570908E+02  0.42856542933E+02  0.14033710254E+03  0.41800000000E+01 0.  1.
        -11    1    1    2    0    0 -0.47755715147E+02  0.59502233934E+02  0.10467886609E+03  0.12953296560E+03  0.00000000000E+00 0.  1.
         11    1    1    2    0    0 -0.23120557345E+02  0.10601251668E+03  0.27227560264E+02  0.11186846697E+03  0.00000000000E+00 0. -1.
</event>
<event>
 7    1  0.4108960E-009  0.1109999E+03  0.7561462E-02  0.1258729E+00
         -2   -1    0    0    0  501 -0.00000000000E+00  0.00000000000E+00  0.30018162072E+02  0.30018162072E+02  0.00000000000E+00 0.  1.
          2   -1    0    0  501    0  0.00000000000E+00 -0.00000000000E+00 -0.59502512625E+03  0.59502512625E+03  0.00000000000E+00 0. -1.
         25    2    1    2    0    0 -0.53442634570E+02  0.54473927819E+02 -0.35833927748E+03  0.38714038919E+03  0.12508844535E+03 0.  0.
          5    1    3    3  502    0  0.24547965011E+02  0.62179033295E+02 -0.18845431756E+03  0.20000334240E+03  0.41800000000E+01 0. -1.
         -5    1    3    3    0  502 -0.77990599581E+02 -0.77051054754E+01 -0.16988495992E+03  0.18713704679E+03  0.41800000000E+01 0. -1.
        -11    1    1    2    0    0  0.23344935746E+02 -0.27988790237E+02 -0.10856029509E+02  0.38029091241E+02  0.00000000000E+00 0.  1.
         11    1    1    2    0    0  0.30097698824E+02 -0.26485137582E+02 -0.19581165719E+03  0.19987380789E+03  0.00000000000E+00 0. -1.
</event>
<event>
 7    1  0.3265282E-009  0.9703022E+02  0.7561462E-02  0.1286668E+00
          1   -1    0    0  501    0  0.00000000000E+00  0.00000000000E+00  0.21358912663E+03  0.21358912663E+03  0.00000000000E+00 0. -1.
         -1   -1    0    0    0  501 -0.00000000000E+00 -0.00000000000E+00 -0.63874250869E+02  0.63874250869E+02  0.00000000000E+00 0.  1.
         25    2    1    2    0    0 -0.40939972794E+02  0.12653322396E+02  0.79218907906E+02  0.15413829352E+03  0.12508713051E+03 0.  0.
          5    1    3    3  502    0 -0.43897504638E+02  0.62286676212E+02  0.24654472824E+02  0.80199353970E+02  0.41800000000E+01 0.  1.
         -5    1    3    3    0  502  0.29575318436E+01 -0.49633353816E+02  0.54564435082E+02  0.73938939548E+02  0.41800000000E+01 0.  1.
        -11    1    1    2    0    0  0.52698551032E+02 -0.32622291856E+01  0.86510171866E+02  0.10134983600E+03  0.00000000000E+00 0. -1.
         11    1    1    2    0    0 -0.11758578237E+02 -0.93910932103E+01 -0.16014204012E+02  0.21975247984E+02  0.00000000000E+00 0.  1.
</event>
<event>
 7    1  0.3265282E-009  0.9782051E+02  0.7561462E-02  0.1284947E+00
          2   -1    0    0  501    0  0.00000000000E+00  0.00000000000E+00  0.18671113901E+03  0.18671113901E+03  0.00000000000E+00 0. -1.
         -2   -1    0    0    0  501 -0.00000000000E+00 -0.00000000000E+00 -0.81752781119E+02  0.81752781119E+02  0.00000000000E+00 0.  1.
         25    2    1    2    0    0  0.27516988780E+02  0.25003892268E+02  0.10765468805E+03  0.16917334930E+03  0.12509081084E+03 0.  0.
          5    1    3    3  502    0 -0.37448856141E+02 -0.27313210699E+02  0.31948323617E+02  0.56449943197E+02  0.41800000000E+01 0. -1.
         -5    1    3    3    0  502  0.64965844922E+02  0.52317102967E+02  0.75706364429E+02  0.11272340611E+03  0.41800000000E+01 0. -1.
        -11    1    1    2    0    0 -0.43155535543E+01  0.17032346127E+02 -0.36541711371E+02  0.40546534833E+02  0.00000000000E+00 0.  1.
         11    1    1    2    0    0 -0.23201435226E+02 -0.42036238395E+02  0.33845381211E+02  0.58744035989E+02  0.00000000000E+00 0. -1.
</event>
<event>
 7    1  0.3265282E-009  0.1081089E+03  0.7561462E-02  0.1264113E+00
         -2   -1    0    0    0  501 -0.00000000000E+00  0.00000000000E+00  0.48858158323E+02  0.48858158323E+02  0.00000000000E+00 0.  1.
          2   -1    0    0  501    0  0.00000000000E+00 -0.00000000000E+00 -0.36248992614E+03  0.36248992614E+03  0.00000000000E+00 0. -1.
         25    2    1    2    0    0  0.65195098241E+01 -0.66685788500E+02 -0.23133281253E+03  0.27138913952E+03  0.12509075307E+03 0.  0.
          5    1    3    3  502    0 -0.22212862264E+02 -0.77852470176E+02 -0.70068093975E+02  0.10715142816E+03  0.41800000000E+01 0. -1.
         -5    1    3    3    0  502  0.28732372088E+02  0.11166681676E+02 -0.16126471855E+03  0.16423771137E+03  0.41800000000E+01 0. -1.
        -11    1    1    2    0    0 -0.37963609553E+02  0.61354008090E+02 -0.28821021239E+02  0.77692993405E+02  0.00000000000E+00 0.  1.
         11    1    1    2    0    0  0.31444099729E+02  0.53317804103E+01 -0.53477934048E+02  0.62265951532E+02  0.00000000000E+00 0. -1.
</event>
<event>
 7    1  0.3265282E-009  0.1288572E+03  0.7561462E-02  0.1229161E+00
          2   -1    0    0  501    0  0.00000000000E+00  0.00000000000E+00  0.23042697318E+03  0.23042697318E+03  0.00000000000E+00 0. -1.
         -2   -1    0    0    0  501 -0.00000000000E+00 -0.00000000000E+00 -0.77615473097E+02  0.77615473097E+02  0.00000000000E+00 0.  1.
         25    2    1    2    0    0 -0.23863060017E+02  0.71506073820E+02  0.81921538200E+02  0.16745570586E+03  0.12509081012E+03 0.  0.
          5    1    3    3  502    0  0.50010866526E+01  0.99182081206E+02  0.34338647171E+02  0.10516040695E+03  0.41800000000E+01 0.  1.
         -5    1    3    3    0  502 -0.28864146670E+02 -0.27676007385E+02  0.47582891029E+02  0.62295298911E+02  0.41800000000E+01 0.  1.
        -11    1    1    2    0    0  0.54820643144E+02 -0.20663277099E+02  0.18916244005E+02  0.61563773621E+02  0.00000000000E+00 0.  1.
         11    1    1    2    0    0 -0.30957583127E+02 -0.50842796721E+02  0.51973717880E+02  0.79022966800E+02  0.00000000000E+00 0. -1.
</event>
<event>
 7    1  0.3265282E-009  0.2130731E+03  0.7561462E-02  0.1139155E+00
          2   -1    0    0  501    0  0.00000000000E+00  0.00000000000E+00  0.14931970321E+03  0.14931970321E+03  0.00000000000E+00 0.  1.
         -2   -1    0    0    0  501 -0.00000000000E+00 -0.00000000000E+00 -0.40252883709E+03  0.40252883709E+03  0.00000000000E+00 0. -1.
         25    2    1    2    0    0 -0.81828241712E+02  0.19580925372E+03 -0.73795778785E+02  0.25715925728E+03  0.12509173297E+03 0.  0.
          5    1    3    3  502    0 -0.61513632496E+01  0.21828820960E+02 -0.62990620252E+02  0.67079261579E+02  0.41800000000E+01 0. -1.
         -5    1    3    3    0  502 -0.75676878463E+02  0.17398043276E+03 -0.10805158533E+02  0.19007999570E+03  0.41800000000E+01 0. -1.
        -11    1    1    2    0    0  0.31617705420E+02 -0.50585976874E+02 -0.15914547613E+01  0.59675397616E+02  0.00000000000E+00 0.  1.
         11    1    1    2    0    0  0.50210536292E+02 -0.14522327684E+03 -0.17782190034E+03  0.23501388540E+03  0.00000000000E+00 0. -1.
</event>
<event>
 7    1  0.6070610E-009  0.1232113E+03  0.7561462E-02  0.1237891E+00
         -1   -1    0    0    0  501 -0.00000000000E+00  0.00000000000E+00  0.26652297766E+02  0.26652297766E+02  0.00000000000E+00 0.  1.
          1   -1    0    0  501    0  0.00000000000E+00 -0.00000000000E+00 -0.75546726417E+03  0.75546726417E+03  0.00000000000E+00 0. -1.
         25    2    1    2    0    0 -0.88162099016E+02  0.45159264363E+00 -0.46090861934E+03  0.48565129839E+03  0.12509064156E+03 0.  0.
          5    1    3    3  502    0 -0.10467606237E+03 -0.35665925004E+02 -0.37356535593E+03  0.38961222233E+03  0.41800000000E+01 0.  1.
         -5    1    3    3    0  502  0.16513963353E+02  0.36117517648E+02 -0.87343263411E+02  0.96039076057E+02  0.41800000000E+01 0.  1.
        -11    1    1    2    0    0  0.41705444467E+02  0.18534445231E+02 -0.22751303431E+03  0.23204536311E+03  0.00000000000E+00 0. -1.
         11    1    1    2    0    0  0.46456654549E+02 -0.18986037874E+02 -0.40393312758E+02  0.64422900444E+02  0.00000000000E+00 0.  1.
</event>
<event>
 7    1  0.3265282E-009  0.1077688E+03  0.7561462E-02  0.1264758E+00
          1   -1    0    0  501    0  0.00000000000E+00  0.00000000000E+00  0.37348457262E+02  0.37348457262E+02  0.00000000000E+00 0. -1.
         -1   -1    0    0    0  501 -0.00000000000E+00 -0.00000000000E+00 -0.42548810988E+03  0.42548810988E+03  0.00000000000E+00 0.  1.
         25    2    1    2    0    0 -0.50955872608E+02 -0.38538472220E+02 -0.22997922683E+03  0.26948203189E+03  0.12509358873E+03 0.  0.
          5    1    3    3  502    0 -0.36256988624E+02 -0.71018105727E+02 -0.21714711165E+03  0.23136222912E+03  0.41800000000E+01 0.  1.
         -5    1    3    3    0  502 -0.14698883985E+02  0.32479633507E+02 -0.12832115185E+02  0.38119802770E+02  0.41800000000E+01 0.  1.
        -11    1    1    2    0    0  0.10808905396E+02  0.55258433972E+02 -0.12966116223E+03  0.14135891890E+03  0.00000000000E+00 0.  1.
         11    1    1    2    0    0  0.40146967213E+02 -0.16719961752E+02 -0.28499263557E+02  0.51995616360E+02  0.00000000000E+00 0. -1.
</event>
<event>
 7    1  0.3265282E-009  0.6865172E+02  0.7561462E-02  0.1364739E+00
          1   -1    0    0  501    0  0.00000000000E+00  0.00000000000E+00  0.25464969065E+03  0.25464969065E+03  0.00000000000E+00 0. -1.
         -1   -1    0    0    0  501 -0.00000000000E+00 -0.00000000000E+00 -0.84044498097E+02  0.84044498097E+02  0.00000000000E+00 0.  1.
         25    2    1    2    0    0  0.24500456409E+02 -0.26049983564E+02  0.19779454557E+03  0.23673641299E+03  0.12507027213E+03 0.  0.
          5    1    3    3  502    0 -0.11581606952E+01 -0.15726860278E+02 -0.14969712577E+02  0.22141367732E+02  0.41800000000E+01 0.  1.
         -5    1    3    3    0  502  0.25658617104E+02 -0.10323123286E+02  0.21276425815E+03  0.21459504526E+03  0.41800000000E+01 0.  1.
        -11    1    1    2    0    0  0.14823125832E+02  0.46421614990E+02 -0.30596384813E+02  0.57539813706E+02  0.00000000000E+00 0. -1.
         11    1    1    2    0    0 -0.39323582241E+02 -0.20371631426E+02  0.34070318008E+01  0.44417962053E+02  0.00000000000E+00 0.  1.
</event>
<event>
 7    1  0.3265282E-009  0.1052456E+03  0.7561462E-02  0.1269637E+00
          2   -1    0    0  501    0  0.00000000000E+00  0.00000000000E+00  0.29862288762E+03  0.29862288762E+03  0.00000000000E+00 0. -1.
         -2   -1    0    0    0  501 -0.00000000000E+00 -0.00000000000E+00 -0.76308137694E+02  0.76308137694E+02  0.00000000000E+00 0.  1.
         25    2    1    2    0    0  0.25757963145E+02  0.10138751537E+03  0.11724029933E+03  0.20084034137E+03  0.12509458020E+03 0.  0.
          5    1    3    3  502    0  0.17733868462E+02  0.83477194341E+02  0.14397127824E+03  0.16741604888E+03  0.41800000000E+01 0. -1.
         -5    1    3    3    0  502  0.80240946829E+01  0.17910321031E+02 -0.26730978908E+02  0.33424292488E+02  0.41800000000E+01 0. -1.
        -11    1    1    2    0    0 -0.16604523748E+02 -0.47382310740E+02 -0.56835969424E+01  0.50528178813E+02  0.00000000000E+00 0.  1.
         11    1    1    2    0    0 -0.91534393968E+01 -0.54005204631E+02  0.11075804754E+03  0.12356250514E+03  0.00000000000E+00 0. -1.
</event>
<event>
 7    1  0.3265282E-009  0.1102990E+03  0.7561462E-02  0.1260017E+00
          1   -1    0    0  501    0  0.00000000000E+00  0.00000000000E+00  0.23932838944E+03  0.23932838944E+03  0.00000000000E+00 0. -1.
         -1   -1    0    0    0  501 -0.00000000000E+00 -0.00000000000E+00 -0.10403913430E+03  0.10403913430E+03  0.00000000000E+00 0.  1.
         25    2    1    2    0    0 -0.86949932548E+02  0.59436717630E+02  0.12259999074E+03  0.20438285856E+03  0.12509428831E+03 0.  0.
          5    1    3    3  502    0 -0.12670773620E+02  0.26169180909E+01 -0.25661384204E+02  0.29040933244E+02  0.41800000000E+01 0. -1.
         -5    1    3    3    0  502 -0.74279158928E+02  0.56819799539E+02  0.14826137495E+03  0.17534192531E+03  0.41800000000E+01 0. -1.
        -11    1    1    2    0    0  0.12580481965E+02 -0.31544452303E+02  0.42274285199E+02  0.54225788945E+02  0.00000000000E+00 0. -1.
         11    1    1    2    0    0  0.74369450583E+02 -0.27892265327E+02 -0.29585020803E+02  0.84758876237E+02  0.00000000000E+00 0.  1.
</event>
<event>
 7    1  0.3265282E-009  0.2672940E+03  0.7561462E-02  0.1102838E+00
         -4   -1    0    0    0  501 -0.00000000000E+00  0.00000000000E+00  0.55678265954E+02  0.55678265954E+02  0.00000000000E+00 0.  1.
          4   -1    0    0  501    0  0.00000000000E+00 -0.00000000000E+00 -0.14685466003E+04  0.14685466003E+04  0.00000000000E+00 0. -1.
         25    2    1    2    0    0 -0.28020447162E+02  0.24968099491E+03 -0.50360050260E+03  0.57652925428E+03  0.12508705027E+03 0.  0.
          5    1    3    3  502    0 -0.49844397724E+02  0.66316910745E+02 -0.24530727372E+03  0.25898943526E+03  0.41800000000E+01 0.  1.
         -5    1    3    3    0  502  0.21823950562E+02  0.18336408417E+03 -0.25829322887E+03  0.31753981902E+03  0.41800000000E+01 0.  1.
        -11    1    1    2    0    0 -0.19788763062E+02 -0.18669730546E+03 -0.61837686654E+03  0.64624873546E+03  0.00000000000E+00 0. -1.
         11    1    1    2    0    0  0.47809210225E+02 -0.62983689451E+02 -0.29089096517E+03  0.30144687648E+03  0.00000000000E+00 0.  1.
</event>
<event>
 7    1  0.3265282E-009  0.1096506E+03  0.7561462E-02  0.1261218E+00
         -3   -1    0    0    0  501 -0.00000000000E+00  0.00000000000E+00  0.23120255469E+03  0.23120255469E+03  0.00000000000E+00 0.  1.
          3   -1    0    0  501    0  0.00000000000E+00 -0.00000000000E+00 -0.97339709708E+02  0.97339709708E+02  0.00000000000E+00 0. -1.
         25    2    1    2    0    0  0.42813216526E+02 -0.91481796402E+02  0.92882358067E+02  0.18567752978E+03  0.12508845688E+03 0.  0.
          5    1    3    3  502    0  0.15168242853E+02 -0.55439546156E+02 -0.22298835021E+02  0.61792631539E+02  0.41800000000E+01 0.  1.
         -5    1    3    3    0  502  0.27644973674E+02 -0.36042250246E+02  0.11518119309E+03  0.12388489825E+03  0.41800000000E+01 0.  1.
        -11    1    1    2    0    0 -0.56199358113E+02  0.62009702025E+02  0.62103015000E+02  0.10421302927E+03  0.00000000000E+00 0.  1.
         11    1    1    2    0    0  0.13386141586E+02  0.29472094377E+02 -0.21122528082E+02  0.38651705346E+02  0.00000000000E+00 0. -1.
</event>
<event>
 7    1  0.3265282E-009  0.9668899E+02  0.7561462E-02  0.1287417E+00
         -2   -1    0    0    0  501 -0.00000000000E+00  0.00000000000E+00  0.39832023313E+02  0.39832023313E+02  0.00000000000E+00 0.  1.
          2   -1    0    0  501    0  0.00000000000E+00 -0.00000000000E+00 -0.43807247811E+03  0.43807247811E+03  0.00000000000E+00 0. -1.
         25    2    1    2    0    0 -0.51662899820E+02 -0.48253965807E+02 -0.24020972454E+03  0.27989930563E+03  0.12508160973E+03 0.  0.
          5    1    3    3  502    0 -0.28563695866E+02 -0.29928267914E+01  0.49953606186E+01  0.29449410205E+02  0.41800000000E+01 0.  1.
         -5    1    3    3    0  502 -0.23099203954E+02 -0.45261139016E+02 -0.24520508516E+03  0.25044989542E+03  0.41800000000E+01 0.  1.
        -11    1    1    2    0    0 -0.74253179934E+01  0.53532838392E+02 -0.10648942241E+03  0.11941899857E+03  0.00000000000E+00 0. -1.
         11    1    1    2    0    0  0.59088217813E+02 -0.52788725851E+01 -0.51541307840E+02  0.78586197223E+02  0.00000000000E+00 0.  1.
</event>
<event>
 7    1  0.3265282E-009  0.1178120E+03  0.7561462E-02  0.1246751E+00
         -2   -1    0    0    0  501 -0.00000000000E+00  0.00000000000E+00  0.15147967925E+03  0.15147967925E+03  0.00000000000E+00 0.  1.
          2   -1    0    0  501    0  0.00000000000E+00 -0.00000000000E+00 -0.10687734677E+03  0.10687734677E+03  0.00000000000E+00 0. -1.
         25    2    1    2    0    0 -0.51457809894E+02  0.27730510085E+01  0.67708244586E+02  0.15128563039E+03  0.12508932635E+03 0.  0.
          5    1    3    3  502    0 -0.46976295552E+01 -0.57418146661E+02  0.39173079553E+02  0.69791932564E+02  0.41800000000E+01 0. -1.
         -5    1    3    3    0  502 -0.46760180339E+02  0.60191197669E+02  0.28535165033E+02  0.81493697828E+02  0.41800000000E+01 0. -1.
        -11    1    1    2    0    0  0.31390330121E+02  0.42017051303E+02  0.85458478598E+00  0.52454892436E+02  0.00000000000E+00 0. -1.
         11    1    1    2    0    0  0.20067479773E+02 -0.44790102312E+02 -0.23960496892E+02  0.54616503191E+02  0.00000000000E+00 0.  1.
</event>
<event>
 7    1  0.3265282E-009  0.7113200E+02  0.7561462E-02  0.1356285E+00
         -1   -1    0    0    0  501 -0.00000000000E+00  0.00000000000E+00  0.13242508565E+03  0.13242508565E+03  0.00000000000E+00 0.  1.
          1   -1    0    0  501    0  0.00000000000E+00 -0.00000000000E+00 -0.99379596818E+02  0.99379596818E+02  0.00000000000E+00 0. -1.
         25    2    1    2    0    0 -0.23918671774E+02 -0.18665277626E+02  0.41427554228E+02  0.13521861118E+03  0.12508930855E+03 0.  0.
          5    1    3    3  502    0 -0.35566572604E+02 -0.14615274544E+02 -0.38301047638E+02  0.54433721047E+02  0.41800000000E+01 0.  1.
         -5    1    3    3    0  502  0.11647900830E+02 -0.40500030818E+01  0.79728601867E+02  0.80784890136E+02  0.41800000000E+01 0.  1.
        -11    1    1    2    0    0 -0.31220839954E+02 -0.29045977539E+01 -0.18666321756E+02  0.36491219539E+02  0.00000000000E+00 0. -1.
         11    1    1    2    0    0  0.55139511728E+02  0.21569875380E+02  0.10284256359E+02  0.60094851746E+02  0.00000000000E+00 0.  1.
</event>
<event>
 7    1  0.3265282E-009  0.9574936E+02  0.7561462E-02  0.1289497E+00
         -2   -1    0    0    0  501 -0.00000000000E+00  0.00000000000E+00  0.15196068287E+03  0.15196068287E+03  0.00000000000E+00 0.  1.
          2   -1    0    0  501    0  0.00000000000E+00 -0.00000000000E+00 -0.94987928070E+02  0.94987928070E+02  0.00000000000E+00 0. -1.
         25    2    1    2    0    0 -0.10114563445E+02 -0.49123717068E+02  0.18574052850E+02  0.13604019619E+03  0.12508595272E+03 0.  0.
          5    1    3    3  502    0 -0.51147347966E+02 -0.72005605559E-01 -0.26435016113E+02  0.57726413934E+02  0.41800000000E+01 0. -1.
         -5    1    3    3    0  502  0.41032784521E+02 -0.49051711463E+02  0.45009068963E+02  0.78313782260E+02  0.41800000000E+01 0. -1.
        -11    1    1    2    0    0  0.79535547037E+00 -0.13125800879E+02  0.45689643659E+02  0.47544324337E+02  0.00000000000E+00 0.  1.
         11    1    1    2    0    0  0.93192079747E+01  0.62249517947E+02 -0.72909417115E+01  0.63364090406E+02  0.00000000000E+00 0. -1.
</event>
<event>
 7    1  0.3265282E-009  0.2316667E+03  0.7561462E-02  0.1125472E+00
         -3   -1    0    0    0  501 -0.00000000000E+00  0.00000000000E+00  0.10409446974E+04  0.10409446974E+04  0.00000000000E+00 0.  1.
          3   -1    0    0  501    0  0.00000000000E+00 -0.00000000000E+00 -0.58785256265E+02  0.58785256265E+02  0.00000000000E+00 0. -1.
         25    2    1    2    0    0 -0.21833699170E+03  0.28551939565E+02  0.56893466673E+03  0.62275226007E+03  0.12508983658E+03 0.  0.
          5    1    3    3  502    0 -0.12190931109E+02  0.28945099586E+02  0.22925505515E+02  0.39108679273E+02  0.41800000000E+01 0. -1.
         -5    1    3    3    0  502 -0.20614606059E+03 -0.39316002065E+00  0.54600916122E+03  0.58364358080E+03  0.41800000000E+01 0. -1.
        -11    1    1    2    0    0  0.17210510687E+03 -0.42300277899E+02  0.37725197152E+03  0.41680754712E+03  0.00000000000E+00 0.  1.
         11    1    1    2    0    0  0.46231884826E+02  0.13748338333E+02  0.35972802918E+02  0.60170146512E+02  0.00000000000E+00 0. -1.
</event>
<event>
 7    1  0.3265282E-009  0.1153758E+03  0.7561462E-02  0.1250927E+00
         -2   -1    0    0    0  501 -0.00000000000E+00  0.00000000000E+00  0.33497708197E+02  0.33497708197E+02  0.00000000000E+00 0.  1.
          2   -1    0    0  501    0  0.00000000000E+00 -0.00000000000E+00 -0.42560160698E+03  0.42560160698E+03  0.00000000000E+00 0. -1.
         25    2    1    2    0    0 -0.44111808656E+02  0.94289226888E+01 -0.26339384000E+03  0.29505724208E+03  0.12509078667E+03 0.  0.
          5    1    3    3  502    0 -0.66116720859E+02  0.52361399132E+02 -0.17307496412E+03  0.19257609535E+03  0.41800000000E+01 0. -1.
         -5    1    3    3    0  502  0.22004912203E+02 -0.42932476443E+02 -0.90318875881E+02  0.10248114673E+03  0.41800000000E+01 0. -1.
        -11    1    1    2    0    0 -0.22684307831E+02  0.14510320873E+02 -0.17471421365E+02  0.32099498409E+02  0.00000000000E+00 0.  1.
         11    1    1    2    0    0  0.66796116487E+02 -0.23939243562E+02 -0.11123863742E+03  0.13194257469E+03  0.00000000000E+00 0. -1.
</event>
<event>
 7    1  0.3265282E-009  0.1122482E+03  0.7561462E-02  0.1256462E+00
         -1   -1    0    0    0  501 -0.00000000000E+00  0.00000000000E+00  0.16001691446E+03  0.16001691446E+03  0.00000000000E+00 0.  1.
          1   -1    0    0  501    0  0.00000000000E+00 -0.00000000000E+00 -0.14296030625E+03  0.14296030625E+03  0.00000000000E+00 0. -1.
         25    2    1    2    0    0 -0.58913209792E+02 -0.84838337128E+02  0.26034132356E+02  0.16429585242E+03  0.12508813430E+03 0.  0.
          5    1    3    3  502    0 -0.52397640216E+01 -0.61660318545E+02 -0.41687731129E+02  0.74731448111E+02  0.41800000000E+01 0. -1.
         -5    1    3    3    0  502 -0.53673445771E+02 -0.23178018583E+02  0.67721863485E+02  0.89564404314E+02  0.41800000000E+01 0. -1.
        -11    1    1    2    0    0  0.45558651092E+02  0.56886020580E+02  0.38166835204E+02  0.82269783859E+02  0.00000000000E+00 0.  1.
         11    1    1    2    0    0  0.13354558701E+02  0.27952316548E+02 -0.47144359352E+02  0.56411584424E+02  0.00000000000E+00 0. -1.
</event>
<event>
 7    1  0.3265282E-009  0.1006282E+03  0.7561462E-02  0.1278980E+00
         -1   -1    0    0    0  501 -0.00000000000E+00  0.00000000000E+00  0.62627935858E+03  0.62627935858E+03  0.00000000000E+00 0.  1.
          1   -1    0    0  501    0  0.00000000000E+00 -0.00000000000E+00 -0.46425105304E+02  0.46425105304E+02  0.00000000000E+00 0. -1.
         25    2    1    2    0    0 -0.41686572456E+02 -0.57368848243E+01  0.56013202212E+03  0.57547094635E+03  0.12509294832E+03 0.  0.
          5    1    3    3  502    0 -0.26066458297E+02  0.56976409106E+02  0.20218491300E+03  0.21171202821E+03  0.41800000000E+01 0. -1.
         -5    1    3    3    0  502 -0.15620114158E+02 -0.62713293930E+02  0.35794710911E+03  0.36375891814E+03  0.41800000000E+01 0. -1.
        -11    1    1    2    0    0 -0.12399454503E+02 -0.11519523245E+02  0.34623130127E+02  0.38538383822E+02  0.00000000000E+00 0.  1.
         11    1    1    2    0    0  0.54086026959E+02  0.17256408070E+02 -0.14900898968E+02  0.58695133714E+02  0.00000000000E+00 0. -1.
</event>
<event>
 7    1  0.3265282E-009  0.2786238E+03  0.7561462E-02  0.1096443E+00
          2   -1    0    0  501    0  0.00000000000E+00  0.00000000000E+00  0.54309524124E+03  0.54309524124E+03  0.00000000000E+00 0. -1.
         -2   -1    0    0    0  501 -0.00000000000E+00 -0.00000000000E+00 -0.20722516521E+03  0.20722516521E+03  0.00000000000E+00 0.  1.
         25    2    1    2    0    0  0.12992725813E+03 -0.23838271730E+03  0.35445405992E+03  0.46367279300E+03  0.12508943229E+03 0.  0.
          5    1    3    3  502    0 -0.73779815960E+01 -0.55677102320E+02  0.22542526256E+02  0.60663104316E+02  0.41800000000E+01 0. -1.
         -5    1    3    3    0  502  0.13730523973E+03 -0.18270561498E+03  0.33191153366E+03  0.40300968869E+03  0.41800000000E+01 0. -1.
        -11    1    1    2    0    0 -0.10389318312E+03  0.20665454000E+03 -0.47903258892E+02  0.23620883686E+03  0.00000000000E+00 0.  1.
         11    1    1    2    0    0 -0.26034075015E+02  0.31728177298E+02  0.29319275005E+02  0.50438776585E+02  0.00000000000E+00 0. -1.
</event>
<event>
 7    1  0.3265282E-009  0.1147381E+03  0.7561462E-02  0.1252039E+00
          3   -1    0    0  501    0  0.00000000000E+00  0.00000000000E+00  0.14545901869E+03  0.14545901869E+03  0.00000000000E+00 0. -1.
         -3   -1    0    0    0  501 -0.00000000000E+00 -0.00000000000E+00 -0.16547332135E+03  0.16547332135E+03  0.00000000000E+00 0.  1.
         25    2    1    2    0    0 -0.32745394891E+02  0.98006088574E+02  0.32087357289E+02  0.16539226022E+03  0.12509015533E+03 0.  0.
          5    1    3    3  502    0 -0.27240818312E+02  0.15812622365E+02  0.68285111792E+02  0.75315536915E+02  0.41800000000E+01 0. -1.
         -5    1    3    3    0  502 -0.55045765794E+01  0.82193466209E+02 -0.36197754504E+02  0.90076723307E+02  0.41800000000E+01 0. -1.
        -11    1    1    2    0    0 -0.39612641633E+01 -0.67148100318E+02 -0.67382598647E+02  0.95210154871E+02  0.00000000000E+00 0.  1.
         11    1    1    2    0    0  0.36706659054E+02 -0.30857988256E+02  0.15280938696E+02  0.50329924951E+02  0.00000000000E+00 0. -1.
</event>
<event>
 7    1  0.3265282E-009  0.7436298E+02  0.7561462E-02  0.1345855E+00
         -3   -1    0    0    0  501 -0.00000000000E+00  0.00000000000E+00  0.18303048448E+03  0.18303048448E+03  0.00000000000E+00 0.  1.
          3   -1    0    0  501    0  0.00000000000E+00 -0.00000000000E+00 -0.72962927982E+02  0.72962927982E+02  0.00000000000E+00 0. -1.
         25    2    1    2    0    0  0.28591636594E+02  0.82819735645E+01  0.92124320189E+02  0.15817944841E+03  0.12509106587E+03 0.  0.
          5    1    3    3  502    0 -0.23840593659E+02 -0.16304091847E+02  0.95658344398E+02  0.10001094225E+03  0.41800000000E+01 0.  1.
         -5    1    3    3    0  502  0.52432230253E+02  0.24586065412E+02 -0.35340242097E+01  0.58168506160E+02  0.41800000000E+01 0.  1.
        -11    1    1    2    0    0 -0.38122922283E+02 -0.22572308896E+02  0.46665601690E+02  0.64347064528E+02  0.00000000000E+00 0.  1.
         11    1    1    2    0    0  0.95312856887E+01  0.14290335331E+02 -0.28722365380E+02  0.33466899524E+02  0.00000000000E+00 0. -1.
</event>
<event>
 7    1  0.3265282E-009  0.1291862E+03  0.7561462E-02  0.1228668E+00
         -1   -1    0    0    0  501 -0.00000000000E+00  0.00000000000E+00  0.19303947000E+02  0.19303947000E+02  0.00000000000E+00 0.  1.
          1   -1    0    0  501    0  0.00000000000E+00 -0.00000000000E+00 -0.96502488850E+03  0.96502488850E+03  0.00000000000E+00 0. -1.
         25    2    1    2    0    0  0.47319885101E+02 -0.61403073215E+02 -0.53609152778E+03  0.55592349902E+03  0.12508917492E+03 0.  0.
          5    1    3    3  502    0 -0.41311760650E+02 -0.35763220784E+02 -0.20072145759E+03  0.20806788668E+03  0.41800000000E+01 0. -1.
         -5    1    3    3    0  502  0.88631645750E+02 -0.25639852431E+02 -0.33537007019E+03  0.34785561234E+03  0.41800000000E+01 0. -1.
        -11    1    1    2    0    0 -0.64696306357E+02  0.22318376492E+02 -0.33895663872E+03  0.34579665255E+03  0.00000000000E+00 0. -1.
         11    1    1    2    0    0  0.17376421256E+02  0.39084696723E+02 -0.70672775003E+02  0.82608683927E+02  0.00000000000E+00 0.  1.
</event>
<event>
 7    1  0.4865522E-009  0.1239813E+03  0.7561462E-02  0.1236670E+00
          2   -1    0    0  501    0  0.00000000000E+00  0.00000000000E+00  0.15832261223E+03  0.15832261223E+03  0.00000000000E+00 0. -1.
         -2   -1    0    0    0  501 -0.00000000000E+00 -0.00000000000E+00 -0.11212197610E+03  0.11212197610E+03  0.00000000000E+00 0.  1.
         25    2    1    2    0    0  0.60479648255E+02  0.38962053884E+02  0.54261339331E+02  0.15416835382E+03  0.12509100239E+03 0.  0.
          5    1    3    3  502    0 -0.24935389157E+02 -0.21398909816E+02  0.34159106164E+02  0.47581550076E+02  0.41800000000E+01 0. -1.
         -5    1    3    3    0  502  0.85415037412E+02  0.60360963699E+02  0.20102233167E+02  0.10658680375E+03  0.41800000000E+01 0. -1.
        -11    1    1    2    0    0 -0.17012214858E+02 -0.59648006129E+02  0.13581942740E+02  0.63496214519E+02  0.00000000000E+00 0. -1.
         11    1    1    2    0    0 -0.43467433396E+02  0.20685952246E+02 -0.21642645949E+02  0.52780019989E+02  0.00000000000E+00 0.  1.
</event>
<event>
 7    1  0.3265282E-009  0.8717820E+02  0.7561462E-02  0.1309833E+00
         -2   -1    0    0    0  501 -0.00000000000E+00  0.00000000000E+00  0.72187014446E+02  0.72187014446E+02  0.00000000000E+00 0.  1.
          2   -1    0    0  501    0  0.00000000000E+00 -0.00000000000E+00 -0.17028446254E+03  0.17028446254E+03  0.00000000000E+00 0. -1.
         25    2    1    2    0    0  0.18014709609E+02  0.26409934167E+02 -0.77657581917E+02  0.15066676853E+03  0.12509100977E+03 0.  0.
          5    1    3    3  502    0  0.66737300017E+02  0.37227676970E+02 -0.32203288121E+02  0.83031869254E+02  0.41800000000E+01 0.  1.
         -5    1    3    3    0  502 -0.48722590408E+02 -0.10817742803E+02 -0.45454293796E+02  0.67634899275E+02  0.41800000000E+01 0.  1.
        -11    1    1    2    0    0  0.85246294550E+01 -0.17972525997E+02  0.28937904502E+02  0.35115286059E+02  0.00000000000E+00 0.  1.
         11    1    1    2    0    0 -0.26539339064E+02 -0.84374081698E+01 -0.49377770683E+02  0.56689422401E+02  0.00000000000E+00 0. -1.
</event>
<event>
 7    1  0.3265282E-009  0.1332155E+03  0.7561462E-02  0.1222761E+00
         -1   -1    0    0    0  501 -0.00000000000E+00  0.00000000000E+00  0.17286204444E+03  0.17286204444E+03  0.00000000000E+00 0.  1.
          1   -1    0    0  501    0  0.00000000000E+00 -0.00000000000E+00 -0.12822248416E+03  0.12822248416E+03  0.00000000000E+00 0. -1.
         25    2    1    2    0    0 -0.35774407946E+02 -0.95384688780E+02  0.19945293160E+02  0.16255429587E+03  0.12509211513E+03 0.  0.
          5    1    3    3  502    0 -0.32893008763E+02  0.22497583417E+02 -0.89922169629E+01  0.41066088820E+02  0.41800000000E+01 0. -1.
         -5    1    3    3    0  502 -0.28813991831E+01 -0.11788227220E+03  0.28937510122E+02  0.12148820705E+03  0.41800000000E+01 0. -1.
        -11    1    1    2    0    0 -0.70588160239E+00  0.50612742483E+02 -0.30124319726E+02  0.58903502522E+02  0.00000000000E+00 0.  1.
         11    1    1    2    0    0  0.36480289548E+02  0.44771946297E+02  0.54818586845E+02  0.79626730213E+02  0.00000000000E+00 0. -1.
</event>
<event>
 7    1  0.3265282E-009  0.1232274E+03  0.7561462E-02  0.1237866E+00
          4   -1    0    0  501    0  0.00000000000E+00  0.00000000000E+00  0.17548187135E+02  0.17548187135E+02  0.00000000000E+00 0.  1.
         -4   -1    0    0    0  501 -0.00000000000E+00 -0.00000000000E+00 -0.92050476456E+03  0.92050476456E+03  0.00000000000E+00 0. -1.
         25    2    1    2    0    0  0.63608912951E+02  0.21161999307E+02 -0.52608328263E+03  0.54489023568E+03  0.12509126530E+03 0.  0.
          5    1    3    3  502    0  0.32738303410E+02  0.73568119498E+02 -0.28120361190E+03  0.29253548240E+03  0.41800000000E+01 0. -1.
         -5    1    3    3    0  502  0.30870609542E+02 -0.52406120191E+02 -0.24487967073E+03  0.25235475328E+03  0.41800000000E+01 0. -1.
        -11    1    1    2    0    0 -0.74353489040E+01 -0.43701634345E+02 -0.23126720458E+03  0.23547746638E+03  0.00000000000E+00 0. -1.
         11    1    1    2    0    0 -0.56173564047E+02  0.22539635038E+02 -0.14560609022E+03  0.15768524964E+03  0.00000000000E+00 0.  1.
</event>
<event>
 7    1  0.3265282E-009  0.9821357E+02  0.7561462E-02  0.1284098E+00
          2   -1    0    0  501    0  0.00000000000E+00  0.00000000000E+00  0.25125211403E+03  0.25125211403E+03  0.00000000000E+00 0.  1.
         -2   -1    0    0    0  501 -0.00000000000E+00 -0.00000000000E+00 -0.61810215559E+02  0.61810215559E+02  0.00000000000E+00 0. -1.
         25    2    1    2    0    0  0.43983963346E+02  0.65077643163E+01  0.52711854317E+02  0.14284019483E+03  0.12509133322E+03 0.  0.
          5    1    3    3  502    0  0.27182635524E+02 -0.58474514360E+02  0.17582907532E+02  0.66968616090E+02  0.41800000000E+01 0.  1.
         -5    1    3    3    0  502  0.16801327822E+02  0.64982278677E+02  0.35128946785E+02  0.75871578742E+02  0.41800000000E+01 0.  1.
        -11    1    1    2    0    0  0.10048598218E+02 -0.26309853833E+01 -0.96263813455E+01  0.14162048865E+02  0.00000000000E+00 0. -1.
         11    1    1    2    0    0 -0.54032561564E+02 -0.38767789330E+01  0.14635642550E+03  0.15606008589E+03  0.00000000000E+00 0.  1.
</event>
<event>
 7    1  0.3265282E-009  0.1332875E+03  0.7561462E-02  0.1222658E+00
          3   -1    0    0  501    0  0.00000000000E+00  0.00000000000E+00  0.27180863099E+03  0.27180863099E+03  0.00000000000E+00 0. -1.
         -3   -1    0    0    0  501 -0.00000000000E+00 -0.00000000000E+00 -0.10012183110E+03  0.10012183110E+03  0.00000000000E+00 0.  1.
         25    2    1    2    0    0 -0.79667820931E+02 -0.69684212266E+02  0.94849027653E+01  0.16414082091E+03  0.12509754025E+03 0.  0.
          5    1    3    3  502    0 -0.58894296901E+02  0.23387567762E+02 -0.15706158439E+02  0.65419204719E+02  0.41800000000E+01 0.  1.
         -5    1    3    3    0  502 -0.20773524031E+02 -0.93071780028E+02  0.25191061204E+02  0.98721616188E+02  0.41800000000E+01 0.  1.
        -11    1    1    2    0    0  0.61174712880E+02  0.41561490141E+02  0.15724394001E+03  0.17376812029E+03  0.00000000000E+00 0. -1.
         11    1    1    2    0    0  0.18493108052E+02  0.28122722125E+02  0.49579571156E+01  0.34021520894E+02  0.00000000000E+00 0.  1.
</event>
<event>
 7    1  0.3265282E-009  0.1164584E+03  0.7561462E-02  0.1249057E+00
          2   -1    0    0  501    0  0.00000000000E+00  0.00000000000E+00  0.17364654851E+04  0.17364654851E+04  0.00000000000E+00 0. -1.
         -2   -1    0    0    0  501 -0.00000000000E+00 -0.00000000000E+00 -0.97074700982E+01  0.97074700982E+01  0.00000000000E+00 0.  1.
         25    2    1    2    0    0  0.38100480000E+01  0.57269196640E+02  0.12514410166E+04  0.12589881041E+04  0.12510855632E+03 0.  0.
          5    1    3    3  502    0  0.42172562886E+02 -0.15457254873E+02  0.69807534632E+03  0.69953135264E+03  0.41800000000E+01 0.  1.
         -5    1    3    3    0  502 -0.38362514886E+02  0.72726451514E+02  0.55336567026E+03  0.55945675143E+03  0.41800000000E+01 0.  1.
        -11    1    1    2    0    0 -0.43551614266E+02 -0.47715117969E+02  0.32806634166E+03  0.33436656549E+03  0.00000000000E+00 0. -1.
         11    1    1    2    0    0  0.39741566266E+02 -0.95540786713E+01  0.14725065682E+03  0.15281828569E+03  0.00000000000E+00 0.  1.
</event>
<event>
 7    1  0.3265282E-009  0.1393579E+03  0.7561462E-02  0.1214196E+00
          1   -1    0    0  501    0  0.00000000000E+00  0.00000000000E+00  0.69210771075E+02  0.69210771075E+02  0.00000000000E+00 0. -1.
         -1   -1    0    0    0  501 -0.00000000000E+00 -0.00000000000E+00 -0.33721541489E+03  0.33721541489E+03  0.00000000000E+00 0.  1.
         25    2    1    2    0    0  0.61751315363E+02  0.75434246965E+02 -0.83051472073E+02  0.17901881873E+03  0.12508652957E+03 0.  0.
          5    1    3    3  502    0  0.25598606111E+02 -0.30017610655E+02  0.44951779785E+00  0.39673921542E+02  0.41800000000E+01 0. -1.
         -5    1    3    3    0  502  0.36152709252E+02  0.10545185762E+03 -0.83500989871E+02  0.13934489718E+03  0.41800000000E+01 0. -1.
        -11    1    1    2    0    0 -0.58734380509E+02 -0.71838881851E+01 -0.55971626461E+02  0.81450344824E+02  0.00000000000E+00 0. -1.
         11    1    1    2    0    0 -0.30169348542E+01 -0.68250358780E+02 -0.12898154528E+03  0.14595702242E+03  0.00000000000E+00 0.  1.
</event>
<event>
 7    1  0.3265282E-009  0.1589882E+03  0.7561462E-02  0.1189844E+00
         -1   -1    0    0    0  501 -0.00000000000E+00  0.00000000000E+00  0.62444003035E+03  0.62444003035E+03  0.00000000000E+00 0.  1.
          1   -1    0    0  501    0  0.00000000000E+00 -0.00000000000E+00 -0.51056505961E+02  0.51056505961E+02  0.00000000000E+00 0. -1.
         25    2    1    2    0    0 -0.11767492847E+03  0.89217711845E+02  0.29896940102E+03  0.35614232078E+03  0.12508981177E+03 0.  0.
          5    1    3    3  502    0 -0.65250018893E+02  0.90782723108E+02  0.27770395913E+03  0.29939276728E+03  0.41800000000E+01 0.  1.
         -5    1    3    3    0  502 -0.52424909574E+02 -0.15650112631E+01  0.21265441888E+02  0.56749553503E+02  0.41800000000E+01 0.  1.
        -11    1    1    2    0    0  0.70351911663E+02 -0.27092239911E+02  0.18971925416E+03  0.20414890726E+03  0.00000000000E+00 0. -1.
         11    1    1    2    0    0  0.47323016804E+02 -0.62125471934E+02  0.84694869208E+02  0.11520530827E+03  0.00000000000E+00 0.  1.
</event>
<event>
 6    1  0.3265282E-009  0.1287478E+03  0.7561462E-02  0.1229326E+00
         -2   -1    0    0    0  501 -0.00000000000E+00  0.00000000000E+00  0.79009041282E+02  0.79009041282E+02  0.00000000000E+00 0.  1.
          2   -1    0    0  501    0  0.00000000000E+00 -0.00000000000E+00 -0.29323567777E+03  0.29323567777E+03  0.00000000000E+00 0. -1.
          5    1    1    2  502    0  0.17005458787E+02  0.32385557703E+02 -0.47058681884E+02  0.59749493027E+02  0.41800000000E+01 0.  1.
         -5    1    1    2    0  502 -0.68035058112E+02 -0.82852336195E+02 -0.16772234574E+03  0.19910182422E+03  0.41800000000E+01 0.  1.
        -11    1    1    2    0    0 -0.25024180998E+02  0.17284081390E+02  0.41139194582E+00  0.30415758210E+02  0.00000000000E+00 0.  1.
         11    1    1    2    0    0  0.76053780323E+02  0.33182697102E+02  0.14299919116E+00  0.82977643598E+02  0.00000000000E+00 0. -1.
</event>
<event>
 7    1  0.3265282E-009  0.1305503E+03  0.7561462E-02  0.1226641E+00
         -2   -1    0    0    0  501 -0.00000000000E+00  0.00000000000E+00  0.84590105870E+02  0.84590105870E+02  0.00000000000E+00 0.  1.
          2   -1    0    0  501    0  0.00000000000E+00 -0.00000000000E+00 -0.20744583579E+03  0.20744583579E+03  0.00000000000E+00 0. -1.
         25    2    1    2    0    0  0.52202508877E+02  0.53385214021E+02 -0.89657065766E+02  0.17105808537E+03  0.12508955240E+03 0.  0.
          5    1    3    3  502    0  0.93204920112E+02  0.35168728481E+02 -0.52684879926E+02  0.11277041088E+03  0.41800000000E+01 0. -1.
         -5    1    3    3    0  502 -0.41002411236E+02  0.18216485540E+02 -0.36972185839E+02  0.58287674497E+02  0.41800000000E+01 0. -1.
        -11    1    1    2    0    0 -0.59876010673E+02  0.24950030584E+01 -0.16859163934E+02  0.62254261725E+02  0.00000000000E+00 0.  1.
         11    1    1    2    0    0  0.76735017966E+01 -0.55880217080E+02 -0.16339500218E+02  0.58723594560E+02  0.00000000000E+00 0. -1.
</event>
<event>
 7    1  0.3265282E-009  0.1028501E+03  0.7561462E-02  0.1274414E+00
         -1   -1    0    0    0  501 -0.00000000000E+00  0.00000000000E+00  0.25643999445E+03  0.25643999445E+03  0.00000000000E+00 0.  1.
          1   -1    0    0  501    0  0.00000000000E+00 -0.00000000000E+00 -0.60054522849E+02  0.60054522849E+02  0.00000000000E+00 0. -1.
         25    2    1    2    0    0 -0.27568996654E+02 -0.51401100983E+02  0.11633994619E+03  0.18051136578E+03  0.12508895770E+03 0.  0.
          5    1    3    3  502    0 -0.28445355681E+01  0.36478198780E+02  0.67499578017E+02  0.76892234988E+02  0.41800000000E+01 0.  1.
         -5    1    3    3    0  502 -0.24724461086E+02 -0.87879299763E+02  0.48840368171E+02  0.10361913079E+03  0.41800000000E+01 0.  1.
        -11    1    1    2    0    0  0.19222128052E+02 -0.54865748963E+01  0.75730907107E+02  0.78324727910E+02  0.00000000000E+00 0.  1.
         11    1    1    2    0    0  0.83468686023E+01  0.56887675879E+02  0.43146183079E+01  0.57658423613E+02  0.00000000000E+00 0. -1.
</event>
<event>
 7    1  0.3265282E-009  0.5173770E+03  0.7561462E-02  0.1009340E+00
         -1   -1    0    0    0  501 -0.00000000000E+00  0.00000000000E+00  0.46597024554E+03  0.46597024554E+03  0.00000000000E+00 0.  1.
          1   -1    0    0  501    0  0.00000000000E+00 -0.00000000000E+00 -0.64250913934E+03  0.64250913934E+03  0.00000000000E+00 0. -1.
         25    2    1    2    0    0 -0.46674351715E+03 -0.20614177150E+03 -0.25583735815E+03  0.58433152834E+03  0.12508653180E+03 0.  0.
          5    1    3    3  502    0 -0.15078802467E+02  0.72956136953E+01 -0.33142966817E+02  0.37370107204E+02  0.41800000000E+01 0.  1.
         -5    1    3    3    0  502 -0.45166471468E+03 -0.21343738520E+03 -0.22269439133E+03  0.54696142114E+03  0.41800000000E+01 0.  1.
        -11    1    1    2    0    0  0.42689579204E+03  0.15747095622E+03  0.64896434861E+02  0.45961795719E+03  0.00000000000E+00 0. -1.
         11    1    1    2    0    0  0.39847725101E+02  0.48670815288E+02  0.14402029486E+02  0.64529899348E+02  0.00000000000E+00 0.  1.
</event>
<event>
 7    1  0.3265282E-009  0.2341069E+03  0.7561462E-02  0.1123782E+00
          3   -1    0    0  501    0  0.00000000000E+00  0.00000000000E+00  0.77205968809E+03  0.77205968809E+03  0.00000000000E+00 0. -1.
         -3   -1    0    0    0  501 -0.00000000000E+00 -0.00000000000E+00 -0.90829223086E+02  0.90829223086E+02  0.00000000000E+00 0.  1.
         25    2    1    2    0    0  0.20553445373E+03 -0.77606010688E+02  0.18756342879E+03  0.31479267343E+03  0.12508909968E+03 0.  0.
          5    1    3    3  502    0  0.18381371788E+03 -0.10613616326E+03  0.13699578067E+03  0.25266120469E+03  0.41800000000E+01 0. -1.
         -5    1    3    3    0  502  0.21720735849E+02  0.28530152571E+02  0.50567648113E+02  0.62131468735E+02  0.41800000000E+01 0. -1.
        -11    1    1    2    0    0 -0.51996687918E+02  0.16294137530E+02  0.23403512763E+03  0.24029480942E+03  0.00000000000E+00 0. -1.
         11    1    1    2    0    0 -0.15353776581E+03  0.61311873158E+02  0.25963190859E+03  0.30780142832E+03  0.00000000000E+00 0.  1.
</event>
<event>
 7    1  0.3265282E-009  0.6660630E+02  0.7561462E-02  0.1372029E+00
         -2   -1    0    0    0  501 -0.00000000000E+00  0.00000000000E+00  0.16378331927E+03  0.16378331927E+03  0.00000000000E+00 0.  1.
          2   -1    0    0  501    0  0.00000000000E+00 -0.00000000000E+00 -0.86342848797E+02  0.86342848797E+02  0.00000000000E+00 0. -1.
         25    2    1    2    0    0 -0.14215575871E+02 -0.15065975197E+01 -0.29396075246E+01  0.12593649345E+03  0.12508799565E+03 0.  0.
          5    1    3    3  502    0  0.13423310683E+02 -0.19619293567E+01 -0.60394781386E+02  0.62040603278E+02  0.41800000000E+01 0.  1.
         -5    1    3    3    0  502 -0.27638886554E+02  0.45533183701E+00  0.57455173861E+02  0.63895890169E+02  0.41800000000E+01 0.  1.
        -11    1    1    2    0    0  0.11976788886E+02 -0.43947975198E+02  0.57186401520E+02  0.73110549956E+02  0.00000000000E+00 0. -1.
         11    1    1    2    0    0  0.22387869854E+01  0.45454572717E+02  0.23193676480E+02  0.51079124667E+02  0.00000000000E+00 0.  1.
</event>
<event>
 7    1  0.3265282E-009  0.7767418E+02  0.7561462E-02  0.1335784E+00
          1   -1    0    0  501    0  0.00000000000E+00  0.00000000000E+00  0.22924842995E+02  0.22924842995E+02  0.00000000000E+00 0. -1.
         -1   -1    0    0    0  501 -0.00000000000E+00 -0.00000000000E+00 -0.62181818769E+03  0.62181818769E+03  0.00000000000E+00 0.  1.
         25    2    1    2    0    0  0.77744537737E+00 -0.28392309329E+01 -0.47402467414E+03  0.49026044239E+03  0.12508894444E+03 0.  0.
          5    1    3    3  502    0  0.35166931370E+02  0.84606290604E+01 -0.37683909352E+02  0.52400808487E+02  0.41800000000E+01 0.  1.
         -5    1    3    3    0  502 -0.34389485992E+02 -0.11299859993E+02 -0.43634076479E+03  0.43785963390E+03  0.41800000000E+01 0.  1.
        -11    1    1    2    0    0 -0.38708024412E+02 -0.13778549643E+02 -0.29709277391E+02  0.50703064476E+02  0.00000000000E+00 0.  1.
         11    1    1    2    0    0  0.37930579035E+02  0.16617780576E+02 -0.95159393163E+02  0.10377952382E+03  0.00000000000E+00 0. -1.
</event>
<event>
 7    1  0.3265282E-009  0.1303903E+03  0.7561462E-02  0.1226878E+00
          1   -1    0    0  501    0  0.00000000000E+00  0.00000000000E+00  0.13079764287E+04  0.13079764287E+04  0.00000000000E+00 0. -1.
         -1   -1    0    0    0  501 -0.00000000000E+00 -0.00000000000E+00 -0.16861918197E+02  0.16861918197E+02  0.00000000000E+00 0.  1.
         25    2    1    2    0    0  0.99099364374E+02 -0.31673633139E+01  0.68320865893E+03  0.70160642201E+03  0.12508710387E+03 0.  0.
          5    1    3    3  502    0  0.68161980156E+02 -0.37098162879E+02  0.61106693946E+03  0.61598912825E+03  0.41800000000E+01 0.  1.
         -5    1    3    3    0  502  0.30937384218E+02  0.33930799565E+02  0.72141719475E+02  0.85617293757E+02  0.41800000000E+01 0.  1.
        -11    1    1    2    0    0 -0.42152872017E+02 -0.45516246090E+02  0.25170288865E+03  0.25923529357E+03  0.00000000000E+00 0.  1.
         11    1    1    2    0    0 -0.56946492357E+02  0.48683609404E+02  0.35620296288E+03  0.36399663127E+03  0.00000000000E+00 0. -1.
</event>
<event>
 7    1  0.3265282E-009  0.8261904E+02  0.7561462E-02  0.1321779E+00
          2   -1    0    0  501    0  0.00000000000E+00  0.00000000000E+00  0.46639038715E+03  0.46639038715E+03  0.00000000000E+00 0. -1.
         -2   -1    0    0    0  501 -0.00000000000E+00 -0.00000000000E+00 -0.31094580918E+02  0.31094580918E+02  0.00000000000E+00 0.  1.
         25    2    1    2    0    0  0.49267347753E+02 -0.74581758020E+01  0.27663783742E+03  0.30767255652E+03  0.12510400875E+03 0.  0.
          5    1    3    3  502    0  0.58559866314E+01  0.33660357373E+02  0.12187856718E+02  0.36514770837E+02  0.41800000000E+01 0. -1.
         -5    1    3    3    0  502  0.43411361122E+02 -0.41118533175E+02  0.26444998070E+03  0.27115778569E+03  0.41800000000E+01 0. -1.
        -11    1    1    2    0    0 -0.19732548046E+02 -0.21730838030E+02  0.14211339752E+03  0.14511313010E+03  0.00000000000E+00 0. -1.
         11    1    1    2    0    0 -0.29534799707E+02  0.29189013832E+02  0.16544571294E+02  0.44699281443E+02  0.00000000000E+00 0.  1.
</event>
<event>
 7    1  0.3265282E-009  0.8897186E+02  0.7561462E-02  0.1305361E+00
          1   -1    0    0  501    0  0.00000000000E+00  0.00000000000E+00  0.27711615959E+02  0.27711615959E+02  0.00000000000E+00 0. -1.
         -1   -1    0    0    0  501 -0.00000000000E+00 -0.00000000000E+00 -0.47233490261E+03  0.47233490261E+03  0.00000000000E+00 0.  1.
         25    2    1    2    0    0  0.38174059347E+02  0.12328267408E+02 -0.26704729679E+03  0.29760907834E+03  0.12509060638E+03 0.  0.
          5    1    3    3  502    0  0.65161972611E+02  0.34935951976E+01 -0.60523638189E+02  0.89100342657E+02  0.41800000000E+01 0. -1.
         -5    1    3    3    0  502 -0.26987913264E+02  0.88346722100E+01 -0.20652365860E+03  0.20850873569E+03  0.41800000000E+01 0. -1.
        -11    1    1    2    0    0 -0.46599079340E+01  0.29718735958E+02 -0.20472752368E+02  0.36387519817E+02  0.00000000000E+00 0. -1.
         11    1    1    2    0    0 -0.33514151413E+02 -0.42047003366E+02 -0.15710323749E+03  0.16604992040E+03  0.00000000000E+00 0.  1.
</event>
<event>
 7    1  0.3265282E-009  0.7005360E+02  0.7561462E-02  0.1359911E+00
         -2   -1    0    0    0  501 -0.00000000000E+00  0.00000000000E+00  0.17635557398E+02  0.17635557398E+02  0.00000000000E+00 0.  1.
          2   -1    0    0  501    0  0.00000000000E+00 -0.00000000000E+00 -0.85101809029E+03  0.85101809029E+03  0.00000000000E+00 0. -1.
         25    2    1    2    0    0 -0.17381682198E+02  0.59202512308E+01 -0.63950860418E+03  0.65188653431E+03  0.12509047343E+03 0.  0.
          5    1    3    3  502    0  0.16757852965E+02 -0.97743753973E+01 -0.11898849576E+02  0.23139124262E+02  0.41800000000E+01 0. -1.
         -5    1    3    3    0  502 -0.34139535163E+02  0.15694626628E+02 -0.62760975461E+03  0.62874741005E+03  0.41800000000E+01 0. -1.
        -11    1    1    2    0    0 -0.13072157763E+01  0.36279396144E+02 -0.31837263721E+02  0.48285761451E+02  0.00000000000E+00 0.  1.
         11    1    1    2    0    0  0.18688897974E+02 -0.42199647375E+02 -0.16203666499E+03  0.16848135192E+03  0.00000000000E+00 0. -1.
</event>
<event>
 7    1  0.3265282E-009  0.1177036E+03  0.7561462E-02  0.1246934E+00
          3   -1    0    0  501    0  0.00000000000E+00  0.00000000000E+00  0.33845361490E+02  0.33845361490E+02  0.00000000000E+00 0. -1.
         -3   -1    0    0    0  501 -0.00000000000E+00 -0.00000000000E+00 -0.43151721142E+03  0.43151721142E+03  0.00000000000E+00 0.  1.
         25    2    1    2    0    0  0.38541099891E+02 -0.35357791101E+02 -0.22234967025E+03  0.26042715006E+03  0.12508930752E+03 0.  0.
          5    1    3    3  502    0 -0.31459519066E+02  0.26142475700E+02 -0.84699434720E+02  0.94151988919E+02  0.41800000000E+01 0. -1.
         -5    1    3    3    0  502  0.70000618957E+02 -0.61500266802E+02 -0.13765023553E+03  0.16627516114E+03  0.41800000000E+01 0. -1.
        -11    1    1    2    0    0 -0.65589423203E+01  0.60177764839E+02 -0.13424486838E+03  0.14726190204E+03  0.00000000000E+00 0.  1.
         11    1    1    2    0    0 -0.31982157570E+02 -0.24819973737E+02 -0.41077311295E+02  0.57673520808E+02  0.00000000000E+00 0. -1.
</event>
<event>
 7    1  0.3265282E-009  0.1421954E+03  0.7561462E-02  0.1210405E+00
          1   -1    0    0  501    0  0.00000000000E+00  0.00000000000E+00  0.68023160569E+03  0.68023160569E+03  0.00000000000E+00 0. -1.
         -1   -1    0    0    0  501 -0.00000000000E+00 -0.00000000000E+00 -0.38469385819E+02  0.38469385819E+02  0.00000000000E+00 0.  1.
         25    2    1    2    0    0 -0.10558649743E+03  0.21339140445E+02  0.45794809766E+03  0.48679369286E+03  0.12509105443E+03 0.  0.
          5    1    3    3  502    0 -0.62150457648E+02  0.63182868676E+02  0.16173021665E+03  0.18446921059E+03  0.41800000000E+01 0. -1.
         -5    1    3    3    0  502 -0.43436039786E+02 -0.41843728231E+02  0.29621788101E+03  0.30232448226E+03  0.41800000000E+01 0. -1.
        -11    1    1    2    0    0  0.26320712029E+02 -0.45307293653E+02  0.10614267523E+03  0.11837144185E+03  0.00000000000E+00 0. -1.
         11    1    1    2    0    0  0.79265785405E+02  0.23968153208E+02  0.77671446976E+02  0.11353585680E+03  0.00000000000E+00 0.  1.
</event>
<event>
 7    1  0.3298483E-009  0.9763397E+02  0.7561462E-02  0.1285352E+00
          1   -1    0    0  501    0  0.00000000000E+00  0.00000000000E+00  0.13431473093E+03  0.13431473093E+03  0.00000000000E+00 0. -1.
         -1   -1    0    0    0  501 -0.00000000000E+00 -0.00000000000E+00 -0.93909926186E+02  0.93909926186E+02  0.00000000000E+00 0.  1.
         25    2    1    2    0    0  0.23891155092E+02  0.18661235425E+02  0.25900866193E+02  0.13129225482E+03  0.12509105606E+03 0.  0.
          5    1    3    3  502    0  0.65136077495E+02 -0.23198654228E+02  0.19907994728E+02  0.72074175705E+02  0.41800000000E+01 0.  1.
         -5    1    3    3    0  502 -0.41244922403E+02  0.41859889653E+02  0.59928714657E+01  0.59218079116E+02  0.41800000000E+01 0.  1.
        -11    1    1    2    0    0 -0.46008213152E+01 -0.38872751310E+02 -0.26531587244E+02  0.47288301649E+02  0.00000000000E+00 0.  1.
         11    1    1    2    0    0 -0.19290333777E+02  0.20211515885E+02  0.41035525795E+02  0.49644100645E+02  0.00000000000E+00 0. -1.
</event>
<event>
 6    1  0.3265282E-009  0.7838508E+02  0.7561462E-02  0.1333698E+00
          1   -1    0    0  501    0  0.00000000000E+00  0.00000000000E+00  0.33037990472E+03  0.33037990472E+03  0.00000000000E+00 0. -1.
         -1   -1    0    0    0  501 -0.00000000000E+00 -0.00000000000E+00 -0.48845746446E+02  0.48845746446E+02  0.00000000000E+00 0.  1.
          5    1    1    2  502    0 -0.32521969209E+01 -0.35913886107E+02  0.91747529108E+02  0.98668462528E+02  0.41800000000E+01 0.  1.
         -5    1    1    2    0  502 -0.13374951494E+02  0.26648796364E+02 -0.29723676223E+02  0.42308592547E+02  0.41800000000E+01 0.  1.
        -11    1    1    2    0    0 -0.36329133110E+02 -0.13306643801E+01  0.11499923633E+03  0.12060846130E+03  0.00000000000E+00 0. -1.
         11    1    1    2    0    0  0.52956281525E+02  0.10595754123E+02  0.10451106906E+03  0.11764013479E+03  0.00000000000E+00 0.  1.
</event>
<event>
 7    1  0.3835474E-009  0.1422461E+03  0.7561462E-02  0.1210338E+00
          2   -1    0    0  501    0  0.00000000000E+00  0.00000000000E+00  0.29659994906E+03  0.29659994906E+03  0.00000000000E+00 0. -1.
         -2   -1    0    0    0  501 -0.00000000000E+00 -0.00000000000E+00 -0.10958978997E+03  0.10958978997E+03  0.00000000000E+00 0.  1.
         25    2    1    2    0    0 -0.85520934856E+02 -0.77997032410E+02  0.19434933441E+03  0.25848904521E+03  0.12509018885E+03 0.  0.
          5    1    3    3  502    0 -0.11723600496E+03 -0.65429600269E+02  0.16847759452E+03  0.21547038244E+03  0.41800000000E+01 0. -1.
         -5    1    3    3    0  502  0.31715070106E+02 -0.12567432141E+02  0.25871739883E+02  0.43018662775E+02  0.41800000000E+01 0. -1.
        -11    1    1    2    0    0  0.43854576293E+02  0.42347694548E+02 -0.49501339611E+02  0.78529826936E+02  0.00000000000E+00 0.  1.
         11    1    1    2    0    0  0.41666358563E+02  0.35649337862E+02  0.42162164293E+02  0.69170866872E+02  0.00000000000E+00 0. -1.
</event>
<event>
 7    1  0.3265282E-009  0.2628899E+03  0.7561462E-02  0.1105419E+00
          2   -1    0    0  501    0  0.00000000000E+00  0.00000000000E+00  0.18816881506E+04  0.18816881506E+04  0.00000000000E+00 0. -1.
         -2   -1    0    0    0  501 -0.00000000000E+00 -0.00000000000E+00 -0.39853002303E+02  0.39853002303E+02  0.00000000000E+00 0.  1.
         25    2    1    2    0    0  0.61462717895E+02 -0.23918981927E+03  0.78779390308E+03  0.83502034969E+03  0.12510122036E+03 0.  0.
          5    1    3    3  502    0  0.76775854218E+02 -0.12433598585E+03  0.56809693460E+03  0.58660512158E+03  0.41800000000E+01 0. -1.
         -5    1    3    3    0  502 -0.15313136323E+02 -0.11485383342E+03  0.21969696848E+03  0.24841522811E+03  0.41800000000E+01 0. -1.
        -11    1    1    2    0    0 -0.56508772617E+02  0.53271430313E+02  0.30299205890E+03  0.31278630793E+03  0.00000000000E+00 0. -1.
         11    1    1    2    0    0 -0.49539452786E+01  0.18591838896E+03  0.75104918629E+03  0.77373449526E+03  0.00000000000E+00 0.  1.
</event>
<event>
 7    1  0.3265282E-009  0.9879754E+02  0.7561462E-02  0.1282845E+00
          2   -1    0    0  501    0  0.00000000000E+00  0.00000000000E+00  0.80790038994E+03  0.80790038994E+03  0.00000000000E+00 0. -1.
         -2   -1    0    0    0  501 -0.00000000000E+00 -0.00000000000E+00 -0.13873240274E+02  0.13873240274E+02  0.00000000000E+00 0.  1.
         25    2    1    2    0    0 -0.24958906608E+02 -0.12435254652E+02  0.46799706496E+03  0.48522807173E+03  0.12508975261E+03 0.  0.
          5    1    3    3  502    0  0.41856113394E+02 -0.22621401350E+02  0.97222509995E+02  0.10832059304E+03  0.41800000000E+01 0.  1.
         -5    1    3    3    0  502 -0.66815020002E+02  0.10186146697E+02  0.37077455496E+03  0.37690747869E+03  0.41800000000E+01 0.  1.
        -11    1    1    2    0    0 -0.16753846878E+02  0.31942027467E+02  0.11388709660E+03  0.11946235924E+03  0.00000000000E+00 0. -1.
         11    1    1    2    0    0  0.41712753486E+02 -0.19506772815E+02  0.21214298811E+03  0.21708319924E+03  0.00000000000E+00 0.  1.
</event>
<event>
 7    1  0.3265282E-009  0.2483602E+03  0.7561462E-02  0.1114346E+00
         -3   -1    0    0    0  501 -0.00000000000E+00  0.00000000000E+00  0.64474451135E+02  0.64474451135E+02  0.00000000000E+00 0.  1.
          3   -1    0    0  501    0  0.00000000000E+00 -0.00000000000E+00 -0.11749379893E+04  0.11749379893E+04  0.00000000000E+00 0. -1.
         25    2    1    2    0    0  0.22315765879E+03  0.10432470634E+03 -0.41711555060E+03  0.50031832215E+03  0.12510018346E+03 0.  0.
          5    1    3    3  502    0  0.96600349043E+02  0.53866470464E+02 -0.79648597464E+02  0.13636200187E+03  0.41800000000E+01 0. -1.
         -5    1    3    3    0  502  0.12655730975E+03  0.50458235878E+02 -0.33746695313E+03  0.36395632028E+03  0.41800000000E+01 0. -1.
        -11    1    1    2    0    0 -0.19193358665E+03 -0.72572784243E+02 -0.49571372033E+03  0.53650480260E+03  0.00000000000E+00 0.  1.
         11    1    1    2    0    0 -0.31224072147E+02 -0.31751922098E+02 -0.19763426719E+03  0.20258931563E+03  0.00000000000E+00 0. -1.
</event>
<event>
 7    1  0.3265282E-009  0.1001580E+03  0.7561462E-02  0.1279964E+00
         -1   -1    0    0    0  501 -0.00000000000E+00  0.00000000000E+00  0.31155915849E+03  0.31155915849E+03  0.00000000000E+00 0.  1.
          1   -1    0    0  501    0  0.00000000000E+00 -0.00000000000E+00 -0.11589422690E+03  0.11589422690E+03  0.00000000000E+00 0. -1.
         25    2    1    2    0    0 -0.88435864934E+00  0.40995810097E+02  0.27476170293E+03  0.30466836284E+03  0.12508948549E+03 0.  0.
          5    1    3    3  502    0  0.15251905118E+02  0.73163967868E+02  0.93253630223E+02  0.11957967534E+03  0.41800000000E+01 0. -1.
         -5    1    3    3    0  502 -0.16136263767E+02 -0.32168157771E+02  0.18150807271E+03  0.18508868750E+03  0.41800000000E+01 0. -1.
        -11    1    1    2    0    0  0.38421334955E+02 -0.33454411836E+02 -0.63581026570E+02  0.81473576028E+02  0.00000000000E+00 0.  1.
         11    1    1    2    0    0 -0.37536976306E+02 -0.75413982611E+01 -0.15515744776E+02  0.41311446523E+02  0.00000000000E+00 0. -1.
</event>
<event>
 7    1  0.3265282E-009  0.1023464E+03  0.7561462E-02  0.1275438E+00
          1   -1    0    0  501    0  0.00000000000E+00  0.00000000000E+00  0.52935301634E+03  0.52935301634E+03  0.00000000000E+00 0. -1.
         -1   -1    0    0    0  501 -0.00000000000E+00 -0.00000000000E+00 -0.29353061519E+02  0.29353061519E+02  0.00000000000E+00 0.  1.
         25    2    1    2    0    0  0.14408468035E+02 -0.19986882648E+02  0.38705699498E+03  0.40751375841E+03  0.12508903429E+03 0.  0.
          5    1    3    3  502    0  0.23595443902E+02  0.50326612068E+02  0.14900596778E+03  0.15909042614E+03  0.41800000000E+01 0. -1.
         -5    1    3    3    0  502 -0.91869758673E+01 -0.70313494716E+02  0.23805102719E+03  0.24842333226E+03  0.41800000000E+01 0. -1.
        -11    1    1    2    0    0  0.93073961220E+01  0.43522258006E+02  0.10876690166E+03  0.11752043848E+03  0.00000000000E+00 0. -1.
         11    1    1    2    0    0 -0.23715864157E+02 -0.23535375358E+02  0.41760581807E+01  0.33671880967E+02  0.00000000000E+00 0.  1.
</event>
<event>
 7    1  0.3265282E-009  0.8819886E+02  0.7561462E-02  0.1307273E+00
          1   -1    0    0  501    0  0.00000000000E+00  0.00000000000E+00  0.53393084417E+02  0.53393084417E+02  0.00000000000E+00 0. -1.
         -1   -1    0    0    0  501 -0.00000000000E+00 -0.00000000000E+00 -0.23875996198E+03  0.23875996198E+03  0.00000000000E+00 0.  1.
         25    2    1    2    0    0  0.24939101184E+02 -0.13163362763E+02 -0.12721257899E+03  0.18062742947E+03  0.12509194673E+03 0.  0.
          5    1    3    3  502    0 -0.33772205300E+02 -0.36144857914E+02 -0.10036794383E+03  0.11197414502E+03  0.41800000000E+01 0.  1.
         -5    1    3    3    0  502  0.58711306484E+02  0.22981495151E+02 -0.26844635159E+02  0.68653284446E+02  0.41800000000E+01 0.  1.
        -11    1    1    2    0    0 -0.24532718911E+02 -0.19229771663E+02 -0.70321479631E+02  0.76920406348E+02  0.00000000000E+00 0.  1.
         11    1    1    2    0    0 -0.40638227308E+00  0.32393134426E+02  0.12167181057E+02  0.34605210581E+02  0.00000000000E+00 0. -1.
</event>
<event>
 7    1  0.3265282E-009  0.1200779E+03  0.7561462E-02  0.1242969E+00
          2   -1    0    0  501    0  0.00000000000E+00  0.00000000000E+00  0.30801623716E+03  0.30801623716E+03  0.00000000000E+00 0. -1.
         -2   -1    0    0    0  501 -0.00000000000E+00 -0.00000000000E+00 -0.67784801230E+02  0.67784801230E+02  0.00000000000E+00 0.  1.
         25    2    1    2    0    0 -0.21007780947E+02 -0.18671578022E+02  0.33931273459E+02  0.13262043252E+03  0.12508754181E+03 0.  0.
          5    1    3    3  502    0  0.21933589347E+02  0.36268531716E+02  0.44924799747E+02  0.61904755607E+02  0.41800000000E+01 0.  1.
         -5    1    3    3    0  502 -0.42941370294E+02 -0.54940109739E+02 -0.10993526288E+02  0.70715676912E+02  0.41800000000E+01 0.  1.
        -11    1    1    2    0    0 -0.52398732899E+02  0.13560462755E+02  0.10295206127E+03  0.11631268323E+03  0.00000000000E+00 0.  1.
         11    1    1    2    0    0  0.73406513846E+02  0.51111152673E+01  0.10334810120E+03  0.12686792265E+03  0.00000000000E+00 0. -1.
</event>
<event>
 7    1  0.3265282E-009  0.1320539E+03  0.7561462E-02  0.1224440E+00
          2   -1    0    0  501    0  0.00000000000E+00  0.00000000000E+00  0.50734094099E+03  0.50734094099E+03  0.00000000000E+00 0. -1.
         -2   -1    0    0    0  501 -0.00000000000E+00 -0.00000000000E+00 -0.38989902258E+02  0.38989902258E+02  0.00000000000E+00 0.  1.
         25    2    1    2    0    0  0.19206391434E+02 -0.78670557169E+02  0.18517190250E+03  0.23768410717E+03  0.12508860575E+03 0.  0.
          5    1    3    3  502    0 -0.39186647009E+02  0.11724160239E+02  0.45742443213E+02  0.61505225373E+02  0.41800000000E+01 0. -1.
         -5    1    3    3    0  502  0.58393038442E+02 -0.90394717408E+02  0.13942945929E+03  0.17617888180E+03  0.41800000000E+01 0. -1.
        -11    1    1    2    0    0 -0.30316763722E+02  0.92624022020E+02  0.26818705554E+03  0.28534647777E+03  0.00000000000E+00 0. -1.
         11    1    1    2    0    0  0.11110372288E+02 -0.13953464850E+02  0.14992080689E+02  0.23300258306E+02  0.00000000000E+00 0.  1.
</event>
<event>
 7    1  0.3265282E-009  0.1446136E+03  0.7561462E-02  0.1207252E+00
          1   -1    0    0  501    0  0.00000000000E+00  0.00000000000E+00  0.20436081082E+03  0.20436081082E+03  0.00000000000E+00 0. -1.
         -1   -1    0    0    0  501 -0.00000000000E+00 -0.00000000000E+00 -0.11014934257E+03  0.11014934257E+03  0.00000000000E+00 0.  1.
         25    2    1    2    0    0 -0.34055460437E+02  0.89422009579E+02  0.92720963058E+01  0.15776583085E+03  0.12509202785E+03 0.  0.
          5    1    3    3  502    0  0.37087142906E+02  0.76425753041E+02  0.47892470242E+01  0.85186625616E+02  0.41800000000E+01 0. -1.
         -5    1    3    3    0  502 -0.71142603343E+02  0.12996256538E+02  0.44828492816E+01  0.72579205232E+02  0.41800000000E+01 0. -1.
        -11    1    1    2    0    0  0.83947372150E+01 -0.10256229305E+03  0.66257092872E+02  0.12239075915E+03  0.00000000000E+00 0. -1.
         11    1    1    2    0    0  0.25660723222E+02  0.13140283473E+02  0.18682279076E+02  0.34353563389E+02  0.00000000000E+00 0.  1.
</event>
<event>
 7    1  0.3265282E-009  0.1624285E+03  0.7561462E-02  0.1185982E+00
         -1   -1    0    0    0  501 -0.00000000000E+00  0.00000000000E+00  0.49108328989E+02  0.49108328989E+02  0.00000000000E+00 0.  1.
          1   -1    0    0  501    0  0.00000000000E+00 -0.00000000000E+00 -0.86579171006E+03  0.86579171006E+03  0.00000000000E+00 0. -1.
         25    2    1    2    0    0  0.38638581565E+02  0.14213688376E+03 -0.64509725138E+03  0.67341963055E+03  0.12509077248E+03 0.  0.
          5    1    3    3  502    0  0.73744981621E+01 -0.80688561613E+01 -0.15286385200E+01  0.11802491204E+02  0.41800000000E+01 0.  1.
         -5    1    3    3    0  502  0.31264083403E+02  0.15020573992E+03 -0.64356861286E+03  0.66161713935E+03  0.41800000000E+01 0.  1.
        -11    1    1    2    0    0  0.33150296002E+01 -0.10053257694E+03 -0.65449015638E+02  0.12000567526E+03  0.00000000000E+00 0.  1.
         11    1    1    2    0    0 -0.41953611165E+02 -0.41604306815E+02 -0.10613711404E+03  0.12147473323E+03  0.00000000000E+00 0. -1.
</event>
<event>
 7    1  0.3265282E-009  0.1224936E+03  0.7561462E-02  0.1239039E+00
          1   -1    0    0  501    0  0.00000000000E+00  0.00000000000E+00  0.22033703379E+02  0.22033703379E+02  0.00000000000E+00 0. -1.
         -1   -1    0    0    0  501 -0.00000000000E+00 -0.00000000000E+00 -0.70878487804E+03  0.70878487804E+03  0.00000000000E+00 0.  1.
         25    2    1    2    0    0 -0.45128938362E+02  0.34380952180E+02 -0.35337546159E+03  0.37913276051E+03  0.12509501306E+03 0.  0.
          5    1    3    3  502    0 -0.17722715899E+02 -0.46427248847E+02 -0.10006095465E+03  0.11180004982E+03  0.41800000000E+01 0.  1.
         -5    1    3    3    0  502 -0.27406222462E+02  0.80808201027E+02 -0.25331450693E+03  0.26733271069E+03  0.41800000000E+01 0.  1.
        -11    1    1    2    0    0  0.72950929149E+01  0.32248690031E+02 -0.13594880766E+03  0.13991166747E+03  0.00000000000E+00 0.  1.
         11    1    1    2    0    0  0.37833845447E+02 -0.66629642211E+02 -0.19742690541E+03  0.21177415344E+03  0.00000000000E+00 0. -1.
</event>
<event>
 7    1  0.3265282E-009  0.1299982E+03  0.7561462E-02  0.1227458E+00
         -1   -1    0    0    0  501 -0.00000000000E+00  0.00000000000E+00  0.48127513141E+03  0.48127513141E+03  0.00000000000E+00 0.  1.
          1   -1    0    0  501    0  0.00000000000E+00 -0.00000000000E+00 -0.48266790375E+02  0.48266790375E+02  0.00000000000E+00 0. -1.
         25    2    1    2    0    0  0.93938324652E+02 -0.45499889739E+02  0.18712003288E+03  0.24810673026E+03  0.12509354136E+03 0.  0.
          5    1    3    3  502    0 -0.17941791307E+02 -0.30979308658E+02  0.97546991184E+02  0.10399285230E+03  0.41800000000E+01 0. -1.
         -5    1    3    3    0  502  0.11188011596E+03 -0.14520581081E+02  0.89573041696E+02  0.14411387796E+03  0.41800000000E+01 0. -1.
        -11    1    1    2    0    0 -0.36024817757E+02 -0.21098468325E+01  0.15714838054E+02  0.39359815588E+02  0.00000000000E+00 0. -1.
         11    1    1    2    0    0 -0.57913506895E+02  0.47609736571E+02  0.23017347010E+03  0.24207537593E+03  0.00000000000E+00 0.  1.
</event>
<event>
 7    1  0.4877378E-009  0.1317558E+03  0.7561462E-02  0.1224873E+00
          1   -1    0    0  501    0  0.00000000000E+00  0.00000000000E+00  0.67473390134E+03  0.67473390134E+03  0.00000000000E+00 0. -1.
         -1   -1    0    0    0  501 -0.00000000000E+00 -0.00000000000E+00 -0.41317278646E+02  0.41317278646E+02  0.00000000000E+00 0.  1.
         25    2    1    2    0    0  0.10553858143E+03  0.69308607844E+02  0.32717610164E+03  0.37233607716E+03  0.12509147687E+03 0.  0.
          5    1    3    3  502    0  0.42720122684E+02  0.48311984164E+02  0.28822973865E+03  0.29538603782E+03  0.41800000000E+01 0.  1.
         -5    1    3    3    0  502  0.62818458749E+02  0.20996623680E+02  0.38946362986E+02  0.76950039346E+02  0.41800000000E+01 0.  1.
        -11    1    1    2    0    0 -0.37380010298E+02 -0.48543355321E+02  0.54213263698E+02  0.81809537808E+02  0.00000000000E+00 0.  1.
         11    1    1    2    0    0 -0.68158571135E+02 -0.20765252523E+02  0.25202725736E+03  0.26190556502E+03  0.00000000000E+00 0. -1.
</event>
<event>
 7    1  0.3265282E-009  0.3346334E+03  0.7561462E-02  0.1069105E+00
         -1   -1    0    0    0  501 -0.00000000000E+00  0.00000000000E+00  0.38250190836E+03  0.38250190836E+03  0.00000000000E+00 0.  1.
          1   -1    0    0  501    0  0.00000000000E+00 -0.00000000000E+00 -0.39101318154E+03  0.39101318154E+03  0.00000000000E+00 0. -1.
         25    2    1    2    0    0 -0.20861769463E+03  0.24309608985E+03  0.18488562829E+03  0.39044413788E+03  0.12508748076E+03 0.  0.
          5    1    3    3  502    0  0.11571882411E+02  0.48061923658E+02  0.30159895717E+02  0.58059871494E+02  0.41800000000E+01 0.  1.
         -5    1    3    3    0  502 -0.22018957704E+03  0.19503416620E+03  0.15472573257E+03  0.33238426639E+03  0.41800000000E+01 0.  1.
        -11    1    1    2    0    0  0.34384148787E+02 -0.78906895503E+02 -0.22619523218E+02  0.88995565487E+02  0.00000000000E+00 0. -1.
         11    1    1    2    0    0  0.17423354585E+03 -0.16418919435E+03 -0.17077737825E+03  0.29407538653E+03  0.00000000000E+00 0.  1.
</event>
<event>
 7    1  0.3265282E-009  0.1315950E+03  0.7561462E-02  0.1225108E+00
         -2   -1    0    0    0  501 -0.00000000000E+00  0.00000000000E+00  0.45264007136E+03  0.45264007136E+03  0.00000000000E+00 0.  1.
          2   -1    0    0  501    0  0.00000000000E+00 -0.00000000000E+00 -0.70179599017E+02  0.70179599017E+02  0.00000000000E+00 0. -1.
         25    2    1    2    0    0 -0.89141138883E+02 -0.64550618420E+02  0.33431543446E+03  0.37353354259E+03  0.12509025837E+03 0.  0.
          5    1    3    3  502    0 -0.70348231723E+02 -0.93032193123E+02  0.31050587747E+03  0.33171559356E+03  0.41800000000E+01 0. -1.
         -5    1    3    3    0  502 -0.18792907159E+02  0.28481574703E+02  0.23809556984E+02  0.41817949027E+02  0.41800000000E+01 0. -1.
        -11    1    1    2    0    0  0.25182102171E+02  0.71890905652E+01  0.57187151331E+02  0.62898263651E+02  0.00000000000E+00 0.  1.
         11    1    1    2    0    0  0.63959036711E+02  0.57361527855E+02 -0.90421134483E+01  0.86387864139E+02  0.00000000000E+00 0. -1.
</event>
<event>
 7    1  0.3265282E-009  0.1561166E+03  0.7561462E-02  0.1193152E+00
          1   -1    0    0  501    0  0.00000000000E+00  0.00000000000E+00  0.34205891183E+03  0.34205891183E+03  0.00000000000E+00 0. -1.
         -1   -1    0    0    0  501 -0.00000000000E+00 -0.00000000000E+00 -0.84591652764E+02  0.84591652764E+02  0.00000000000E+00 0.  1.
         25    2    1    2    0    0 -0.52240382753E+02  0.11556513188E+03  0.93811271911E+02  0.20132627489E+03  0.12508939575E+03 0.  0.
          5    1    3    3  502    0  0.53314090634E+00 -0.18307430786E+02 -0.12327174906E+02  0.22469488254E+02  0.41800000000E+01 0. -1.
         -5    1    3    3    0  502 -0.52773523659E+02  0.13387256267E+03  0.10613844682E+03  0.17885678664E+03  0.41800000000E+01 0. -1.
        -11    1    1    2    0    0  0.71922781794E+02 -0.72427591260E+02  0.82125631460E+02  0.13100863277E+03  0.00000000000E+00 0.  1.
         11    1    1    2    0    0 -0.19682399041E+02 -0.43137540621E+02  0.81530355691E+02  0.94315656929E+02  0.00000000000E+00 0. -1.
</event>
<event>
 7    1  0.3265282E-009  0.1052295E+03  0.7561462E-02  0.1269668E+00
         -1   -1    0    0    0  501 -0.00000000000E+00  0.00000000000E+00  0.15182288552E+03  0.15182288552E+03  0.00000000000E+00 0.  1.
          1   -1    0    0  501    0  0.00000000000E+00 -0.00000000000E+00 -0.12469365405E+03  0.12469365405E+03  0.00000000000E+00 0. -1.
         25    2    1    2    0    0 -0.34542803159E+01  0.69635460419E+02  0.64393454094E+02  0.15702581055E+03  0.12509819682E+03 0.  0.
          5    1    3    3  502    0 -0.25393966110E+02  0.74571056742E+02  0.91989568720E+02  0.12118270987E+03  0.41800000000E+01 0.  1.
         -5    1    3    3    0  502  0.21939685795E+02 -0.49355963231E+01 -0.27596114625E+02  0.35843100678E+02  0.41800000000E+01 0.  1.
        -11    1    1    2    0    0 -0.27028218165E+02  0.55295236836E+01 -0.25431351820E+02  0.37521378768E+02  0.00000000000E+00 0. -1.
         11    1    1    2    0    0  0.30482498480E+02 -0.75164984102E+02 -0.11832870800E+02  0.81969350248E+02  0.00000000000E+00 0.  1.
</event>
<event>
 7    1  0.3265282E-009  0.1014123E+03  0.7561462E-02  0.1277354E+00
         -4   -1    0    0    0  501 -0.00000000000E+00  0.00000000000E+00  0.13626183672E+03  0.13626183672E+03  0.00000000000E+00 0.  1.
          4   -1    0    0  501    0  0.00000000000E+00 -0.00000000000E+00 -0.90684584705E+02  0.90684584705E+02  0.00000000000E+00 0. -1.
         25    2    1    2    0    0  0.11309933956E+02 -0.78679965071E+01  0.55946911894E+02  0.13772208774E+03  0.12508995374E+03 0.  0.
          5    1    3    3  502    0  0.23514704899E+01 -0.66111032326E+02  0.35603219203E+02  0.75241342534E+02  0.41800000000E+01 0. -1.
         -5    1    3    3    0  502  0.89584634665E+01  0.58243035819E+02  0.20343692691E+02  0.62480745206E+02  0.41800000000E+01 0. -1.
        -11    1    1    2    0    0 -0.43919288587E+02  0.22636139980E-02  0.15804505151E+02  0.46676399799E+02  0.00000000000E+00 0.  1.
         11    1    1    2    0    0  0.32609354630E+02  0.78657328931E+01 -0.26174165027E+02  0.42547933889E+02  0.00000000000E+00 0. -1.
</event>
<event>
 7    1  0.3419724E-009  0.1243172E+03  0.7561462E-02  0.1236140E+00
         -2   -1    0    0    0  501 -0.00000000000E+00  0.00000000000E+00  0.21826248453E+02  0.21826248453E+02  0.00000000000E+00 0.  1.
          2   -1    0    0  501    0  0.00000000000E+00 -0.00000000000E+00 -0.96716644146E+03  0.96716644146E+03  0.00000000000E+00 0. -1.
         25    2    1    2    0    0 -0.34507034796E+02  0.85115577712E+02 -0.61963437661E+03  0.63877237928E+03  0.12509194556E+03 0.  0.
          5    1    3    3  502    0 -0.45440003696E+02  0.10758254845E+03 -0.37392123803E+03  0.39175676550E+03  0.41800000000E+01 0.  1.
         -5    1    3    3    0  502  0.10932968900E+02 -0.22466970734E+02 -0.24571313858E+03  0.24701561378E+03  0.41800000000E+01 0.  1.
        -11    1    1    2    0    0  0.42308077593E+02 -0.32763181719E+02 -0.64985788551E+02  0.84181662014E+02  0.00000000000E+00 0.  1.
         11    1    1    2    0    0 -0.78010427967E+01 -0.52352395993E+02 -0.26072002785E+03  0.26603864862E+03  0.00000000000E+00 0. -1.
</event>
<event>
 7    1  0.3265282E-009  0.1135715E+03  0.7561462E-02  0.1254095E+00
         -1   -1    0    0    0  501 -0.00000000000E+00  0.00000000000E+00  0.92382652717E+02  0.92382652717E+02  0.00000000000E+00 0.  1.
          1   -1    0    0  501    0  0.00000000000E+00 -0.00000000000E+00 -0.23593773814E+03  0.23593773814E+03  0.00000000000E+00 0. -1.
         25    2    1    2    0    0 -0.53053190047E+01  0.56173389599E+02  0.14498181440E+02  0.13799079374E+03  0.12509063028E+03 0.  0.
          5    1    3    3  502    0  0.41796892393E+02 -0.82834146468E+01 -0.24193773631E+02  0.49177294094E+02  0.41800000000E+01 0.  1.
         -5    1    3    3    0  502 -0.47102211398E+02  0.64456804246E+02  0.38691955070E+02  0.88813499646E+02  0.41800000000E+01 0.  1.
        -11    1    1    2    0    0  0.26506439015E+01 -0.80184800552E+02 -0.13437182690E+03  0.15650053040E+03  0.00000000000E+00 0.  1.
         11    1    1    2    0    0  0.26546751032E+01  0.24011410953E+02 -0.23681439965E+02  0.33829066713E+02  0.00000000000E+00 0. -1.
</event>
<event>
 7    1  0.3265282E-009  0.1180696E+03  0.7561462E-02  0.1246316E+00
         -1   -1    0    0    0  501 -0.00000000000E+00  0.00000000000E+00  0.30465868899E+02  0.30465868899E+02  0.00000000000E+00 0.  1.
          1   -1    0    0  501    0  0.00000000000E+00 -0.00000000000E+00 -0.70667426526E+03  0.70667426526E+03  0.00000000000E+00 0. -1.
         25    2    1    2    0    0 -0.65984310418E+02  0.59887030208E+02 -0.46585751842E+03  0.49052283273E+03  0.12509610845E+03 0.  0.
          5    1    3    3  502    0 -0.29272155247E+02  0.79116486952E+02 -0.42067313453E+03  0.42906833500E+03  0.41800000000E+01 0.  1.
         -5    1    3    3    0  502 -0.36712155171E+02 -0.19229456744E+02 -0.45184383889E+02  0.61454497731E+02  0.41800000000E+01 0.  1.
        -11    1    1    2    0    0  0.34769830572E+02  0.76686431963E+01 -0.17032350714E+02  0.39469610808E+02  0.00000000000E+00 0.  1.
         11    1    1    2    0    0  0.31214479846E+02 -0.67555673405E+02 -0.19331852723E+03  0.20714769062E+03  0.00000000000E+00 0. -1.
</event>
<event>
 7    1  0.3265282E-009  0.1009023E+03  0.7561462E-02  0.1278410E+00
         -4   -1    0    0    0  501 -0.00000000000E+00  0.00000000000E+00  0.56399307106E+03  0.56399307106E+03  0.00000000000E+00 0.  1.
          4   -1    0    0  501    0  0.00000000000E+00 -0.00000000000E+00 -0.45954639395E+02  0.45954639395E+02  0.00000000000E+00 0. -1.
         25    2    1    2    0    0 -0.85390547381E+02 -0.34584408341E+02  0.41196495182E+03  0.44028385217E+03  0.12508845699E+03 0.  0.
          5    1    3    3  502    0 -0.65204403491E+02  0.31304986717E+01  0.70685422239E+02  0.96308439784E+02  0.41800000000E+01 0.  1.
         -5    1    3    3    0  502 -0.20186143891E+02 -0.37714907013E+02  0.34127952958E+03  0.34397541239E+03  0.41800000000E+01 0.  1.
        -11    1    1    2    0    0  0.20524861250E+02  0.15732399238E+02  0.98327649643E+02  0.10167155452E+03  0.00000000000E+00 0.  1.
         11    1    1    2    0    0  0.64865686131E+02  0.18852009103E+02  0.77458301994E+01  0.67992303756E+02  0.00000000000E+00 0. -1.
</event>
<event>
 7    1  0.3265282E-009  0.1962730E+03  0.7561462E-02  0.1152922E+00
          2   -1    0    0  501    0  0.00000000000E+00  0.00000000000E+00  0.29909985338E+03  0.29909985338E+03  0.00000000000E+00 0. -1.
         -2   -1    0    0    0  501 -0.00000000000E+00 -0.00000000000E+00 -0.14201367536E+03  0.14201367536E+03  0.00000000000E+00 0.  1.
         25    2    1    2    0    0 -0.16650063334E+03  0.32384012099E+02  0.13877564947E+03  0.25234347430E+03  0.12508942000E+03 0.  0.
          5    1    3    3  502    0 -0.16318172135E+03  0.64139007842E+02  0.13182262702E+03  0.21940092047E+03  0.41800000000E+01 0.  1.
         -5    1    3    3    0  502 -0.33189119879E+01 -0.31754995743E+02  0.69530224424E+01  0.32942553825E+02  0.41800000000E+01 0.  1.
        -11    1    1    2    0    0  0.11914498361E+03 -0.56450364303E+02  0.27978076453E+02  0.13477738502E+03  0.00000000000E+00 0.  1.
         11    1    1    2    0    0  0.47355649725E+02  0.24066352204E+02 -0.96675479011E+01  0.53992669425E+02  0.00000000000E+00 0. -1.
</event>
<event>
 7    1  0.3265282E-009  0.1453400E+03  0.7561462E-02  0.1206319E+00
         -2   -1    0    0    0  501 -0.00000000000E+00  0.00000000000E+00  0.25112963144E+02  0.25112963144E+02  0.00000000000E+00 0.  1.
          2   -1    0    0  501    0  0.00000000000E+00 -0.00000000000E+00 -0.11042467777E+04  0.11042467777E+04  0.00000000000E+00 0. -1.
         25    2    1    2    0    0  0.24806279665E+02  0.12631917658E+03 -0.67151801891E+03  0.69509400432E+03  0.12508932505E+03 0.  0.
          5    1    3    3  502    0 -0.19114009564E+02  0.15680035486E+02 -0.37078415517E+03  0.37163096076E+03  0.41800000000E+01 0. -1.
         -5    1    3    3    0  502  0.43920289229E+02  0.11063914109E+03 -0.30073386375E+03  0.32346304356E+03  0.41800000000E+01 0. -1.
        -11    1    1    2    0    0  0.17340179260E+02 -0.87479947305E+02 -0.20198397564E+03  0.22079617164E+03  0.00000000000E+00 0. -1.
         11    1    1    2    0    0 -0.42146458925E+02 -0.38839229273E+02 -0.20563182004E+03  0.21346956491E+03  0.00000000000E+00 0.  1.
</event>
<event>
 7    1  0.3265282E-009  0.1356919E+03  0.7561462E-02  0.1219246E+00
          2   -1    0    0  501    0  0.00000000000E+00  0.00000000000E+00  0.57474865813E+02  0.57474865813E+02  0.00000000000E+00 0. -1.
         -2   -1    0    0    0  501 -0.00000000000E+00 -0.00000000000E+00 -0.33386756855E+03  0.33386756855E+03  0.00000000000E+00 0.  1.
         25    2    1    2    0    0 -0.82329677952E+02  0.34401752039E+01 -0.11948681837E+03  0.19161215368E+03  0.12509239384E+03 0.  0.
          5    1    3    3  502    0 -0.70809324866E+02 -0.53975346920E+02 -0.56627662678E+02  0.10560048837E+03  0.41800000000E+01 0.  1.
         -5    1    3    3    0  502 -0.11520353086E+02  0.57415522123E+02 -0.62859155691E+02  0.86011665314E+02  0.41800000000E+01 0.  1.
        -11    1    1    2    0    0  0.52254991546E+02 -0.47218289976E+02 -0.86883315954E+02  0.11184302232E+03  0.00000000000E+00 0. -1.
         11    1    1    2    0    0  0.30074686406E+02  0.43778114772E+02 -0.70022568413E+02  0.87887258364E+02  0.00000000000E+00 0.  1.
</event>
<event>
 7    1  0.3265282E-009  0.1325714E+03  0.7561462E-02  0.1223689E+00
         -2   -1    0    0    0  501 -0.00000000000E+00  0.00000000000E+00  0.36934035352E+02  0.36934035352E+02  0.00000000000E+00 0.  1.
          2   -1    0    0  501    0  0.00000000000E+00 -0.00000000000E+00 -0.77687733529E+03  0.77687733529E+03  0.00000000000E+00 0. -1.
         25    2    1    2    0    0 -0.33719518914E+02 -0.12251082684E+03 -0.43139838307E+03  0.46679592322E+03  0.12509180777E+03 0.  0.
          5    1    3    3  502    0 -0.29376244567E+02 -0.62235119649E+02 -0.62823131492E+02  0.93275892454E+02  0.41800000000E+01 0.  1.
         -5    1    3    3    0  502 -0.43432743474E+01 -0.60275707193E+02 -0.36857525158E+03  0.37352003077E+03  0.41800000000E+01 0.  1.
        -11    1    1    2    0    0  0.23224631360E+02  0.15110068414E+02 -0.98189225716E+01  0.29395729448E+02  0.00000000000E+00 0.  1.
         11    1    1    2    0    0  0.10494887554E+02  0.10740075843E+03 -0.29872599430E+03  0.31761971797E+03  0.00000000000E+00 0. -1.
</event>
<event>
 7    1  0.3265282E-009  0.1715377E+03  0.7561462E-02  0.1176254E+00
          1   -1    0    0  501    0  0.00000000000E+00  0.00000000000E+00  0.51085336042E+03  0.51085336042E+03  0.00000000000E+00 0. -1.
         -1   -1    0    0    0  501 -0.00000000000E+00 -0.00000000000E+00 -0.65244205611E+02  0.65244205611E+02  0.00000000000E+00 0.  1.
         25    2    1    2    0    0 -0.67812000919E+02  0.12634962408E+03  0.32513682104E+03  0.37672969229E+03  0.12509441910E+03 0.  0.
          5    1    3    3  502    0 -0.78377710889E+01 -0.23922857961E+02  0.70824661632E+02  0.75281730081E+02  0.41800000000E+01 0.  1.
         -5    1    3    3    0  502 -0.59974229831E+02  0.15027248204E+03  0.25431215940E+03  0.30144796221E+03  0.41800000000E+01 0.  1.
        -11    1    1    2    0    0  0.79290987843E+02 -0.10651503588E+03  0.86811907980E+02  0.15864684361E+03  0.00000000000E+00 0.  1.
         11    1    1    2    0    0 -0.11478986924E+02 -0.19834588198E+02  0.33660425790E+02  0.40721030121E+02  0.00000000000E+00 0. -1.
</event>
<event>
 7    1  0.3265282E-009  0.1168269E+03  0.7561462E-02  0.1248425E+00
          3   -1    0    0  501    0  0.00000000000E+00  0.00000000000E+00  0.80737852079E+02  0.80737852079E+02  0.00000000000E+00 0. -1.
         -3   -1    0    0    0  501 -0.00000000000E+00 -0.00000000000E+00 -0.20824738859E+03  0.20824738859E+03  0.00000000000E+00 0.  1.
         25    2    1    2    0    0  0.41367494190E+02 -0.48240158782E+02 -0.10073330597E+03  0.17274289426E+03  0.12511804862E+03 0.  0.
          5    1    3    3  502    0  0.30352896264E+01 -0.79861806621E+02 -0.92306898924E+02  0.12216856031E+03  0.41800000000E+01 0. -1.
         -5    1    3    3    0  502  0.38332204564E+02  0.31621647839E+02 -0.84264070476E+01  0.50574333950E+02  0.41800000000E+01 0. -1.
        -11    1    1    2    0    0 -0.19755142285E+02 -0.22410807848E+02 -0.29935193382E+02  0.42292147710E+02  0.00000000000E+00 0.  1.
         11    1    1    2    0    0 -0.21612351906E+02  0.70650966631E+02  0.31589628436E+01  0.73950198695E+02  0.00000000000E+00 0. -1.
</event>
<event>
 7    1  0.3265282E-009  0.1053695E+03  0.7561462E-02  0.1269393E+00
          1   -1    0    0  501    0  0.00000000000E+00  0.00000000000E+00  0.11933996695E+03  0.11933996695E+03  0.00000000000E+00 0. -1.
         -1   -1    0    0    0  501 -0.00000000000E+00 -0.00000000000E+00 -0.18093375211E+03  0.18093375211E+03  0.00000000000E+00 0.  1.
         25    2    1    2    0    0  0.77743402862E+02  0.39935648018E+02 -0.79893354940E+02  0.17224670517E+03  0.12508831524E+03 0.  0.
          5    1    3    3  502    0  0.31498999891E+02  0.31541148921E+02  0.29154801841E+02  0.53427576585E+02  0.41800000000E+01 0.  1.
         -5    1    3    3    0  502  0.46244402970E+02  0.83944990979E+01 -0.10904815678E+03  0.11881912859E+03  0.41800000000E+01 0.  1.
        -11    1    1    2    0    0  0.15520722407E+02  0.34821303381E+01  0.19474591312E+02  0.25145133973E+02  0.00000000000E+00 0. -1.
         11    1    1    2    0    0 -0.93264125269E+02 -0.43417778357E+02 -0.11750215337E+01  0.10288187992E+03  0.00000000000E+00 0.  1.
</event>
<event>
 7    1  0.3265282E-009  0.1232303E+03  0.7561462E-02  0.1237861E+00
          2   -1    0    0  501    0  0.00000000000E+00  0.00000000000E+00  0.20525929339E+04  0.20525929339E+04  0.00000000000E+00 0. -1.
         -2   -1    0    0    0  501 -0.00000000000E+00 -0.00000000000E+00 -0.10890089300E+02  0.10890089300E+02  0.00000000000E+00 0.  1.
         25    2    1    2    0    0  0.77011560667E+02 -0.11029860718E+02  0.15591859358E+04  0.15661290090E+04  0.12508737855E+03 0.  0.
          5    1    3    3  502    0  0.18419284335E+02  0.47604206713E+02  0.31117680264E+03  0.31536313265E+03  0.41800000000E+01 0. -1.
         -5    1    3    3    0  502  0.58592276332E+02 -0.58634067432E+02  0.12480091332E+04  0.12507658764E+04  0.41800000000E+01 0. -1.
        -11    1    1    2    0    0 -0.26579409975E+02  0.44420538141E+02  0.13445056846E+03  0.14407152600E+03  0.00000000000E+00 0.  1.
         11    1    1    2    0    0 -0.50432150692E+02 -0.33390677423E+02  0.34806634031E+03  0.35328248813E+03  0.00000000000E+00 0. -1.
</event>
<event>
 7    1  0.3265282E-009  0.1268328E+03  0.7561462E-02  0.1232232E+00
          2   -1    0    0  501    0  0.00000000000E+00  0.00000000000E+00  0.38893778324E+03  0.38893778324E+03  0.00000000000E+00 0. -1.
         -2   -1    0    0    0  501 -0.00000000000E+00 -0.00000000000E+00 -0.41826559124E+02  0.41826559124E+02  0.00000000000E+00 0.  1.
         25    2    1    2    0    0 -0.63337696842E+01  0.64313225071E+02  0.19544797407E+03  0.24088179850E+03  0.12509125758E+03 0.  0.
          5    1    3    3  502    0  0.42256759475E+02 -0.16072098761E+02  0.80050529192E+02  0.92029917439E+02  0.41800000000E+01 0.  1.
         -5    1    3    3    0  502 -0.48590529160E+02  0.80385323832E+02  0.11539744488E+03  0.14885188106E+03  0.41800000000E+01 0.  1.
        -11    1    1    2    0    0  0.48487965592E+02 -0.50180891671E+02  0.94018054556E+02  0.11708372764E+03  0.00000000000E+00 0.  1.
         11    1    1    2    0    0 -0.42154195908E+02 -0.14132333400E+02  0.57645195490E+02  0.72798816220E+02  0.00000000000E+00 0. -1.
</event>
<event>
 7    1  0.3265282E-009  0.1176353E+03  0.7561462E-02  0.1247050E+00
         -2   -1    0    0    0  501 -0.00000000000E+00  0.00000000000E+00  0.41905700225E+02  0.41905700225E+02  0.00000000000E+00 0. -1.
          2   -1    0    0  501    0  0.00000000000E+00 -0.00000000000E+00 -0.59375138809E+03  0.59375138809E+03  0.00000000000E+00 0.  1.
         25    2    1    2    0    0 -0.15296791460E+02 -0.80157523931E+02 -0.13633488614E+03  0.20221920495E+03  0.12508471209E+03 0.  0.
          5    1    3    3  502    0  0.21224841268E+02  0.17416413911E+02 -0.77878068191E+02  0.82681867816E+02  0.41800000000E+01 0. -1.
         -5    1    3    3    0  502 -0.36521632728E+02 -0.97573937841E+02 -0.58456817953E+02  0.11953733713E+03  0.41800000000E+01 0. -1.
        -11    1    1    2    0    0  0.39929718484E+02  0.55544026275E+02 -0.36926408464E+03  0.37554691515E+03  0.00000000000E+00 0.  1.
         11    1    1    2    0    0 -0.24632927024E+02  0.24613497656E+02 -0.46246717083E+02  0.57890968221E+02  0.00000000000E+00 0. -1.
</event>
<event>
 7    1  0.3265282E-009  0.9665651E+02  0.7561462E-02  0.1287488E+00
          1   -1    0    0  501    0  0.00000000000E+00  0.00000000000E+00  0.26991683018E+03  0.26991683018E+03  0.00000000000E+00 0. -1.
         -1   -1    0    0    0  501 -0.00000000000E+00 -0.00000000000E+00 -0.50174953942E+02  0.50174953942E+02  0.00000000000E+00 0.  1.
         25    2    1    2    0    0 -0.39587777380E+02 -0.16234584452E+01  0.11642296323E+03  0.17541792616E+03  0.12508922702E+03 0.  0.
          5    1    3    3  502    0  0.42238577695E+02  0.96499823791E+01  0.18645823263E+02  0.47353550350E+02  0.41800000000E+01 0. -1.
         -5    1    3    3    0  502 -0.81826355075E+02 -0.11273440824E+02  0.97777139964E+02  0.12806437581E+03  0.41800000000E+01 0. -1.
        -11    1    1    2    0    0  0.52424978388E+01 -0.23786182452E+02 -0.78398447852E+01  0.25587681128E+02  0.00000000000E+00 0.  1.
         11    1    1    2    0    0  0.34345279541E+02  0.25409640897E+02  0.11115875780E+03  0.11908617683E+03  0.00000000000E+00 0. -1.
</event>
<event>
 7    1  0.3265282E-009  0.3456198E+03  0.7561462E-02  0.1064427E+00
          2   -1    0    0  501    0  0.00000000000E+00  0.00000000000E+00  0.26424785510E+04  0.26424785510E+04  0.00000000000E+00 0. -1.
         -2   -1    0    0    0  501 -0.00000000000E+00 -0.00000000000E+00 -0.50302970263E+02  0.50302970263E+02  0.00000000000E+00 0.  1.
         25    2    1    2    0    0 -0.26728121666E+03 -0.20252877327E+03  0.16570410374E+04  0.16952547675E+04  0.12508626754E+03 0.  0.
          5    1    3    3  502    0 -0.27205245929E+03 -0.20548184088E+03  0.16515016915E+04  0.16863305242E+04  0.41800000000E+01 0. -1.
         -5    1    3    3    0  502  0.47712426370E+01  0.29530676120E+01  0.55393458612E+01  0.89242432280E+01  0.41800000000E+01 0. -1.
        -11    1    1    2    0    0  0.22022412187E+03  0.12678390012E+03  0.62096725982E+03  0.67094944590E+03  0.00000000000E+00 0.  1.
         11    1    1    2    0    0  0.47057094790E+02  0.75744873154E+02  0.31416728351E+03  0.32657730786E+03  0.00000000000E+00 0. -1.
</event>
<event>
 7    1  0.3265282E-009  0.1770374E+03  0.7561462E-02  0.1170701E+00
         -2   -1    0    0    0  501 -0.00000000000E+00  0.00000000000E+00  0.68394975157E+02  0.68394975157E+02  0.00000000000E+00 0.  1.
          2   -1    0    0  501    0  0.00000000000E+00 -0.00000000000E+00 -0.62174156521E+03  0.62174156521E+03  0.00000000000E+00 0. -1.
         25    2    1    2    0    0  0.16345876859E+03  0.11837629621E+02 -0.39716728939E+03  0.44749069088E+03  0.12508862523E+03 0.  0.
          5    1    3    3  502    0  0.52977146899E+02  0.50035326661E+02 -0.24450248333E+03  0.25516474827E+03  0.41800000000E+01 0.  1.
         -5    1    3    3    0  502  0.11048162169E+03 -0.38197697041E+02 -0.15266480606E+03  0.19232594261E+03  0.41800000000E+01 0.  1.
        -11    1    1    2    0    0 -0.61205768293E+02 -0.86004590617E+01 -0.76294320409E+01  0.62276176839E+02  0.00000000000E+00 0. -1.
         11    1    1    2    0    0 -0.10225300030E+03 -0.32371705589E+01 -0.14854986862E+03  0.18036967265E+03  0.00000000000E+00 0.  1.
</event>
<event>
 7    1  0.3265282E-009  0.1536340E+03  0.7561462E-02  0.1196077E+00
         -2   -1    0    0    0  501 -0.00000000000E+00  0.00000000000E+00  0.37524417358E+02  0.37524417358E+02  0.00000000000E+00 0.  1.
          2   -1    0    0  501    0  0.00000000000E+00 -0.00000000000E+00 -0.72920687627E+03  0.72920687627E+03  0.00000000000E+00 0. -1.
         25    2    1    2    0    0 -0.60887866097E+02 -0.10843141860E+03 -0.33071085462E+03  0.37480770290E+03  0.12508573067E+03 0.  0.
          5    1    3    3  502    0  0.22690870222E+02 -0.83601157285E+02 -0.13423243165E+03  0.15981191194E+03  0.41800000000E+01 0.  1.
         -5    1    3    3    0  502 -0.83578736318E+02 -0.24830261313E+02 -0.19647842296E+03  0.21499579096E+03  0.41800000000E+01 0.  1.
        -11    1    1    2    0    0  0.53140908226E+02  0.45831506103E+02 -0.28331793652E+03  0.29187931793E+03  0.00000000000E+00 0. -1.
         11    1    1    2    0    0  0.77469578704E+01  0.62599912496E+02 -0.77653667774E+02  0.10004427280E+03  0.00000000000E+00 0.  1.
</event>
<event>
 7    1  0.3265282E-009  0.8923863E+02  0.7561462E-02  0.1304706E+00
          2   -1    0    0  501    0  0.00000000000E+00  0.00000000000E+00  0.22970743979E+03  0.22970743979E+03  0.00000000000E+00 0. -1.
         -2   -1    0    0    0  501 -0.00000000000E+00 -0.00000000000E+00 -0.65548298079E+02  0.65548298079E+02  0.00000000000E+00 0.  1.
         25    2    1    2    0    0  0.19850415718E+02 -0.45560332459E+02  0.13903962242E+03  0.19352024339E+03  0.12509310573E+03 0.  0.
          5    1    3    3  502    0  0.42150486635E+02  0.19184550156E+02  0.10923598393E+03  0.11872103046E+03  0.41800000000E+01 0.  1.
         -5    1    3    3    0  502 -0.22300070917E+02 -0.64744882615E+02  0.29803638491E+02  0.74799212930E+02  0.41800000000E+01 0.  1.
        -11    1    1    2    0    0 -0.31906649531E+02  0.34800200940E+02 -0.21879100352E+02  0.52036365188E+02  0.00000000000E+00 0.  1.
         11    1    1    2    0    0  0.12056233813E+02  0.10760131519E+02  0.46998619643E+02  0.49699129292E+02  0.00000000000E+00 0. -1.
</event>
<event>
 7    1  0.3265282E-009  0.1227040E+03  0.7561462E-02  0.1238702E+00
         -3   -1    0    0    0  501 -0.00000000000E+00  0.00000000000E+00  0.15396608339E+03  0.15396608339E+03  0.00000000000E+00 0.  1.
          3   -1    0    0  501    0  0.00000000000E+00 -0.00000000000E+00 -0.10626328935E+03  0.10626328935E+03  0.00000000000E+00 0. -1.
         25    2    1    2    0    0  0.45408100645E+02  0.41639993445E+02  0.51890248589E+02  0.14878569886E+03  0.12509517029E+03 0.  0.
          5    1    3    3  502    0  0.18545592428E+02  0.84674309068E+02  0.43921019669E+02  0.97263590225E+02  0.41800000000E+01 0. -1.
         -5    1    3    3    0  502  0.26862508217E+02 -0.43034315624E+02  0.79692289190E+01  0.51522108638E+02  0.41800000000E+01 0. -1.
        -11    1    1    2    0    0 -0.69984855502E+02 -0.15182906978E+02 -0.16134311781E+02  0.73407878873E+02  0.00000000000E+00 0. -1.
         11    1    1    2    0    0  0.24576754857E+02 -0.26457086467E+02  0.11946857239E+02  0.38035795003E+02  0.00000000000E+00 0.  1.
</event>
<event>
 7    1  0.3265282E-009  0.1006440E+03  0.7561462E-02  0.1278947E+00
          3   -1    0    0  501    0  0.00000000000E+00  0.00000000000E+00  0.13390425077E+02  0.13390425077E+02  0.00000000000E+00 0. -1.
         -3   -1    0    0    0  501 -0.00000000000E+00 -0.00000000000E+00 -0.14968509146E+04  0.14968509146E+04  0.00000000000E+00 0.  1.
         25    2    1    2    0    0 -0.86009752283E+02  0.14764509009E+02 -0.10855431621E+04  0.10962055288E+04  0.12508771497E+03 0.  0.
          5    1    3    3  502    0 -0.72484021991E+02  0.24170883898E+02 -0.27401282651E+03  0.28449721715E+03  0.41800000000E+01 0. -1.
         -5    1    3    3    0  502 -0.13525730292E+02 -0.94063748893E+01 -0.81153033556E+03  0.81170831165E+03  0.41800000000E+01 0. -1.
        -11    1    1    2    0    0  0.13974279805E+02 -0.30931353877E+02 -0.68511965310E+02  0.76458606706E+02  0.00000000000E+00 0. -1.
         11    1    1    2    0    0  0.72035472478E+02  0.16166844868E+02 -0.32940536212E+03  0.33757720415E+03  0.00000000000E+00 0.  1.
</event>
<event>
 7    1  0.3265282E-009  0.1486208E+03  0.7561462E-02  0.1202178E+00
         -1   -1    0    0    0  501 -0.00000000000E+00  0.00000000000E+00  0.18365612593E+03  0.18365612593E+03  0.00000000000E+00 0.  1.
          1   -1    0    0  501    0  0.00000000000E+00 -0.00000000000E+00 -0.12431235331E+03  0.12431235331E+03  0.00000000000E+00 0. -1.
         25    2    1    2    0    0  0.47570145082E+02  0.93430935785E+02  0.50708173386E+02  0.17091285989E+03  0.12509048071E+03 0.  0.
          5    1    3    3  502    0  0.33057498862E+02 -0.25612729555E+02  0.42728404239E+01  0.42243812702E+02  0.41800000000E+01 0.  1.
         -5    1    3    3    0  502  0.14512646220E+02  0.11904366534E+03  0.46435332962E+02  0.12866904719E+03  0.41800000000E+01 0.  1.
        -11    1    1    2    0    0 -0.20174401407E+02  0.13864328614E+02  0.96524625160E+01  0.26313420771E+02  0.00000000000E+00 0.  1.
         11    1    1    2    0    0 -0.27395743675E+02 -0.10729526440E+03 -0.10168632872E+01  0.11074219857E+03  0.00000000000E+00 0. -1.
</event>
<event>
 7    1  0.3265282E-009  0.9030962E+02  0.7561462E-02  0.1302104E+00
          1   -1    0    0  501    0  0.00000000000E+00  0.00000000000E+00  0.10321567572E+03  0.10321567572E+03  0.00000000000E+00 0. -1.
         -1   -1    0    0    0  501 -0.00000000000E+00 -0.00000000000E+00 -0.14563252591E+03  0.14563252591E+03  0.00000000000E+00 0.  1.
         25    2    1    2    0    0  0.11532895322E+01 -0.98438603523E+01  0.23711837859E+02  0.12770223543E+03  0.12508948003E+03 0.  0.
          5    1    3    3  502    0  0.20821873873E+01  0.34563332948E+02 -0.37983040725E+02  0.51566881538E+02  0.41800000000E+01 0. -1.
         -5    1    3    3    0  502 -0.92889785510E+00 -0.44407193301E+02  0.61694878585E+02  0.76135353888E+02  0.41800000000E+01 0. -1.
        -11    1    1    2    0    0 -0.37603041915E+02  0.39205663649E+02 -0.30305189388E+02  0.62205122998E+02  0.00000000000E+00 0.  1.
         11    1    1    2    0    0  0.36449752382E+02 -0.29361803297E+02 -0.35823498660E+02  0.58940843206E+02  0.00000000000E+00 0. -1.
</event>
<event>
 7    1  0.3265282E-009  0.6103154E+02  0.7561462E-02  0.1393553E+00
          2   -1    0    0  501    0  0.00000000000E+00  0.00000000000E+00  0.72192514291E+03  0.72192514291E+03  0.00000000000E+00 0. -1.
         -2   -1    0    0    0  501 -0.00000000000E+00 -0.00000000000E+00 -0.16645361693E+02  0.16645361693E+02  0.00000000000E+00 0.  1.
         25    2    1    2    0    0 -0.11301141381E+02 -0.14629341054E+02  0.40255797844E+03  0.42193527022E+03  0.12503884531E+03 0.  0.
          5    1    3    3  502    0  0.27402136166E+01  0.80617643690E+01 -0.68102266899E+01  0.11677003167E+02  0.41800000000E+01 0.  1.
         -5    1    3    3    0  502 -0.14041354997E+02 -0.22691105423E+02  0.40936820513E+03  0.41025826705E+03  0.41800000000E+01 0.  1.
        -11    1    1    2    0    0 -0.35852581325E+02 -0.10729094794E+01  0.69874345392E+02  0.78542872792E+02  0.00000000000E+00 0.  1.
         11    1    1    2    0    0  0.47153722706E+02  0.15702250533E+02  0.23284745739E+03  0.23809236159E+03  0.00000000000E+00 0. -1.
</event>
<event>
 7    1  0.3265282E-009  0.1331157E+03  0.7561462E-02  0.1222905E+00
         -1   -1    0    0    0  501 -0.00000000000E+00  0.00000000000E+00  0.38089831530E+02  0.38089831530E+02  0.00000000000E+00 0.  1.
          1   -1    0    0  501    0  0.00000000000E+00 -0.00000000000E+00 -0.83630433017E+03  0.83630433017E+03  0.00000000000E+00 0. -1.
         25    2    1    2    0    0  0.80844400744E+02 -0.10223858743E+03 -0.51851784408E+03  0.54908779604E+03  0.12509239481E+03 0.  0.
          5    1    3    3  502    0  0.37492118249E+02 -0.28315810584E+02 -0.40000926748E+03  0.40278074747E+03  0.41800000000E+01 0.  1.
         -5    1    3    3    0  502  0.43352282494E+02 -0.73922776849E+02 -0.11850857660E+03  0.14630704858E+03  0.41800000000E+01 0.  1.
        -11    1    1    2    0    0 -0.58638611063E+02  0.52152094546E+02 -0.59733602711E+02  0.98622669634E+02  0.00000000000E+00 0.  1.
         11    1    1    2    0    0 -0.22205789681E+02  0.50086492887E+02 -0.21996305184E+03  0.22668369602E+03  0.00000000000E+00 0. -1.
</event>
<event>
 6    1  0.3265282E-009  0.1584640E+03  0.7561462E-02  0.1190442E+00
          2   -1    0    0  501    0  0.00000000000E+00  0.00000000000E+00  0.60116858585E+03  0.60116858585E+03  0.00000000000E+00 0. -1.
         -2   -1    0    0    0  501 -0.00000000000E+00 -0.00000000000E+00 -0.48097248121E+02  0.48097248121E+02  0.00000000000E+00 0.  1.
          5    1    1    2  502    0 -0.45872318864E+02 -0.32482842076E+02  0.79813358907E+02  0.97709003307E+02  0.41800000000E+01 0.  1.
         -5    1    1    2    0  502  0.75143336764E+02 -0.91836837528E+02  0.28061376853E+03  0.30469999225E+03  0.41800000000E+01 0.  1.
        -11    1    1    2    0    0  0.19475661462E+02  0.33253541542E+02  0.14976063685E+02  0.41344671942E+02  0.00000000000E+00 0. -1.
         11    1    1    2    0    0 -0.48746679362E+02  0.91066138062E+02  0.17766814661E+03  0.20551216648E+03  0.00000000000E+00 0.  1.
</event>
<event>
 7    1  0.3265282E-009  0.1644931E+03  0.7561462E-02  0.1183715E+00
          1   -1    0    0  501    0  0.00000000000E+00  0.00000000000E+00  0.31349281164E+03  0.31349281164E+03  0.00000000000E+00 0. -1.
         -1   -1    0    0    0  501 -0.00000000000E+00 -0.00000000000E+00 -0.14343827191E+03  0.14343827191E+03  0.00000000000E+00 0.  1.
         25    2    1    2    0    0 -0.12545373524E+03 -0.31738435950E+02  0.22376998649E+03  0.28716972045E+03  0.12508986164E+03 0.  0.
          5    1    3    3  502    0 -0.12934701265E+03 -0.65050411424E+02  0.16663922436E+03  0.22079019272E+03  0.41800000000E+01 0.  1.
         -5    1    3    3    0  502  0.38932774120E+01  0.33311975474E+02  0.57130762134E+02  0.66379527725E+02  0.41800000000E+01 0.  1.
        -11    1    1    2    0    0  0.82858420696E+02 -0.18070433742E+02 -0.60055647381E+02  0.10391698243E+03  0.00000000000E+00 0. -1.
         11    1    1    2    0    0  0.42595314541E+02  0.49808869692E+02  0.63402006183E+01  0.65844380661E+02  0.00000000000E+00 0.  1.
</event>
<event>
 7    1  0.3265282E-009  0.8199236E+02  0.7561462E-02  0.1323491E+00
          1   -1    0    0  501    0  0.00000000000E+00  0.00000000000E+00  0.28327040191E+03  0.28327040191E+03  0.00000000000E+00 0. -1.
         -1   -1    0    0    0  501 -0.00000000000E+00 -0.00000000000E+00 -0.52635943120E+02  0.52635943120E+02  0.00000000000E+00 0.  1.
         25    2    1    2    0    0  0.53939934170E+02  0.55863555140E+00  0.15743982035E+03  0.20818836282E+03  0.12508104896E+03 0.  0.
          5    1    3    3  502    0  0.21330071797E+01  0.11700223861E+02 -0.19620382620E+02  0.23321165755E+02  0.41800000000E+01 0.  1.
         -5    1    3    3    0  502  0.51806926990E+02 -0.11141588310E+02  0.17706020297E+03  0.18486719706E+03  0.41800000000E+01 0.  1.
        -11    1    1    2    0    0  0.22013707271E+02 -0.30731632794E+01  0.37876565280E+02  0.43916760328E+02  0.00000000000E+00 0. -1.
         11    1    1    2    0    0 -0.75953641440E+02  0.25145277280E+01  0.35318073164E+02  0.83801221887E+02  0.00000000000E+00 0.  1.
</event>
<event>
 7    1  0.3867921E-009  0.1516822E+03  0.7561462E-02  0.1198421E+00
         -1   -1    0    0    0  501 -0.00000000000E+00  0.00000000000E+00  0.80158967325E+03  0.80158967325E+03  0.00000000000E+00 0.  1.
          1   -1    0    0  501    0  0.00000000000E+00 -0.00000000000E+00 -0.44513147723E+02  0.44513147723E+02  0.00000000000E+00 0. -1.
         25    2    1    2    0    0  0.74233780263E+02  0.12918841001E+03  0.48905286898E+03  0.52631932470E+03  0.12505608136E+03 0.  0.
          5    1    3    3  502    0  0.74580788180E+02  0.11037164128E+03  0.48921160024E+03  0.50704009247E+03  0.41800000000E+01 0. -1.
         -5    1    3    3    0  502 -0.34700791668E+00  0.18816768729E+02 -0.15873125783E+00  0.19279232234E+02  0.41800000000E+01 0. -1.
        -11    1    1    2    0    0 -0.12884038604E+02 -0.43899422400E+02  0.17015989266E+03  0.17620314075E+03  0.00000000000E+00 0.  1.
         11    1    1    2    0    0 -0.61349741659E+02 -0.85288987614E+02  0.97863763880E+02  0.14358035552E+03  0.00000000000E+00 0. -1.
</event>
<event>
 7    1  0.3265282E-009  0.1317031E+03  0.7561462E-02  0.1224950E+00
          3   -1    0    0  501    0  0.00000000000E+00  0.00000000000E+00  0.60368129794E+03  0.60368129794E+03  0.00000000000E+00 0. -1.
         -3   -1    0    0    0  501 -0.00000000000E+00 -0.00000000000E+00 -0.39629315480E+02  0.39629315480E+02  0.00000000000E+00 0.  1.
         25    2    1    2    0    0 -0.20639378907E+02  0.10726825437E+03  0.32150621243E+03  0.36186469349E+03  0.12508936569E+03 0.  0.
          5    1    3    3  502    0 -0.27576182632E+02  0.23484176231E+02  0.24630926785E+03  0.24899333366E+03  0.41800000000E+01 0.  1.
         -5    1    3    3    0  502  0.69368037247E+01  0.83784078136E+02  0.75196944580E+02  0.11287135983E+03  0.41800000000E+01 0.  1.
        -11    1    1    2    0    0  0.55791331820E+02 -0.83176428124E+02  0.17020120342E+03  0.19748276013E+03  0.00000000000E+00 0.  1.
         11    1    1    2    0    0 -0.35151952913E+02 -0.24091826243E+02  0.72344566611E+02  0.83963159799E+02  0.00000000000E+00 0. -1.
</event>
<event>
 7    1  0.3265282E-009  0.1585852E+03  0.7561462E-02  0.1190303E+00
          3   -1    0    0  501    0  0.00000000000E+00  0.00000000000E+00  0.31361896582E+03  0.31361896582E+03  0.00000000000E+00 0. -1.
         -3   -1    0    0    0  501 -0.00000000000E+00 -0.00000000000E+00 -0.91982967632E+02  0.91982967632E+02  0.00000000000E+00 0.  1.
         25    2    1    2    0    0 -0.18990328686E+02 -0.11520596290E+03  0.49223518821E+02  0.17805232304E+03  0.12508648393E+03 0.  0.
          5    1    3    3  502    0  0.27641496303E+02 -0.11879021427E+03  0.22717548281E+02  0.12413189245E+03  0.41800000000E+01 0.  1.
         -5    1    3    3    0  502 -0.46631824990E+02  0.35842513739E+01  0.26505970540E+02  0.53920430581E+02  0.41800000000E+01 0.  1.
        -11    1    1    2    0    0  0.40104903172E+02  0.10625572351E+02  0.41705047022E+02  0.58827009046E+02  0.00000000000E+00 0. -1.
         11    1    1    2    0    0 -0.21114574486E+02  0.10458039055E+03  0.13070743235E+03  0.16872260137E+03  0.00000000000E+00 0.  1.
</event>
<event>
 7    1  0.3265282E-009  0.1218636E+03  0.7561462E-02  0.1240054E+00
         -3   -1    0    0    0  501 -0.00000000000E+00  0.00000000000E+00  0.53301863553E+02  0.53301863553E+02  0.00000000000E+00 0. -1.
          3   -1    0    0  501    0  0.00000000000E+00 -0.00000000000E+00 -0.32944788034E+03  0.32944788034E+03  0.00000000000E+00 0.  1.
         25    2    1    2    0    0  0.59277154726E+02  0.65123507627E+00 -0.20729096282E+03  0.24926058451E+03  0.12508833096E+03 0.  0.
          5    1    3    3  502    0  0.38518643978E+02 -0.61213759711E+02 -0.97419747920E+02  0.12140383024E+03  0.41800000000E+01 0.  1.
         -5    1    3    3    0  502  0.20758510748E+02  0.61864994787E+02 -0.10987121490E+03  0.12785675427E+03  0.41800000000E+01 0.  1.
        -11    1    1    2    0    0  0.23275575163E+02 -0.16591131206E+01 -0.39479329560E+02  0.45859813759E+02  0.00000000000E+00 0.  1.
         11    1    1    2    0    0 -0.82552729889E+02  0.10078780444E+01 -0.29375724403E+02  0.87629345624E+02  0.00000000000E+00 0. -1.
</event>
<event>
 7    1  0.3265282E-009  0.1283770E+03  0.7561462E-02  0.1229884E+00
          2   -1    0    0  501    0  0.00000000000E+00  0.00000000000E+00  0.10752881548E+04  0.10752881548E+04  0.00000000000E+00 0.  1.
         -2   -1    0    0    0  501 -0.00000000000E+00 -0.00000000000E+00 -0.17411272555E+02  0.17411272555E+02  0.00000000000E+00 0. -1.
         25    2    1    2    0    0  0.75982462691E+02 -0.19141918958E+02  0.48368039696E+03  0.50570064793E+03  0.12508665482E+03 0.  0.
          5    1    3    3  502    0  0.95350429789E+02 -0.50450787349E+02  0.39736973879E+03  0.41177319985E+03  0.41800000000E+01 0.  1.
         -5    1    3    3    0  502 -0.19367967097E+02  0.31308868391E+02  0.86310658167E+02  0.93927448079E+02  0.41800000000E+01 0.  1.
        -11    1    1    2    0    0 -0.92118291037E+02  0.87033207583E+01  0.53912012294E+03  0.54700277357E+03  0.00000000000E+00 0.  1.
         11    1    1    2    0    0  0.16135828346E+02  0.10438598199E+02  0.35076362307E+02  0.39996005819E+02  0.00000000000E+00 0. -1.
</event>
<event>
 7    1  0.3265282E-009  0.7574629E+02  0.7561462E-02  0.1341575E+00
         -3   -1    0    0    0  501 -0.00000000000E+00  0.00000000000E+00  0.29448080010E+03  0.29448080010E+03  0.00000000000E+00 0.  1.
          3   -1    0    0  501    0  0.00000000000E+00 -0.00000000000E+00 -0.46655950107E+02  0.46655950107E+02  0.00000000000E+00 0. -1.
         25    2    1    2    0    0 -0.29331447423E+02  0.11130141984E+02  0.20270361967E+03  0.24024502825E+03  0.12507878437E+03 0.  0.
          5    1    3    3  502    0 -0.29541000238E+02  0.45661959751E+02  0.19771951233E+03  0.20510524912E+03  0.41800000000E+01 0.  1.
         -5    1    3    3    0  502  0.20955281464E+00 -0.34531817767E+02  0.49841073432E+01  0.35139779121E+02  0.41800000000E+01 0.  1.
        -11    1    1    2    0    0  0.40913777121E+02  0.61366337261E+01 -0.94991167361E+01  0.42447952254E+02  0.00000000000E+00 0. -1.
         11    1    1    2    0    0 -0.11582329698E+02 -0.17266775710E+02  0.54620347056E+02  0.58443769704E+02  0.00000000000E+00 0.  1.
</event>
<event>
 7    1  0.3265282E-009  0.1414866E+03  0.7561462E-02  0.1211343E+00
          2   -1    0    0  501    0  0.00000000000E+00  0.00000000000E+00  0.56003870071E+03  0.56003870071E+03  0.00000000000E+00 0. -1.
         -2   -1    0    0    0  501 -0.00000000000E+00 -0.00000000000E+00 -0.47800732914E+02  0.47800732914E+02  0.00000000000E+00 0.  1.
         25    2    1    2    0    0  0.69709419567E+02 -0.77409683732E+02  0.14986434670E+03  0.22126547312E+03  0.12508966732E+03 0.  0.
          5    1    3    3  502    0  0.54174241881E+02  0.15692708074E+02  0.18604916902E+02  0.59537592352E+02  0.41800000000E+01 0. -1.
         -5    1    3    3    0  502  0.15535177686E+02 -0.93102391806E+02  0.13125942980E+03  0.16172788077E+03  0.41800000000E+01 0. -1.
        -11    1    1    2    0    0 -0.15532074639E+02 -0.17035960850E+02  0.97625677194E+02  0.10031072800E+03  0.00000000000E+00 0. -1.
         11    1    1    2    0    0 -0.54177344928E+02  0.94445644582E+02  0.26474794390E+03  0.28626323250E+03  0.00000000000E+00 0.  1.
</event>
<event>
 7    1  0.3265282E-009  0.7525223E+02  0.7561462E-02  0.1343092E+00
          2   -1    0    0  501    0  0.00000000000E+00  0.00000000000E+00  0.29432394345E+03  0.29432394345E+03  0.00000000000E+00 0. -1.
         -2   -1    0    0    0  501 -0.00000000000E+00 -0.00000000000E+00 -0.47636487611E+02  0.47636487611E+02  0.00000000000E+00 0.  1.
         25    2    1    2    0    0 -0.26473315410E+02 -0.38635119394E+02  0.13941818348E+03  0.19307598373E+03  0.12508955484E+03 0.  0.
          5    1    3    3  502    0  0.10761749676E+02  0.15050686168E+02  0.12449065737E+03  0.12592749733E+03  0.41800000000E+01 0. -1.
         -5    1    3    3    0  502 -0.37235065086E+02 -0.53685805562E+02  0.14927526105E+02  0.67148486404E+02  0.41800000000E+01 0. -1.
        -11    1    1    2    0    0  0.61643473308E+01  0.44502973949E+02  0.58755375122E+01  0.45310438195E+02  0.00000000000E+00 0.  1.
         11    1    1    2    0    0  0.20308968079E+02 -0.58678545554E+01  0.10139373485E+03  0.10357400914E+03  0.00000000000E+00 0. -1.
</event>
<event>
 7    1  0.3265282E-009  0.8402011E+02  0.7561462E-02  0.1318015E+00
          1   -1    0    0  501    0  0.00000000000E+00  0.00000000000E+00  0.45041475597E+03  0.45041475597E+03  0.00000000000E+00 0. -1.
         -1   -1    0    0    0  501 -0.00000000000E+00 -0.00000000000E+00 -0.26376974575E+02  0.26376974575E+02  0.00000000000E+00 0.  1.
         25    2    1    2    0    0  0.15850065506E+02  0.20277012027E+01  0.23918460907E+03  0.27039338391E+03  0.12509184106E+03 0.  0.
          5    1    3    3  502    0 -0.32351706326E+02  0.46105142407E+01  0.21258077623E+03  0.21511845241E+03  0.41800000000E+01 0.  1.
         -5    1    3    3    0  502  0.48201771832E+02 -0.25828130380E+01  0.26603832840E+02  0.55274931504E+02  0.41800000000E+01 0.  1.
        -11    1    1    2    0    0  0.34977184523E+02 -0.66611584187E+01  0.11141828023E+03  0.11696925937E+03  0.00000000000E+00 0. -1.
         11    1    1    2    0    0 -0.50827250029E+02  0.46334572160E+01  0.73434892099E+02  0.89429087264E+02  0.00000000000E+00 0.  1.
</event>
<event>
 7    1  0.3265282E-009  0.7823865E+02  0.7561462E-02  0.1334126E+00
         -2   -1    0    0    0  501 -0.00000000000E+00  0.00000000000E+00  0.67062978019E+02  0.67062978019E+02  0.00000000000E+00 0.  1.
          2   -1    0    0  501    0  0.00000000000E+00 -0.00000000000E+00 -0.21475260266E+03  0.21475260266E+03  0.00000000000E+00 0. -1.
         25    2    1    2    0    0  0.11736225133E+02 -0.17918570702E+02 -0.27422585083E+02  0.12983942279E+03  0.12508982126E+03 0.  0.
          5    1    3    3  502    0  0.50183810093E+02 -0.46347880689E+02  0.97479633425E+01  0.69130572319E+02  0.41800000000E+01 0. -1.
         -5    1    3    3    0  502 -0.38447584960E+02  0.28429309987E+02 -0.37170548425E+02  0.60708850474E+02  0.41800000000E+01 0. -1.
        -11    1    1    2    0    0 -0.23451907652E+02  0.15396369915E+02 -0.13215263368E+03  0.13509758979E+03  0.00000000000E+00 0. -1.
         11    1    1    2    0    0  0.11715682519E+02  0.25222007872E+01  0.11885594115E+02  0.16878568102E+02  0.00000000000E+00 0.  1.
</event>
<event>
 7    1  0.3265282E-009  0.8506793E+02  0.7561462E-02  0.1315255E+00
         -1   -1    0    0    0  501 -0.00000000000E+00  0.00000000000E+00  0.18829609215E+02  0.18829609215E+02  0.00000000000E+00 0.  1.
          1   -1    0    0  501    0  0.00000000000E+00 -0.00000000000E+00 -0.76421091167E+03  0.76421091167E+03  0.00000000000E+00 0. -1.
         25    2    1    2    0    0  0.12404335444E+02 -0.50041849450E+02 -0.47163013435E+03  0.49065525073E+03  0.12509811036E+03 0.  0.
          5    1    3    3  502    0  0.24888244396E+02 -0.10457912000E+02 -0.43280900180E+03  0.43367026307E+03  0.41800000000E+01 0.  1.
         -5    1    3    3    0  502 -0.12483908952E+02 -0.39583937451E+02 -0.38821132544E+02  0.56984987662E+02  0.41800000000E+01 0.  1.
        -11    1    1    2    0    0 -0.50116097835E+02  0.29654163531E+02 -0.13154759154E+03  0.14386021520E+03  0.00000000000E+00 0.  1.
         11    1    1    2    0    0  0.37711762392E+02  0.20387685919E+02 -0.14220357657E+03  0.14852505496E+03  0.00000000000E+00 0. -1.
</event>
<event>
 7    1  0.3265282E-009  0.7297833E+02  0.7561462E-02  0.1350248E+00
         -3   -1    0    0    0  501 -0.00000000000E+00  0.00000000000E+00  0.10149221384E+03  0.10149221384E+03  0.00000000000E+00 0.  1.
          3   -1    0    0  501    0  0.00000000000E+00 -0.00000000000E+00 -0.33194608531E+03  0.33194608531E+03  0.00000000000E+00 0. -1.
         25    2    1    2    0    0  0.37350544647E+02 -0.16831823635E+02 -0.29098939366E+03  0.31937395480E+03  0.12508605961E+03 0.  0.
          5    1    3    3  502    0 -0.96195723861E+01  0.15903919778E+01 -0.25957750130E+03  0.25979418219E+03  0.41800000000E+01 0. -1.
         -5    1    3    3    0  502  0.46970117034E+02 -0.18422215612E+02 -0.31411892361E+02  0.59579772607E+02  0.41800000000E+01 0. -1.
        -11    1    1    2    0    0 -0.95782377672E+01  0.44500123944E+02  0.59412845319E+02  0.74845773819E+02  0.00000000000E+00 0.  1.
         11    1    1    2    0    0 -0.27772306880E+02 -0.27668300309E+02  0.11226768613E+01  0.39218570535E+02  0.00000000000E+00 0. -1.
</event>
<event>
 7    1  0.3265282E-009  0.3095162E+03  0.7561462E-02  0.1080578E+00
          2   -1    0    0  501    0  0.00000000000E+00  0.00000000000E+00  0.12860700379E+03  0.12860700379E+03  0.00000000000E+00 0. -1.
         -2   -1    0    0    0  501 -0.00000000000E+00 -0.00000000000E+00 -0.79375754090E+03  0.79375754090E+03  0.00000000000E+00 0.  1.
         25    2    1    2    0    0 -0.66494090680E+02 -0.29243752987E+03 -0.35728494095E+03  0.48295196279E+03  0.12509554894E+03 0.  0.
          5    1    3    3  502    0 -0.10389222546E+02  0.17586941841E+01  0.54133059095E+01  0.12562055215E+02  0.41800000000E+01 0. -1.
         -5    1    3    3    0  502 -0.56104868134E+02 -0.29419622406E+03 -0.36269824686E+03  0.47038990758E+03  0.41800000000E+01 0. -1.
        -11    1    1    2    0    0 -0.26722996321E+01  0.14800846056E+03 -0.18852277944E+03  0.23969664985E+03  0.00000000000E+00 0.  1.
         11    1    1    2    0    0  0.69166390312E+02  0.14442906931E+03 -0.11934281671E+03  0.19971593204E+03  0.00000000000E+00 0. -1.
</event>
<event>
 7    1  0.3265282E-009  0.3224860E+03  0.7561462E-02  0.1074511E+00
          2   -1    0    0  501    0  0.00000000000E+00  0.00000000000E+00  0.42015619983E+03  0.42015619983E+03  0.00000000000E+00 0. -1.
         -2   -1    0    0    0  501 -0.00000000000E+00 -0.00000000000E+00 -0.29502897317E+03  0.29502897317E+03  0.00000000000E+00 0.  1.
         25    2    1    2    0    0  0.29811771294E+03  0.81666950569E+02  0.19262073940E+03  0.38508807278E+03  0.12508562253E+03 0.  0.
          5    1    3    3  502    0  0.12123610182E+03  0.90958909708E+02  0.57066701857E+02  0.16200554466E+03  0.41800000000E+01 0.  1.
         -5    1    3    3    0  502  0.17688161113E+03 -0.92919591391E+01  0.13555403754E+03  0.22308252812E+03  0.41800000000E+01 0.  1.
        -11    1    1    2    0    0 -0.13545419306E+03 -0.29987603595E+01 -0.62835955507E+02  0.14934921588E+03  0.00000000000E+00 0. -1.
         11    1    1    2    0    0 -0.16266351989E+03 -0.78668190209E+02 -0.46575572284E+01  0.18074788434E+03  0.00000000000E+00 0.  1.
</event>
<event>
 7    1  0.3265282E-009  0.1339034E+03  0.7561462E-02  0.1221776E+00
          2   -1    0    0  501    0  0.00000000000E+00  0.00000000000E+00  0.35555526180E+03  0.35555526180E+03  0.00000000000E+00 0. -1.
         -2   -1    0    0    0  501 -0.00000000000E+00 -0.00000000000E+00 -0.66640260480E+02  0.66640260480E+02  0.00000000000E+00 0.  1.
         25    2    1    2    0    0 -0.90717819922E+02  0.59113058103E+02  0.15895333304E+03  0.22942904623E+03  0.12508976250E+03 0.  0.
          5    1    3    3  502    0  0.24406884276E+02 -0.36536233825E+00  0.60067070634E+00  0.24772216190E+02  0.41800000000E+01 0.  1.
         -5    1    3    3    0  502 -0.11512470420E+03  0.59478420442E+02  0.15835266234E+03  0.20465683004E+03  0.41800000000E+01 0.  1.
        -11    1    1    2    0    0  0.36405513845E+02 -0.50399405287E+01 -0.54658100498E+01  0.37156930959E+02  0.00000000000E+00 0.  1.
         11    1    1    2    0    0  0.54312306078E+02 -0.54073117575E+02  0.13542747833E+03  0.15560954509E+03  0.00000000000E+00 0. -1.
</event>
<event>
 7    1  0.3265282E-009  0.1149332E+03  0.7561462E-02  0.1251698E+00
         -2   -1    0    0    0  501 -0.00000000000E+00  0.00000000000E+00  0.19470554248E+02  0.19470554248E+02  0.00000000000E+00 0.  1.
          2   -1    0    0  501    0  0.00000000000E+00 -0.00000000000E+00 -0.10976567580E+04  0.10976567580E+04  0.00000000000E+00 0. -1.
         25    2    1    2    0    0  0.89067305643E+02  0.39437047427E+02 -0.65485173837E+03  0.67377041615E+03  0.12509000275E+03 0.  0.
          5    1    3    3  502    0  0.91629800724E+01 -0.20344948083E+02 -0.17562624659E+02  0.28701834457E+02  0.41800000000E+01 0.  1.
         -5    1    3    3    0  502  0.79904325570E+02  0.59781995510E+02 -0.63728911371E+03  0.64506858169E+03  0.41800000000E+01 0.  1.
        -11    1    1    2    0    0 -0.44085847539E+02  0.46130915767E+01 -0.59943578371E+02  0.74552499321E+02  0.00000000000E+00 0.  1.
         11    1    1    2    0    0 -0.44981458104E+02 -0.44050139004E+02 -0.36339088704E+03  0.36880439680E+03  0.00000000000E+00 0. -1.
</event>
<event>
 7    1  0.3265282E-009  0.1145950E+03  0.7561462E-02  0.1252290E+00
          2   -1    0    0  501    0  0.00000000000E+00  0.00000000000E+00  0.13640317030E+04  0.13640317030E+04  0.00000000000E+00 0. -1.
         -2   -1    0    0    0  501 -0.00000000000E+00 -0.00000000000E+00 -0.20877184786E+02  0.20877184786E+02  0.00000000000E+00 0.  1.
         25    2    1    2    0    0 -0.57755784612E+02 -0.40539548963E+02  0.11694149240E+04  0.11782003561E+04  0.12508248801E+03 0.  0.
          5    1    3    3  502    0 -0.33895264433E+02 -0.70769824295E+02  0.10436594756E+04  0.10466135058E+04  0.41800000000E+01 0.  1.
         -5    1    3    3    0  502 -0.23860520178E+02  0.30230275332E+02  0.12575544841E+03  0.13158685031E+03  0.41800000000E+01 0.  1.
        -11    1    1    2    0    0  0.27796215824E+02  0.66597637522E+02  0.11666101392E+03  0.13717750219E+03  0.00000000000E+00 0. -1.
         11    1    1    2    0    0  0.29959568788E+02 -0.26058088558E+02  0.57078580205E+02  0.69531029473E+02  0.00000000000E+00 0.  1.
</event>
<event>
 7    1  0.3265282E-009  0.7268142E+02  0.7561462E-02  0.1351205E+00
          4   -1    0    0  501    0  0.00000000000E+00  0.00000000000E+00  0.36363436023E+03  0.36363436023E+03  0.00000000000E+00 0. -1.
         -4   -1    0    0    0  501 -0.00000000000E+00 -0.00000000000E+00 -0.43443948316E+02  0.43443948316E+02  0.00000000000E+00 0.  1.
         25    2    1    2    0    0 -0.62087829417E+01 -0.13686047372E+02  0.75657587301E+02  0.14695907600E+03  0.12508813943E+03 0.  0.
          5    1    3    3  502    0 -0.34116286832E+02  0.44991615680E+01 -0.23760373958E+02  0.42026078245E+02  0.41800000000E+01 0. -1.
         -5    1    3    3    0  502  0.27907503890E+02 -0.18185208940E+02  0.99417961258E+02  0.10493299776E+03  0.41800000000E+01 0. -1.
        -11    1    1    2    0    0 -0.13352690945E+02 -0.28032594763E+02  0.40970681480E+02  0.51407367814E+02  0.00000000000E+00 0.  1.
         11    1    1    2    0    0  0.19561473886E+02  0.41718642135E+02  0.20356214313E+03  0.20871186473E+03  0.00000000000E+00 0. -1.
</event>
<event>
 7    1  0.3265282E-009  0.8818640E+02  0.7561462E-02  0.1307304E+00
          1   -1    0    0  501    0  0.00000000000E+00  0.00000000000E+00  0.41801462296E+02  0.41801462296E+02  0.00000000000E+00 0. -1.
         -1   -1    0    0    0  501 -0.00000000000E+00 -0.00000000000E+00 -0.38406797911E+03  0.38406797911E+03  0.00000000000E+00 0.  1.
         25    2    1    2    0    0 -0.46004130427E+02 -0.41186132751E+02 -0.16251052098E+03  0.21417156542E+03  0.12508841857E+03 0.  0.
          5    1    3    3  502    0  0.51198650827E+00 -0.50305974643E+02 -0.62995224969E+01  0.50873466548E+02  0.41800000000E+01 0. -1.
         -5    1    3    3    0  502 -0.46516116935E+02  0.91198418914E+01 -0.15621099848E+03  0.16329809888E+03  0.41800000000E+01 0. -1.
        -11    1    1    2    0    0  0.47291772270E+02  0.11603379101E+02 -0.17507341293E+03  0.18171915157E+03  0.00000000000E+00 0.  1.
         11    1    1    2    0    0 -0.12876418429E+01  0.29582753651E+02 -0.46825829121E+01  0.29978724419E+02  0.00000000000E+00 0. -1.
</event>
<event>
 7    1  0.3265282E-009  0.1130441E+03  0.7561462E-02  0.1255034E+00
          3   -1    0    0  501    0  0.00000000000E+00  0.00000000000E+00  0.81436659274E+03  0.81436659274E+03  0.00000000000E+00 0. -1.
         -3   -1    0    0    0  501 -0.00000000000E+00 -0.00000000000E+00 -0.16173865489E+02  0.16173865489E+02  0.00000000000E+00 0.  1.
         25    2    1    2    0    0  0.37043160431E+02 -0.92016681139E+01  0.43806292580E+03  0.45716884208E+03  0.12508939517E+03 0.  0.
          5    1    3    3  502    0 -0.44450752199E+02  0.60053019075E+01  0.20123573291E+03  0.20621645333E+03  0.41800000000E+01 0. -1.
         -5    1    3    3    0  502  0.81493912630E+02 -0.15206970021E+02  0.23682719288E+03  0.25095238876E+03  0.41800000000E+01 0. -1.
        -11    1    1    2    0    0  0.23620920385E+02  0.25959063147E+02  0.14785460060E+03  0.15196316579E+03  0.00000000000E+00 0. -1.
         11    1    1    2    0    0 -0.60664080816E+02 -0.16757395033E+02  0.21227520085E+03  0.22140845035E+03  0.00000000000E+00 0.  1.
</event>
<event>
 7    1  0.3265282E-009  0.1939199E+03  0.7561462E-02  0.1154973E+00
         -2   -1    0    0    0  501 -0.00000000000E+00  0.00000000000E+00  0.23443201655E+03  0.23443201655E+03  0.00000000000E+00 0.  1.
          2   -1    0    0  501    0  0.00000000000E+00 -0.00000000000E+00 -0.19764152921E+03  0.19764152921E+03  0.00000000000E+00 0. -1.
         25    2    1    2    0    0  0.16961812615E+03 -0.22635121467E+02 -0.52431254844E+02  0.21836169683E+03  0.12510050645E+03 0.  0.
          5    1    3    3  502    0  0.14876310446E+03 -0.66187322075E+02 -0.33249072468E+02  0.16623536348E+03  0.41800000000E+01 0.  1.
         -5    1    3    3    0  502  0.20855021693E+02  0.43552200608E+02 -0.19182182375E+02  0.52126333348E+02  0.41800000000E+01 0.  1.
        -11    1    1    2    0    0 -0.63801685636E+02 -0.12466957696E+02  0.78184221340E+02  0.10168014846E+03  0.00000000000E+00 0.  1.
         11    1    1    2    0    0 -0.10581644052E+03  0.35102079163E+02  0.11037520840E+02  0.11203170047E+03  0.00000000000E+00 0. -1.
</event>
<event>
 7    1  0.3265282E-009  0.9943179E+02  0.7561462E-02  0.1281495E+00
          1   -1    0    0  501    0  0.00000000000E+00  0.00000000000E+00  0.18875819710E+03  0.18875819710E+03  0.00000000000E+00 0. -1.
         -1   -1    0    0    0  501 -0.00000000000E+00 -0.00000000000E+00 -0.93999493239E+02  0.93999493239E+02  0.00000000000E+00 0.  1.
         25    2    1    2    0    0 -0.23462339911E+02 -0.62077285766E+02  0.97211165688E+01  0.14193559815E+03  0.12508854109E+03 0.  0.
          5    1    3    3  502    0  0.22703005697E+02 -0.21662806338E+02  0.56434653973E+02  0.64707389186E+02  0.41800000000E+01 0.  1.
         -5    1    3    3    0  502 -0.46165345608E+02 -0.40414479428E+02 -0.46713537405E+02  0.77228208962E+02  0.41800000000E+01 0.  1.
        -11    1    1    2    0    0  0.21454386880E+02 -0.16524648839E+02  0.30936284078E+01  0.27256655561E+02  0.00000000000E+00 0.  1.
         11    1    1    2    0    0  0.20079530313E+01  0.78601934606E+02  0.81943958882E+02  0.11356543663E+03  0.00000000000E+00 0. -1.
</event>
<event>
 7    1  0.3265282E-009  0.9221976E+02  0.7561462E-02  0.1297564E+00
          2   -1    0    0  501    0  0.00000000000E+00  0.00000000000E+00  0.41059303123E+03  0.41059303123E+03  0.00000000000E+00 0. -1.
         -2   -1    0    0    0  501 -0.00000000000E+00 -0.00000000000E+00 -0.45213546491E+02  0.45213546491E+02  0.00000000000E+00 0.  1.
         25    2    1    2    0    0  0.74750353065E+02  0.20867247699E+02  0.24604565999E+03  0.28671788642E+03  0.12508246192E+03 0.  0.
          5    1    3    3  502    0  0.36539257083E+02  0.42517211209E+02  0.25370847551E+02  0.61676436851E+02  0.41800000000E+01 0. -1.
         -5    1    3    3    0  502  0.38211095982E+02 -0.21649963510E+02  0.22067481244E+03  0.22504144957E+03  0.41800000000E+01 0. -1.
        -11    1    1    2    0    0 -0.32619529512E+01 -0.11563769904E+02 -0.13426582843E+02  0.18017609117E+02  0.00000000000E+00 0.  1.
         11    1    1    2    0    0 -0.71488400114E+02 -0.93034777953E+01  0.13276040759E+03  0.15107108219E+03  0.00000000000E+00 0. -1.
</event>
<event>
 7    1  0.3265282E-009  0.1417479E+03  0.7561462E-02  0.1210996E+00
          2   -1    0    0  501    0  0.00000000000E+00  0.00000000000E+00  0.51559799291E+03  0.51559799291E+03  0.00000000000E+00 0. -1.
         -2   -1    0    0    0  501 -0.00000000000E+00 -0.00000000000E+00 -0.47144170213E+02  0.47144170213E+02  0.00000000000E+00 0.  1.
         25    2    1    2    0    0 -0.79871016012E+02 -0.72835215960E+02  0.20385274884E+03  0.26246734860E+03  0.12509523567E+03 0.  0.
          5    1    3    3  502    0 -0.78199414422E+01  0.26137980171E+02  0.37574354363E+01  0.27855631615E+02  0.41800000000E+01 0.  1.
         -5    1    3    3    0  502 -0.72051074570E+02 -0.98973196131E+02  0.20009531341E+03  0.23461171699E+03  0.41800000000E+01 0.  1.
        -11    1    1    2    0    0  0.87383409407E+02  0.33868119722E+02  0.22708808336E+03  0.24566625201E+03  0.00000000000E+00 0. -1.
         11    1    1    2    0    0 -0.75123933952E+01  0.38967096238E+02  0.37512990489E+02  0.54608562507E+02  0.00000000000E+00 0.  1.
</event>
<event>
 6    1  0.3265282E-009  0.8380122E+02  0.7561462E-02  0.1318598E+00
         -3   -1    0    0    0  501 -0.00000000000E+00  0.00000000000E+00  0.31423901935E+03  0.31423901935E+03  0.00000000000E+00 0.  1.
          3   -1    0    0  501    0  0.00000000000E+00 -0.00000000000E+00 -0.51479217486E+02  0.51479217486E+02  0.00000000000E+00 0. -1.
          5    1    1    2  502    0 -0.48458240113E+02 -0.49164480301E+02  0.11623440399E+03  0.13525256459E+03  0.41800000000E+01 0. -1.
         -5    1    1    2    0  502  0.56484207352E+02  0.18894538119E+02  0.11322593935E+03  0.12800412100E+03  0.41800000000E+01 0. -1.
        -11    1    1    2    0    0 -0.16092364825E+02  0.20775715885E+02 -0.28879745053E+02  0.39046565157E+02  0.00000000000E+00 0. -1.
         11    1    1    2    0    0  0.80663975867E+01  0.94942262964E+01  0.62179203572E+02  0.63414986083E+02  0.00000000000E+00 0.  1.
</event>
<event>
 7    1  0.3265282E-009  0.7727026E+02  0.7561462E-02  0.1336981E+00
          1   -1    0    0  501    0  0.00000000000E+00  0.00000000000E+00  0.79475723735E+02  0.79475723735E+02  0.00000000000E+00 0. -1.
         -1   -1    0    0    0  501 -0.00000000000E+00 -0.00000000000E+00 -0.15871839766E+03  0.15871839766E+03  0.00000000000E+00 0.  1.
         25    2    1    2    0    0  0.26824771059E+02 -0.12115505281E+02 -0.73474515791E+02  0.14802940274E+03  0.12509134980E+03 0.  0.
          5    1    3    3  502    0  0.22618626545E+02 -0.49648100044E+02  0.10629060271E+02  0.55740339316E+02  0.41800000000E+01 0. -1.
         -5    1    3    3    0  502  0.42061445145E+01  0.37532594763E+02 -0.84103576062E+02  0.92289063424E+02  0.41800000000E+01 0. -1.
        -11    1    1    2    0    0  0.11114620845E+02  0.20179467662E+02  0.29712509955E+02  0.37597592469E+02  0.00000000000E+00 0. -1.
         11    1    1    2    0    0 -0.37939391905E+02 -0.80639623806E+01 -0.35480668085E+02  0.52567126183E+02  0.00000000000E+00 0.  1.
</event>
<event>
 7    1  0.3265282E-009  0.1472721E+03  0.7561462E-02  0.1203866E+00
          1   -1    0    0  501    0  0.00000000000E+00  0.00000000000E+00  0.44708917049E+02  0.44708917049E+02  0.00000000000E+00 0. -1.
         -1   -1    0    0    0  501 -0.00000000000E+00 -0.00000000000E+00 -0.61751276406E+03  0.61751276406E+03  0.00000000000E+00 0.  1.
         25    2    1    2    0    0  0.18232478911E+02 -0.11576668994E+03 -0.39500016314E+03  0.43059042566E+03  0.12509450827E+03 0.  0.
          5    1    3    3  502    0 -0.52401299978E+02 -0.60818240648E+02 -0.21478859726E+03  0.22933898175E+03  0.41800000000E+01 0. -1.
         -5    1    3    3    0  502  0.70633778889E+02 -0.54948449291E+02 -0.18021156588E+03  0.20125144391E+03  0.41800000000E+01 0. -1.
        -11    1    1    2    0    0  0.74104354527E+01  0.81155824057E+02 -0.47351895076E+02  0.94251707142E+02  0.00000000000E+00 0. -1.
         11    1    1    2    0    0 -0.25642914363E+02  0.34610865882E+02 -0.13045178879E+03  0.13737954831E+03  0.00000000000E+00 0.  1.
</event>
<event>
 7    1  0.3265282E-009  0.1096964E+03  0.7561462E-02  0.1261133E+00
          3   -1    0    0  501    0  0.00000000000E+00  0.00000000000E+00  0.12257708332E+03  0.12257708332E+03  0.00000000000E+00 0. -1.
         -3   -1    0    0    0  501 -0.00000000000E+00 -0.00000000000E+00 -0.12508425121E+03  0.12508425121E+03  0.00000000000E+00 0.  1.
         25    2    1    2    0    0 -0.21890979585E+02  0.48482225074E+02 -0.21574577467E+02  0.13764326899E+03  0.12510182241E+03 0.  0.
          5    1    3    3  502    0  0.49763500223E+02  0.23501244518E+02 -0.27015776846E+02  0.61449483699E+02  0.41800000000E+01 0. -1.
         -5    1    3    3    0  502 -0.71654479808E+02  0.24980980557E+02  0.54411993791E+01  0.76193785290E+02  0.41800000000E+01 0. -1.
        -11    1    1    2    0    0  0.35972314256E+02 -0.60035043456E+02  0.41309948348E+02  0.81269463319E+02  0.00000000000E+00 0. -1.
         11    1    1    2    0    0 -0.14081334672E+02  0.11552818382E+02 -0.22242538768E+02  0.28748602219E+02  0.00000000000E+00 0.  1.
</event>
<event>
 7    1  0.3265282E-009  0.1608829E+03  0.7561462E-02  0.1187704E+00
         -2   -1    0    0    0  501 -0.00000000000E+00  0.00000000000E+00  0.13402739076E+02  0.13402739076E+02  0.00000000000E+00 0.  1.
          2   -1    0    0  501    0  0.00000000000E+00 -0.00000000000E+00 -0.20652552245E+04  0.20652552245E+04  0.00000000000E+00 0. -1.
         25    2    1    2    0    0  0.71203346793E+02 -0.10104571114E+03 -0.11922091000E+04  0.12051100340E+04  0.12508998262E+03 0.  0.
          5    1    3    3  502    0  0.98121150318E+02 -0.52891228689E+02 -0.59672091563E+03  0.60705730023E+03  0.41800000000E+01 0. -1.
         -5    1    3    3    0  502 -0.26917803525E+02 -0.48154482447E+02 -0.59548818433E+03  0.59805273380E+03  0.41800000000E+01 0. -1.
        -11    1    1    2    0    0 -0.73632854455E+02  0.23474331570E+02 -0.39979036539E+03  0.40719181936E+03  0.00000000000E+00 0. -1.
         11    1    1    2    0    0  0.24295076623E+01  0.77571379567E+02 -0.45985302006E+03  0.46635611017E+03  0.00000000000E+00 0.  1.
</event>
<event>
 7    1  0.3265282E-009  0.1240502E+03  0.7561462E-02  0.1236561E+00
          1   -1    0    0  501    0  0.00000000000E+00  0.00000000000E+00  0.97114185160E+02  0.97114185160E+02  0.00000000000E+00 0. -1.
         -1   -1    0    0    0  501 -0.00000000000E+00 -0.00000000000E+00 -0.22255549317E+03  0.22255549317E+03  0.00000000000E+00 0.  1.
         25    2    1    2    0    0 -0.96732834751E+02 -0.69895199691E+01 -0.98146168396E+02  0.18620553011E+03  0.12503493258E+03 0.  0.
          5    1    3    3  502    0 -0.11663919638E+03 -0.25601621834E+01 -0.11153187290E+03  0.16145614772E+03  0.41800000000E+01 0.  1.
         -5    1    3    3    0  502  0.19906361632E+02 -0.44293577856E+01  0.13385704504E+02  0.24749382394E+02  0.41800000000E+01 0.  1.
        -11    1    1    2    0    0  0.34081085606E+02 -0.22965327466E+02  0.23577456452E+02  0.47379564312E+02  0.00000000000E+00 0. -1.
         11    1    1    2    0    0  0.62651749145E+02  0.29954847435E+02 -0.50872596060E+02  0.86084583903E+02  0.00000000000E+00 0.  1.
</event>
<event>
 7    1  0.3265282E-009  0.1449498E+03  0.7561462E-02  0.1206820E+00
          1   -1    0    0  501    0  0.00000000000E+00  0.00000000000E+00  0.47713227675E+03  0.47713227675E+03  0.00000000000E+00 0. -1.
         -1   -1    0    0    0  501 -0.00000000000E+00 -0.00000000000E+00 -0.58725875628E+02  0.58725875628E+02  0.00000000000E+00 0.  1.
         25    2    1    2    0    0  0.12225430302E+03  0.33599976081E+02  0.21898275593E+03  0.28226939406E+03  0.12508992936E+03 0.  0.
          5    1    3    3  502    0  0.90080833832E+02  0.43248708901E+02  0.53622899500E+02  0.11348081422E+03  0.41800000000E+01 0.  1.
         -5    1    3    3    0  502  0.32173469185E+02 -0.96487328200E+01  0.16535985643E+03  0.16878857984E+03  0.41800000000E+01 0.  1.
        -11    1    1    2    0    0 -0.80058476504E+02  0.24961073450E+02  0.11822350577E+03  0.14494554896E+03  0.00000000000E+00 0.  1.
         11    1    1    2    0    0 -0.42195826512E+02 -0.58561049530E+02  0.81200139419E+02  0.10864320935E+03  0.00000000000E+00 0. -1.
</event>
<event>
 7    1  0.3301816E-009  0.8039046E+02  0.7561462E-02  0.1327947E+00
         -4   -1    0    0    0  501 -0.00000000000E+00  0.00000000000E+00  0.19283124859E+03  0.19283124859E+03  0.00000000000E+00 0.  1.
          4   -1    0    0  501    0  0.00000000000E+00 -0.00000000000E+00 -0.77939913186E+02  0.77939913186E+02  0.00000000000E+00 0. -1.
         25    2    1    2    0    0  0.49763211343E+02  0.16675594814E+02  0.88234165924E+02  0.16182587544E+03  0.12509153952E+03 0.  0.
          5    1    3    3  502    0  0.37465243201E+02 -0.26914759989E+02  0.10386923402E+03  0.11372923515E+03  0.41800000000E+01 0.  1.
         -5    1    3    3    0  502  0.12297968142E+02  0.43590354803E+02 -0.15635068094E+02  0.48096640283E+02  0.41800000000E+01 0.  1.
        -11    1    1    2    0    0 -0.57883898974E+01 -0.23742307721E+02  0.52174751674E+02  0.57614298102E+02  0.00000000000E+00 0.  1.
         11    1    1    2    0    0 -0.43974821446E+02  0.70667129075E+01 -0.25517582193E+02  0.51330988238E+02  0.00000000000E+00 0. -1.
</event>
<event>
 7    1  0.3265282E-009  0.1933559E+03  0.7561462E-02  0.1155469E+00
         -2   -1    0    0    0  501 -0.00000000000E+00  0.00000000000E+00  0.38877151604E+02  0.38877151604E+02  0.00000000000E+00 0.  1.
          2   -1    0    0  501    0  0.00000000000E+00 -0.00000000000E+00 -0.14155077773E+04  0.14155077773E+04  0.00000000000E+00 0. -1.
         25    2    1    2    0    0 -0.65292077246E+02  0.17652418905E+03 -0.44003041362E+03  0.49466951235E+03  0.12508923562E+03 0.  0.
          5    1    3    3  502    0 -0.19351547104E+02  0.93470863829E+02 -0.87482916873E+02  0.12954542796E+03  0.41800000000E+01 0. -1.
         -5    1    3    3    0  502 -0.45940530142E+02  0.83053325217E+02 -0.35254749675E+03  0.36512408439E+03  0.41800000000E+01 0. -1.
        -11    1    1    2    0    0  0.36830893603E+02 -0.31778470699E+02 -0.11326776362E+03  0.12327194409E+03  0.00000000000E+00 0.  1.
         11    1    1    2    0    0  0.28461183643E+02 -0.14474571835E+03 -0.82333244850E+03  0.83644347252E+03  0.00000000000E+00 0. -1.
</event>
<event>
 7    1  0.3265282E-009  0.1438142E+03  0.7561462E-02  0.1208287E+00
         -2   -1    0    0    0  501 -0.00000000000E+00  0.00000000000E+00  0.16717889404E+02  0.16717889404E+02  0.00000000000E+00 0.  1.
          2   -1    0    0  501    0  0.00000000000E+00 -0.00000000000E+00 -0.14564048863E+04  0.14564048863E+04  0.00000000000E+00 0. -1.
         25    2    1    2    0    0 -0.59441214148E+02 -0.93276303602E+02 -0.87756962911E+03  0.89331359710E+03  0.12508797733E+03 0.  0.
          5    1    3    3  502    0 -0.51655246191E+02  0.19348471109E-01 -0.55478853582E+03  0.55720378383E+03  0.41800000000E+01 0.  1.
         -5    1    3    3    0  502 -0.77859679572E+01 -0.93295652073E+02 -0.32278109329E+03  0.33610981327E+03  0.41800000000E+01 0.  1.
        -11    1    1    2    0    0  0.43174967252E+02 -0.40965705623E+01 -0.17838108029E+03  0.18357742098E+03  0.00000000000E+00 0.  1.
         11    1    1    2    0    0  0.16266246896E+02  0.97372874164E+02 -0.38373628752E+03  0.39623175765E+03  0.00000000000E+00 0. -1.
</event>
<event>
 7    1  0.3265282E-009  0.1131703E+03  0.7561462E-02  0.1254809E+00
         -2   -1    0    0    0  501 -0.00000000000E+00  0.00000000000E+00  0.58313570517E+03  0.58313570517E+03  0.00000000000E+00 0. -1.
          2   -1    0    0  501    0  0.00000000000E+00 -0.00000000000E+00 -0.32308973253E+02  0.32308973253E+02  0.00000000000E+00 0.  1.
         25    2    1    2    0    0 -0.78621803479E+02  0.19320908938E+02  0.22474275378E+03  0.26964376571E+03  0.12507505548E+03 0.  0.
          5    1    3    3  502    0  0.12452897287E+02  0.23417597897E+02  0.14796286414E+03  0.15037932074E+03  0.41800000000E+01 0.  1.
         -5    1    3    3    0  502 -0.91074700766E+02 -0.40966889590E+01  0.76779889640E+02  0.11926444497E+03  0.41800000000E+01 0.  1.
        -11    1    1    2    0    0  0.38773329821E+02 -0.46084559030E+02  0.23783163402E+03  0.24533863093E+03  0.00000000000E+00 0. -1.
         11    1    1    2    0    0  0.39848473658E+02  0.26763650092E+02  0.88252344116E+02  0.10046228178E+03  0.00000000000E+00 0.  1.
</event>
<event>
 7    1  0.3265282E-009  0.1344628E+03  0.7561462E-02  0.1220980E+00
          2   -1    0    0  501    0  0.00000000000E+00  0.00000000000E+00  0.49327638965E+03  0.49327638965E+03  0.00000000000E+00 0. -1.
         -2   -1    0    0    0  501 -0.00000000000E+00 -0.00000000000E+00 -0.42710561311E+02  0.42710561311E+02  0.00000000000E+00 0.  1.
         25    2    1    2    0    0  0.31196746323E+02  0.92407608239E+02  0.27679766830E+03  0.31902709120E+03  0.12509569417E+03 0.  0.
          5    1    3    3  502    0  0.70232782310E+02  0.53967956396E+02  0.98864304330E+02  0.13280364114E+03  0.41800000000E+01 0. -1.
         -5    1    3    3    0  502 -0.39036035987E+02  0.38439651843E+02  0.17793336397E+03  0.18622345006E+03  0.41800000000E+01 0. -1.
        -11    1    1    2    0    0  0.12350564377E+02 -0.78689039806E+02  0.13642746228E+03  0.15797770061E+03  0.00000000000E+00 0. -1.
         11    1    1    2    0    0 -0.43547310700E+02 -0.13718568433E+02  0.37340697754E+02  0.58982159148E+02  0.00000000000E+00 0.  1.
</event>
<event>
 7    1  0.3265282E-009  0.1093986E+03  0.7561462E-02  0.1261688E+00
         -1   -1    0    0    0  501 -0.00000000000E+00  0.00000000000E+00  0.15562193494E+04  0.15562193494E+04  0.00000000000E+00 0.  1.
          1   -1    0    0  501    0  0.00000000000E+00 -0.00000000000E+00 -0.11073405430E+02  0.11073405430E+02  0.00000000000E+00 0. -1.
         25    2    1    2    0    0  0.30424414106E+02  0.67888622761E+02  0.91403444648E+03  0.92554910249E+03  0.12509061394E+03 0.  0.
          5    1    3    3  502    0  0.39999110048E+02  0.71067466020E+01  0.85824378310E+02  0.95045941335E+02  0.41800000000E+01 0. -1.
         -5    1    3    3    0  502 -0.95746959418E+01  0.60781876159E+02  0.82821006817E+03  0.83050316116E+03  0.41800000000E+01 0. -1.
        -11    1    1    2    0    0 -0.58630420787E+02 -0.65604453354E+02  0.48532689887E+03  0.49323794390E+03  0.00000000000E+00 0.  1.
         11    1    1    2    0    0  0.28206006681E+02 -0.22841694070E+01  0.14578459864E+03  0.14850570846E+03  0.00000000000E+00 0. -1.
</event>
<event>
 7    1  0.3265282E-009  0.1052025E+03  0.7561462E-02  0.1269721E+00
         -1   -1    0    0    0  501 -0.00000000000E+00  0.00000000000E+00  0.23479957502E+03  0.23479957502E+03  0.00000000000E+00 0.  1.
          1   -1    0    0  501    0  0.00000000000E+00 -0.00000000000E+00 -0.16026736375E+03  0.16026736375E+03  0.00000000000E+00 0. -1.
         25    2    1    2    0    0  0.64645481087E+02  0.64135975827E+02  0.17352160691E+03  0.23248961187E+03  0.12509680228E+03 0.  0.
          5    1    3    3  502    0 -0.82214626894E+01  0.13690019147E+02 -0.16149415466E+02  0.23092966307E+02  0.41800000000E+01 0. -1.
         -5    1    3    3    0  502  0.72866943776E+02  0.50445956681E+02  0.18967102238E+03  0.20939664556E+03  0.41800000000E+01 0. -1.
        -11    1    1    2    0    0 -0.13236561929E+02 -0.50192137530E+02 -0.20275645328E+01  0.51947745471E+02  0.00000000000E+00 0.  1.
         11    1    1    2    0    0 -0.51408919158E+02 -0.13943838297E+02 -0.96961831114E+02  0.11062958143E+03  0.00000000000E+00 0. -1.
</event>
<event>
 7    1  0.3265282E-009  0.1625128E+03  0.7561462E-02  0.1185889E+00
          1   -1    0    0  501    0  0.00000000000E+00  0.00000000000E+00  0.52113551073E+03  0.52113551073E+03  0.00000000000E+00 0. -1.
         -1   -1    0    0    0  501 -0.00000000000E+00 -0.00000000000E+00 -0.53450487286E+02  0.53450487286E+02  0.00000000000E+00 0.  1.
         25    2    1    2    0    0 -0.12140768231E+03 -0.13942950197E+02  0.31179386271E+03  0.35748555670E+03  0.12508508801E+03 0.  0.
          5    1    3    3  502    0 -0.12375691651E+03  0.31954137119E+02  0.21292613372E+03  0.24837844529E+03  0.41800000000E+01 0.  1.
         -5    1    3    3    0  502  0.23492342025E+01 -0.45897087316E+02  0.98867728992E+02  0.10910711142E+03  0.41800000000E+01 0.  1.
        -11    1    1    2    0    0  0.54536933015E+02  0.50892685814E+02  0.73004638721E+02  0.10437442123E+03  0.00000000000E+00 0.  1.
         11    1    1    2    0    0  0.66870749291E+02 -0.36949735617E+02  0.82886522010E+02  0.11272602008E+03  0.00000000000E+00 0. -1.
</event>
<event>
 7    1  0.3265282E-009  0.7819893E+02  0.7561462E-02  0.1334242E+00
          2   -1    0    0  501    0  0.00000000000E+00  0.00000000000E+00  0.80260710420E+03  0.80260710420E+03  0.00000000000E+00 0. -1.
         -2   -1    0    0    0  501 -0.00000000000E+00 -0.00000000000E+00 -0.28486944988E+02  0.28486944988E+02  0.00000000000E+00 0.  1.
         25    2    1    2    0    0 -0.64333396557E+02  0.18154863512E+02  0.63235004874E+03  0.64806113006E+03  0.12509300209E+03 0.  0.
          5    1    3    3  502    0 -0.21866067190E+02  0.31199444487E+02  0.45390534249E+02  0.59407939116E+02  0.41800000000E+01 0.  1.
         -5    1    3    3    0  502 -0.42467329367E+02 -0.13044580974E+02  0.58695951449E+03  0.58865319094E+03  0.41800000000E+01 0.  1.
        -11    1    1    2    0    0  0.11848706304E+02 -0.17285431262E+02 -0.94297887218E+01  0.22980402310E+02  0.00000000000E+00 0.  1.
         11    1    1    2    0    0  0.52484690253E+02 -0.86943225020E+00  0.15119989919E+03  0.16005251682E+03  0.00000000000E+00 0. -1.
</event>
<event>
 7    1  0.3265282E-009  0.1225307E+03  0.7561462E-02  0.1238980E+00
         -3   -1    0    0    0  501 -0.00000000000E+00  0.00000000000E+00  0.18398092245E+03  0.18398092245E+03  0.00000000000E+00 0.  1.
          3   -1    0    0  501    0  0.00000000000E+00 -0.00000000000E+00 -0.13486816930E+03  0.13486816930E+03  0.00000000000E+00 0. -1.
         25    2    1    2    0    0  0.86793159528E+02 -0.15439730400E+02  0.10043096379E+03  0.18304509244E+03  0.12509072533E+03 0.  0.
          5    1    3    3  502    0  0.48528734809E+02  0.54124052728E+02  0.39198917733E+02  0.82695095001E+02  0.41800000000E+01 0. -1.
         -5    1    3    3    0  502  0.38264424718E+02 -0.69563783128E+02  0.61232046059E+02  0.10034999744E+03  0.41800000000E+01 0. -1.
        -11    1    1    2    0    0 -0.37614885008E+02 -0.76979529470E+01  0.22220688412E+02  0.44360985643E+02  0.00000000000E+00 0.  1.
         11    1    1    2    0    0 -0.49178274520E+02  0.23137683347E+02 -0.73538899050E+02  0.91443013669E+02  0.00000000000E+00 0. -1.
</event>
<event>
 7    1  0.3265282E-009  0.1666197E+03  0.7561462E-02  0.1181419E+00
         -2   -1    0    0    0  501 -0.00000000000E+00  0.00000000000E+00  0.11689209337E+03  0.11689209337E+03  0.00000000000E+00 0.  1.
          2   -1    0    0  501    0  0.00000000000E+00 -0.00000000000E+00 -0.32791676283E+03  0.32791676283E+03  0.00000000000E+00 0. -1.
         25    2    1    2    0    0 -0.69921051209E+02  0.14388696345E+03 -0.13651598698E+03  0.24469739774E+03  0.12509112721E+03 0.  0.
          5    1    3    3  502    0 -0.65065667045E+02  0.59144996342E+02 -0.50743577252E+01  0.88175354417E+02  0.41800000000E+01 0.  1.
         -5    1    3    3    0  502 -0.48553841636E+01  0.84741967109E+02 -0.13144162926E+03  0.15652204332E+03  0.41800000000E+01 0.  1.
        -11    1    1    2    0    0  0.35622782004E+02 -0.63114215685E+02  0.15815202547E+02  0.74178888175E+02  0.00000000000E+00 0.  1.
         11    1    1    2    0    0  0.34298269205E+02 -0.80772747766E+02 -0.90323885021E+02  0.12593257028E+03  0.00000000000E+00 0. -1.
</event>
<event>
 7    1  0.3265282E-009  0.1127511E+03  0.7561462E-02  0.1255558E+00
         -1   -1    0    0    0  501 -0.00000000000E+00  0.00000000000E+00  0.17601941144E+03  0.17601941144E+03  0.00000000000E+00 0.  1.
          1   -1    0    0  501    0  0.00000000000E+00 -0.00000000000E+00 -0.14784559441E+03  0.14784559441E+03  0.00000000000E+00 0. -1.
         25    2    1    2    0    0 -0.73102599455E+02  0.69711033702E+02 -0.68229924909E+02  0.17466315551E+03  0.12509307324E+03 0.  0.
          5    1    3    3  502    0 -0.11307063343E+01 -0.68977935735E+01  0.29786662623E+02  0.30880021425E+02  0.41800000000E+01 0. -1.
         -5    1    3    3    0  502 -0.71971893120E+02  0.76608827275E+02 -0.98016587532E+02  0.14378313408E+03  0.41800000000E+01 0. -1.
        -11    1    1    2    0    0 -0.23962922774E+01 -0.23543809760E+02  0.31773380181E+02  0.39618188788E+02  0.00000000000E+00 0.  1.
         11    1    1    2    0    0  0.75498891732E+02 -0.46167223942E+02  0.64630361760E+02  0.10958366156E+03  0.00000000000E+00 0. -1.
</event>
<event>
 7    1  0.3265282E-009  0.9762740E+02  0.7561462E-02  0.1285366E+00
          2   -1    0    0  501    0  0.00000000000E+00  0.00000000000E+00  0.52125019245E+03  0.52125019245E+03  0.00000000000E+00 0. -1.
         -2   -1    0    0    0  501 -0.00000000000E+00 -0.00000000000E+00 -0.41116721276E+02  0.41116721276E+02  0.00000000000E+00 0.  1.
         25    2    1    2    0    0  0.70851155050E+02  0.38738388729E+02  0.36482942077E+03  0.39403942847E+03  0.12508403572E+03 0.  0.
          5    1    3    3  502    0  0.27472865257E+02  0.96854680451E+01  0.32961528014E+03  0.33092638444E+03  0.41800000000E+01 0. -1.
         -5    1    3    3    0  502  0.43378289793E+02  0.29052920684E+02  0.35214140629E+02  0.63113044023E+02  0.41800000000E+01 0. -1.
        -11    1    1    2    0    0 -0.41029711029E+02  0.21436017770E+02  0.17086811126E+02  0.49344697379E+02  0.00000000000E+00 0.  1.
         11    1    1    2    0    0 -0.29821444021E+02 -0.60174406499E+02  0.98217239278E+02  0.11898278788E+03  0.00000000000E+00 0. -1.
</event>
<event>
 7    1  0.3265282E-009  0.2005229E+03  0.7561462E-02  0.1149299E+00
          2   -1    0    0  501    0  0.00000000000E+00  0.00000000000E+00  0.12210932756E+04  0.12210932756E+04  0.00000000000E+00 0. -1.
         -2   -1    0    0    0  501 -0.00000000000E+00 -0.00000000000E+00 -0.34542962189E+02  0.34542962189E+02  0.00000000000E+00 0.  1.
         25    2    1    2    0    0  0.15016940940E+03  0.88007156424E+02  0.62109099099E+03  0.65703750858E+03  0.12509259568E+03 0.  0.
          5    1    3    3  502    0 -0.55522200039E+00 -0.21244521595E+02  0.13076208194E+03  0.13254370012E+03  0.41800000000E+01 0. -1.
         -5    1    3    3    0  502  0.15072463140E+03  0.10925167802E+03  0.49032890905E+03  0.52449380846E+03  0.41800000000E+01 0. -1.
        -11    1    1    2    0    0 -0.65188400508E+02 -0.86342076650E+02  0.36918994701E+03  0.38471508774E+03  0.00000000000E+00 0.  1.
         11    1    1    2    0    0 -0.84981008894E+02 -0.16650797743E+01  0.19626937541E+03  0.21388364146E+03  0.00000000000E+00 0. -1.
</event>
<event>
 7    1  0.3265282E-009  0.8313164E+02  0.7561462E-02  0.1320392E+00
          3   -1    0    0  501    0  0.00000000000E+00  0.00000000000E+00  0.70439364531E+02  0.70439364531E+02  0.00000000000E+00 0. -1.
         -3   -1    0    0    0  501 -0.00000000000E+00 -0.00000000000E+00 -0.27526615988E+03  0.27526615988E+03  0.00000000000E+00 0.  1.
         25    2    1    2    0    0 -0.31107728178E+02 -0.50898937383E+02 -0.19100045134E+03  0.23597940623E+03  0.12508683052E+03 0.  0.
          5    1    3    3  502    0 -0.10670341501E+02  0.45024416312E+01  0.16279687440E+02  0.20411486754E+02  0.41800000000E+01 0.  1.
         -5    1    3    3    0  502 -0.20437386678E+02 -0.55401379014E+02 -0.20728013878E+03  0.21556791947E+03  0.41800000000E+01 0.  1.
        -11    1    1    2    0    0 -0.84659975223E+01 -0.15380884262E+02  0.18974704199E+02  0.25851191736E+02  0.00000000000E+00 0. -1.
         11    1    1    2    0    0  0.39573725700E+02  0.66279821646E+02 -0.32801048199E+02  0.83874926445E+02  0.00000000000E+00 0.  1.
</event>
<event>
 7    1  0.3265282E-009  0.1277302E+03  0.7561462E-02  0.1230863E+00
         -2   -1    0    0    0  501 -0.00000000000E+00  0.00000000000E+00  0.65213859142E+02  0.65213859142E+02  0.00000000000E+00 0.  1.
          2   -1    0    0  501    0  0.00000000000E+00 -0.00000000000E+00 -0.34606691229E+03  0.34606691229E+03  0.00000000000E+00 0. -1.
         25    2    1    2    0    0 -0.17294864038E+02 -0.89721571858E+02 -0.21354860882E+03  0.26381903556E+03  0.12509357465E+03 0.  0.
          5    1    3    3  502    0 -0.24211928773E+02  0.27147358448E+02 -0.37984483882E+02  0.52758790561E+02  0.41800000000E+01 0.  1.
         -5    1    3    3    0  502  0.69170647352E+01 -0.11686893031E+03 -0.17556412494E+03  0.21106024500E+03  0.41800000000E+01 0.  1.
        -11    1    1    2    0    0  0.30049878582E+02  0.38106062406E+02  0.13827438520E+02  0.50460531615E+02  0.00000000000E+00 0.  1.
         11    1    1    2    0    0 -0.12755014544E+02  0.51615509452E+02 -0.81131882843E+02  0.97001204249E+02  0.00000000000E+00 0. -1.
</event>
<event>
 7    1  0.3265282E-009  0.1599551E+03  0.7561462E-02  0.1188747E+00
          2   -1    0    0  501    0  0.00000000000E+00  0.00000000000E+00  0.11964153056E+03  0.11964153056E+03  0.00000000000E+00 0.  1.
         -2   -1    0    0    0  501 -0.00000000000E+00 -0.00000000000E+00 -0.25774114914E+03  0.25774114914E+03  0.00000000000E+00 0. -1.
         25    2    1    2    0    0  0.10095445618E+03  0.73770145457E+02 -0.11961000940E+02  0.17726970257E+03  0.12509054849E+03 0.  0.
          5    1    3    3  502    0  0.86973294827E+02  0.10842895260E+03 -0.12829855384E+02  0.13965410615E+03  0.41800000000E+01 0. -1.
         -5    1    3    3    0  502  0.13981161350E+02 -0.34658807147E+02  0.86885444417E+00  0.37615596414E+02  0.41800000000E+01 0. -1.
        -11    1    1    2    0    0  0.11724675088E+01 -0.33406414181E+02 -0.68200878120E+02  0.75952109680E+02  0.00000000000E+00 0. -1.
         11    1    1    2    0    0 -0.10212692369E+03 -0.40363731276E+02 -0.57937739522E+02  0.12416086745E+03  0.00000000000E+00 0.  1.
</event>
<event>
 7    1  0.3265282E-009  0.8237298E+02  0.7561462E-02  0.1322449E+00
          1   -1    0    0  501    0  0.00000000000E+00  0.00000000000E+00  0.75685281060E+02  0.75685281060E+02  0.00000000000E+00 0. -1.
         -1   -1    0    0    0  501 -0.00000000000E+00 -0.00000000000E+00 -0.16663947253E+03  0.16663947253E+03  0.00000000000E+00 0.  1.
         25    2    1    2    0    0  0.23926156345E+02  0.17420206144E+02 -0.33421783083E+02  0.13281816638E+03  0.12509086776E+03 0.  0.
          5    1    3    3  502    0 -0.29148536957E+02  0.22471690815E+02 -0.61970280785E+02  0.72196968048E+02  0.41800000000E+01 0.  1.
         -5    1    3    3    0  502  0.53074693303E+02 -0.50514846708E+01  0.28548497702E+02  0.60621198335E+02  0.41800000000E+01 0.  1.
        -11    1    1    2    0    0 -0.47477464763E+02 -0.17710063556E+02 -0.67100113696E+02  0.84084369947E+02  0.00000000000E+00 0.  1.
         11    1    1    2    0    0  0.23551308417E+02  0.28985741226E+00  0.95677053085E+01  0.25422217259E+02  0.00000000000E+00 0. -1.
</event>
<event>
 7    1  0.3265282E-009  0.1004924E+03  0.7561462E-02  0.1279264E+00
         -2   -1    0    0    0  501 -0.00000000000E+00  0.00000000000E+00  0.41524903663E+02  0.41524903663E+02  0.00000000000E+00 0. -1.
          2   -1    0    0  501    0  0.00000000000E+00 -0.00000000000E+00 -0.47556454695E+03  0.47556454695E+03  0.00000000000E+00 0.  1.
         25    2    1    2    0    0  0.89742220460E+01  0.85808563918E+02 -0.28726234004E+03  0.32498484092E+03  0.12510734798E+03 0.  0.
          5    1    3    3  502    0  0.90100438346E+01  0.91022182865E+01  0.10746834999E+02  0.17233633689E+02  0.41800000000E+01 0.  1.
         -5    1    3    3    0  502 -0.35821788633E-01  0.76706345632E+02 -0.29800917504E+03  0.30775120723E+03  0.41800000000E+01 0.  1.
        -11    1    1    2    0    0 -0.57848208133E+01  0.11742018467E+02 -0.60295243546E+02  0.61699720776E+02  0.00000000000E+00 0.  1.
         11    1    1    2    0    0 -0.31894012327E+01 -0.97550582385E+02 -0.86482059702E+02  0.13040488892E+03  0.00000000000E+00 0. -1.
</event>
<event>
 7    1  0.3265282E-009  0.1978943E+03  0.7561462E-02  0.1151528E+00
          1   -1    0    0  501    0  0.00000000000E+00  0.00000000000E+00  0.12270209066E+04  0.12270209066E+04  0.00000000000E+00 0. -1.
         -1   -1    0    0    0  501 -0.00000000000E+00 -0.00000000000E+00 -0.34386486125E+02  0.34386486125E+02  0.00000000000E+00 0.  1.
         25    2    1    2    0    0  0.31494505922E+01  0.16827028987E+03  0.48641823578E+03  0.52969153104E+03  0.12508240668E+03 0.  0.
          5    1    3    3  502    0 -0.35541921383E+02  0.16322739570E+03  0.35180027326E+03  0.38947055800E+03  0.41800000000E+01 0. -1.
         -5    1    3    3    0  502  0.38691371975E+02  0.50428941724E+01  0.13461796252E+03  0.14022097304E+03  0.41800000000E+01 0. -1.
        -11    1    1    2    0    0  0.41651694063E+02 -0.70267662626E+02  0.35835367262E+03  0.36754559270E+03  0.00000000000E+00 0.  1.
         11    1    1    2    0    0 -0.44801144655E+02 -0.98002627247E+02  0.34786251204E+03  0.36417026896E+03  0.00000000000E+00 0. -1.
</event>
<event>
 7    1  0.3265282E-009  0.9685314E+02  0.7561462E-02  0.1287056E+00
          1   -1    0    0  501    0  0.00000000000E+00  0.00000000000E+00  0.16669900767E+02  0.16669900767E+02  0.00000000000E+00 0. -1.
         -1   -1    0    0    0  501 -0.00000000000E+00 -0.00000000000E+00 -0.77052828275E+03  0.77052828275E+03  0.00000000000E+00 0.  1.
         25    2    1    2    0    0 -0.14570351288E+02  0.23365940083E+02 -0.40472756547E+03  0.42451223492E+03  0.12509185843E+03 0.  0.
          5    1    3    3  502    0  0.19064398603E+02  0.57381039862E+02 -0.33115622024E+03  0.33665702077E+03  0.41800000000E+01 0. -1.
         -5    1    3    3    0  502 -0.33634749891E+02 -0.34015099778E+02 -0.73571345234E+02  0.87855214146E+02  0.41800000000E+01 0. -1.
        -11    1    1    2    0    0 -0.33025605789E+02 -0.16731208017E+02 -0.67515443966E+02  0.76999734632E+02  0.00000000000E+00 0. -1.
         11    1    1    2    0    0  0.47595957077E+02 -0.66347320661E+01 -0.28161537254E+03  0.28568621397E+03  0.00000000000E+00 0.  1.
</event>
<event>
 7    1  0.3265282E-009  0.8900528E+02  0.7561462E-02  0.1305279E+00
          1   -1    0    0  501    0  0.00000000000E+00  0.00000000000E+00  0.12478418533E+02  0.12478418533E+02  0.00000000000E+00 0. -1.
         -1   -1    0    0    0  501 -0.00000000000E+00 -0.00000000000E+00 -0.10401663682E+04  0.10401663682E+04  0.00000000000E+00 0.  1.
         25    2    1    2    0    0 -0.14788414076E+02 -0.24831441009E+01 -0.85389295296E+03  0.86313683682E+03  0.12508861165E+03 0.  0.
          5    1    3    3  502    0  0.44660393111E+02 -0.11213300603E+02 -0.61616529576E+03  0.61789759097E+03  0.41800000000E+01 0. -1.
         -5    1    3    3    0  502 -0.59448807187E+02  0.87301565024E+01 -0.23772765720E+03  0.24523924585E+03  0.41800000000E+01 0. -1.
        -11    1    1    2    0    0  0.33620361800E+02 -0.22354051657E+02 -0.66682124760E+02  0.77952152732E+02  0.00000000000E+00 0. -1.
         11    1    1    2    0    0 -0.18831947724E+02  0.24837195757E+02 -0.10711287192E+03  0.11155579716E+03  0.00000000000E+00 0.  1.
</event>
<event>
 7    1  0.3265282E-009  0.1014432E+03  0.7561462E-02  0.1277290E+00
         -2   -1    0    0    0  501 -0.00000000000E+00  0.00000000000E+00  0.88017929319E+02  0.88017929319E+02  0.00000000000E+00 0.  1.
          2   -1    0    0  501    0  0.00000000000E+00 -0.00000000000E+00 -0.15334136780E+03  0.15334136780E+03  0.00000000000E+00 0. -1.
         25    2    1    2    0    0  0.29673009913E+02  0.16794280818E+02 -0.13562206823E+02  0.13032917947E+03  0.12505689178E+03 0.  0.
          5    1    3    3  502    0  0.61069799858E+02 -0.12399334980E+02 -0.45019394872E+02  0.76990144027E+02  0.41800000000E+01 0. -1.
         -5    1    3    3    0  502 -0.31396789945E+02  0.29193615797E+02  0.31457188049E+02  0.53339035444E+02  0.41800000000E+01 0. -1.
        -11    1    1    2    0    0 -0.46012633537E+02 -0.45254475012E+02 -0.27180389461E+02  0.70027876770E+02  0.00000000000E+00 0.  1.
         11    1    1    2    0    0  0.16339623624E+02  0.28460194195E+02 -0.24580842197E+02  0.41002240876E+02  0.00000000000E+00 0. -1.
</event>
<event>
 7    1  0.3265282E-009  0.1117866E+03  0.7561462E-02  0.1257297E+00
          2   -1    0    0  501    0  0.00000000000E+00  0.00000000000E+00  0.31902664444E+03  0.31902664444E+03  0.00000000000E+00 0. -1.
         -2   -1    0    0    0  501 -0.00000000000E+00 -0.00000000000E+00 -0.67380533442E+02  0.67380533442E+02  0.00000000000E+00 0.  1.
         25    2    1    2    0    0  0.25867782305E+02 -0.79208522958E+01  0.18446524071E+02  0.12930442257E+03  0.12508987723E+03 0.  0.
          5    1    3    3  502    0 -0.44753120215E+02  0.12316553197E+02 -0.14321664358E+02  0.48755735269E+02  0.41800000000E+01 0.  1.
         -5    1    3    3    0  502  0.70620902520E+02 -0.20237405492E+02  0.32768188429E+02  0.80548687306E+02  0.41800000000E+01 0.  1.
        -11    1    1    2    0    0  0.38240701843E+02 -0.29834595345E+01  0.52210627102E+02  0.64785815505E+02  0.00000000000E+00 0.  1.
         11    1    1    2    0    0 -0.64108484148E+02  0.10904311830E+02  0.18098895982E+03  0.19231693980E+03  0.00000000000E+00 0. -1.
</event>
<event>
 7    1  0.3265282E-009  0.9915809E+02  0.7561462E-02  0.1282076E+00
         -1   -1    0    0    0  501 -0.00000000000E+00  0.00000000000E+00  0.83670229110E+02  0.83670229110E+02  0.00000000000E+00 0.  1.
          1   -1    0    0  501    0  0.00000000000E+00 -0.00000000000E+00 -0.18406213900E+03  0.18406213900E+03  0.00000000000E+00 0. -1.
         25    2    1    2    0    0  0.37758965936E+02 -0.21233456335E+01 -0.98789026555E+02  0.16382156567E+03  0.12509190823E+03 0.  0.
          5    1    3    3  502    0  0.50020075012E+02  0.53610243340E+02 -0.53974400792E+02  0.91141507756E+02  0.41800000000E+01 0. -1.
         -5    1    3    3    0  502 -0.12261109076E+02 -0.55733588974E+02 -0.44814625762E+02  0.72680057911E+02  0.41800000000E+01 0. -1.
        -11    1    1    2    0    0 -0.16572033887E+02  0.29019210258E+02  0.38631762587E+02  0.51079936880E+02  0.00000000000E+00 0.  1.
         11    1    1    2    0    0 -0.21186932049E+02 -0.26895864624E+02 -0.40234645917E+02  0.52830865558E+02  0.00000000000E+00 0. -1.
</event>
<event>
 7    1  0.3265282E-009  0.1517512E+03  0.7561462E-02  0.1198338E+00
          1   -1    0    0  501    0  0.00000000000E+00  0.00000000000E+00  0.17976400299E+04  0.17976400299E+04  0.00000000000E+00 0. -1.
         -1   -1    0    0    0  501 -0.00000000000E+00 -0.00000000000E+00 -0.14204472461E+02  0.14204472461E+02  0.00000000000E+00 0.  1.
         25    2    1    2    0    0  0.94359455443E+02 -0.71067219883E+02  0.92348515250E+03  0.93937562041E+03  0.12508985878E+03 0.  0.
          5    1    3    3  502    0  0.54896879490E+02  0.18672321129E+02  0.55547405324E+03  0.55850802964E+03  0.41800000000E+01 0. -1.
         -5    1    3    3    0  502  0.39462575953E+02 -0.89739541012E+02  0.36801109926E+03  0.38086759077E+03  0.41800000000E+01 0. -1.
        -11    1    1    2    0    0 -0.14517570876E+02  0.65631035270E+02  0.40003802553E+03  0.40564592260E+03  0.00000000000E+00 0. -1.
         11    1    1    2    0    0 -0.79841884567E+02  0.54361846133E+01  0.45991237938E+03  0.46682295931E+03  0.00000000000E+00 0.  1.
</event>
<event>
 7    1  0.3265282E-009  0.9541006E+02  0.7561462E-02  0.1290255E+00
          1   -1    0    0  501    0  0.00000000000E+00  0.00000000000E+00  0.20408223578E+03  0.20408223578E+03  0.00000000000E+00 0. -1.
         -1   -1    0    0    0  501 -0.00000000000E+00 -0.00000000000E+00 -0.11017984552E+03  0.11017984552E+03  0.00000000000E+00 0.  1.
         25    2    1    2    0    0  0.18716116551E+02 -0.28810115698E+02 -0.52568119599E+02  0.13996555866E+03  0.12508650857E+03 0.  0.
          5    1    3    3  502    0 -0.24566943866E+02 -0.67097914747E+02 -0.25138625201E+02  0.75862294793E+02  0.41800000000E+01 0. -1.
         -5    1    3    3    0  502  0.43283060417E+02  0.38287799049E+02 -0.27429494398E+02  0.64103263864E+02  0.41800000000E+01 0. -1.
        -11    1    1    2    0    0  0.47348256569E+01  0.36361839105E+02  0.13518898471E+02  0.39081485808E+02  0.00000000000E+00 0.  1.
         11    1    1    2    0    0 -0.23450942208E+02 -0.75517234076E+01  0.13295161138E+03  0.13521503684E+03  0.00000000000E+00 0. -1.
</event>
<event>
 7    1  0.3265282E-009  0.1309245E+03  0.7561462E-02  0.1226090E+00
          2   -1    0    0  501    0  0.00000000000E+00  0.00000000000E+00  0.42222683791E+03  0.42222683791E+03  0.00000000000E+00 0. -1.
         -2   -1    0    0    0  501 -0.00000000000E+00 -0.00000000000E+00 -0.58717245941E+02  0.58717245941E+02  0.00000000000E+00 0.  1.
         25    2    1    2    0    0 -0.64031523543E+02 -0.93849952404E+02  0.19980118118E+03  0.26167916224E+03  0.12509045679E+03 0.  0.
          5    1    3    3  502    0 -0.19629406881E+02 -0.47985022634E+02  0.13337987540E+00  0.52013134898E+02  0.41800000000E+01 0.  1.
         -5    1    3    3    0  502 -0.44402116662E+02 -0.45864929770E+02  0.19966780130E+03  0.20966602735E+03  0.41800000000E+01 0.  1.
        -11    1    1    2    0    0  0.86334188401E+02  0.59295265901E+02  0.11695046837E+03  0.15699341609E+03  0.00000000000E+00 0. -1.
         11    1    1    2    0    0 -0.22302664858E+02  0.34554686503E+02  0.46757942420E+02  0.62271505510E+02  0.00000000000E+00 0.  1.
</event>
<event>
 7    1  0.3265282E-009  0.1019081E+03  0.7561462E-02  0.1276334E+00
          1   -1    0    0  501    0  0.00000000000E+00  0.00000000000E+00  0.12657210937E+04  0.12657210937E+04  0.00000000000E+00 0. -1.
         -1   -1    0    0    0  501 -0.00000000000E+00 -0.00000000000E+00 -0.10173049150E+02  0.10173049150E+02  0.00000000000E+00 0.  1.
         25    2    1    2    0    0  0.13961612185E+02  0.10905996808E+02  0.87437031979E+03  0.88345046704E+03  0.12508958470E+03 0.  0.
          5    1    3    3  502    0  0.47476940608E+02  0.43211376920E+02  0.28226945691E+03  0.28950786119E+03  0.41800000000E+01 0. -1.
         -5    1    3    3    0  502 -0.33515328422E+02 -0.32305380112E+02  0.59210086288E+03  0.59394260585E+03  0.41800000000E+01 0. -1.
        -11    1    1    2    0    0 -0.28300558736E+02 -0.46464610048E+02  0.24525857645E+03  0.25122032349E+03  0.00000000000E+00 0. -1.
         11    1    1    2    0    0  0.14338946550E+02  0.35558613239E+02  0.13591914830E+03  0.14122335231E+03  0.00000000000E+00 0.  1.
</event>
<event>
 7    1  0.3265282E-009  0.2081179E+03  0.7561462E-02  0.1143065E+00
          2   -1    0    0  501    0  0.00000000000E+00  0.00000000000E+00  0.65448068697E+03  0.65448068697E+03  0.00000000000E+00 0. -1.
         -2   -1    0    0    0  501 -0.00000000000E+00 -0.00000000000E+00 -0.82261851840E+02  0.82261851840E+02  0.00000000000E+00 0.  1.
         25    2    1    2    0    0 -0.99442634239E+02 -0.15015540943E+03  0.14114809856E+03  0.26079063301E+03  0.12511388433E+03 0.  0.
          5    1    3    3  502    0 -0.10023246650E+03 -0.42311868159E+02  0.90458864453E+02  0.14155253472E+03  0.41800000000E+01 0. -1.
         -5    1    3    3    0  502  0.78983226021E+00 -0.10784354127E+03  0.50689234110E+02  0.11923809829E+03  0.41800000000E+01 0. -1.
        -11    1    1    2    0    0  0.86714578620E+02  0.53391623648E+02  0.18393993970E+03  0.21024743765E+03  0.00000000000E+00 0.  1.
         11    1    1    2    0    0  0.12728055619E+02  0.96763785778E+02  0.24713079687E+03  0.26570446816E+03  0.00000000000E+00 0. -1.
</event>
<event>
 7    1  0.4697569E-009  0.1405076E+03  0.7561462E-02  0.1212648E+00
         -2   -1    0    0    0  501 -0.00000000000E+00  0.00000000000E+00  0.85915908875E+02  0.85915908875E+02  0.00000000000E+00 0. -1.
          2   -1    0    0  501    0  0.00000000000E+00 -0.00000000000E+00 -0.38330333199E+03  0.38330333199E+03  0.00000000000E+00 0.  1.
         25    2    1    2    0    0 -0.13659151761E+02 -0.13930541698E+03 -0.20570294578E+03  0.27848567458E+03  0.12509195584E+03 0.  0.
          5    1    3    3  502    0  0.85972716654E+00 -0.11479941258E+02  0.17184221076E+02  0.21102086060E+02  0.41800000000E+01 0.  1.
         -5    1    3    3    0  502 -0.14518878927E+02 -0.12782547572E+03 -0.22288716686E+03  0.25738358852E+03  0.41800000000E+01 0.  1.
        -11    1    1    2    0    0  0.99817374269E+01  0.77874061474E+02  0.21242762040E+01  0.78539907575E+02  0.00000000000E+00 0. -1.
         11    1    1    2    0    0  0.36774143338E+01  0.61431355504E+02 -0.93808753543E+02  0.11219365872E+03  0.00000000000E+00 0.  1.
</event>
<event>
 7    1  0.3265282E-009  0.1557599E+03  0.7561462E-02  0.1193569E+00
          1   -1    0    0  501    0  0.00000000000E+00  0.00000000000E+00  0.14249601270E+03  0.14249601270E+03  0.00000000000E+00 0. -1.
         -1   -1    0    0    0  501 -0.00000000000E+00 -0.00000000000E+00 -0.22754372103E+03  0.22754372103E+03  0.00000000000E+00 0.  1.
         25    2    1    2    0    0 -0.12171529196E+03  0.15850009515E+02 -0.12127019478E+03  0.21311841184E+03  0.12508861748E+03 0.  0.
          5    1    3    3  502    0 -0.10888565657E+03  0.53421630688E+02 -0.49643497116E+02  0.13111790891E+03  0.41800000000E+01 0. -1.
         -5    1    3    3    0  502 -0.12829635389E+02 -0.37571621172E+02 -0.71626697662E+02  0.82000502923E+02  0.41800000000E+01 0. -1.
        -11    1    1    2    0    0  0.66693806610E+00  0.23078399074E+02  0.16190530741E+02  0.28199124027E+02  0.00000000000E+00 0.  1.
         11    1    1    2    0    0  0.12104835389E+03 -0.38928408589E+02  0.20031955712E+02  0.12872219787E+03  0.00000000000E+00 0. -1.
</event>
<event>
 7    1  0.3265282E-009  0.8718571E+02  0.7561462E-02  0.1309814E+00
          1   -1    0    0  501    0  0.00000000000E+00  0.00000000000E+00  0.52089691362E+03  0.52089691362E+03  0.00000000000E+00 0. -1.
         -1   -1    0    0    0  501 -0.00000000000E+00 -0.00000000000E+00 -0.29967727037E+02  0.29967727037E+02  0.00000000000E+00 0.  1.
         25    2    1    2    0    0 -0.69831727809E+01 -0.52089623393E+02  0.33081904004E+03  0.35756165649E+03  0.12508799851E+03 0.  0.
          5    1    3    3  502    0  0.64902234032E+01 -0.67572002549E+02  0.32964015441E+03  0.33658312841E+03  0.41800000000E+01 0. -1.
         -5    1    3    3    0  502 -0.13473396184E+02  0.15482379155E+02  0.11788856256E+01  0.20978528079E+02  0.41800000000E+01 0. -1.
        -11    1    1    2    0    0 -0.24156288868E+02  0.48353480527E+02  0.15139091409E+03  0.16075072081E+03  0.00000000000E+00 0. -1.
         11    1    1    2    0    0  0.31139461649E+02  0.37361428662E+01  0.87192324537E+01  0.32552263361E+02  0.00000000000E+00 0.  1.
</event>
<event>
 7    1  0.3265282E-009  0.1507319E+03  0.7561462E-02  0.1199576E+00
         -2   -1    0    0    0  501 -0.00000000000E+00  0.00000000000E+00  0.47814734952E+02  0.47814734952E+02  0.00000000000E+00 0.  1.
          2   -1    0    0  501    0  0.00000000000E+00 -0.00000000000E+00 -0.63826130163E+03  0.63826130163E+03  0.00000000000E+00 0. -1.
         25    2    1    2    0    0 -0.74289400804E+02 -0.88647682367E+02 -0.45886043936E+03  0.48946641188E+03  0.12508852421E+03 0.  0.
          5    1    3    3  502    0 -0.41555735551E+02  0.19707343679E+02 -0.65644576686E+02  0.80261705690E+02  0.41800000000E+01 0.  1.
         -5    1    3    3    0  502 -0.32733665253E+02 -0.10835502605E+03 -0.39321586268E+03  0.40920470619E+03  0.41800000000E+01 0.  1.
        -11    1    1    2    0    0  0.57088420247E+02  0.57806359157E+01 -0.31222643155E+02  0.65325009939E+02  0.00000000000E+00 0.  1.
         11    1    1    2    0    0  0.17200980556E+02  0.82867046452E+02 -0.10036348416E+03  0.13128461476E+03  0.00000000000E+00 0. -1.
</event>
<event>
 7    1  0.3265282E-009  0.9080051E+02  0.7561462E-02  0.1300925E+00
          1   -1    0    0  501    0  0.00000000000E+00  0.00000000000E+00  0.29534452576E+03  0.29534452576E+03  0.00000000000E+00 0. -1.
         -1   -1    0    0    0  501 -0.00000000000E+00 -0.00000000000E+00 -0.52221137297E+02  0.52221137297E+02  0.00000000000E+00 0.  1.
         25    2    1    2    0    0  0.45406094210E+02  0.24959022930E+02  0.17821825630E+03  0.22381924308E+03  0.12509452618E+03 0.  0.
          5    1    3    3  502    0  0.39374989859E+02 -0.99596361234E+01  0.18328704732E+03  0.18777965357E+03  0.41800000000E+01 0. -1.
         -5    1    3    3    0  502  0.60311043508E+01  0.34918659053E+02 -0.50687910295E+01  0.36039589513E+02  0.41800000000E+01 0. -1.
        -11    1    1    2    0    0 -0.67566064703E+02 -0.39802426591E+02  0.52198564839E+02  0.94202422650E+02  0.00000000000E+00 0.  1.
         11    1    1    2    0    0  0.22159970493E+02  0.14843403661E+02  0.12706567327E+02  0.29543997322E+02  0.00000000000E+00 0. -1.
</event>
<event>
 7    1  0.3265282E-009  0.9641986E+02  0.7561462E-02  0.1288010E+00
         -3   -1    0    0    0  501 -0.00000000000E+00  0.00000000000E+00  0.37338288184E+03  0.37338288184E+03  0.00000000000E+00 0.  1.
          3   -1    0    0  501    0  0.00000000000E+00 -0.00000000000E+00 -0.11132377202E+03  0.11132377202E+03  0.00000000000E+00 0. -1.
         25    2    1    2    0    0 -0.14766394945E+01 -0.81721485127E+02 -0.29821275942E+02  0.15237802153E+03  0.12509664804E+03 0.  0.
          5    1    3    3  502    0  0.14976987605E+01  0.13965682222E+02  0.34150488331E+02  0.37161964894E+02  0.41800000000E+01 0.  1.
         -5    1    3    3    0  502 -0.29743382550E+01 -0.95687167349E+02 -0.63971764273E+02  0.11521605664E+03  0.41800000000E+01 0.  1.
        -11    1    1    2    0    0  0.41710004228E+01  0.14575782256E+02 -0.13097589601E+02  0.20034907693E+02  0.00000000000E+00 0. -1.
         11    1    1    2    0    0 -0.26943609283E+01  0.67145702871E+02  0.30497797535E+03  0.31229372463E+03  0.00000000000E+00 0.  1.
</event>
<event>
 7    1  0.3265282E-009  0.1576779E+03  0.7561462E-02  0.1191344E+00
         -2   -1    0    0    0  501 -0.00000000000E+00  0.00000000000E+00  0.14924469161E+03  0.14924469161E+03  0.00000000000E+00 0.  1.
          2   -1    0    0  501    0  0.00000000000E+00 -0.00000000000E+00 -0.20224826991E+03  0.20224826991E+03  0.00000000000E+00 0. -1.
         25    2    1    2    0    0  0.54503664311E+02  0.10771446547E+03  0.34173768817E+02  0.17716864170E+03  0.12509126921E+03 0.  0.
          5    1    3    3  502    0 -0.39023912703E+02  0.14871104898E+02  0.70993097697E+01  0.42566279174E+02  0.41800000000E+01 0. -1.
         -5    1    3    3    0  502  0.93527577014E+02  0.92843360572E+02  0.27074459048E+02  0.13460236252E+03  0.41800000000E+01 0. -1.
        -11    1    1    2    0    0 -0.51533014573E+02 -0.11909834106E+03 -0.56625965901E+02  0.14158589778E+03  0.00000000000E+00 0.  1.
         11    1    1    2    0    0 -0.29706497380E+01  0.11383875594E+02 -0.30551381224E+02  0.32738422046E+02  0.00000000000E+00 0. -1.
</event>
<event>
 7    1  0.3265282E-009  0.2161342E+03  0.7561462E-02  0.1136798E+00
          2   -1    0    0  501    0  0.00000000000E+00  0.00000000000E+00  0.30296332142E+03  0.30296332142E+03  0.00000000000E+00 0. -1.
         -2   -1    0    0    0  501 -0.00000000000E+00 -0.00000000000E+00 -0.16777363961E+03  0.16777363961E+03  0.00000000000E+00 0.  1.
         25    2    1    2    0    0 -0.82732033732E+02  0.17496484232E+03  0.10755328621E+03  0.25430886154E+03  0.12509197507E+03 0.  0.
          5    1    3    3  502    0 -0.10020534621E+03  0.18371217317E+03  0.10499290442E+03  0.23416288425E+03  0.41800000000E+01 0.  1.
         -5    1    3    3    0  502  0.17473312479E+02 -0.87473308499E+01  0.25603817850E+01  0.20145977287E+02  0.41800000000E+01 0.  1.
        -11    1    1    2    0    0 -0.99982311672E+01 -0.20740356244E+02  0.28284547678E+02  0.36471120643E+02  0.00000000000E+00 0. -1.
         11    1    1    2    0    0  0.92730264899E+02 -0.15422448608E+03 -0.64815208024E+00  0.17995697885E+03  0.00000000000E+00 0.  1.
</event>
<event>
 7    1  0.3265282E-009  0.1013744E+03  0.7561462E-02  0.1277432E+00
          2   -1    0    0  501    0  0.00000000000E+00  0.00000000000E+00  0.71760532714E+03  0.71760532714E+03  0.00000000000E+00 0. -1.
         -2   -1    0    0    0  501 -0.00000000000E+00 -0.00000000000E+00 -0.27037103691E+02  0.27037103691E+02  0.00000000000E+00 0.  1.
         25    2    1    2    0    0 -0.19464628495E+02  0.45848763486E+02  0.57552881174E+03  0.59106881317E+03  0.12509175789E+03 0.  0.
          5    1    3    3  502    0 -0.11966062512E+02 -0.36831103075E+02  0.84391717381E+02  0.92947034210E+02  0.41800000000E+01 0. -1.
         -5    1    3    3    0  502 -0.74985659826E+01  0.82679866561E+02  0.49113709436E+03  0.49812177896E+03  0.41800000000E+01 0. -1.
        -11    1    1    2    0    0  0.69084090391E+01 -0.60776063742E+02  0.33513686507E+02  0.69746850988E+02  0.00000000000E+00 0.  1.
         11    1    1    2    0    0  0.12556219456E+02  0.14927300256E+02  0.81525725200E+02  0.83826766664E+02  0.00000000000E+00 0. -1.
</event>
<event>
 7    1  0.3265282E-009  0.1149707E+03  0.7561462E-02  0.1251632E+00
         -1   -1    0    0    0  501 -0.00000000000E+00  0.00000000000E+00  0.48327538737E+03  0.48327538737E+03  0.00000000000E+00 0.  1.
          1   -1    0    0  501    0  0.00000000000E+00 -0.00000000000E+00 -0.45436636893E+02  0.45436636893E+02  0.00000000000E+00 0. -1.
         25    2    1    2    0    0  0.11203435557E+03 -0.26599481614E+01  0.25499797563E+03  0.30533629466E+03  0.12509002001E+03 0.  0.
          5    1    3    3  502    0  0.40254091654E+01 -0.41187077605E+01  0.16366220363E+03  0.16381683970E+03  0.41800000000E+01 0. -1.
         -5    1    3    3    0  502  0.10800894641E+03  0.14587595990E+01  0.91335772005E+02  0.14151945496E+03  0.41800000000E+01 0. -1.
        -11    1    1    2    0    0 -0.89037265399E+02 -0.79648509392E+01  0.17557429068E+03  0.19702133140E+03  0.00000000000E+00 0.  1.
         11    1    1    2    0    0 -0.22997090176E+02  0.10624799101E+02  0.72664841658E+01  0.26354398203E+02  0.00000000000E+00 0. -1.
</event>
<event>
 7    1  0.3265282E-009  0.9878886E+02  0.7561462E-02  0.1282864E+00
          2   -1    0    0  501    0  0.00000000000E+00  0.00000000000E+00  0.19578920080E+03  0.19578920080E+03  0.00000000000E+00 0. -1.
         -2   -1    0    0    0  501 -0.00000000000E+00 -0.00000000000E+00 -0.83435774518E+02  0.83435774518E+02  0.00000000000E+00 0.  1.
         25    2    1    2    0    0 -0.23271064791E+01 -0.67031212239E+02  0.53949965239E+02  0.15184499732E+03  0.12509078952E+03 0.  0.
          5    1    3    3  502    0  0.23654360898E+02 -0.18197471593E+02 -0.35515061048E+02  0.46577556002E+02  0.41800000000E+01 0. -1.
         -5    1    3    3    0  502 -0.25981467377E+02 -0.48833740645E+02  0.89465026286E+02  0.10526744131E+03  0.41800000000E+01 0. -1.
        -11    1    1    2    0    0 -0.15442804903E+01 -0.22400583871E+02  0.19642438226E+02  0.29832806430E+02  0.00000000000E+00 0. -1.
         11    1    1    2    0    0  0.38713869694E+01  0.89431796110E+02  0.38761022821E+02  0.97547171577E+02  0.00000000000E+00 0.  1.
</event>
<event>
 7    1  0.3265282E-009  0.1195073E+03  0.7561462E-02  0.1243912E+00
         -2   -1    0    0    0  501 -0.00000000000E+00  0.00000000000E+00  0.33973727000E+03  0.33973727000E+03  0.00000000000E+00 0. -1.
          2   -1    0    0  501    0  0.00000000000E+00 -0.00000000000E+00 -0.47295811154E+02  0.47295811154E+02  0.00000000000E+00 0.  1.
         25    2    1    2    0    0  0.45900281612E+02 -0.45462004435E+02  0.18190471710E+03  0.23002446570E+03  0.12509316136E+03 0.  0.
          5    1    3    3  502    0  0.82334276890E+02 -0.32959133380E+02  0.74687955816E+02  0.11602155303E+03  0.41800000000E+01 0. -1.
         -5    1    3    3    0  502 -0.36433995278E+02 -0.12502871054E+02  0.10721676128E+03  0.11400291266E+03  0.41800000000E+01 0. -1.
        -11    1    1    2    0    0 -0.46485602876E+00  0.62837976662E+02  0.60809515982E+02  0.87444980623E+02  0.00000000000E+00 0.  1.
         11    1    1    2    0    0 -0.45435425584E+02 -0.17375972228E+02  0.49727225766E+02  0.69563634833E+02  0.00000000000E+00 0. -1.
</event>
<event>
 7    1  0.3265282E-009  0.1464687E+03  0.7561462E-02  0.1204881E+00
          1   -1    0    0  501    0  0.00000000000E+00  0.00000000000E+00  0.40229249307E+03  0.40229249307E+03  0.00000000000E+00 0. -1.
         -1   -1    0    0    0  501 -0.00000000000E+00 -0.00000000000E+00 -0.76497831078E+02  0.76497831078E+02  0.00000000000E+00 0.  1.
         25    2    1    2    0    0 -0.72487512105E+02  0.11294301467E+03  0.13101327909E+03  0.22543891473E+03  0.12509061117E+03 0.  0.
          5    1    3    3  502    0 -0.38107463583E+02  0.59769929960E+01 -0.14613261042E+02  0.41459896578E+02  0.41800000000E+01 0.  1.
         -5    1    3    3    0  502 -0.34380048521E+02  0.10696602167E+03  0.14562654013E+03  0.18397901815E+03  0.41800000000E+01 0.  1.
        -11    1    1    2    0    0  0.35918139184E+02 -0.18443724283E+02  0.12223309517E+03  0.12872922451E+03  0.00000000000E+00 0. -1.
         11    1    1    2    0    0  0.36569372920E+02 -0.94499290386E+02  0.72548287738E+02  0.12462218492E+03  0.00000000000E+00 0.  1.
</event>
<event>
 7    1  0.3265282E-009  0.1033679E+03  0.7561462E-02  0.1273369E+00
         -2   -1    0    0    0  501 -0.00000000000E+00  0.00000000000E+00  0.11776823912E+03  0.11776823912E+03  0.00000000000E+00 0.  1.
          2   -1    0    0  501    0  0.00000000000E+00 -0.00000000000E+00 -0.13706314783E+03  0.13706314783E+03  0.00000000000E+00 0. -1.
         25    2    1    2    0    0 -0.22914128406E+02 -0.99801972787E+01  0.50819831740E+02  0.13731313485E+03  0.12509028774E+03 0.  0.
          5    1    3    3  502    0  0.48130865318E+02  0.71263591619E+00  0.43431678181E+02  0.64968231589E+02  0.41800000000E+01 0.  1.
         -5    1    3    3    0  502 -0.71044993724E+02 -0.10692833195E+02  0.73881535593E+01  0.72344903262E+02  0.41800000000E+01 0.  1.
        -11    1    1    2    0    0  0.21206262681E+02 -0.35278091117E+02 -0.10190341880E+02  0.42403919127E+02  0.00000000000E+00 0.  1.
         11    1    1    2    0    0  0.17078657242E+01  0.45258288395E+02 -0.59924398570E+02  0.75114332971E+02  0.00000000000E+00 0. -1.
</event>
<event>
 7    1  0.3265282E-009  0.1398153E+03  0.7561462E-02  0.1213578E+00
         -2   -1    0    0    0  501 -0.00000000000E+00  0.00000000000E+00  0.43965722226E+03  0.43965722226E+03  0.00000000000E+00 0.  1.
          2   -1    0    0  501    0  0.00000000000E+00 -0.00000000000E+00 -0.14424270396E+03  0.14424270396E+03  0.00000000000E+00 0. -1.
         25    2    1    2    0    0 -0.87525597581E+02  0.73743800059E+02 -0.75120369293E+02  0.18544139375E+03  0.12508621969E+03 0.  0.
          5    1    3    3  502    0 -0.14242958205E+02 -0.14578793168E+02  0.25391173476E+02  0.32826622719E+02  0.41800000000E+01 0.  1.
         -5    1    3    3    0  502 -0.73282639376E+02  0.88322593227E+02 -0.10051154277E+03  0.15261477104E+03  0.41800000000E+01 0.  1.
        -11    1    1    2    0    0 -0.11336750653E+02 -0.36695364472E+02  0.13473976834E+03  0.14010666245E+03  0.00000000000E+00 0.  1.
         11    1    1    2    0    0  0.98862348234E+02 -0.37048435587E+02  0.23579511925E+03  0.25835187002E+03  0.00000000000E+00 0. -1.
</event>
<event>
 7    1  0.3265282E-009  0.1383186E+03  0.7561462E-02  0.1215610E+00
         -2   -1    0    0    0  501 -0.00000000000E+00  0.00000000000E+00  0.51003910680E+02  0.51003910680E+02  0.00000000000E+00 0. -1.
          2   -1    0    0  501    0  0.00000000000E+00 -0.00000000000E+00 -0.59737988523E+03  0.59737988523E+03  0.00000000000E+00 0.  1.
         25    2    1    2    0    0 -0.10950766714E+03  0.30887955919E+02 -0.14723577989E+03  0.22422797177E+03  0.12511520076E+03 0.  0.
          5    1    3    3  502    0  0.24069577010E+02  0.12739953223E+02 -0.46143719933E+01  0.27935922652E+02  0.41800000000E+01 0. -1.
         -5    1    3    3    0  502 -0.13357724415E+03  0.18148002696E+02 -0.14262140789E+03  0.19629204911E+03  0.41800000000E+01 0. -1.
        -11    1    1    2    0    0  0.86146296745E+02 -0.28473445688E+02 -0.38743102425E+03  0.39791295543E+03  0.00000000000E+00 0.  1.
         11    1    1    2    0    0  0.23361370395E+02 -0.24145102307E+01 -0.11709170420E+02  0.26242868713E+02  0.00000000000E+00 0. -1.
</event>
<event>
 7    1  0.3265282E-009  0.1141643E+03  0.7561462E-02  0.1253047E+00
         -1   -1    0    0    0  501 -0.00000000000E+00  0.00000000000E+00  0.37891661381E+02  0.37891661381E+02  0.00000000000E+00 0.  1.
          1   -1    0    0  501    0  0.00000000000E+00 -0.00000000000E+00 -0.38079396469E+03  0.38079396469E+03  0.00000000000E+00 0. -1.
         25    2    1    2    0    0  0.75190623539E+01  0.50292636048E+02 -0.17838973178E+03  0.22373384711E+03  0.12509217561E+03 0.  0.
          5    1    3    3  502    0  0.48605696439E+02  0.70778200629E+02 -0.92651717040E+02  0.12638781777E+03  0.41800000000E+01 0. -1.
         -5    1    3    3    0  502 -0.41086634085E+02 -0.20485564581E+02 -0.85738014738E+02  0.97346029337E+02  0.41800000000E+01 0. -1.
        -11    1    1    2    0    0 -0.43847095874E+02 -0.37672524095E+02 -0.58783556487E+02  0.82445699715E+02  0.00000000000E+00 0. -1.
         11    1    1    2    0    0  0.36328033520E+02 -0.12620111953E+02 -0.10572901505E+03  0.11250607925E+03  0.00000000000E+00 0.  1.
</event>
<event>
 7    1  0.3265282E-009  0.1120962E+03  0.7561462E-02  0.1256737E+00
         -1   -1    0    0    0  501 -0.00000000000E+00  0.00000000000E+00  0.34996251434E+02  0.34996251434E+02  0.00000000000E+00 0.  1.
          1   -1    0    0  501    0  0.00000000000E+00 -0.00000000000E+00 -0.44857498545E+03  0.44857498545E+03  0.00000000000E+00 0. -1.
         25    2    1    2    0    0  0.63208110199E+02  0.78613174911E+01 -0.20323572819E+03  0.24699909292E+03  0.12508687054E+03 0.  0.
          5    1    3    3  502    0  0.97524031690E+02 -0.15088826878E+02 -0.13873104949E+03  0.17030086890E+03  0.41800000000E+01 0. -1.
         -5    1    3    3    0  502 -0.34315921490E+02  0.22950144369E+02 -0.64504678694E+02  0.76698224019E+02  0.41800000000E+01 0. -1.
        -11    1    1    2    0    0 -0.62755991140E+02  0.12139620231E+02 -0.20654413616E+03  0.21620861450E+03  0.00000000000E+00 0. -1.
         11    1    1    2    0    0 -0.45211905983E+00 -0.20000937722E+02 -0.37988696653E+01  0.20363529462E+02  0.00000000000E+00 0.  1.
</event>
<event>
 7    1  0.3265282E-009  0.8790599E+02  0.7561462E-02  0.1308003E+00
         -1   -1    0    0    0  501 -0.00000000000E+00  0.00000000000E+00  0.18063055396E+03  0.18063055396E+03  0.00000000000E+00 0.  1.
          1   -1    0    0  501    0  0.00000000000E+00 -0.00000000000E+00 -0.76970915183E+02  0.76970915183E+02  0.00000000000E+00 0. -1.
         25    2    1    2    0    0  0.22676551504E+02 -0.19449310419E+02  0.96368385654E+02  0.16070706643E+03  0.12508954306E+03 0.  0.
          5    1    3    3  502    0  0.37464684576E+02  0.34957933273E+02  0.29284388685E+01  0.51494736074E+02  0.41800000000E+01 0.  1.
         -5    1    3    3    0  502 -0.14788133072E+02 -0.54407243692E+02  0.93439946786E+02  0.10921233035E+03  0.41800000000E+01 0.  1.
        -11    1    1    2    0    0  0.19491877795E+02  0.16595646094E+02  0.37171502547E+02  0.45133904893E+02  0.00000000000E+00 0.  1.
         11    1    1    2    0    0 -0.42168429299E+02  0.28536643250E+01 -0.29880249422E+02  0.51760497826E+02  0.00000000000E+00 0. -1.
</event>
<event>
 7    1  0.3265282E-009  0.9373294E+02  0.7561462E-02  0.1294056E+00
         -1   -1    0    0    0  501 -0.00000000000E+00  0.00000000000E+00  0.25903089481E+03  0.25903089481E+03  0.00000000000E+00 0.  1.
          1   -1    0    0  501    0  0.00000000000E+00 -0.00000000000E+00 -0.65979436104E+02  0.65979436104E+02  0.00000000000E+00 0. -1.
         25    2    1    2    0    0 -0.67705950652E+02 -0.84424527748E+01  0.74342834511E+02  0.16071582387E+03  0.12508936100E+03 0.  0.
          5    1    3    3  502    0 -0.30849456155E+02  0.43806684819E+02  0.80015754131E+02  0.96388318218E+02  0.41800000000E+01 0. -1.
         -5    1    3    3    0  502 -0.36856494498E+02 -0.52249137593E+02 -0.56729196198E+01  0.64327505648E+02  0.41800000000E+01 0. -1.
        -11    1    1    2    0    0  0.51425329892E+02  0.26001153183E+00  0.13205056815E+03  0.14171091951E+03  0.00000000000E+00 0.  1.
         11    1    1    2    0    0  0.16280620760E+02  0.81824412430E+01 -0.13341943961E+02  0.22583587529E+02  0.00000000000E+00 0. -1.
</event>
<event>
 7    1  0.3265282E-009  0.1007778E+03  0.7561462E-02  0.1278669E+00
         -4   -1    0    0    0  501 -0.00000000000E+00  0.00000000000E+00  0.15304564216E+03  0.15304564216E+03  0.00000000000E+00 0.  1.
          4   -1    0    0  501    0  0.00000000000E+00 -0.00000000000E+00 -0.84957108002E+02  0.84957108002E+02  0.00000000000E+00 0. -1.
         25    2    1    2    0    0  0.12161453821E+02 -0.32614210332E+02  0.42860973150E+02  0.13673529484E+03  0.12509152713E+03 0.  0.
          5    1    3    3  502    0 -0.16118704754E+01  0.36378134664E+02  0.54120127732E+02  0.65363808287E+02  0.41800000000E+01 0. -1.
         -5    1    3    3    0  502  0.13773324296E+02 -0.68992344996E+02 -0.11259154582E+02  0.71371486548E+02  0.41800000000E+01 0. -1.
        -11    1    1    2    0    0 -0.48683608582E+02  0.56145720417E+01  0.26733699027E+02  0.55823900145E+02  0.00000000000E+00 0. -1.
         11    1    1    2    0    0  0.36522154762E+02  0.26999638290E+02 -0.15061380150E+01  0.45443555186E+02  0.00000000000E+00 0.  1.
</event>
<event>
 7    1  0.3265282E-009  0.9770961E+02  0.7561462E-02  0.1285187E+00
         -1   -1    0    0    0  501 -0.00000000000E+00  0.00000000000E+00  0.20369366080E+03  0.20369366080E+03  0.00000000000E+00 0.  1.
          1   -1    0    0  501    0  0.00000000000E+00 -0.00000000000E+00 -0.68023880590E+02  0.68023880590E+02  0.00000000000E+00 0. -1.
         25    2    1    2    0    0  0.44455248510E+02  0.63157061256E+01  0.78208419702E+02  0.15420230916E+03  0.12508252465E+03 0.  0.
          5    1    3    3  502    0  0.23848386718E+02 -0.57184907774E+02  0.56281364305E+02  0.83808851527E+02  0.41800000000E+01 0. -1.
         -5    1    3    3    0  502  0.20606861792E+02  0.63500613900E+02  0.21927055396E+02  0.70393457628E+02  0.41800000000E+01 0. -1.
        -11    1    1    2    0    0 -0.54520092949E+02 -0.10511520381E+02  0.77123725068E+02  0.95031581930E+02  0.00000000000E+00 0.  1.
         11    1    1    2    0    0  0.10064844439E+02  0.41958142555E+01 -0.19662364560E+02  0.22483650303E+02  0.00000000000E+00 0. -1.
</event>
<event>
 7    1  0.3265282E-009  0.1189486E+03  0.7561462E-02  0.1244842E+00
         -2   -1    0    0    0  501 -0.00000000000E+00  0.00000000000E+00  0.13230287881E+02  0.13230287881E+02  0.00000000000E+00 0. -1.
          2   -1    0    0  501    0  0.00000000000E+00 -0.00000000000E+00 -0.14796027487E+04  0.14796027487E+04  0.00000000000E+00 0.  1.
         25    2    1    2    0    0  0.32355704749E+02  0.81025431010E+02 -0.96887954249E+03  0.98080880108E+03  0.12508526825E+03 0.  0.
          5    1    3    3  502    0  0.45199533321E+02  0.76139119070E+01 -0.11795822852E+03  0.12661984656E+03  0.41800000000E+01 0. -1.
         -5    1    3    3    0  502 -0.12843828572E+02  0.73411519103E+02 -0.85092131396E+03  0.85418895452E+03  0.41800000000E+01 0. -1.
        -11    1    1    2    0    0  0.22841212344E+02 -0.51775751100E+01 -0.56449184142E+02  0.61114962617E+02  0.00000000000E+00 0.  1.
         11    1    1    2    0    0 -0.55196917092E+02 -0.75847855900E+02 -0.44104373415E+03  0.45090927284E+03  0.00000000000E+00 0. -1.
</event>
<event>
 7    1  0.3265282E-009  0.1263770E+03  0.7561462E-02  0.1232933E+00
         -1   -1    0    0    0  501 -0.00000000000E+00  0.00000000000E+00  0.22661105614E+02  0.22661105614E+02  0.00000000000E+00 0.  1.
          1   -1    0    0  501    0  0.00000000000E+00 -0.00000000000E+00 -0.15228612904E+04  0.15228612904E+04  0.00000000000E+00 0. -1.
         25    2    1    2    0    0  0.40462241331E+02  0.10359980363E+03 -0.12102955562E+04  0.12218156808E+04  0.12509241497E+03 0.  0.
          5    1    3    3  502    0  0.44101129038E+02  0.38873419241E+02 -0.17852188997E+03  0.18799890931E+03  0.41800000000E+01 0.  1.
         -5    1    3    3    0  502 -0.36388877070E+01  0.64726384384E+02 -0.10317736662E+04  0.10338167715E+04  0.41800000000E+01 0.  1.
        -11    1    1    2    0    0 -0.28968623622E+02 -0.47705063030E+01 -0.18653002912E+02  0.34783234504E+02  0.00000000000E+00 0.  1.
         11    1    1    2    0    0 -0.11493617709E+02 -0.98829297322E+02 -0.27125162572E+03  0.28892348072E+03  0.00000000000E+00 0. -1.
</event>
<event>
 7    1  0.3265282E-009  0.9988507E+02  0.7561462E-02  0.1280538E+00
         -2   -1    0    0    0  501 -0.00000000000E+00  0.00000000000E+00  0.14334349811E+03  0.14334349811E+03  0.00000000000E+00 0.  1.
          2   -1    0    0  501    0  0.00000000000E+00 -0.00000000000E+00 -0.10667300528E+03  0.10667300528E+03  0.00000000000E+00 0. -1.
         25    2    1    2    0    0 -0.46568481885E+02 -0.31414027888E+02  0.51938855333E+02  0.14662710671E+03  0.12508556701E+03 0.  0.
          5    1    3    3  502    0 -0.52759343403E+01  0.35557735200E+02  0.57173120410E+02  0.67664068110E+02  0.41800000000E+01 0. -1.
         -5    1    3    3    0  502 -0.41292547544E+02 -0.66971763088E+02 -0.52342650777E+01  0.78963038598E+02  0.41800000000E+01 0. -1.
        -11    1    1    2    0    0  0.40978023317E+02  0.50424799006E+02  0.15493644823E+02  0.66797543216E+02  0.00000000000E+00 0.  1.
         11    1    1    2    0    0  0.55904585675E+01 -0.19010771118E+02 -0.30762007324E+02  0.36591853466E+02  0.00000000000E+00 0. -1.
</event>
<event>
 7    1  0.3265282E-009  0.1866857E+03  0.7561462E-02  0.1161485E+00
          2   -1    0    0  501    0  0.00000000000E+00  0.00000000000E+00  0.19839980358E+04  0.19839980358E+04  0.00000000000E+00 0. -1.
         -2   -1    0    0    0  501 -0.00000000000E+00 -0.00000000000E+00 -0.21186719631E+02  0.21186719631E+02  0.00000000000E+00 0.  1.
         25    2    1    2    0    0  0.10703911356E+03 -0.13560005103E+03  0.11179937844E+04  0.11381567619E+04  0.12508383971E+03 0.  0.
          5    1    3    3  502    0  0.61125612081E+02 -0.24743812581E+02  0.70431398333E+03  0.70740671203E+03  0.41800000000E+01 0.  1.
         -5    1    3    3    0  502  0.45913501482E+02 -0.11085623845E+03  0.41367980109E+03  0.43075004986E+03  0.41800000000E+01 0.  1.
        -11    1    1    2    0    0 -0.77296200903E+02  0.39835745442E+02  0.51546468709E+03  0.52274796311E+03  0.00000000000E+00 0. -1.
         11    1    1    2    0    0 -0.29742912661E+02  0.95764305584E+02  0.32935284468E+03  0.34428003047E+03  0.00000000000E+00 0.  1.
</event>
<event>
 7    1  0.3265282E-009  0.1108373E+03  0.7561462E-02  0.1259027E+00
          1   -1    0    0  501    0  0.00000000000E+00  0.00000000000E+00  0.14918535996E+03  0.14918535996E+03  0.00000000000E+00 0. -1.
         -1   -1    0    0    0  501 -0.00000000000E+00 -0.00000000000E+00 -0.13703083064E+03  0.13703083064E+03  0.00000000000E+00 0.  1.
         25    2    1    2    0    0  0.68054565991E+02 -0.33795108296E+02  0.56706846609E+02  0.15696003250E+03  0.12508897655E+03 0.  0.
          5    1    3    3  502    0  0.21386477595E+02  0.47256079611E+02  0.27688105625E+02  0.58945925026E+02  0.41800000000E+01 0. -1.
         -5    1    3    3    0  502  0.46668088396E+02 -0.81051187907E+02  0.29018740984E+02  0.98014107474E+02  0.41800000000E+01 0. -1.
        -11    1    1    2    0    0 -0.44363504243E+02  0.20840179545E+02 -0.74344727807E+02  0.89048145095E+02  0.00000000000E+00 0.  1.
         11    1    1    2    0    0 -0.23691061748E+02  0.12954928751E+02  0.29792410516E+02  0.40208013008E+02  0.00000000000E+00 0. -1.
</event>
<event>
 7    1  0.3265282E-009  0.1533271E+03  0.7561462E-02  0.1196443E+00
          2   -1    0    0  501    0  0.00000000000E+00  0.00000000000E+00  0.27786638801E+03  0.27786638801E+03  0.00000000000E+00 0. -1.
         -2   -1    0    0    0  501 -0.00000000000E+00 -0.00000000000E+00 -0.16442857104E+03  0.16442857104E+03  0.00000000000E+00 0.  1.
         25    2    1    2    0    0 -0.81086521793E+02 -0.11370501883E+03  0.18258814855E+03  0.26170566577E+03  0.12509024015E+03 0.  0.
          5    1    3    3  502    0 -0.25384741769E+02 -0.36469649707E+02 -0.10962623118E+02  0.45957284189E+02  0.41800000000E+01 0.  1.
         -5    1    3    3    0  502 -0.55701780024E+02 -0.77235369127E+02  0.19355077167E+03  0.21574838158E+03  0.41800000000E+01 0.  1.
        -11    1    1    2    0    0  0.89400905546E+02  0.49945358333E+02 -0.45795379680E+02  0.11217966630E+03  0.00000000000E+00 0.  1.
         11    1    1    2    0    0 -0.83143837537E+01  0.63759660502E+02 -0.23354951899E+02  0.68409626974E+02  0.00000000000E+00 0. -1.
</event>
<event>
 7    1  0.3265282E-009  0.1052515E+03  0.7561462E-02  0.1269625E+00
          2   -1    0    0  501    0  0.00000000000E+00  0.00000000000E+00  0.20055286869E+03  0.20055286869E+03  0.00000000000E+00 0. -1.
         -2   -1    0    0    0  501 -0.00000000000E+00 -0.00000000000E+00 -0.97907480456E+02  0.97907480456E+02  0.00000000000E+00 0.  1.
         25    2    1    2    0    0 -0.65034377629E+02 -0.51701791966E+02  0.28408834403E+02  0.15283023784E+03  0.12508986434E+03 0.  0.
          5    1    3    3  502    0 -0.42974837911E+02 -0.22990326786E+02  0.77524996499E+02  0.91667820425E+02  0.41800000000E+01 0.  1.
         -5    1    3    3    0  502 -0.22059539718E+02 -0.28711465180E+02 -0.49116162096E+02  0.61162417418E+02  0.41800000000E+01 0.  1.
        -11    1    1    2    0    0  0.24990444928E+02  0.74831686311E+02  0.50214799888E+02  0.93519141044E+02  0.00000000000E+00 0. -1.
         11    1    1    2    0    0  0.40043932701E+02 -0.23129894346E+02  0.24021753941E+02  0.52110970256E+02  0.00000000000E+00 0.  1.
</event>
<event>
 7    1  0.3265282E-009  0.8672989E+02  0.7561462E-02  0.1310970E+00
          1   -1    0    0  501    0  0.00000000000E+00  0.00000000000E+00  0.97387845569E+02  0.97387845569E+02  0.00000000000E+00 0. -1.
         -1   -1    0    0    0  501 -0.00000000000E+00 -0.00000000000E+00 -0.18682343904E+03  0.18682343904E+03  0.00000000000E+00 0.  1.
         25    2    1    2    0    0  0.37216789425E+02  0.59775342393E+02 -0.94872963055E+02  0.17206376452E+03  0.12508748527E+03 0.  0.
          5    1    3    3  502    0  0.18288546019E+02  0.62550163442E+01 -0.11112160200E+03  0.11286752844E+03  0.41800000000E+01 0. -1.
         -5    1    3    3    0  502  0.18928243407E+02  0.53520326049E+02  0.16248638947E+02  0.59196236084E+02  0.41800000000E+01 0. -1.
        -11    1    1    2    0    0 -0.11191137236E+02  0.14351400835E+02  0.25249981600E+02  0.31125003283E+02  0.00000000000E+00 0. -1.
         11    1    1    2    0    0 -0.26025652189E+02 -0.74126743228E+02 -0.19812612011E+02  0.81022516797E+02  0.00000000000E+00 0.  1.
</event>
<event>
 7    1  0.3265282E-009  0.1219564E+03  0.7561462E-02  0.1239904E+00
         -1   -1    0    0    0  501 -0.00000000000E+00  0.00000000000E+00  0.24351137930E+02  0.24351137930E+02  0.00000000000E+00 0.  1.
          1   -1    0    0  501    0  0.00000000000E+00 -0.00000000000E+00 -0.97322121445E+03  0.97322121445E+03  0.00000000000E+00 0. -1.
         25    2    1    2    0    0  0.28945422458E+02  0.80656242259E+02 -0.29466624857E+03  0.33138917211E+03  0.12508924195E+03 0.  0.
          5    1    3    3  502    0  0.57376163512E+02  0.57106016846E+02 -0.81275216043E+02  0.11478786714E+03  0.41800000000E+01 0.  1.
         -5    1    3    3    0  502 -0.28430741054E+02  0.23550225413E+02 -0.21339103252E+03  0.21660130497E+03  0.41800000000E+01 0.  1.
        -11    1    1    2    0    0  0.89403354266E+01 -0.86851987008E+02 -0.44424162679E+03  0.45274034525E+03  0.00000000000E+00 0.  1.
         11    1    1    2    0    0 -0.37885757885E+02  0.61957447486E+01 -0.20996220116E+03  0.21344283501E+03  0.00000000000E+00 0. -1.
</event>
<event>
 7    1  0.3265282E-009  0.1099510E+03  0.7561462E-02  0.1260661E+00
          2   -1    0    0  501    0  0.00000000000E+00  0.00000000000E+00  0.99054572319E+02  0.99054572319E+02  0.00000000000E+00 0. -1.
         -2   -1    0    0    0  501 -0.00000000000E+00 -0.00000000000E+00 -0.13265367130E+03  0.13265367130E+03  0.00000000000E+00 0.  1.
         25    2    1    2    0    0  0.17731028257E+01 -0.22891251969E+02 -0.49480498569E+02  0.13646430063E+03  0.12508809815E+03 0.  0.
          5    1    3    3  502    0  0.19345913130E+02  0.49095402099E+02 -0.21925430215E+02  0.57295896470E+02  0.41800000000E+01 0. -1.
         -5    1    3    3    0  502 -0.17572810304E+02 -0.71986654068E+02 -0.27555068353E+02  0.79168404164E+02  0.41800000000E+01 0. -1.
        -11    1    1    2    0    0  0.16388246283E+02  0.54161850243E+02  0.23578710911E+01  0.56636032648E+02  0.00000000000E+00 0.  1.
         11    1    1    2    0    0 -0.18161349109E+02 -0.31270598275E+02  0.13523528494E+02  0.38607910340E+02  0.00000000000E+00 0. -1.
</event>
<event>
 7    1  0.3265282E-009  0.9842814E+02  0.7561462E-02  0.1283637E+00
          1   -1    0    0  501    0  0.00000000000E+00  0.00000000000E+00  0.72339672972E+03  0.72339672972E+03  0.00000000000E+00 0. -1.
         -1   -1    0    0    0  501 -0.00000000000E+00 -0.00000000000E+00 -0.18513252525E+02  0.18513252525E+02  0.00000000000E+00 0.  1.
         25    2    1    2    0    0 -0.90464596231E+01  0.26511931343E+02  0.47719992409E+03  0.49411702167E+03  0.12508853913E+03 0.  0.
          5    1    3    3  502    0 -0.65386003973E+02  0.15401162004E+02  0.31181968240E+03  0.31900080257E+03  0.41800000000E+01 0.  1.
         -5    1    3    3    0  502  0.56339544350E+02  0.11110769339E+02  0.16538024169E+03  0.17511621910E+03  0.41800000000E+01 0.  1.
        -11    1    1    2    0    0  0.86804404844E+01  0.21901816297E+02  0.11429130840E+02  0.26185198794E+02  0.00000000000E+00 0.  1.
         11    1    1    2    0    0  0.36601913876E+00 -0.48413747641E+02  0.21625442227E+03  0.22160776178E+03  0.00000000000E+00 0. -1.
</event>
<event>
 7    1  0.3265282E-009  0.1730690E+03  0.7561462E-02  0.1174685E+00
         -1   -1    0    0    0  501 -0.00000000000E+00  0.00000000000E+00  0.13256767522E+02  0.13256767522E+02  0.00000000000E+00 0.  1.
          1   -1    0    0  501    0  0.00000000000E+00 -0.00000000000E+00 -0.25178630132E+04  0.25178630132E+04  0.00000000000E+00 0. -1.
         25    2    1    2    0    0  0.15226822791E+02  0.14214957148E+03 -0.16622349458E+04  0.16730543299E+04  0.12508964269E+03 0.  0.
          5    1    3    3  502    0 -0.21697152845E+02 -0.11351813650E+02 -0.43345325665E+03  0.43416451746E+03  0.41800000000E+01 0. -1.
         -5    1    3    3    0  502  0.36923975636E+02  0.15350138513E+03 -0.12287816892E+04  0.12388898124E+04  0.41800000000E+01 0. -1.
        -11    1    1    2    0    0  0.95685774821E+01 -0.13786714570E+03 -0.71260259018E+03  0.72587971391E+03  0.00000000000E+00 0.  1.
         11    1    1    2    0    0 -0.24795400273E+02 -0.42824257770E+01 -0.12976870967E+03  0.13218573696E+03  0.00000000000E+00 0. -1.
</event>
<event>
 7    1  0.5306559E-009  0.9370879E+02  0.7561462E-02  0.1294111E+00
          3   -1    0    0  501    0  0.00000000000E+00  0.00000000000E+00  0.37790212876E+03  0.37790212876E+03  0.00000000000E+00 0. -1.
         -3   -1    0    0    0  501 -0.00000000000E+00 -0.00000000000E+00 -0.42349933641E+02  0.42349933641E+02  0.00000000000E+00 0.  1.
         25    2    1    2    0    0 -0.26298092541E+02  0.35137923534E+02  0.10769772670E+03  0.17080057215E+03  0.12509105391E+03 0.  0.
          5    1    3    3  502    0 -0.55658899058E+02 -0.22604035274E+02  0.23868065001E+02  0.64776634537E+02  0.41800000000E+01 0.  1.
         -5    1    3    3    0  502  0.29360806518E+02  0.57741958808E+02  0.83829661703E+02  0.10602393762E+03  0.41800000000E+01 0.  1.
        -11    1    1    2    0    0 -0.11352336161E+02 -0.17130602419E+02  0.30142582281E+01  0.20770624165E+02  0.00000000000E+00 0.  1.
         11    1    1    2    0    0  0.37650428701E+02 -0.18007321115E+02  0.22484021019E+03  0.22868086608E+03  0.00000000000E+00 0. -1.
</event>
<event>
 7    1  0.3265282E-009  0.1276278E+03  0.7561462E-02  0.1231019E+00
          2   -1    0    0  501    0  0.00000000000E+00  0.00000000000E+00  0.28419241507E+03  0.28419241507E+03  0.00000000000E+00 0. -1.
         -2   -1    0    0    0  501 -0.00000000000E+00 -0.00000000000E+00 -0.98974323054E+02  0.98974323054E+02  0.00000000000E+00 0.  1.
         25    2    1    2    0    0  0.82606706280E+02  0.72772442050E+02  0.17047028912E+03  0.23838505648E+03  0.12509044502E+03 0.  0.
          5    1    3    3  502    0  0.42348473670E+01  0.11829403181E+02 -0.19748184956E+02  0.23776709631E+02  0.41800000000E+01 0. -1.
         -5    1    3    3    0  502  0.78371858913E+02  0.60943038869E+02  0.19021847408E+03  0.21460834685E+03  0.41800000000E+01 0. -1.
        -11    1    1    2    0    0  0.16103585589E+02  0.51287295500E+01  0.84039488621E+01  0.18874736875E+02  0.00000000000E+00 0.  1.
         11    1    1    2    0    0 -0.98710291869E+02 -0.77901171600E+02  0.63438540303E+01  0.12590694477E+03  0.00000000000E+00 0. -1.
</event>
<event>
 7    1  0.3726692E-009  0.1042313E+03  0.7561462E-02  0.1271642E+00
          2   -1    0    0  501    0  0.00000000000E+00  0.00000000000E+00  0.21922348885E+03  0.21922348885E+03  0.00000000000E+00 0.  1.
         -2   -1    0    0    0  501 -0.00000000000E+00 -0.00000000000E+00 -0.68672086082E+02  0.68672086082E+02  0.00000000000E+00 0. -1.
         25    2    1    2    0    0  0.46327452865E+02 -0.33426128118E+02  0.91537122919E+02  0.16519725252E+03  0.12509016124E+03 0.  0.
          5    1    3    3  502    0  0.50948968868E+02  0.38519280837E+02  0.54351437424E+02  0.83970730466E+02  0.41800000000E+01 0. -1.
         -5    1    3    3    0  502 -0.46215160038E+01 -0.71945408954E+02  0.37185685495E+02  0.81226522057E+02  0.41800000000E+01 0. -1.
        -11    1    1    2    0    0 -0.55123964410E+02  0.27248265485E+02  0.78936957016E+02  0.10006079456E+03  0.00000000000E+00 0.  1.
         11    1    1    2    0    0  0.87965115455E+01  0.61778626331E+01 -0.19922677164E+02  0.22637527857E+02  0.00000000000E+00 0. -1.
</event>
<event>
 7    1  0.3265282E-009  0.1109049E+03  0.7561462E-02  0.1258903E+00
          1   -1    0    0  501    0  0.00000000000E+00  0.00000000000E+00  0.81174455389E+02  0.81174455389E+02  0.00000000000E+00 0. -1.
         -1   -1    0    0    0  501 -0.00000000000E+00 -0.00000000000E+00 -0.30773701232E+03  0.30773701232E+03  0.00000000000E+00 0.  1.
         25    2    1    2    0    0 -0.39884300868E+02 -0.65320319694E+02 -0.22076858813E+03  0.26503485012E+03  0.12508877109E+03 0.  0.
          5    1    3    3  502    0  0.18541228518E+02 -0.48198142374E+02 -0.20574699516E+02  0.55746109671E+02  0.41800000000E+01 0. -1.
         -5    1    3    3    0  502 -0.58425529386E+02 -0.17122177321E+02 -0.20019388861E+03  0.20928874044E+03  0.41800000000E+01 0. -1.
        -11    1    1    2    0    0  0.25187253162E+02  0.82561572922E+02  0.20952541012E+02  0.88824658852E+02  0.00000000000E+00 0.  1.
         11    1    1    2    0    0  0.14697047706E+02 -0.17241253228E+02 -0.26746509812E+02  0.35051958737E+02  0.00000000000E+00 0. -1.
</event>
<event>
 7    1  0.3265282E-009  0.6519512E+02  0.7561462E-02  0.1377239E+00
         -1   -1    0    0    0  501 -0.00000000000E+00  0.00000000000E+00  0.17858633551E+03  0.17858633551E+03  0.00000000000E+00 0.  1.
          1   -1    0    0  501    0  0.00000000000E+00 -0.00000000000E+00 -0.15104930307E+03  0.15104930307E+03  0.00000000000E+00 0. -1.
         25    2    1    2    0    0 -0.12448340342E+02  0.10589495491E+02 -0.97316498620E+02  0.15932388105E+03  0.12508596875E+03 0.  0.
          5    1    3    3  502    0 -0.43403409958E+01  0.31164776661E+02 -0.12191685214E+03  0.12598124106E+03  0.41800000000E+01 0. -1.
         -5    1    3    3    0  502 -0.81079993458E+01 -0.20575281170E+02  0.24600353515E+02  0.33342639993E+02  0.41800000000E+01 0. -1.
        -11    1    1    2    0    0  0.50471307709E+01 -0.42797479931E+02  0.12991782136E+03  0.13687855246E+03  0.00000000000E+00 0.  1.
         11    1    1    2    0    0  0.74012095707E+01  0.32207984440E+02 -0.50642902998E+01  0.33433205067E+02  0.00000000000E+00 0. -1.
</event>
<event>
 7    1  0.3265282E-009  0.1222423E+03  0.7561462E-02  0.1239443E+00
          1   -1    0    0  501    0  0.00000000000E+00  0.00000000000E+00  0.76490747622E+03  0.76490747622E+03  0.00000000000E+00 0. -1.
         -1   -1    0    0    0  501 -0.00000000000E+00 -0.00000000000E+00 -0.20627609682E+02  0.20627609682E+02  0.00000000000E+00 0.  1.
         25    2    1    2    0    0  0.53710936087E+02 -0.37573814532E+02  0.48168637456E+03  0.50196186656E+03  0.12508915160E+03 0.  0.
          5    1    3    3  502    0 -0.27619119145E+02 -0.51372188987E+02  0.21112025431E+03  0.21906882873E+03  0.41800000000E+01 0.  1.
         -5    1    3    3    0  502  0.81330055232E+02  0.13798374455E+02  0.27056612026E+03  0.28289303783E+03  0.41800000000E+01 0.  1.
        -11    1    1    2    0    0  0.18486607876E+02 -0.55664203282E+01  0.25361973322E+02  0.31874274843E+02  0.00000000000E+00 0.  1.
         11    1    1    2    0    0 -0.72197543962E+02  0.43140234860E+02  0.23723151865E+03  0.25169894449E+03  0.00000000000E+00 0. -1.
</event>
<event>
 7    1  0.3265282E-009  0.2038346E+03  0.7561462E-02  0.1146543E+00
         -1   -1    0    0    0  501 -0.00000000000E+00  0.00000000000E+00  0.61312857063E+03  0.61312857063E+03  0.00000000000E+00 0.  1.
          1   -1    0    0  501    0  0.00000000000E+00 -0.00000000000E+00 -0.74245422495E+02  0.74245422495E+02  0.00000000000E+00 0. -1.
         25    2    1    2    0    0 -0.17720029923E+03  0.46624984872E+02  0.29565516358E+03  0.36964090774E+03  0.12509432307E+03 0.  0.
          5    1    3    3  502    0 -0.46258148803E+02  0.59935154919E+02  0.49727970022E+02  0.90677353999E+02  0.41800000000E+01 0.  1.
         -5    1    3    3    0  502 -0.13094215043E+03 -0.13310170047E+02  0.24592719356E+03  0.27896355374E+03  0.41800000000E+01 0.  1.
        -11    1    1    2    0    0  0.45215738468E+01 -0.25843049344E+02  0.57946413091E+02  0.63608919340E+02  0.00000000000E+00 0.  1.
         11    1    1    2    0    0  0.17267872538E+03 -0.20781935528E+02  0.18528157146E+03  0.25412416604E+03  0.00000000000E+00 0. -1.
</event>
<event>
 7    1  0.3265282E-009  0.1032826E+03  0.7561462E-02  0.1273541E+00
          2   -1    0    0  501    0  0.00000000000E+00  0.00000000000E+00  0.34960949747E+03  0.34960949747E+03  0.00000000000E+00 0. -1.
         -2   -1    0    0    0  501 -0.00000000000E+00 -0.00000000000E+00 -0.75010670323E+02  0.75010670323E+02  0.00000000000E+00 0.  1.
         25    2    1    2    0    0  0.22222420577E+02  0.42656968828E+02  0.27175130596E+03  0.30300128625E+03  0.12509018431E+03 0.  0.
          5    1    3    3  502    0 -0.31353220030E+02  0.16147139969E+02  0.22283964377E+03  0.22565179762E+03  0.41800000000E+01 0. -1.
         -5    1    3    3    0  502  0.53575640607E+02  0.26509828858E+02  0.48911662198E+02  0.77349488631E+02  0.41800000000E+01 0. -1.
        -11    1    1    2    0    0 -0.50066213848E+00 -0.73447081428E+02  0.25385389274E+02  0.77711919430E+02  0.00000000000E+00 0. -1.
         11    1    1    2    0    0 -0.21721758438E+02  0.30790112601E+02 -0.22537868092E+02  0.43906962110E+02  0.00000000000E+00 0.  1.
</event>
<event>
 7    1  0.3265282E-009  0.1408051E+03  0.7561462E-02  0.1212250E+00
         -2   -1    0    0    0  501 -0.00000000000E+00  0.00000000000E+00  0.41403756504E+02  0.41403756504E+02  0.00000000000E+00 0.  1.
          2   -1    0    0  501    0  0.00000000000E+00 -0.00000000000E+00 -0.69989052430E+03  0.69989052430E+03  0.00000000000E+00 0. -1.
         25    2    1    2    0    0  0.11490200010E+03  0.45864686885E+02 -0.25570307881E+03  0.31038299747E+03  0.12508997352E+03 0.  0.
          5    1    3    3  502    0  0.10548022453E+03  0.23914944706E+02 -0.26353778976E+03  0.28489935307E+03  0.41800000000E+01 0.  1.
         -5    1    3    3    0  502  0.94217755674E+01  0.21949742179E+02  0.78347109442E+01  0.25483644404E+02  0.41800000000E+01 0.  1.
        -11    1    1    2    0    0 -0.55117027449E+02 -0.66046280993E+02 -0.18231469838E+03  0.20159029538E+03  0.00000000000E+00 0.  1.
         11    1    1    2    0    0 -0.59784972653E+02  0.20181594108E+02 -0.22046899061E+03  0.22932098796E+03  0.00000000000E+00 0. -1.
</event>
<event>
 7    1  0.3265282E-009  0.1058791E+03  0.7561462E-02  0.1268397E+00
         -2   -1    0    0    0  501 -0.00000000000E+00  0.00000000000E+00  0.42714380206E+02  0.42714380206E+02  0.00000000000E+00 0.  1.
          2   -1    0    0  501    0  0.00000000000E+00 -0.00000000000E+00 -0.52997110389E+03  0.52997110389E+03  0.00000000000E+00 0. -1.
         25    2    1    2    0    0 -0.10347852223E+03  0.16010355533E+02 -0.28508201185E+03  0.32845766372E+03  0.12509415385E+03 0.  0.
          5    1    3    3  502    0 -0.35100959904E+02  0.15330469068E+02 -0.35310678999E+01  0.38691620651E+02  0.41800000000E+01 0.  1.
         -5    1    3    3    0  502 -0.68377562330E+02  0.67988646474E+00 -0.28155094395E+03  0.28976604307E+03  0.41800000000E+01 0.  1.
        -11    1    1    2    0    0  0.70472944507E+02 -0.10233578655E+02 -0.46643116639E+02  0.85127800214E+02  0.00000000000E+00 0.  1.
         11    1    1    2    0    0  0.33005577727E+02 -0.57767768779E+01 -0.15553159519E+03  0.15910002016E+03  0.00000000000E+00 0. -1.
</event>
<event>
 7    1  0.3265282E-009  0.1021545E+03  0.7561462E-02  0.1275829E+00
         -2   -1    0    0    0  501 -0.00000000000E+00  0.00000000000E+00  0.14513896814E+02  0.14513896814E+02  0.00000000000E+00 0.  1.
          2   -1    0    0  501    0  0.00000000000E+00 -0.00000000000E+00 -0.10022510703E+04  0.10022510703E+04  0.00000000000E+00 0. -1.
         25    2    1    2    0    0  0.20445443855E+02  0.15757940375E+02 -0.75535934411E+03  0.76608283095E+03  0.12509530881E+03 0.  0.
          5    1    3    3  502    0  0.37703606466E+02 -0.42647157181E+02 -0.22114699413E+03  0.22839397402E+03  0.41800000000E+01 0.  1.
         -5    1    3    3    0  502 -0.17258162611E+02  0.58405097556E+02 -0.53421234997E+03  0.53768885692E+03  0.41800000000E+01 0.  1.
        -11    1    1    2    0    0  0.29269224389E+02  0.90364600004E+01 -0.39634792127E+02  0.50092532903E+02  0.00000000000E+00 0.  1.
         11    1    1    2    0    0 -0.49714668244E+02 -0.24794400376E+02 -0.19274303729E+03  0.20058960331E+03  0.00000000000E+00 0. -1.
</event>
<event>
 7    1  0.3265282E-009  0.3952449E+03  0.7561462E-02  0.1045439E+00
         -1   -1    0    0    0  501 -0.00000000000E+00  0.00000000000E+00  0.16132426900E+04  0.16132426900E+04  0.00000000000E+00 0.  1.
          1   -1    0    0  501    0  0.00000000000E+00 -0.00000000000E+00 -0.10640602839E+03  0.10640602839E+03  0.00000000000E+00 0. -1.
         25    2    1    2    0    0 -0.12416174138E+02 -0.38532802921E+03  0.98206309750E+03  0.10624169142E+04  0.12509964262E+03 0.  0.
          5    1    3    3  502    0  0.55038613404E+02 -0.17773365029E+03  0.41700664774E+03  0.45665141637E+03  0.41800000000E+01 0. -1.
         -5    1    3    3    0  502 -0.67454787542E+02 -0.20759437893E+03  0.56505644975E+03  0.60576549780E+03  0.41800000000E+01 0. -1.
        -11    1    1    2    0    0  0.16224332475E+02  0.18797253697E+03  0.32875194373E+03  0.37904451470E+03  0.00000000000E+00 0.  1.
         11    1    1    2    0    0 -0.38081583369E+01  0.19735549224E+03  0.19602162040E+03  0.27818728952E+03  0.00000000000E+00 0. -1.
</event>
<event>
 7    1  0.3265282E-009  0.1320863E+03  0.7561462E-02  0.1224392E+00
         -3   -1    0    0    0  501 -0.00000000000E+00  0.00000000000E+00  0.22309310766E+03  0.22309310766E+03  0.00000000000E+00 0.  1.
          3   -1    0    0  501    0  0.00000000000E+00 -0.00000000000E+00 -0.97540190876E+02  0.97540190876E+02  0.00000000000E+00 0. -1.
         25    2    1    2    0    0 -0.79012169913E+01  0.96752861202E+02  0.94180051519E+02  0.18423009029E+03  0.12508916293E+03 0.  0.
          5    1    3    3  502    0 -0.62798384599E+02  0.77554469633E+02  0.63328048520E+02  0.11826346434E+03  0.41800000000E+01 0.  1.
         -5    1    3    3    0  502  0.54897167607E+02  0.19198391570E+02  0.30852002999E+02  0.65966625950E+02  0.41800000000E+01 0.  1.
        -11    1    1    2    0    0  0.25460734817E+02 -0.51612703826E+02  0.57514509463E+02  0.81363622169E+02  0.00000000000E+00 0.  1.
         11    1    1    2    0    0 -0.17559517825E+02 -0.45140157376E+02 -0.26141644199E+02  0.55039586078E+02  0.00000000000E+00 0. -1.
</event>
<event>
 7    1  0.3265282E-009  0.2023113E+03  0.7561462E-02  0.1147804E+00
          2   -1    0    0  501    0  0.00000000000E+00  0.00000000000E+00  0.49760493186E+03  0.49760493186E+03  0.00000000000E+00 0. -1.
         -2   -1    0    0    0  501 -0.00000000000E+00 -0.00000000000E+00 -0.98040030463E+02  0.98040030463E+02  0.00000000000E+00 0.  1.
         25    2    1    2    0    0 -0.14689702222E+03 -0.94547778624E+02  0.99069101520E+02  0.23660214464E+03  0.12509144811E+03 0.  0.
          5    1    3    3  502    0 -0.30497626853E+02  0.26404559352E+02  0.44110856736E+02  0.59921165544E+02  0.41800000000E+01 0. -1.
         -5    1    3    3    0  502 -0.11639939537E+03 -0.12095233798E+03  0.54958244784E+02  0.17668097909E+03  0.41800000000E+01 0. -1.
        -11    1    1    2    0    0  0.10711738807E+03  0.10994120632E+03  0.22595504664E+03  0.27316091737E+03  0.00000000000E+00 0.  1.
         11    1    1    2    0    0  0.39779634151E+02 -0.15393427700E+02  0.74540753237E+02  0.85881900321E+02  0.00000000000E+00 0. -1.
</event>
<event>
 7    1  0.3265282E-009  0.1199204E+03  0.7561462E-02  0.1243228E+00
          2   -1    0    0  501    0  0.00000000000E+00  0.00000000000E+00  0.24817811491E+03  0.24817811491E+03  0.00000000000E+00 0.  1.
         -2   -1    0    0    0  501 -0.00000000000E+00 -0.00000000000E+00 -0.67658888639E+02  0.67658888639E+02  0.00000000000E+00 0. -1.
         25    2    1    2    0    0 -0.68154502356E+02  0.17109651388E+02  0.89310314057E+02  0.16900140106E+03  0.12508942802E+03 0.  0.
          5    1    3    3  502    0  0.24966431376E+02 -0.27231006517E+02  0.90991251813E+01  0.38276845359E+02  0.41800000000E+01 0.  1.
         -5    1    3    3    0  502 -0.93120933732E+02  0.44340657905E+02  0.80211188875E+02  0.13072455570E+03  0.41800000000E+01 0.  1.
        -11    1    1    2    0    0  0.30841001353E+02 -0.43794603243E+02  0.85104031204E+02  0.10055759924E+03  0.00000000000E+00 0.  1.
         11    1    1    2    0    0  0.37313501003E+02  0.26684951855E+02  0.61048810114E+01  0.46278003249E+02  0.00000000000E+00 0. -1.
</event>
<event>
 7    1  0.3265282E-009  0.1327388E+03  0.7561462E-02  0.1223447E+00
         -2   -1    0    0    0  501 -0.00000000000E+00  0.00000000000E+00  0.15776836065E+02  0.15776836065E+02  0.00000000000E+00 0.  1.
          2   -1    0    0  501    0  0.00000000000E+00 -0.00000000000E+00 -0.14880687047E+04  0.14880687047E+04  0.00000000000E+00 0. -1.
         25    2    1    2    0    0  0.41313739519E+02 -0.99741747285E+02 -0.76402790033E+03  0.78169163487E+03  0.12509171966E+03 0.  0.
          5    1    3    3  502    0 -0.16445685661E+02 -0.20699249871E+02 -0.48896260243E+03  0.48969461759E+03  0.41800000000E+01 0. -1.
         -5    1    3    3    0  502  0.57759425180E+02 -0.79042497414E+02 -0.27506529790E+03  0.29199701728E+03  0.41800000000E+01 0. -1.
        -11    1    1    2    0    0  0.28845185541E+02  0.33887238362E+02 -0.20523262666E+03  0.21000195403E+03  0.00000000000E+00 0. -1.
         11    1    1    2    0    0 -0.70158925060E+02  0.65854508924E+02 -0.50303134167E+03  0.51215195188E+03  0.00000000000E+00 0.  1.
</event>
<event>
 7    1  0.3265282E-009  0.1180723E+03  0.7561462E-02  0.1246312E+00
         -2   -1    0    0    0  501 -0.00000000000E+00  0.00000000000E+00  0.38265012154E+02  0.38265012154E+02  0.00000000000E+00 0.  1.
          2   -1    0    0  501    0  0.00000000000E+00 -0.00000000000E+00 -0.90587550309E+03  0.90587550309E+03  0.00000000000E+00 0. -1.
         25    2    1    2    0    0  0.30878390710E+01  0.47373577228E+02 -0.81966708203E+03  0.83051456632E+03  0.12508608607E+03 0.  0.
          5    1    3    3  502    0  0.43088910236E+02  0.73865989206E+02 -0.53045484666E+03  0.53731988172E+03  0.41800000000E+01 0. -1.
         -5    1    3    3    0  502 -0.40001071165E+02 -0.26492411977E+02 -0.28921223538E+03  0.29319468460E+03  0.41800000000E+01 0. -1.
        -11    1    1    2    0    0 -0.24260582764E+02  0.20190517862E+02 -0.90112686669E+01  0.32824317976E+02  0.00000000000E+00 0.  1.
         11    1    1    2    0    0  0.21172743693E+02 -0.67564095091E+02 -0.38932140236E+02  0.80801630950E+02  0.00000000000E+00 0. -1.
</event>
<event>
 7    1  0.3265282E-009  0.2365423E+03  0.7561462E-02  0.1122118E+00
          2   -1    0    0  501    0  0.00000000000E+00  0.00000000000E+00  0.17525130659E+04  0.17525130659E+04  0.00000000000E+00 0. -1.
         -2   -1    0    0    0  501 -0.00000000000E+00 -0.00000000000E+00 -0.37166519126E+02  0.37166519126E+02  0.00000000000E+00 0.  1.
         25    2    1    2    0    0 -0.19731855543E+03  0.10830710333E+03  0.10680834704E+04  0.10986877055E+04  0.12508930215E+03 0.  0.
          5    1    3    3  502    0 -0.99857621728E+02  0.11085306186E+03  0.48343751832E+03  0.50595380467E+03  0.41800000000E+01 0.  1.
         -5    1    3    3    0  502 -0.97460933701E+02 -0.25459585259E+01  0.58464595211E+03  0.59273390086E+03  0.41800000000E+01 0.  1.
        -11    1    1    2    0    0  0.41961823083E+02 -0.12764863826E+02  0.25058069586E+03  0.25439029361E+03  0.00000000000E+00 0. -1.
         11    1    1    2    0    0  0.15535673235E+03 -0.95542239504E+02  0.39668238043E+03  0.43660158584E+03  0.00000000000E+00 0.  1.
</event>
<event>
 6    1  0.3265282E-009  0.8826368E+02  0.7561462E-02  0.1307112E+00
         -1   -1    0    0    0  501 -0.00000000000E+00  0.00000000000E+00  0.75789652234E+02  0.75789652234E+02  0.00000000000E+00 0.  1.
          1   -1    0    0  501    0  0.00000000000E+00 -0.00000000000E+00 -0.20369040378E+03  0.20369040378E+03  0.00000000000E+00 0. -1.
          5    1    1    2  502    0 -0.15756213972E+02 -0.61844360031E+02 -0.10165090844E+03  0.12009730527E+03  0.41800000000E+01 0.  1.
         -5    1    1    2    0  502  0.60369568786E+01  0.13499243963E+02  0.28885227827E+02  0.32718545545E+02  0.41800000000E+01 0.  1.
        -11    1    1    2    0    0  0.44646683160E+02  0.10820135336E+02 -0.59549482713E+02  0.75209989611E+02  0.00000000000E+00 0. -1.
         11    1    1    2    0    0 -0.34927426067E+02  0.37524980732E+02  0.44144117781E+01  0.51454215590E+02  0.00000000000E+00 0.  1.
</event>
<event>
 7    1  0.3265282E-009  0.8046318E+02  0.7561462E-02  0.1327742E+00
          4   -1    0    0  501    0  0.00000000000E+00  0.00000000000E+00  0.20316074990E+03  0.20316074990E+03  0.00000000000E+00 0. -1.
         -4   -1    0    0    0  501 -0.00000000000E+00 -0.00000000000E+00 -0.72000481999E+02  0.72000481999E+02  0.00000000000E+00 0.  1.
         25    2    1    2    0    0  0.19624221937E+02 -0.51454692763E+02  0.54636733873E+02  0.14719276931E+03  0.12509133925E+03 0.  0.
          5    1    3    3  502    0  0.44446087481E+02 -0.24149858673E+02  0.85149048994E+02  0.99128720918E+02  0.41800000000E+01 0. -1.
         -5    1    3    3    0  502 -0.24821865544E+02 -0.27304834090E+02 -0.30512315120E+02  0.48064048391E+02  0.41800000000E+01 0. -1.
        -11    1    1    2    0    0  0.61469517108E+01  0.46357548081E+02 -0.31377050754E+00  0.46764363904E+02  0.00000000000E+00 0.  1.
         11    1    1    2    0    0 -0.25771173647E+02  0.50971446823E+01  0.76837304532E+02  0.81204098682E+02  0.00000000000E+00 0. -1.
</event>
<event>
 7    1  0.3265282E-009  0.1151608E+03  0.7561462E-02  0.1251301E+00
          2   -1    0    0  501    0  0.00000000000E+00  0.00000000000E+00  0.67265194352E+03  0.67265194352E+03  0.00000000000E+00 0. -1.
         -2   -1    0    0    0  501 -0.00000000000E+00 -0.00000000000E+00 -0.26448242360E+02  0.26448242360E+02  0.00000000000E+00 0.  1.
         25    2    1    2    0    0  0.30136309465E+02 -0.66970358337E+02  0.44630196656E+03  0.46928257039E+03  0.12508980562E+03 0.  0.
          5    1    3    3  502    0 -0.36528787832E+02 -0.46441302642E+02  0.31522449946E+03  0.32074149154E+03  0.41800000000E+01 0.  1.
         -5    1    3    3    0  502  0.66665097297E+02 -0.20529055695E+02  0.13107746710E+03  0.14854107885E+03  0.41800000000E+01 0.  1.
        -11    1    1    2    0    0  0.72309066220E+01  0.63243972311E+02  0.70084379140E+02  0.94677907897E+02  0.00000000000E+00 0.  1.
         11    1    1    2    0    0 -0.37367216087E+02  0.37263860258E+01  0.12981735546E+03  0.13513970760E+03  0.00000000000E+00 0. -1.
</event>
<event>
 7    1  0.3265282E-009  0.9082960E+02  0.7561462E-02  0.1300855E+00
         -2   -1    0    0    0  501 -0.00000000000E+00  0.00000000000E+00  0.24686483251E+02  0.24686483251E+02  0.00000000000E+00 0.  1.
          2   -1    0    0  501    0  0.00000000000E+00 -0.00000000000E+00 -0.49705127348E+03  0.49705127348E+03  0.00000000000E+00 0. -1.
         25    2    1    2    0    0  0.22449593187E+02 -0.62673398877E+01 -0.26577794559E+03  0.29466650413E+03  0.12508864261E+03 0.  0.
          5    1    3    3  502    0 -0.14057529504E+02 -0.41863991577E+02 -0.30358834084E+02  0.53752573273E+02  0.41800000000E+01 0.  1.
         -5    1    3    3    0  502  0.36507122692E+02  0.35596651689E+02 -0.23541911150E+03  0.24091393086E+03  0.41800000000E+01 0.  1.
        -11    1    1    2    0    0 -0.53822914476E+02 -0.14102785329E+01 -0.16972737024E+03  0.17806255984E+03  0.00000000000E+00 0.  1.
         11    1    1    2    0    0  0.31373321289E+02  0.76776184206E+01 -0.36859474403E+02  0.49008692765E+02  0.00000000000E+00 0. -1.
</event>
<event>
 7    1  0.3265282E-009  0.1122956E+03  0.7561462E-02  0.1256377E+00
          1   -1    0    0  501    0  0.00000000000E+00  0.00000000000E+00  0.10980245662E+04  0.10980245662E+04  0.00000000000E+00 0. -1.
         -1   -1    0    0    0  501 -0.00000000000E+00 -0.00000000000E+00 -0.15933565431E+02  0.15933565431E+02  0.00000000000E+00 0.  1.
         25    2    1    2    0    0  0.67252135445E+02  0.63463568964E+00  0.75569233534E+03  0.76892201685E+03  0.12508760861E+03 0.  0.
          5    1    3    3  502    0  0.25236909220E+02 -0.48573148392E+02  0.56179202965E+03  0.56446789928E+03  0.41800000000E+01 0.  1.
         -5    1    3    3    0  502  0.42015226225E+02  0.49207784082E+02  0.19390030569E+03  0.20445411758E+03  0.41800000000E+01 0.  1.
        -11    1    1    2    0    0 -0.72668087141E+02 -0.27313158362E+02  0.28579623884E+03  0.29615224065E+03  0.00000000000E+00 0. -1.
         11    1    1    2    0    0  0.54159516961E+01  0.26678522672E+02  0.40602426605E+02  0.48883874140E+02  0.00000000000E+00 0.  1.
</event>
<event>
 7    1  0.3265282E-009  0.1215077E+03  0.7561462E-02  0.1240630E+00
         -2   -1    0    0    0  501 -0.00000000000E+00  0.00000000000E+00  0.60628039836E+03  0.60628039836E+03  0.00000000000E+00 0.  1.
          2   -1    0    0  501    0  0.00000000000E+00 -0.00000000000E+00 -0.16301485618E+03  0.16301485618E+03  0.00000000000E+00 0. -1.
         25    2    1    2    0    0 -0.91323785469E+02 -0.15909180223E+02 -0.11650995764E+03  0.19445937393E+03  0.12508693806E+03 0.  0.
          5    1    3    3  502    0 -0.77583048654E+02 -0.39039349548E+02 -0.13568692172E+03  0.16115710775E+03  0.41800000000E+01 0.  1.
         -5    1    3    3    0  502 -0.13740736815E+02  0.23130169325E+02  0.19176964088E+02  0.33302266182E+02  0.41800000000E+01 0.  1.
        -11    1    1    2    0    0  0.59378198256E+02  0.53206230560E+02  0.29724811711E+03  0.30775496181E+03  0.00000000000E+00 0. -1.
         11    1    1    2    0    0  0.31945587213E+02 -0.37297050337E+02  0.26252738272E+03  0.26708091879E+03  0.00000000000E+00 0.  1.
</event>
<event>
 7    1  0.3265282E-009  0.1578306E+03  0.7561462E-02  0.1191168E+00
          2   -1    0    0  501    0  0.00000000000E+00  0.00000000000E+00  0.29395564726E+03  0.29395564726E+03  0.00000000000E+00 0. -1.
         -2   -1    0    0    0  501 -0.00000000000E+00 -0.00000000000E+00 -0.10515381344E+03  0.10515381344E+03  0.00000000000E+00 0.  1.
         25    2    1    2    0    0 -0.18502556024E+02 -0.13414766996E+03  0.12869650816E+03  0.22483047082E+03  0.12509199599E+03 0.  0.
          5    1    3    3  502    0  0.92563957695E+01 -0.14674081184E+03  0.80578174106E+02  0.16771660998E+03  0.41800000000E+01 0.  1.
         -5    1    3    3    0  502 -0.27758951793E+02  0.12593141883E+02  0.48118334053E+02  0.57113860833E+02  0.41800000000E+01 0.  1.
        -11    1    1    2    0    0 -0.17508154130E+01  0.79544598626E+02  0.79910097988E+02  0.11276538603E+03  0.00000000000E+00 0.  1.
         11    1    1    2    0    0  0.20253371437E+02  0.54603071331E+02 -0.19804772325E+02  0.61513603863E+02  0.00000000000E+00 0. -1.
</event>
<event>
 7    1  0.3265282E-009  0.1659473E+03  0.7561462E-02  0.1182141E+00
          1   -1    0    0  501    0  0.00000000000E+00  0.00000000000E+00  0.99307831943E+03  0.99307831943E+03  0.00000000000E+00 0. -1.
         -1   -1    0    0    0  501 -0.00000000000E+00 -0.00000000000E+00 -0.33993214827E+02  0.33993214827E+02  0.00000000000E+00 0.  1.
         25    2    1    2    0    0  0.84117450732E+02  0.12204675740E+03  0.52391115243E+03  0.55866200774E+03  0.12509670954E+03 0.  0.
          5    1    3    3  502    0  0.22193878336E+02  0.10115753484E+03  0.44095905028E+03  0.45297656840E+03  0.41800000000E+01 0. -1.
         -5    1    3    3    0  502  0.61923572396E+02  0.20889222562E+02  0.82952102148E+02  0.10568543934E+03  0.41800000000E+01 0. -1.
        -11    1    1    2    0    0 -0.51184697238E+01 -0.65282982265E+02  0.10104817982E+03  0.12041096774E+03  0.00000000000E+00 0.  1.
         11    1    1    2    0    0 -0.78998981008E+02 -0.56763775136E+02  0.33412577235E+03  0.34799855878E+03  0.00000000000E+00 0. -1.
</event>
<event>
 7    1  0.3265282E-009  0.1066164E+03  0.7561462E-02  0.1266967E+00
          1   -1    0    0  501    0  0.00000000000E+00  0.00000000000E+00  0.44509250849E+03  0.44509250849E+03  0.00000000000E+00 0. -1.
         -1   -1    0    0    0  501 -0.00000000000E+00 -0.00000000000E+00 -0.31775980530E+02  0.31775980530E+02  0.00000000000E+00 0.  1.
         25    2    1    2    0    0  0.19544112865E+02 -0.75550104176E+01  0.14565767094E+03  0.19313795269E+03  0.12508821342E+03 0.  0.
          5    1    3    3  502    0 -0.36132718695E+02  0.38561068239E+02  0.47640348307E+02  0.71271344388E+02  0.41800000000E+01 0.  1.
         -5    1    3    3    0  502  0.55676831559E+02 -0.46116078657E+02  0.98017322637E+02  0.12186660831E+03  0.41800000000E+01 0.  1.
        -11    1    1    2    0    0  0.33922979601E+02  0.48932522890E+01  0.58231152309E+02  0.67569072527E+02  0.00000000000E+00 0.  1.
         11    1    1    2    0    0 -0.53467092465E+02  0.26617581286E+01  0.20942770471E+03  0.21616146380E+03  0.00000000000E+00 0. -1.
</event>
<event>
 7    1  0.3265282E-009  0.1291124E+03  0.7561462E-02  0.1228779E+00
          2   -1    0    0  501    0  0.00000000000E+00  0.00000000000E+00  0.18274542887E+04  0.18274542887E+04  0.00000000000E+00 0. -1.
         -2   -1    0    0    0  501 -0.00000000000E+00 -0.00000000000E+00 -0.12723629542E+02  0.12723629542E+02  0.00000000000E+00 0.  1.
         25    2    1    2    0    0  0.82055173181E+02 -0.21002963642E+02  0.11669869711E+04  0.11767246426E+04  0.12509243756E+03 0.  0.
          5    1    3    3  502    0  0.69752844312E+02  0.27590470751E+02  0.98658734740E+03  0.98944366177E+03  0.41800000000E+01 0. -1.
         -5    1    3    3    0  502  0.12302328869E+02 -0.48593434393E+02  0.18039962366E+03  0.18728098082E+03  0.41800000000E+01 0. -1.
        -11    1    1    2    0    0  0.24533815418E+02  0.36161561922E+01  0.47629081357E+02  0.53698361944E+02  0.00000000000E+00 0.  1.
         11    1    1    2    0    0 -0.10658898860E+03  0.17386807450E+02  0.60011460678E+03  0.60975491374E+03  0.00000000000E+00 0. -1.
</event>
<event>
 7    1  0.3265282E-009  0.9242130E+02  0.7561462E-02  0.1297092E+00
         -2   -1    0    0    0  501 -0.00000000000E+00  0.00000000000E+00  0.34891979442E+02  0.34891979442E+02  0.00000000000E+00 0.  1.
          2   -1    0    0  501    0  0.00000000000E+00 -0.00000000000E+00 -0.37619906951E+03  0.37619906951E+03  0.00000000000E+00 0. -1.
         25    2    1    2    0    0 -0.58524021460E+01  0.31468671607E+02 -0.16437205306E+03  0.20902192910E+03  0.12508983617E+03 0.  0.
          5    1    3    3  502    0 -0.36897108356E+02  0.45071176710E+02 -0.16482893376E+03  0.17486811425E+03  0.41800000000E+01 0.  1.
         -5    1    3    3    0  502  0.31044706209E+02 -0.13602505103E+02  0.45688070770E+00  0.34153814848E+02  0.41800000000E+01 0.  1.
        -11    1    1    2    0    0 -0.34286644925E+02  0.88411228359E+01 -0.10211350446E+03  0.10807824604E+03  0.00000000000E+00 0. -1.
         11    1    1    2    0    0  0.40139047071E+02 -0.40309794443E+02 -0.74821532552E+02  0.93990873819E+02  0.00000000000E+00 0.  1.
</event>
<event>
 7    1  0.3265282E-009  0.1933061E+03  0.7561462E-02  0.1155513E+00
         -1   -1    0    0    0  501 -0.00000000000E+00  0.00000000000E+00  0.12343341029E+04  0.12343341029E+04  0.00000000000E+00 0.  1.
          1   -1    0    0  501    0  0.00000000000E+00 -0.00000000000E+00 -0.34862536726E+02  0.34862536726E+02  0.00000000000E+00 0. -1.
         25    2    1    2    0    0  0.10728381336E+03  0.13643290627E+03  0.52403586058E+03  0.56602464674E+03  0.12508622232E+03 0.  0.
          5    1    3    3  502    0 -0.16287270371E+02  0.52188795241E+02  0.76337670839E+02  0.93988605234E+02  0.41800000000E+01 0. -1.
         -5    1    3    3    0  502  0.12357108374E+03  0.84244111033E+02  0.44769818974E+03  0.47203604151E+03  0.41800000000E+01 0. -1.
        -11    1    1    2    0    0 -0.37479554172E+02 -0.92204665440E+02  0.49222495756E+03  0.50218704300E+03  0.00000000000E+00 0. -1.
         11    1    1    2    0    0 -0.69804259193E+02 -0.44228240834E+02  0.18321074805E+03  0.20098494990E+03  0.00000000000E+00 0.  1.
</event>
<event>
 7    1  0.3265282E-009  0.1110446E+03  0.7561462E-02  0.1258648E+00
          1   -1    0    0  501    0  0.00000000000E+00  0.00000000000E+00  0.12442025608E+03  0.12442025608E+03  0.00000000000E+00 0. -1.
         -1   -1    0    0    0  501 -0.00000000000E+00 -0.00000000000E+00 -0.15429844218E+03  0.15429844218E+03  0.00000000000E+00 0.  1.
         25    2    1    2    0    0 -0.15560477569E+02 -0.85001808786E+02 -0.14066191324E+02  0.15268108952E+03  0.12508485679E+03 0.  0.
          5    1    3    3  502    0  0.77708904723E+01 -0.91683246739E+02  0.34396821614E+02  0.98319978685E+02  0.41800000000E+01 0. -1.
         -5    1    3    3    0  502 -0.23331368041E+02  0.66814379533E+01 -0.48463012939E+02  0.54361110832E+02  0.41800000000E+01 0. -1.
        -11    1    1    2    0    0  0.31445336835E+02  0.17452578432E+02 -0.38831558128E+02  0.52927229374E+02  0.00000000000E+00 0.  1.
         11    1    1    2    0    0 -0.15884859265E+02  0.67549230354E+02  0.23019563353E+02  0.73110379375E+02  0.00000000000E+00 0. -1.
</event>
<event>
 7    1  0.3265282E-009  0.1734101E+03  0.7561462E-02  0.1174338E+00
         -2   -1    0    0    0  501 -0.00000000000E+00  0.00000000000E+00  0.50595656302E+02  0.50595656302E+02  0.00000000000E+00 0.  1.
          2   -1    0    0  501    0  0.00000000000E+00 -0.00000000000E+00 -0.76679004792E+03  0.76679004792E+03  0.00000000000E+00 0. -1.
         25    2    1    2    0    0 -0.13707133596E+03 -0.72743763125E+02 -0.48707505816E+03  0.52627914086E+03  0.12508963029E+03 0.  0.
          5    1    3    3  502    0 -0.13303288782E+02 -0.62323990627E+02 -0.25665444287E+03  0.26448106311E+03  0.41800000000E+01 0. -1.
         -5    1    3    3    0  502 -0.12376804718E+03 -0.10419772498E+02 -0.23042061528E+03  0.26179807774E+03  0.41800000000E+01 0. -1.
        -11    1    1    2    0    0  0.10075948542E+03  0.69116347940E+02 -0.22275153326E+03  0.25406256911E+03  0.00000000000E+00 0. -1.
         11    1    1    2    0    0  0.36311850545E+02  0.36274151849E+01 -0.63678002028E+01  0.37043994255E+02  0.00000000000E+00 0.  1.
</event>
<event>
 7    1  0.3265282E-009  0.1383540E+03  0.7561462E-02  0.1215561E+00
          2   -1    0    0  501    0  0.00000000000E+00  0.00000000000E+00  0.92451496936E+02  0.92451496936E+02  0.00000000000E+00 0. -1.
         -2   -1    0    0    0  501 -0.00000000000E+00 -0.00000000000E+00 -0.30452992293E+03  0.30452992293E+03  0.00000000000E+00 0.  1.
         25    2    1    2    0    0  0.91536162332E+02 -0.38720315656E+02 -0.20031189597E+03  0.25622353835E+03  0.12509002390E+03 0.  0.
          5    1    3    3  502    0  0.11373371954E+03 -0.46410319399E+02 -0.19691014570E+03  0.23212142208E+03  0.41800000000E+01 0.  1.
         -5    1    3    3    0  502 -0.22197557212E+02  0.76900037424E+01 -0.34017502669E+01  0.24102116269E+02  0.41800000000E+01 0.  1.
        -11    1    1    2    0    0 -0.52163128425E+02  0.64441424547E+02 -0.32901157731E+02  0.89197395392E+02  0.00000000000E+00 0.  1.
         11    1    1    2    0    0 -0.39373033908E+02 -0.25721108891E+02  0.21134627702E+02  0.51560486128E+02  0.00000000000E+00 0. -1.
</event>
<event>
 7    1  0.3265282E-009  0.9997875E+02  0.7561462E-02  0.1280341E+00
         -2   -1    0    0    0  501 -0.00000000000E+00  0.00000000000E+00  0.24447673004E+02  0.24447673004E+02  0.00000000000E+00 0. -1.
          2   -1    0    0  501    0  0.00000000000E+00 -0.00000000000E+00 -0.82789652870E+03  0.82789652870E+03  0.00000000000E+00 0.  1.
         25    2    1    2    0    0  0.31468634029E+02 -0.26399800096E+02 -0.67875928240E+03  0.69140961983E+03  0.12508347043E+03 0.  0.
          5    1    3    3  502    0 -0.48188314683E+02 -0.15388534262E+02 -0.28823759334E+03  0.29267268966E+03  0.41800000000E+01 0. -1.
         -5    1    3    3    0  502  0.79656948712E+02 -0.11011265834E+02 -0.39052168906E+03  0.39873693017E+03  0.41800000000E+01 0. -1.
        -11    1    1    2    0    0 -0.31276719326E+02  0.42392958186E+02 -0.13289650492E+03  0.14295760594E+03  0.00000000000E+00 0.  1.
         11    1    1    2    0    0 -0.19191470300E+00 -0.15993158090E+02  0.82069316286E+01  0.17976975933E+02  0.00000000000E+00 0. -1.
</event>
<event>
 7    1  0.3265282E-009  0.1266900E+03  0.7561462E-02  0.1232452E+00
         -2   -1    0    0    0  501 -0.00000000000E+00  0.00000000000E+00  0.18142872014E+03  0.18142872014E+03  0.00000000000E+00 0.  1.
          2   -1    0    0  501    0  0.00000000000E+00 -0.00000000000E+00 -0.10096989863E+03  0.10096989863E+03  0.00000000000E+00 0. -1.
         25    2    1    2    0    0  0.38552685407E+02  0.64606582222E+02  0.15318680729E+02  0.14677359448E+03  0.12508999176E+03 0.  0.
          5    1    3    3  502    0  0.48025617944E+02 -0.24706493948E+02  0.17224560085E+02  0.56842138350E+02  0.41800000000E+01 0.  1.
         -5    1    3    3    0  502 -0.94729325362E+01  0.89313076170E+02 -0.19058793561E+01  0.89931456131E+02  0.41800000000E+01 0.  1.
        -11    1    1    2    0    0 -0.60353483675E+02 -0.27637049426E+02  0.12231905270E+02  0.67497918480E+02  0.00000000000E+00 0. -1.
         11    1    1    2    0    0  0.21800798267E+02 -0.36969532797E+02  0.52908235516E+02  0.68127105808E+02  0.00000000000E+00 0.  1.
</event>
<event>
 7    1  0.3265282E-009  0.1071196E+03  0.7561462E-02  0.1265999E+00
          2   -1    0    0  501    0  0.00000000000E+00  0.00000000000E+00  0.56485918021E+02  0.56485918021E+02  0.00000000000E+00 0. -1.
         -2   -1    0    0    0  501 -0.00000000000E+00 -0.00000000000E+00 -0.22366266547E+03  0.22366266547E+03  0.00000000000E+00 0.  1.
         25    2    1    2    0    0  0.21254798584E+02  0.18697508545E+02 -0.79470123196E+02  0.15088028362E+03  0.12509195104E+03 0.  0.
          5    1    3    3  502    0 -0.18867578792E+01  0.69546948267E+02 -0.58722564470E+02  0.91138081209E+02  0.41800000000E+01 0.  1.
         -5    1    3    3    0  502  0.23141556464E+02 -0.50849439722E+02 -0.20747558726E+02  0.59742202409E+02  0.41800000000E+01 0.  1.
        -11    1    1    2    0    0  0.22407169634E+02  0.20105189499E+02 -0.93267718114E+01  0.31516480898E+02  0.00000000000E+00 0. -1.
         11    1    1    2    0    0 -0.43661968218E+02 -0.38802698044E+02 -0.78379852443E+02  0.97751818976E+02  0.00000000000E+00 0.  1.
</event>
<event>
 7    1  0.3265282E-009  0.7130207E+02  0.7561462E-02  0.1355720E+00
         -1   -1    0    0    0  501 -0.00000000000E+00  0.00000000000E+00  0.57735336602E+02  0.57735336602E+02  0.00000000000E+00 0.  1.
          1   -1    0    0  501    0  0.00000000000E+00 -0.00000000000E+00 -0.22446788303E+03  0.22446788303E+03  0.00000000000E+00 0. -1.
         25    2    1    2    0    0 -0.15371252790E+02  0.31804258617E+02 -0.87844285603E+02  0.15687669968E+03  0.12508354852E+03 0.  0.
          5    1    3    3  502    0 -0.33371243991E+02 -0.28179579470E+01 -0.10772162049E+03  0.11288490038E+03  0.41800000000E+01 0.  1.
         -5    1    3    3    0  502  0.17999991201E+02  0.34622216564E+02  0.19877334892E+02  0.43991799298E+02  0.41800000000E+01 0.  1.
        -11    1    1    2    0    0 -0.23253312326E+02 -0.13183024069E+02 -0.77984072301E+02  0.82438002101E+02  0.00000000000E+00 0. -1.
         11    1    1    2    0    0  0.38624565116E+02 -0.18621234548E+02 -0.90418852454E+00  0.42888517850E+02  0.00000000000E+00 0.  1.
</event>
<event>
 7    1  0.3265282E-009  0.1101292E+03  0.7561462E-02  0.1260331E+00
          1   -1    0    0  501    0  0.00000000000E+00  0.00000000000E+00  0.72668382304E+02  0.72668382304E+02  0.00000000000E+00 0. -1.
         -1   -1    0    0    0  501 -0.00000000000E+00 -0.00000000000E+00 -0.26563504335E+03  0.26563504335E+03  0.00000000000E+00 0.  1.
         25    2    1    2    0    0  0.32623692486E+02 -0.69013919958E+02 -0.58838087920E+02  0.15791894294E+03  0.12509694436E+03 0.  0.
          5    1    3    3  502    0  0.28760085319E+02 -0.10336422949E+03 -0.60156019508E+02  0.12307528399E+03  0.41800000000E+01 0.  1.
         -5    1    3    3    0  502  0.38636071666E+01  0.34350309531E+02  0.13179315882E+01  0.34843658948E+02  0.41800000000E+01 0.  1.
        -11    1    1    2    0    0 -0.44027707042E+01  0.27620644623E+02  0.84844866645E+01  0.29227913255E+02  0.00000000000E+00 0. -1.
         11    1    1    2    0    0 -0.28220921782E+02  0.41393275335E+02 -0.14261305979E+03  0.15115656946E+03  0.00000000000E+00 0.  1.
</event>
<event>
 7    1  0.3265282E-009  0.1511371E+03  0.7561462E-02  0.1199083E+00
          2   -1    0    0  501    0  0.00000000000E+00  0.00000000000E+00  0.52032802477E+03  0.52032802477E+03  0.00000000000E+00 0. -1.
         -2   -1    0    0    0  501 -0.00000000000E+00 -0.00000000000E+00 -0.86114455382E+02  0.86114455382E+02  0.00000000000E+00 0.  1.
         25    2    1    2    0    0  0.12510533213E+03  0.48042928028E+02  0.50622477800E+02  0.19018293885E+03  0.12508975941E+03 0.  0.
          5    1    3    3  502    0  0.65843453435E+02 -0.25393480734E+02 -0.18571184293E+02  0.73092752788E+02  0.41800000000E+01 0. -1.
         -5    1    3    3    0  502  0.59261878697E+02  0.73436408762E+02  0.69193662094E+02  0.11709018606E+03  0.41800000000E+01 0. -1.
        -11    1    1    2    0    0 -0.69498314981E+02 -0.11144393406E+02  0.85282234897E+02  0.11057699977E+03  0.00000000000E+00 0.  1.
         11    1    1    2    0    0 -0.55607017151E+02 -0.36898534622E+02  0.29830885669E+03  0.30568254152E+03  0.00000000000E+00 0. -1.
</event>
<event>
 7    1  0.3265282E-009  0.1207419E+03  0.7561462E-02  0.1241878E+00
         -1   -1    0    0    0  501 -0.00000000000E+00  0.00000000000E+00  0.30491451815E+02  0.30491451815E+02  0.00000000000E+00 0.  1.
          1   -1    0    0  501    0  0.00000000000E+00 -0.00000000000E+00 -0.71804223136E+03  0.71804223136E+03  0.00000000000E+00 0. -1.
         25    2    1    2    0    0  0.37013381619E+02  0.87497722787E+02 -0.29003489155E+03  0.32983852072E+03  0.12508944608E+03 0.  0.
          5    1    3    3  502    0  0.15563660312E+02  0.86689550571E+02 -0.81218018037E+02  0.11987970869E+03  0.41800000000E+01 0.  1.
         -5    1    3    3    0  502  0.21449721307E+02  0.80817221566E+00 -0.20881687351E+03  0.20995881203E+03  0.41800000000E+01 0.  1.
        -11    1    1    2    0    0  0.24378988105E+02 -0.58837467330E+02 -0.18757081624E+03  0.19808834829E+03  0.00000000000E+00 0.  1.
         11    1    1    2    0    0 -0.61392369724E+02 -0.28660255457E+02 -0.20994507175E+03  0.22060681416E+03  0.00000000000E+00 0. -1.
</event>
<event>
 7    1  0.3265282E-009  0.1074455E+03  0.7561462E-02  0.1265375E+00
         -2   -1    0    0    0  501 -0.00000000000E+00  0.00000000000E+00  0.58303640388E+02  0.58303640388E+02  0.00000000000E+00 0.  1.
          2   -1    0    0  501    0  0.00000000000E+00 -0.00000000000E+00 -0.24610472758E+03  0.24610472758E+03  0.00000000000E+00 0. -1.
         25    2    1    2    0    0 -0.46885961268E+02  0.18798049202E+02 -0.10516814114E+03  0.17106139489E+03  0.12509997160E+03 0.  0.
          5    1    3    3  502    0  0.34625080320E+02 -0.97800839217E+01 -0.67773507493E+02  0.76845734732E+02  0.41800000000E+01 0. -1.
         -5    1    3    3    0  502 -0.81511041588E+02  0.28578133124E+02 -0.37394633646E+02  0.94215660159E+02  0.41800000000E+01 0. -1.
        -11    1    1    2    0    0  0.47367222523E+02 -0.45385306836E+02 -0.25599192700E+02  0.70418736946E+02  0.00000000000E+00 0.  1.
         11    1    1    2    0    0 -0.48126125500E+00  0.26587257634E+02 -0.57033753350E+02  0.62928236127E+02  0.00000000000E+00 0. -1.
</event>
<event>
 7    1  0.3558265E-009  0.1056985E+03  0.7561462E-02  0.1268749E+00
         -1   -1    0    0    0  501 -0.00000000000E+00  0.00000000000E+00  0.75321561201E+02  0.75321561201E+02  0.00000000000E+00 0.  1.
          1   -1    0    0  501    0  0.00000000000E+00 -0.00000000000E+00 -0.20106602686E+03  0.20106602686E+03  0.00000000000E+00 0. -1.
         25    2    1    2    0    0  0.41010096037E+02  0.38905756240E+02 -0.89722186011E+02  0.16398806334E+03  0.12508608399E+03 0.  0.
          5    1    3    3  502    0  0.62943280150E+02 -0.26255577619E+02 -0.47060733393E+02  0.82966239518E+02  0.41800000000E+01 0.  1.
         -5    1    3    3    0  502 -0.21933184114E+02  0.65161333859E+02 -0.42661452619E+02  0.81021823820E+02  0.41800000000E+01 0.  1.
        -11    1    1    2    0    0 -0.42859141851E+02 -0.84591931754E+01  0.20434984025E+02  0.48229167125E+02  0.00000000000E+00 0. -1.
         11    1    1    2    0    0  0.18490458148E+01 -0.30446563064E+02 -0.56457263674E+02  0.64170357599E+02  0.00000000000E+00 0.  1.
</event>
<event>
 7    1  0.3265282E-009  0.1123939E+03  0.7561462E-02  0.1256200E+00
         -1   -1    0    0    0  501 -0.00000000000E+00  0.00000000000E+00  0.37720592058E+02  0.37720592058E+02  0.00000000000E+00 0.  1.
          1   -1    0    0  501    0  0.00000000000E+00 -0.00000000000E+00 -0.59684744660E+03  0.59684744660E+03  0.00000000000E+00 0. -1.
         25    2    1    2    0    0  0.61072778498E+02  0.65331407987E+02 -0.19435377393E+03  0.24782431620E+03  0.12508167379E+03 0.  0.
          5    1    3    3  502    0  0.63682406511E+02  0.66423488424E+02 -0.21110641601E+03  0.23032785328E+03  0.41800000000E+01 0.  1.
         -5    1    3    3    0  502 -0.26096280131E+01 -0.10920804365E+01  0.16752642086E+02  0.17496462926E+02  0.41800000000E+01 0.  1.
        -11    1    1    2    0    0  0.17333541990E+02 -0.42600174639E+02 -0.15371734939E+03  0.16045014821E+03  0.00000000000E+00 0. -1.
         11    1    1    2    0    0 -0.78406320487E+02 -0.22731233348E+02 -0.21105573123E+03  0.22629357425E+03  0.00000000000E+00 0.  1.
</event>
<event>
 7    1  0.3265282E-009  0.8804750E+02  0.7561462E-02  0.1307650E+00
          2   -1    0    0  501    0  0.00000000000E+00  0.00000000000E+00  0.65182773118E+03  0.65182773118E+03  0.00000000000E+00 0. -1.
         -2   -1    0    0    0  501 -0.00000000000E+00 -0.00000000000E+00 -0.22609153059E+02  0.22609153059E+02  0.00000000000E+00 0.  1.
         25    2    1    2    0    0  0.42855608794E+02 -0.64019656969E+02  0.43069908884E+03  0.45506522057E+03  0.12509008819E+03 0.  0.
          5    1    3    3  502    0 -0.52363892020E+01 -0.47508628232E+02  0.44268929674E+02  0.65281697763E+02  0.41800000000E+01 0. -1.
         -5    1    3    3    0  502  0.48091997996E+02 -0.16511028737E+02  0.38643015917E+03  0.38978352281E+03  0.41800000000E+01 0. -1.
        -11    1    1    2    0    0 -0.23872707600E+02  0.38301560367E+02  0.17204613206E+03  0.17786733048E+03  0.00000000000E+00 0. -1.
         11    1    1    2    0    0 -0.18982901194E+02  0.25718096602E+02  0.26473357215E+02  0.41504333181E+02  0.00000000000E+00 0.  1.
</event>
<event>
 7    1  0.3265282E-009  0.1149572E+03  0.7561462E-02  0.1251656E+00
          1   -1    0    0  501    0  0.00000000000E+00  0.00000000000E+00  0.13646175665E+03  0.13646175665E+03  0.00000000000E+00 0. -1.
         -1   -1    0    0    0  501 -0.00000000000E+00 -0.00000000000E+00 -0.18901960828E+03  0.18901960828E+03  0.00000000000E+00 0.  1.
         25    2    1    2    0    0 -0.54038908389E+02  0.47151499169E+02 -0.12103830020E+03  0.18825588041E+03  0.12508612593E+03 0.  0.
          5    1    3    3  502    0 -0.75457395922E+02  0.63275652937E+02 -0.12671422723E+03  0.16053533766E+03  0.41800000000E+01 0.  1.
         -5    1    3    3    0  502  0.21418487534E+02 -0.16124153767E+02  0.56759270299E+01  0.27720542754E+02  0.41800000000E+01 0.  1.
        -11    1    1    2    0    0  0.39524919599E+01 -0.53573837638E+02  0.68087257470E+02  0.86727463365E+02  0.00000000000E+00 0. -1.
         11    1    1    2    0    0  0.50086416429E+02  0.64223384688E+01  0.39319109714E+00  0.50498021162E+02  0.00000000000E+00 0.  1.
</event>
<event>
 7    1  0.3265282E-009  0.1453034E+03  0.7561462E-02  0.1206366E+00
          3   -1    0    0  501    0  0.00000000000E+00  0.00000000000E+00  0.57628393577E+03  0.57628393577E+03  0.00000000000E+00 0. -1.
         -3   -1    0    0    0  501 -0.00000000000E+00 -0.00000000000E+00 -0.46505671361E+02  0.46505671361E+02  0.00000000000E+00 0.  1.
         25    2    1    2    0    0  0.82538307536E+02 -0.89624044511E+02  0.34473624800E+03  0.38644007168E+03  0.12509119373E+03 0.  0.
          5    1    3    3  502    0  0.10729395108E+03 -0.94301755426E+02  0.24640692880E+03  0.28484848599E+03  0.41800000000E+01 0. -1.
         -5    1    3    3    0  502 -0.24755643543E+02  0.46777109145E+01  0.98329319206E+02  0.10159158569E+03  0.41800000000E+01 0. -1.
        -11    1    1    2    0    0 -0.18169082654E+02  0.25431629186E+02  0.12145200960E+03  0.12540922599E+03  0.00000000000E+00 0. -1.
         11    1    1    2    0    0 -0.64369224882E+02  0.64192415325E+02  0.63590006801E+02  0.11094030946E+03  0.00000000000E+00 0.  1.
</event>
<event>
 7    1  0.4456523E-009  0.1053639E+03  0.7561462E-02  0.1269404E+00
         -1   -1    0    0    0  501 -0.00000000000E+00  0.00000000000E+00  0.45722074041E+02  0.45722074041E+02  0.00000000000E+00 0.  1.
          1   -1    0    0  501    0  0.00000000000E+00 -0.00000000000E+00 -0.36443550519E+03  0.36443550519E+03  0.00000000000E+00 0. -1.
         25    2    1    2    0    0  0.34912697034E+02  0.24269418970E+02 -0.88931049403E+02  0.15923327416E+03  0.12505439992E+03 0.  0.
          5    1    3    3  502    0 -0.23445577014E+02  0.42495605862E+02 -0.84821386001E+02  0.97814679483E+02  0.41800000000E+01 0. -1.
         -5    1    3    3    0  502  0.58358274048E+02 -0.18226186892E+02 -0.41096634020E+01  0.61418594674E+02  0.41800000000E+01 0. -1.
        -11    1    1    2    0    0 -0.15517374199E+02  0.35045637461E+02 -0.92297365022E+02  0.99938927336E+02  0.00000000000E+00 0. -1.
         11    1    1    2    0    0 -0.19395322835E+02 -0.59315056431E+02 -0.13748501672E+03  0.15098537774E+03  0.00000000000E+00 0.  1.
</event>
<event>
 7    1  0.3265282E-009  0.1136382E+03  0.7561462E-02  0.1253977E+00
          2   -1    0    0  501    0  0.00000000000E+00  0.00000000000E+00  0.21217912032E+03  0.21217912032E+03  0.00000000000E+00 0.  1.
         -2   -1    0    0    0  501 -0.00000000000E+00 -0.00000000000E+00 -0.86583615161E+02  0.86583615161E+02  0.00000000000E+00 0. -1.
         25    2    1    2    0    0 -0.31752144964E+02 -0.66374412356E+02  0.24945831999E+02  0.14725685126E+03  0.12509406214E+03 0.  0.
          5    1    3    3  502    0  0.18226402869E+02 -0.87305053710E+02  0.52037735001E+01  0.89436714070E+02  0.41800000000E+01 0. -1.
         -5    1    3    3    0  502 -0.49978547833E+02  0.20930641354E+02  0.19742058499E+02  0.57820137191E+02  0.41800000000E+01 0. -1.
        -11    1    1    2    0    0 -0.93774972418E+01  0.85800314839E+01  0.75009427286E+02  0.76078699888E+02  0.00000000000E+00 0.  1.
         11    1    1    2    0    0  0.41129642205E+02  0.57794380872E+02  0.25640245878E+02  0.75427184337E+02  0.00000000000E+00 0. -1.
</event>
<event>
 7    1  0.3265282E-009  0.1160734E+03  0.7561462E-02  0.1249719E+00
          1   -1    0    0  501    0  0.00000000000E+00  0.00000000000E+00  0.24310767696E+03  0.24310767696E+03  0.00000000000E+00 0. -1.
         -1   -1    0    0    0  501 -0.00000000000E+00 -0.00000000000E+00 -0.92122532207E+02  0.92122532207E+02  0.00000000000E+00 0.  1.
         25    2    1    2    0    0 -0.25263950036E+02  0.98552494520E+02  0.60264035805E+02  0.17213308802E+03  0.12508870706E+03 0.  0.
          5    1    3    3  502    0 -0.10007054345E+02  0.88325031423E+02 -0.18718101616E+02  0.90935647799E+02  0.41800000000E+01 0.  1.
         -5    1    3    3    0  502 -0.15256895692E+02  0.10227463096E+02  0.78982137421E+02  0.81197440225E+02  0.41800000000E+01 0.  1.
        -11    1    1    2    0    0  0.49981982468E+02 -0.75343425384E+02  0.33182743827E+02  0.96311602664E+02  0.00000000000E+00 0.  1.
         11    1    1    2    0    0 -0.24718032432E+02 -0.23209069136E+02  0.57538365124E+02  0.66785518480E+02  0.00000000000E+00 0. -1.
</event>
<event>
 7    1  0.3265282E-009  0.1402890E+03  0.7561462E-02  0.1212941E+00
         -1   -1    0    0    0  501 -0.00000000000E+00  0.00000000000E+00  0.12008712960E+03  0.12008712960E+03  0.00000000000E+00 0.  1.
          1   -1    0    0  501    0  0.00000000000E+00 -0.00000000000E+00 -0.27502672296E+03  0.27502672296E+03  0.00000000000E+00 0. -1.
         25    2    1    2    0    0 -0.50726618650E+02 -0.12163367111E+03 -0.14680965587E+03  0.23359878054E+03  0.12508946968E+03 0.  0.
          5    1    3    3  502    0 -0.26307844571E+02 -0.21454831829E+02  0.18376125660E+02  0.38827398690E+02  0.41800000000E+01 0. -1.
         -5    1    3    3    0  502 -0.24418774079E+02 -0.10017883928E+03 -0.16518578153E+03  0.19477138185E+03  0.41800000000E+01 0. -1.
        -11    1    1    2    0    0 -0.12159928112E+02  0.14230379085E+02  0.26392496500E+02  0.32356319508E+02  0.00000000000E+00 0.  1.
         11    1    1    2    0    0  0.62886546762E+02  0.10740329203E+03 -0.34522433986E+02  0.12915875251E+03  0.00000000000E+00 0. -1.
</event>
<event>
 7    1  0.3265282E-009  0.1384482E+03  0.7561462E-02  0.1215432E+00
         -1   -1    0    0    0  501 -0.00000000000E+00  0.00000000000E+00  0.29507252733E+03  0.29507252733E+03  0.00000000000E+00 0.  1.
          1   -1    0    0  501    0  0.00000000000E+00 -0.00000000000E+00 -0.75707238506E+02  0.75707238506E+02  0.00000000000E+00 0. -1.
         25    2    1    2    0    0  0.94272909536E+02  0.37643875702E+02  0.13110534093E+03  0.20768684600E+03  0.12506307500E+03 0.  0.
          5    1    3    3  502    0 -0.95242346803E+00 -0.36744335321E+02  0.14568217415E+02  0.39758755606E+02  0.41800000000E+01 0.  1.
         -5    1    3    3    0  502  0.95225333004E+02  0.74388211023E+02  0.11653712351E+03  0.16792809039E+03  0.41800000000E+01 0.  1.
        -11    1    1    2    0    0 -0.67044339357E+01  0.15272187858E+02  0.51892110155E+02  0.54506699154E+02  0.00000000000E+00 0.  1.
         11    1    1    2    0    0 -0.87568475600E+02 -0.52916063560E+02  0.36367837744E+02  0.10858622069E+03  0.00000000000E+00 0. -1.
</event>
<event>
 7    1  0.3265282E-009  0.1284922E+03  0.7561462E-02  0.1229710E+00
          3   -1    0    0  501    0  0.00000000000E+00  0.00000000000E+00  0.57089886753E+02  0.57089886753E+02  0.00000000000E+00 0. -1.
         -3   -1    0    0    0  501 -0.00000000000E+00 -0.00000000000E+00 -0.30147831636E+03  0.30147831636E+03  0.00000000000E+00 0.  1.
         25    2    1    2    0    0  0.24534613751E+02  0.63107889187E+02 -0.12011149274E+03  0.18616679170E+03  0.12508697252E+03 0.  0.
          5    1    3    3  502    0  0.85569246563E+01  0.99918418644E+02 -0.97432769096E+02  0.13988398135E+03  0.41800000000E+01 0.  1.
         -5    1    3    3    0  502  0.15977689094E+02 -0.36810529457E+02 -0.22678723644E+02  0.46282810350E+02  0.41800000000E+01 0.  1.
        -11    1    1    2    0    0  0.50944600673E+01  0.23856399111E+02 -0.11586512187E+02  0.27006083881E+02  0.00000000000E+00 0. -1.
         11    1    1    2    0    0 -0.29629073818E+02 -0.86964288298E+02 -0.11269042468E+03  0.14539532753E+03  0.00000000000E+00 0.  1.
</event>
<event>
 7    1  0.3265282E-009  0.1051970E+03  0.7561462E-02  0.1269732E+00
          4   -1    0    0  501    0  0.00000000000E+00  0.00000000000E+00  0.17256528106E+03  0.17256528106E+03  0.00000000000E+00 0. -1.
         -4   -1    0    0    0  501 -0.00000000000E+00 -0.00000000000E+00 -0.94442777937E+02  0.94442777937E+02  0.00000000000E+00 0.  1.
         25    2    1    2    0    0  0.53154198827E+02  0.37976862192E+02  0.69409096702E+02  0.15726206723E+03  0.12508446814E+03 0.  0.
          5    1    3    3  502    0  0.64476255398E+02  0.53166463667E+02 -0.15604877948E+01  0.83688517081E+02  0.41800000000E+01 0.  1.
         -5    1    3    3    0  502 -0.11322056571E+02 -0.15189601476E+02  0.70969584497E+02  0.73573550150E+02  0.41800000000E+01 0.  1.
        -11    1    1    2    0    0 -0.38556346996E+02  0.22814077494E+02  0.14173440573E+02  0.46988939584E+02  0.00000000000E+00 0.  1.
         11    1    1    2    0    0 -0.14597851832E+02 -0.60790939686E+02 -0.54600341495E+01  0.62757052185E+02  0.00000000000E+00 0. -1.
</event>
<event>
 7    1  0.3265282E-009  0.1369629E+03  0.7561462E-02  0.1217475E+00
         -1   -1    0    0    0  501 -0.00000000000E+00  0.00000000000E+00  0.29795598107E+02  0.29795598107E+02  0.00000000000E+00 0.  1.
          1   -1    0    0  501    0  0.00000000000E+00 -0.00000000000E+00 -0.66528420431E+03  0.66528420431E+03  0.00000000000E+00 0. -1.
         25    2    1    2    0    0  0.70444969230E+02  0.50660060451E+02 -0.32072047575E+03  0.35501784073E+03  0.12508840177E+03 0.  0.
          5    1    3    3  502    0  0.28594391721E+02 -0.41287812361E+02 -0.12356482114E+03  0.13344684377E+03  0.41800000000E+01 0. -1.
         -5    1    3    3    0  502  0.41850577509E+02  0.91947872812E+02 -0.19715565460E+03  0.22157099696E+03  0.41800000000E+01 0. -1.
        -11    1    1    2    0    0 -0.20129113269E+02 -0.66650039939E+02 -0.12494728795E+03  0.14303577801E+03  0.00000000000E+00 0.  1.
         11    1    1    2    0    0 -0.50315855961E+02  0.15989979488E+02 -0.18982084250E+03  0.19702618367E+03  0.00000000000E+00 0. -1.
</event>
<event>
 7    1  0.3265282E-009  0.2537880E+03  0.7561462E-02  0.1110934E+00
          2   -1    0    0  501    0  0.00000000000E+00  0.00000000000E+00  0.42401182037E+03  0.42401182037E+03  0.00000000000E+00 0. -1.
         -2   -1    0    0    0  501 -0.00000000000E+00 -0.00000000000E+00 -0.22306229446E+03  0.22306229446E+03  0.00000000000E+00 0.  1.
         25    2    1    2    0    0  0.23353117208E+03  0.21607285233E+02 -0.73662449024E+02  0.27581908945E+03  0.12508529329E+03 0.  0.
          5    1    3    3  502    0  0.20984823287E+03  0.58922670003E+02 -0.77237452224E+02  0.23128177253E+03  0.41800000000E+01 0. -1.
         -5    1    3    3    0  502  0.23682939219E+02 -0.37315384770E+02  0.35750032002E+01  0.44537316920E+02  0.41800000000E+01 0. -1.
        -11    1    1    2    0    0 -0.20810167413E+03 -0.42343913961E+02  0.25895455347E+03  0.33489815555E+03  0.00000000000E+00 0. -1.
         11    1    1    2    0    0 -0.25429497953E+02  0.20736628728E+02  0.15657421462E+02  0.36356869832E+02  0.00000000000E+00 0.  1.
</event>
<event>
 7    1  0.3265282E-009  0.1047106E+03  0.7561462E-02  0.1270691E+00
         -2   -1    0    0    0  501 -0.00000000000E+00  0.00000000000E+00  0.15213415034E+03  0.15213415034E+03  0.00000000000E+00 0.  1.
          2   -1    0    0  501    0  0.00000000000E+00 -0.00000000000E+00 -0.11601024187E+03  0.11601024187E+03  0.00000000000E+00 0. -1.
         25    2    1    2    0    0  0.27061809165E+02  0.61747849538E+02 -0.16282467447E+02  0.14302960585E+03  0.12508881231E+03 0.  0.
          5    1    3    3  502    0  0.71597688725E+02  0.65316421181E+02 -0.14834194199E+02  0.98132510536E+02  0.41800000000E+01 0. -1.
         -5    1    3    3    0  502 -0.44535879560E+02 -0.35685716427E+01 -0.14482732479E+01  0.44897095309E+02  0.41800000000E+01 0. -1.
        -11    1    1    2    0    0 -0.22348998992E+02 -0.46667140204E+02 -0.16586319028E+02  0.54336044295E+02  0.00000000000E+00 0. -1.
         11    1    1    2    0    0 -0.47128101735E+01 -0.15080709334E+02  0.68992694943E+02  0.70778742072E+02  0.00000000000E+00 0.  1.
</event>
<event>
 7    1  0.3265282E-009  0.1213897E+03  0.7561462E-02  0.1240822E+00
          2   -1    0    0  501    0  0.00000000000E+00  0.00000000000E+00  0.20589801700E+04  0.20589801700E+04  0.00000000000E+00 0. -1.
         -2   -1    0    0    0  501 -0.00000000000E+00 -0.00000000000E+00 -0.18179586447E+02  0.18179586447E+02  0.00000000000E+00 0.  1.
         25    2    1    2    0    0 -0.61078424419E+02  0.23541313908E+02  0.18543140493E+04  0.18596808994E+04  0.12509071480E+03 0.  0.
          5    1    3    3  502    0 -0.67967345598E+02  0.62308087862E+02  0.94281685033E+03  0.94732409636E+03  0.41800000000E+01 0. -1.
         -5    1    3    3    0  502  0.68889211786E+01 -0.38766773953E+02  0.91149719892E+03  0.91235680303E+03  0.41800000000E+01 0. -1.
        -11    1    1    2    0    0  0.51101149628E+02  0.28079436040E+02  0.83430694234E+02  0.10178635941E+03  0.00000000000E+00 0. -1.
         11    1    1    2    0    0  0.99772747907E+01 -0.51620749948E+02  0.10305584002E+03  0.11569249759E+03  0.00000000000E+00 0.  1.
</event>
<event>
 7    1  0.3265282E-009  0.2216797E+03  0.7561462E-02  0.1132637E+00
          1   -1    0    0  501    0  0.00000000000E+00  0.00000000000E+00  0.28465315514E+03  0.28465315514E+03  0.00000000000E+00 0. -1.
         -1   -1    0    0    0  501 -0.00000000000E+00 -0.00000000000E+00 -0.20650503505E+03  0.20650503505E+03  0.00000000000E+00 0.  1.
         25    2    1    2    0    0 -0.68947672491E+02  0.19901494793E+03  0.90909327342E+02  0.26129125225E+03  0.12509149317E+03 0.  0.
          5    1    3    3  502    0  0.19366419533E+02  0.30272192690E+02 -0.19507274405E+02  0.41103163023E+02  0.41800000000E+01 0.  1.
         -5    1    3    3    0  502 -0.88314092024E+02  0.16874275524E+03  0.11041660175E+03  0.22018808923E+03  0.41800000000E+01 0.  1.
        -11    1    1    2    0    0 -0.59341681002E+01 -0.45376973337E+02 -0.34861332128E+02  0.57529092971E+02  0.00000000000E+00 0. -1.
         11    1    1    2    0    0  0.74881840591E+02 -0.15363797460E+03  0.22100124875E+02  0.17233784497E+03  0.00000000000E+00 0.  1.
</event>
<event>
 7    1  0.3265282E-009  0.1119044E+03  0.7561462E-02  0.1257083E+00
          3   -1    0    0  501    0  0.00000000000E+00  0.00000000000E+00  0.19504929126E+03  0.19504929126E+03  0.00000000000E+00 0. -1.
         -3   -1    0    0    0  501 -0.00000000000E+00 -0.00000000000E+00 -0.97077992306E+02  0.97077992306E+02  0.00000000000E+00 0.  1.
         25    2    1    2    0    0 -0.12405057665E+02  0.72839143521E+02  0.96128911657E+02  0.17420591184E+03  0.12508999073E+03 0.  0.
          5    1    3    3  502    0 -0.13741207938E+02  0.10838710149E+03  0.75540144765E+02  0.13289232648E+03  0.41800000000E+01 0.  1.
         -5    1    3    3    0  502  0.13361502738E+01 -0.35547957973E+02  0.20588766891E+02  0.41313585365E+02  0.41800000000E+01 0.  1.
        -11    1    1    2    0    0 -0.13871693958E+00 -0.62223452368E+02  0.41635647952E+02  0.74868581176E+02  0.00000000000E+00 0. -1.
         11    1    1    2    0    0  0.12543774604E+02 -0.10615691153E+02 -0.39793260656E+02  0.43052790544E+02  0.00000000000E+00 0.  1.
</event>
<event>
 7    1  0.3265282E-009  0.1304847E+03  0.7561462E-02  0.1226738E+00
          1   -1    0    0  501    0  0.00000000000E+00  0.00000000000E+00  0.12773940191E+03  0.12773940191E+03  0.00000000000E+00 0. -1.
         -1   -1    0    0    0  501 -0.00000000000E+00 -0.00000000000E+00 -0.13748986465E+03  0.13748986465E+03  0.00000000000E+00 0.  1.
         25    2    1    2    0    0  0.72061610108E+02  0.22456268968E+02 -0.26339261754E+01  0.14612841192E+03  0.12509762402E+03 0.  0.
          5    1    3    3  502    0 -0.34529188494E+02  0.48385748703E+01  0.11812506498E+02  0.37049755392E+02  0.41800000000E+01 0. -1.
         -5    1    3    3    0  502  0.10659079860E+03  0.17617694097E+02 -0.14446432673E+02  0.10907865652E+03  0.41800000000E+01 0. -1.
        -11    1    1    2    0    0  0.12862193579E+02 -0.29837243597E+02  0.54184766394E+01  0.32940203676E+02  0.00000000000E+00 0. -1.
         11    1    1    2    0    0 -0.84923803687E+02  0.73809746289E+01 -0.12535013207E+02  0.86160650968E+02  0.00000000000E+00 0.  1.
</event>
<event>
 7    1  0.3265282E-009  0.2925148E+03  0.7561462E-02  0.1089043E+00
          1   -1    0    0  501    0  0.00000000000E+00  0.00000000000E+00  0.45838466286E+03  0.45838466286E+03  0.00000000000E+00 0. -1.
         -1   -1    0    0    0  501 -0.00000000000E+00 -0.00000000000E+00 -0.20007995434E+03  0.20007995434E+03  0.00000000000E+00 0.  1.
         25    2    1    2    0    0 -0.10716711492E+03 -0.25640069744E+03  0.18242991502E+03  0.35518202492E+03  0.12508992271E+03 0.  0.
          5    1    3    3  502    0  0.18917304908E+02 -0.41693120493E+02 -0.84688010818E+00  0.45982282755E+02  0.41800000000E+01 0. -1.
         -5    1    3    3    0  502 -0.12608441983E+03 -0.21470757695E+03  0.18327679513E+03  0.30919974217E+03  0.41800000000E+01 0. -1.
        -11    1    1    2    0    0  0.55431587781E+02  0.21973267852E+03  0.78468215582E+02  0.23981737175E+03  0.00000000000E+00 0. -1.
         11    1    1    2    0    0  0.51735527141E+02  0.36668018920E+02 -0.25934220806E+01  0.63465220540E+02  0.00000000000E+00 0.  1.
</event>
<event>
 7    1  0.3265282E-009  0.1247819E+03  0.7561462E-02  0.1235411E+00
          2   -1    0    0  501    0  0.00000000000E+00  0.00000000000E+00  0.12037016871E+04  0.12037016871E+04  0.00000000000E+00 0. -1.
         -2   -1    0    0    0  501 -0.00000000000E+00 -0.00000000000E+00 -0.15032914920E+02  0.15032914920E+02  0.00000000000E+00 0.  1.
         25    2    1    2    0    0 -0.45011560962E+02  0.54059393243E+02  0.55232130920E+03  0.57066740813E+03  0.12511596016E+03 0.  0.
          5    1    3    3  502    0  0.31819688071E+02 -0.22649843822E+01  0.28572116872E+03  0.28752683589E+03  0.41800000000E+01 0. -1.
         -5    1    3    3    0  502 -0.76831249033E+02  0.56324377625E+02  0.26660014048E+03  0.28314057224E+03  0.41800000000E+01 0. -1.
        -11    1    1    2    0    0  0.68931619518E+02 -0.70530526877E+01  0.39403567656E+03  0.40008177679E+03  0.00000000000E+00 0. -1.
         11    1    1    2    0    0 -0.23920058556E+02 -0.47006340555E+02  0.24231178642E+03  0.24798541710E+03  0.00000000000E+00 0.  1.
</event>
<event>
 7    1  0.3265282E-009  0.1235575E+03  0.7561462E-02  0.1237341E+00
          2   -1    0    0  501    0  0.00000000000E+00  0.00000000000E+00  0.29282593720E+02  0.29282593720E+02  0.00000000000E+00 0.  1.
         -2   -1    0    0    0  501 -0.00000000000E+00 -0.00000000000E+00 -0.95211389310E+03  0.95211389310E+03  0.00000000000E+00 0. -1.
         25    2    1    2    0    0 -0.60161028523E+02 -0.72276941050E+02 -0.28599621313E+03  0.32601610429E+03  0.12509740514E+03 0.  0.
          5    1    3    3  502    0 -0.29155912922E+02 -0.23650791507E+02 -0.25980989481E+03  0.26254157964E+03  0.41800000000E+01 0. -1.
         -5    1    3    3    0  502 -0.31005115601E+02 -0.48626149543E+02 -0.26186318317E+02  0.63474524652E+02  0.41800000000E+01 0. -1.
        -11    1    1    2    0    0 -0.29723033349E+02 -0.82419432571E+01 -0.82877738072E+02  0.88431373438E+02  0.00000000000E+00 0.  1.
         11    1    1    2    0    0  0.89884061872E+02  0.80518884307E+02 -0.55395734818E+03  0.56694900909E+03  0.00000000000E+00 0. -1.
</event>
<event>
 7    1  0.3265282E-009  0.1675018E+03  0.7561462E-02  0.1180478E+00
          1   -1    0    0  501    0  0.00000000000E+00  0.00000000000E+00  0.53921540446E+03  0.53921540446E+03  0.00000000000E+00 0. -1.
         -1   -1    0    0    0  501 -0.00000000000E+00 -0.00000000000E+00 -0.11460183367E+03  0.11460183367E+03  0.00000000000E+00 0.  1.
         25    2    1    2    0    0 -0.14682864532E+03 -0.31161666071E+02  0.43249601151E+03  0.47458439727E+03  0.12509136518E+03 0.  0.
          5    1    3    3  502    0 -0.64948250602E+02 -0.39282938956E+02  0.34937806402E+03  0.35755269341E+03  0.41800000000E+01 0. -1.
         -5    1    3    3    0  502 -0.81880394721E+02  0.81212728849E+01  0.83117947489E+02  0.11703170386E+03  0.41800000000E+01 0. -1.
        -11    1    1    2    0    0  0.48473429172E+02  0.57078243474E+02 -0.18004717488E+02  0.77017978846E+02  0.00000000000E+00 0.  1.
         11    1    1    2    0    0  0.98355216151E+02 -0.25916577403E+02  0.10122276769E+02  0.10221486201E+03  0.00000000000E+00 0. -1.
</event>
<event>
 7    1  0.3265282E-009  0.9502224E+02  0.7561462E-02  0.1291126E+00
         -1   -1    0    0    0  501 -0.00000000000E+00  0.00000000000E+00  0.14626434347E+02  0.14626434347E+02  0.00000000000E+00 0.  1.
          1   -1    0    0  501    0  0.00000000000E+00 -0.00000000000E+00 -0.98368527376E+03  0.98368527376E+03  0.00000000000E+00 0. -1.
         25    2    1    2    0    0 -0.22369348172E+02  0.41730390969E+02 -0.63216447984E+03  0.64615898837E+03  0.12509074869E+03 0.  0.
          5    1    3    3  502    0  0.75802363702E+01 -0.21877237676E+02 -0.45355629021E+03  0.45416610871E+03  0.41800000000E+01 0. -1.
         -5    1    3    3    0  502 -0.29949584542E+02  0.63607628645E+02 -0.17860818963E+03  0.19199287966E+03  0.41800000000E+01 0. -1.
        -11    1    1    2    0    0  0.26311433077E+02  0.20733501766E+02 -0.18260099494E+03  0.18564830448E+03  0.00000000000E+00 0.  1.
         11    1    1    2    0    0 -0.39420849053E+01 -0.62463892735E+02 -0.15429336464E+03  0.16650441526E+03  0.00000000000E+00 0. -1.
</event>
<event>
 7    1  0.3265282E-009  0.1503910E+03  0.7561462E-02  0.1199993E+00
          2   -1    0    0  501    0  0.00000000000E+00  0.00000000000E+00  0.54969145676E+03  0.54969145676E+03  0.00000000000E+00 0. -1.
         -2   -1    0    0    0  501 -0.00000000000E+00 -0.00000000000E+00 -0.54524845183E+02  0.54524845183E+02  0.00000000000E+00 0.  1.
         25    2    1    2    0    0  0.11501113514E+03  0.36095893372E+02  0.15764201595E+03  0.23458356467E+03  0.12509184185E+03 0.  0.
          5    1    3    3  502    0  0.53492757213E+02 -0.38226269031E+02  0.10670309760E+03  0.12540233712E+03  0.41800000000E+01 0. -1.
         -5    1    3    3    0  502  0.61518377924E+02  0.74322162404E+02  0.50938918353E+02  0.10918122755E+03  0.41800000000E+01 0. -1.
        -11    1    1    2    0    0 -0.44685887722E+02  0.19431158701E+02  0.19726833046E+03  0.20319742295E+03  0.00000000000E+00 0. -1.
         11    1    1    2    0    0 -0.70325247414E+02 -0.55527052073E+02  0.14025626517E+03  0.16643531432E+03  0.00000000000E+00 0.  1.
</event>
<event>
 7    1  0.3265282E-009  0.2024549E+03  0.7561462E-02  0.1147684E+00
         -2   -1    0    0    0  501 -0.00000000000E+00  0.00000000000E+00  0.29047692859E+02  0.29047692859E+02  0.00000000000E+00 0.  1.
          2   -1    0    0  501    0  0.00000000000E+00 -0.00000000000E+00 -0.14535857059E+04  0.14535857059E+04  0.00000000000E+00 0. -1.
         25    2    1    2    0    0 -0.17178268894E+03  0.31466899804E+02 -0.70957369372E+03  0.74137845571E+03  0.12509088602E+03 0.  0.
          5    1    3    3  502    0 -0.86364346705E+02  0.74187876512E+02 -0.30284992285E+03  0.32357099619E+03  0.41800000000E+01 0.  1.
         -5    1    3    3    0  502 -0.85418342239E+02 -0.42720976708E+02 -0.40672377087E+03  0.41780745952E+03  0.41800000000E+01 0.  1.
        -11    1    1    2    0    0  0.86158585310E+02 -0.60154215254E+02 -0.40431947952E+03  0.41775120940E+03  0.00000000000E+00 0. -1.
         11    1    1    2    0    0  0.85624103634E+02  0.28687315449E+02 -0.31064483978E+03  0.32350373363E+03  0.00000000000E+00 0.  1.
</event>
<event>
 7    1  0.3265282E-009  0.1325975E+03  0.7561462E-02  0.1223652E+00
         -2   -1    0    0    0  501 -0.00000000000E+00  0.00000000000E+00  0.13543652454E+03  0.13543652454E+03  0.00000000000E+00 0.  1.
          2   -1    0    0  501    0  0.00000000000E+00 -0.00000000000E+00 -0.17226777899E+03  0.17226777899E+03  0.00000000000E+00 0. -1.
         25    2    1    2    0    0  0.82738663517E+02 -0.64873480456E+02 -0.40268722027E+02  0.16829393152E+03  0.12508805901E+03 0.  0.
          5    1    3    3  502    0  0.38319768273E+02  0.30175016794E+02  0.12866933216E+02  0.50615873492E+02  0.41800000000E+01 0.  1.
         -5    1    3    3    0  502  0.44418895244E+02 -0.95048497250E+02 -0.53135655243E+02  0.11767805803E+03  0.41800000000E+01 0.  1.
        -11    1    1    2    0    0 -0.18027405147E+02  0.36247670049E+02 -0.39566598989E+02  0.56607390647E+02  0.00000000000E+00 0. -1.
         11    1    1    2    0    0 -0.64711258369E+02  0.28625810406E+02  0.43004066559E+02  0.82802981358E+02  0.00000000000E+00 0.  1.
</event>
<event>
 7    1  0.3265282E-009  0.1034384E+03  0.7561462E-02  0.1273227E+00
         -1   -1    0    0    0  501 -0.00000000000E+00  0.00000000000E+00  0.36778340386E+03  0.36778340386E+03  0.00000000000E+00 0.  1.
          1   -1    0    0  501    0  0.00000000000E+00 -0.00000000000E+00 -0.56227711372E+02  0.56227711372E+02  0.00000000000E+00 0. -1.
         25    2    1    2    0    0 -0.62628272930E+02 -0.49222497856E+02  0.24388747394E+03  0.28543607095E+03  0.12508995080E+03 0.  0.
          5    1    3    3  502    0  0.50411970473E+01 -0.13474801174E+01  0.18145512511E+03  0.18157825916E+03  0.41800000000E+01 0.  1.
         -5    1    3    3    0  502 -0.67669469978E+02 -0.47875017739E+02  0.62432348829E+02  0.10385781179E+03  0.41800000000E+01 0.  1.
        -11    1    1    2    0    0  0.43883993786E+02 -0.17980688683E+02  0.44573021857E+02  0.65083518294E+02  0.00000000000E+00 0. -1.
         11    1    1    2    0    0  0.18744279145E+02  0.67203186540E+02  0.23095196697E+02  0.73491525989E+02  0.00000000000E+00 0.  1.
</event>
<event>
 7    1  0.3265282E-009  0.1976768E+03  0.7561462E-02  0.1151714E+00
          1   -1    0    0  501    0  0.00000000000E+00  0.00000000000E+00  0.87738107907E+03  0.87738107907E+03  0.00000000000E+00 0. -1.
         -1   -1    0    0    0  501 -0.00000000000E+00 -0.00000000000E+00 -0.47287593173E+02  0.47287593173E+02  0.00000000000E+00 0.  1.
         25    2    1    2    0    0 -0.13858596356E+03 -0.90798644718E+02  0.53601795892E+03  0.57481543279E+03  0.12508823408E+03 0.  0.
          5    1    3    3  502    0 -0.15925223747E+03 -0.59912288717E+02  0.44040195582E+03  0.47214628302E+03  0.41800000000E+01 0.  1.
         -5    1    3    3    0  502  0.20666273917E+02 -0.30886356002E+02  0.95616003100E+02  0.10266914977E+03  0.41800000000E+01 0.  1.
        -11    1    1    2    0    0  0.45874397542E+02 -0.13875764568E+02  0.97207019171E+02  0.10837989559E+03  0.00000000000E+00 0.  1.
         11    1    1    2    0    0  0.92711566015E+02  0.10467440929E+03  0.19686850781E+03  0.24147334387E+03  0.00000000000E+00 0. -1.
</event>
<event>
 7    1  0.3265282E-009  0.1165330E+03  0.7561462E-02  0.1248929E+00
         -3   -1    0    0    0  501 -0.00000000000E+00  0.00000000000E+00  0.22758254867E+02  0.22758254867E+02  0.00000000000E+00 0.  1.
          3   -1    0    0  501    0  0.00000000000E+00 -0.00000000000E+00 -0.97370920973E+03  0.97370920973E+03  0.00000000000E+00 0. -1.
         25    2    1    2    0    0 -0.36355688313E+02 -0.77077222046E+02 -0.69559750360E+03  0.71187552101E+03  0.12509291014E+03 0.  0.
          5    1    3    3  502    0 -0.52021807715E+02 -0.31911852678E+02 -0.12401056232E+03  0.13827771616E+03  0.41800000000E+01 0. -1.
         -5    1    3    3    0  502  0.15666119402E+02 -0.45165369368E+02 -0.57158694128E+03  0.57359780485E+03  0.41800000000E+01 0. -1.
        -11    1    1    2    0    0  0.56899674575E+02  0.15472798698E+02 -0.98108098772E+02  0.11446475226E+03  0.00000000000E+00 0.  1.
         11    1    1    2    0    0 -0.20543986262E+02  0.61604423348E+02 -0.15724535250E+03  0.17012719133E+03  0.00000000000E+00 0. -1.
</event>
<event>
 7    1  0.3265282E-009  0.6520534E+02  0.7561462E-02  0.1377201E+00
         -1   -1    0    0    0  501 -0.00000000000E+00  0.00000000000E+00  0.47983030462E+02  0.47983030462E+02  0.00000000000E+00 0.  1.
          1   -1    0    0  501    0  0.00000000000E+00 -0.00000000000E+00 -0.27281067631E+03  0.27281067631E+03  0.00000000000E+00 0. -1.
         25    2    1    2    0    0  0.30550893786E+02 -0.10660320489E+01 -0.11548504518E+03  0.17297233820E+03  0.12509252811E+03 0.  0.
          5    1    3    3  502    0 -0.13414446232E+02 -0.16335155511E+02  0.20157988351E+02  0.29505958172E+02  0.41800000000E+01 0.  1.
         -5    1    3    3    0  502  0.43965340018E+02  0.15269123462E+02 -0.13564303353E+03  0.14346638003E+03  0.41800000000E+01 0.  1.
        -11    1    1    2    0    0 -0.80739176977E+01  0.26786900531E+02 -0.11015627094E+03  0.11365355346E+03  0.00000000000E+00 0. -1.
         11    1    1    2    0    0 -0.22476976088E+02 -0.25720868482E+02  0.81367027474E+00  0.34167815102E+02  0.00000000000E+00 0.  1.
</event>
<event>
 7    1  0.3265282E-009  0.2245542E+03  0.7561462E-02  0.1130533E+00
         -1   -1    0    0    0  501 -0.00000000000E+00  0.00000000000E+00  0.40323283892E+02  0.40323283892E+02  0.00000000000E+00 0.  1.
          1   -1    0    0  501    0  0.00000000000E+00 -0.00000000000E+00 -0.16371742440E+04  0.16371742440E+04  0.00000000000E+00 0. -1.
         25    2    1    2    0    0  0.59884269778E+02 -0.20344851643E+03 -0.11331667874E+04  0.11596079585E+04  0.12508487071E+03 0.  0.
          5    1    3    3  502    0  0.53611874008E+02 -0.77631067810E+02 -0.24549943242E+03  0.26303661236E+03  0.41800000000E+01 0.  1.
         -5    1    3    3    0  502  0.62723957701E+01 -0.12581744862E+03 -0.88766735493E+03  0.89657134615E+03  0.41800000000E+01 0.  1.
        -11    1    1    2    0    0 -0.21051620601E+02  0.18399563319E+03 -0.40015696418E+03  0.44093441660E+03  0.00000000000E+00 0. -1.
         11    1    1    2    0    0 -0.38832649177E+02  0.19452883238E+02 -0.63527208543E+02  0.76955152743E+02  0.00000000000E+00 0.  1.
</event>
<event>
 7    1  0.3265282E-009  0.1348579E+03  0.7561462E-02  0.1220420E+00
          1   -1    0    0  501    0  0.00000000000E+00  0.00000000000E+00  0.17200930422E+03  0.17200930422E+03  0.00000000000E+00 0. -1.
         -1   -1    0    0    0  501 -0.00000000000E+00 -0.00000000000E+00 -0.11432156488E+03  0.11432156488E+03  0.00000000000E+00 0.  1.
         25    2    1    2    0    0 -0.95158528163E+02 -0.22519542832E+01  0.88308388488E+01  0.15741396768E+03  0.12506381062E+03 0.  0.
          5    1    3    3  502    0 -0.54754692614E+02  0.59592080889E+02  0.17541055523E+02  0.82912324155E+02  0.41800000000E+01 0.  1.
         -5    1    3    3    0  502 -0.40403835549E+02 -0.61844035172E+02 -0.87102166740E+01  0.74501643525E+02  0.41800000000E+01 0.  1.
        -11    1    1    2    0    0  0.66463201870E+02 -0.28777202928E+02  0.13195388549E+02  0.73617952227E+02  0.00000000000E+00 0.  1.
         11    1    1    2    0    0  0.28695326293E+02  0.31029157212E+02  0.35661511937E+02  0.55298949194E+02  0.00000000000E+00 0. -1.
</event>
<event>
 7    1  0.3265282E-009  0.8260216E+02  0.7561462E-02  0.1321825E+00
          2   -1    0    0  501    0  0.00000000000E+00  0.00000000000E+00  0.19094736709E+03  0.19094736709E+03  0.00000000000E+00 0. -1.
         -2   -1    0    0    0  501 -0.00000000000E+00 -0.00000000000E+00 -0.79615864693E+02  0.79615864693E+02  0.00000000000E+00 0.  1.
         25    2    1    2    0    0  0.40648748081E+02 -0.33690117416E+02  0.30584283840E+02  0.13916937081E+03  0.12508145595E+03 0.  0.
          5    1    3    3  502    0  0.19035993158E+01  0.49190922674E+01  0.70819445224E+02  0.71138508425E+02  0.41800000000E+01 0. -1.
         -5    1    3    3    0  502  0.38745148765E+02 -0.38609209683E+02 -0.40235161384E+02  0.68030862385E+02  0.41800000000E+01 0. -1.
        -11    1    1    2    0    0  0.25205797852E+02  0.27759858948E+02  0.30925981446E+02  0.48604098002E+02  0.00000000000E+00 0.  1.
         11    1    1    2    0    0 -0.65854545934E+02  0.59302584675E+01  0.49821237112E+02  0.82789762972E+02  0.00000000000E+00 0. -1.
</event>
<event>
 7    1  0.3265282E-009  0.1750076E+03  0.7561462E-02  0.1172724E+00
          1   -1    0    0  501    0  0.00000000000E+00  0.00000000000E+00  0.16019993626E+03  0.16019993626E+03  0.00000000000E+00 0. -1.
         -1   -1    0    0    0  501 -0.00000000000E+00 -0.00000000000E+00 -0.19677312024E+03  0.19677312024E+03  0.00000000000E+00 0.  1.
         25    2    1    2    0    0 -0.33404117640E+02 -0.13570190558E+03 -0.17096631097E+02  0.18833663699E+03  0.12509017462E+03 0.  0.
          5    1    3    3  502    0 -0.61384839071E+02 -0.17962558107E+02 -0.20209384640E+02  0.67205978819E+02  0.41800000000E+01 0.  1.
         -5    1    3    3    0  502  0.27980721431E+02 -0.11773934747E+03  0.31127535423E+01  0.12113065817E+03  0.41800000000E+01 0.  1.
        -11    1    1    2    0    0  0.42319143074E+02  0.16702117348E+02 -0.18995664310E+02  0.49302189170E+02  0.00000000000E+00 0.  1.
         11    1    1    2    0    0 -0.89150254335E+01  0.11899978823E+03 -0.48088856773E+00  0.11933423034E+03  0.00000000000E+00 0. -1.
</event>
<event>
 7    1  0.3265282E-009  0.1013115E+03  0.7561462E-02  0.1277562E+00
          3   -1    0    0  501    0  0.00000000000E+00  0.00000000000E+00  0.48927376672E+02  0.48927376672E+02  0.00000000000E+00 0. -1.
         -3   -1    0    0    0  501 -0.00000000000E+00 -0.00000000000E+00 -0.31545836652E+03  0.31545836652E+03  0.00000000000E+00 0.  1.
         25    2    1    2    0    0 -0.50965449724E+02 -0.33414969461E+02 -0.14528190220E+03  0.20116790905E+03  0.12509060427E+03 0.  0.
          5    1    3    3  502    0  0.22628148654E+00 -0.43592468686E+02 -0.14211727349E+03  0.14871162144E+03  0.41800000000E+01 0.  1.
         -5    1    3    3    0  502 -0.51191731211E+02  0.10177499225E+02 -0.31646287117E+01  0.52456287609E+02  0.41800000000E+01 0.  1.
        -11    1    1    2    0    0  0.53979162919E+02 -0.16514437007E+02 -0.45790595870E+02  0.72686005044E+02  0.00000000000E+00 0. -1.
         11    1    1    2    0    0 -0.30137131945E+01  0.49929406468E+02 -0.75458491783E+02  0.90531829097E+02  0.00000000000E+00 0.  1.
</event>
<event>
 7    1  0.3265282E-009  0.1158073E+03  0.7561462E-02  0.1250179E+00
         -1   -1    0    0    0  501 -0.00000000000E+00  0.00000000000E+00  0.17680588938E+03  0.17680588938E+03  0.00000000000E+00 0.  1.
          1   -1    0    0  501    0  0.00000000000E+00 -0.00000000000E+00 -0.15764967067E+03  0.15764967067E+03  0.00000000000E+00 0. -1.
         25    2    1    2    0    0 -0.76580885918E+02 -0.11463843243E+02 -0.90006674904E+02  0.17246578024E+03  0.12508873664E+03 0.  0.
          5    1    3    3  502    0 -0.60268625582E+02  0.32942704093E+02 -0.10240994385E+03  0.12338070344E+03  0.41800000000E+01 0. -1.
         -5    1    3    3    0  502 -0.16312260336E+02 -0.44406547335E+02  0.12403268944E+02  0.49085076795E+02  0.41800000000E+01 0. -1.
        -11    1    1    2    0    0  0.18518045567E+02 -0.35890518793E+02  0.60175581855E+02  0.72471704840E+02  0.00000000000E+00 0. -1.
         11    1    1    2    0    0  0.58062840351E+02  0.47354362036E+02  0.48987311754E+02  0.89518074970E+02  0.00000000000E+00 0.  1.
</event>
<event>
 7    1  0.3265282E-009  0.1058758E+03  0.7561462E-02  0.1268404E+00
         -1   -1    0    0    0  501 -0.00000000000E+00  0.00000000000E+00  0.10181762602E+03  0.10181762602E+03  0.00000000000E+00 0.  1.
          1   -1    0    0  501    0  0.00000000000E+00 -0.00000000000E+00 -0.14625827470E+03  0.14625827470E+03  0.00000000000E+00 0. -1.
         25    2    1    2    0    0  0.74082856236E+01 -0.47556637190E+02 -0.48571245849E+02  0.14254734561E+03  0.12507623028E+03 0.  0.
          5    1    3    3  502    0 -0.23082477944E+02  0.21520463034E+02 -0.58176768181E+02  0.66316965199E+02  0.41800000000E+01 0.  1.
         -5    1    3    3    0  502  0.30490763568E+02 -0.69077100224E+02  0.96055223320E+01  0.76230380411E+02  0.41800000000E+01 0.  1.
        -11    1    1    2    0    0  0.42705583844E+02  0.22208253234E+02  0.96679881732E+01  0.49096266645E+02  0.00000000000E+00 0. -1.
         11    1    1    2    0    0 -0.50113869468E+02  0.25348383956E+02 -0.55373909968E+01  0.56432288464E+02  0.00000000000E+00 0.  1.
</event>
<event>
 7    1  0.3265282E-009  0.1509260E+03  0.7561462E-02  0.1199340E+00
         -2   -1    0    0    0  501 -0.00000000000E+00  0.00000000000E+00  0.16073137017E+02  0.16073137017E+02  0.00000000000E+00 0. -1.
          2   -1    0    0  501    0  0.00000000000E+00 -0.00000000000E+00 -0.20140594053E+04  0.20140594053E+04  0.00000000000E+00 0.  1.
         25    2    1    2    0    0  0.14855655024E+02 -0.12600045376E+03 -0.14263179401E+04  0.14374028593E+04  0.12508920312E+03 0.  0.
          5    1    3    3  502    0  0.35802157414E+02 -0.12103299919E+03 -0.73737927143E+03  0.74811526098E+03  0.41800000000E+01 0. -1.
         -5    1    3    3    0  502 -0.20946502391E+02 -0.49674545680E+01 -0.68893866869E+03  0.68928759831E+03  0.41800000000E+01 0. -1.
        -11    1    1    2    0    0  0.23404344032E+02  0.15706732285E+01 -0.13673088069E+03  0.13872838235E+03  0.00000000000E+00 0.  1.
         11    1    1    2    0    0 -0.38259999055E+02  0.12442978053E+03 -0.43493744748E+03  0.45400130069E+03  0.00000000000E+00 0. -1.
</event>
<event>
 7    1  0.3265282E-009  0.1584349E+03  0.7561462E-02  0.1190475E+00
         -2   -1    0    0    0  501 -0.00000000000E+00  0.00000000000E+00  0.46934334292E+02  0.46934334292E+02  0.00000000000E+00 0. -1.
          2   -1    0    0  501    0  0.00000000000E+00 -0.00000000000E+00 -0.58625802778E+03  0.58625802778E+03  0.00000000000E+00 0.  1.
         25    2    1    2    0    0  0.10125259522E+03 -0.58001800155E+02 -0.20086294300E+03  0.26383497854E+03  0.12508667861E+03 0.  0.
          5    1    3    3  502    0 -0.96558849672E+01  0.27418578433E+02 -0.22165044098E+02  0.36793696983E+02  0.41800000000E+01 0. -1.
         -5    1    3    3    0  502  0.11090848019E+03 -0.85420378588E+02 -0.17869789891E+03  0.22704128155E+03  0.41800000000E+01 0. -1.
        -11    1    1    2    0    0 -0.10442949299E+03  0.76009798909E+02 -0.30509183383E+03  0.33130655835E+03  0.00000000000E+00 0.  1.
         11    1    1    2    0    0  0.31768977674E+01 -0.18007998754E+02 -0.33368916657E+02  0.38050825187E+02  0.00000000000E+00 0. -1.
</event>
<event>
 7    1  0.3265282E-009  0.8572257E+02  0.7561462E-02  0.1313554E+00
          3   -1    0    0  501    0  0.00000000000E+00  0.00000000000E+00  0.18766290792E+03  0.18766290792E+03  0.00000000000E+00 0. -1.
         -3   -1    0    0    0  501 -0.00000000000E+00 -0.00000000000E+00 -0.77192943591E+02  0.77192943591E+02  0.00000000000E+00 0.  1.
         25    2    1    2    0    0 -0.20211164567E+02 -0.40229941772E+02  0.40407923730E+02  0.13895060975E+03  0.12509009657E+03 0.  0.
          5    1    3    3  502    0  0.46922922927E+02 -0.30878275613E+02 -0.60773356866E+01  0.56653640747E+02  0.41800000000E+01 0. -1.
         -5    1    3    3    0  502 -0.67134087493E+02 -0.93516661594E+01  0.46485259417E+02  0.82296969000E+02  0.41800000000E+01 0. -1.
        -11    1    1    2    0    0  0.18795845325E+02  0.22056288515E+02 -0.19225335478E+02  0.34776100827E+02  0.00000000000E+00 0.  1.
         11    1    1    2    0    0  0.14153192420E+01  0.18173653258E+02  0.89287376075E+02  0.91129140936E+02  0.00000000000E+00 0. -1.
</event>
<event>
 7    1  0.3265282E-009  0.1303070E+03  0.7561462E-02  0.1227001E+00
         -2   -1    0    0    0  501 -0.00000000000E+00  0.00000000000E+00  0.21952285645E+03  0.21952285645E+03  0.00000000000E+00 0. -1.
          2   -1    0    0  501    0  0.00000000000E+00 -0.00000000000E+00 -0.79432443611E+02  0.79432443611E+02  0.00000000000E+00 0.  1.
         25    2    1    2    0    0  0.71616086545E+02  0.27561707869E+02  0.67438124417E+02  0.16150153684E+03  0.12508530763E+03 0.  0.
          5    1    3    3  502    0  0.72338420711E+01  0.67781958057E+02  0.17372706283E+02  0.70469891675E+02  0.41800000000E+01 0.  1.
         -5    1    3    3    0  502  0.64382244474E+02 -0.40220250188E+02  0.50065418134E+02  0.91031645166E+02  0.41800000000E+01 0.  1.
        -11    1    1    2    0    0  0.20565733026E+02 -0.79338505172E+01  0.18348894872E+02  0.28680608465E+02  0.00000000000E+00 0.  1.
         11    1    1    2    0    0 -0.92181819571E+02 -0.19627857352E+02  0.54303393548E+02  0.10877315475E+03  0.00000000000E+00 0. -1.
</event>
<event>
 7    1  0.3265282E-009  0.5651311E+03  0.7561462E-02  0.9980511E-01
         -2   -1    0    0    0  501 -0.00000000000E+00  0.00000000000E+00  0.38979324809E+03  0.38979324809E+03  0.00000000000E+00 0.  1.
          2   -1    0    0  501    0  0.00000000000E+00 -0.00000000000E+00 -0.83961914334E+03  0.83961914334E+03  0.00000000000E+00 0. -1.
         25    2    1    2    0    0 -0.17885538358E+03  0.53200683595E+03 -0.23903306554E+03  0.62274034266E+03  0.12509279046E+03 0.  0.
          5    1    3    3  502    0 -0.12620964892E+03  0.42080137018E+03 -0.23792190310E+03  0.49962683375E+03  0.41800000000E+01 0.  1.
         -5    1    3    3    0  502 -0.52645734662E+02  0.11120546577E+03 -0.11111624375E+01  0.12311350891E+03  0.41800000000E+01 0.  1.
        -11    1    1    2    0    0  0.14030290876E+03 -0.49452744327E+03 -0.17963306267E+03  0.54452762607E+03  0.00000000000E+00 0.  1.
         11    1    1    2    0    0  0.38552474814E+02 -0.37479392677E+02 -0.31159767048E+02  0.62144422696E+02  0.00000000000E+00 0. -1.
</event>
<event>
 7    1  0.3265282E-009  0.8205736E+02  0.7561462E-02  0.1323312E+00
         -1   -1    0    0    0  501 -0.00000000000E+00  0.00000000000E+00  0.24770168995E+03  0.24770168995E+03  0.00000000000E+00 0.  1.
          1   -1    0    0  501    0  0.00000000000E+00 -0.00000000000E+00 -0.54204027507E+02  0.54204027507E+02  0.00000000000E+00 0. -1.
         25    2    1    2    0    0 -0.21539351423E+02 -0.32161103436E+02  0.92234201240E+02  0.16017019335E+03  0.12509621387E+03 0.  0.
          5    1    3    3  502    0  0.18586830582E+02  0.68594147411E+00 -0.25275954624E+02  0.31658917684E+02  0.41800000000E+01 0.  1.
         -5    1    3    3    0  502 -0.40126182005E+02 -0.32847044910E+02  0.11751015586E+03  0.12851127566E+03  0.41800000000E+01 0.  1.
        -11    1    1    2    0    0 -0.31574155800E+02  0.23157213273E+02  0.19301853246E+02  0.43654843715E+02  0.00000000000E+00 0.  1.
         11    1    1    2    0    0  0.53113507223E+02  0.90038901627E+01  0.81961607958E+02  0.98080680395E+02  0.00000000000E+00 0. -1.
</event>
<event>
 7    1  0.3265282E-009  0.1054184E+03  0.7561462E-02  0.1269297E+00
         -2   -1    0    0    0  501 -0.00000000000E+00  0.00000000000E+00  0.27170524825E+02  0.27170524825E+02  0.00000000000E+00 0. -1.
          2   -1    0    0  501    0  0.00000000000E+00 -0.00000000000E+00 -0.69637687387E+03  0.69637687387E+03  0.00000000000E+00 0.  1.
         25    2    1    2    0    0 -0.24799524102E+02 -0.78244757938E+02 -0.30690429272E+03  0.34143105431E+03  0.12509061283E+03 0.  0.
          5    1    3    3  502    0  0.37781349089E+02 -0.26588840229E+02 -0.36334913534E+02  0.58924486466E+02  0.41800000000E+01 0. -1.
         -5    1    3    3    0  502 -0.62580873191E+02 -0.51655917709E+02 -0.27056937919E+03  0.28250656785E+03  0.41800000000E+01 0. -1.
        -11    1    1    2    0    0  0.15274547976E+02  0.65651917900E+02 -0.35988502454E+03  0.36614302810E+03  0.00000000000E+00 0.  1.
         11    1    1    2    0    0  0.95249761253E+01  0.12592840038E+02 -0.24170317876E+01  0.15973316283E+02  0.00000000000E+00 0. -1.
</event>
<event>
 7    1  0.3265282E-009  0.8233367E+02  0.7561462E-02  0.1322556E+00
          1   -1    0    0  501    0  0.00000000000E+00  0.00000000000E+00  0.32342102234E+03  0.32342102234E+03  0.00000000000E+00 0. -1.
         -1   -1    0    0    0  501 -0.00000000000E+00 -0.00000000000E+00 -0.38487743574E+02  0.38487743574E+02  0.00000000000E+00 0.  1.
         25    2    1    2    0    0 -0.66314127455E+01 -0.13309791586E+02  0.12317607741E+03  0.17618348289E+03  0.12508855828E+03 0.  0.
          5    1    3    3  502    0 -0.37795653891E+02  0.16934876917E+02  0.12576853983E+03  0.13247829830E+03  0.41800000000E+01 0.  1.
         -5    1    3    3    0  502  0.31164241146E+02 -0.30244668502E+02 -0.25924624243E+01  0.43705184594E+02  0.41800000000E+01 0.  1.
        -11    1    1    2    0    0 -0.23369129566E+02  0.35216609204E+02  0.39139370473E+02  0.57603959078E+02  0.00000000000E+00 0.  1.
         11    1    1    2    0    0  0.30000542311E+02 -0.21906817618E+02  0.12261783089E+03  0.12812132395E+03  0.00000000000E+00 0. -1.
</event>
<event>
 7    1  0.3265282E-009  0.1146715E+03  0.7561462E-02  0.1252156E+00
         -2   -1    0    0    0  501 -0.00000000000E+00  0.00000000000E+00  0.39464785168E+02  0.39464785168E+02  0.00000000000E+00 0.  1.
          2   -1    0    0  501    0  0.00000000000E+00 -0.00000000000E+00 -0.43491694208E+03  0.43491694208E+03  0.00000000000E+00 0. -1.
         25    2    1    2    0    0  0.58676096254E+02  0.18835607115E+02 -0.29027471709E+03  0.32203178398E+03  0.12508954452E+03 0.  0.
          5    1    3    3  502    0  0.22128895424E+02  0.61411149292E+02 -0.23192723553E+03  0.24097454690E+03  0.41800000000E+01 0.  1.
         -5    1    3    3    0  502  0.36547200830E+02 -0.42575542177E+02 -0.58347481553E+02  0.81057237085E+02  0.41800000000E+01 0.  1.
        -11    1    1    2    0    0 -0.49574922677E+01 -0.46829949495E+02 -0.62478797074E+02  0.78238232234E+02  0.00000000000E+00 0. -1.
         11    1    1    2    0    0 -0.53718603986E+02  0.27994342380E+02 -0.42698642754E+02  0.74111711035E+02  0.00000000000E+00 0.  1.
</event>
<event>
 7    1  0.3265282E-009  0.1056721E+03  0.7561462E-02  0.1268801E+00
         -1   -1    0    0    0  501 -0.00000000000E+00  0.00000000000E+00  0.10536670139E+03  0.10536670139E+03  0.00000000000E+00 0.  1.
          1   -1    0    0  501    0  0.00000000000E+00 -0.00000000000E+00 -0.16060853779E+03  0.16060853779E+03  0.00000000000E+00 0. -1.
         25    2    1    2    0    0 -0.56820586550E+01  0.54721910539E+02 -0.70604954468E+02  0.15382090734E+03  0.12509611767E+03 0.  0.
          5    1    3    3  502    0  0.33017395921E+02 -0.10525707807E+02  0.16183856202E+02  0.38475038139E+02  0.41800000000E+01 0.  1.
         -5    1    3    3    0  502 -0.38699454576E+02  0.65247618346E+02 -0.86788810670E+02  0.11534586920E+03  0.41800000000E+01 0.  1.
        -11    1    1    2    0    0  0.74902377476E+01  0.22246038429E+02 -0.16645794212E+02  0.28776246320E+02  0.00000000000E+00 0. -1.
         11    1    1    2    0    0 -0.18081790926E+01 -0.76967948968E+02  0.32008912272E+02  0.83378085519E+02  0.00000000000E+00 0.  1.
</event>
<event>
 7    1  0.3265282E-009  0.1055767E+03  0.7561462E-02  0.1268988E+00
          1   -1    0    0  501    0  0.00000000000E+00  0.00000000000E+00  0.42630881973E+02  0.42630881973E+02  0.00000000000E+00 0. -1.
         -1   -1    0    0    0  501 -0.00000000000E+00 -0.00000000000E+00 -0.43951387425E+03  0.43951387425E+03  0.00000000000E+00 0.  1.
         25    2    1    2    0    0 -0.35888734266E+02 -0.76963159195E+02 -0.23627128330E+03  0.28050554724E+03  0.12509162083E+03 0.  0.
          5    1    3    3  502    0 -0.38234276259E+02 -0.57314681006E+02 -0.24779460556E+03  0.25722844222E+03  0.41800000000E+01 0. -1.
         -5    1    3    3    0  502  0.23455419930E+01 -0.19648478189E+02  0.11523322263E+02  0.23277105025E+02  0.41800000000E+01 0. -1.
        -11    1    1    2    0    0  0.45871888179E+02  0.16173362684E+01 -0.61455270561E+02  0.76704603391E+02  0.00000000000E+00 0.  1.
         11    1    1    2    0    0 -0.99831539130E+01  0.75345822927E+02 -0.99156438420E+02  0.12493460559E+03  0.00000000000E+00 0. -1.
</event>
<event>
 7    1  0.3265282E-009  0.1205615E+03  0.7561462E-02  0.1242174E+00
          1   -1    0    0  501    0  0.00000000000E+00  0.00000000000E+00  0.15832667039E+03  0.15832667039E+03  0.00000000000E+00 0. -1.
         -1   -1    0    0    0  501 -0.00000000000E+00 -0.00000000000E+00 -0.15417488857E+03  0.15417488857E+03  0.00000000000E+00 0.  1.
         25    2    1    2    0    0 -0.10502673831E+03 -0.48493596170E+02  0.18808057293E+01  0.17038925103E+03  0.12508682907E+03 0.  0.
          5    1    3    3  502    0 -0.11148434033E+02 -0.26270561755E+02 -0.52254751748E+02  0.59686359217E+02  0.41800000000E+01 0. -1.
         -5    1    3    3    0  502 -0.93878304275E+02 -0.22223034415E+02  0.54135557478E+02  0.11070289181E+03  0.41800000000E+01 0. -1.
        -11    1    1    2    0    0  0.59485034138E+02  0.29024841583E+02 -0.39708979365E+02  0.77186227771E+02  0.00000000000E+00 0.  1.
         11    1    1    2    0    0  0.45541704170E+02  0.19468754586E+02  0.41979955457E+02  0.64926080153E+02  0.00000000000E+00 0. -1.
</event>
<event>
 7    1  0.3265282E-009  0.7536729E+02  0.7561462E-02  0.1342737E+00
          1   -1    0    0  501    0  0.00000000000E+00  0.00000000000E+00  0.11723016269E+03  0.11723016269E+03  0.00000000000E+00 0. -1.
         -1   -1    0    0    0  501 -0.00000000000E+00 -0.00000000000E+00 -0.11388811517E+03  0.11388811517E+03  0.00000000000E+00 0.  1.
         25    2    1    2    0    0 -0.11378003588E+02 -0.22390862370E+02 -0.30147432670E+02  0.13108017930E+03  0.12506932487E+03 0.  0.
          5    1    3    3  502    0  0.11304613041E+01 -0.41742891591E+02  0.39480859060E+02  0.57619072999E+02  0.41800000000E+01 0.  1.
         -5    1    3    3    0  502 -0.12508464892E+02  0.19352029221E+02 -0.69628291731E+02  0.73461106296E+02  0.41800000000E+01 0.  1.
        -11    1    1    2    0    0 -0.31983024097E+02 -0.72889792262E+01 -0.71949541554E+01  0.33582888706E+02  0.00000000000E+00 0.  1.
         11    1    1    2    0    0  0.43361027685E+02  0.29679841597E+02  0.40684434346E+02  0.66455209857E+02  0.00000000000E+00 0. -1.
</event>
<event>
 7    1  0.3265282E-009  0.1114210E+03  0.7561462E-02  0.1257961E+00
          2   -1    0    0  501    0  0.00000000000E+00  0.00000000000E+00  0.18449923014E+03  0.18449923014E+03  0.00000000000E+00 0. -1.
         -2   -1    0    0    0  501 -0.00000000000E+00 -0.00000000000E+00 -0.69314355378E+02  0.69314355378E+02  0.00000000000E+00 0.  1.
         25    2    1    2    0    0 -0.30687563050E+02 -0.49594496591E+01  0.79387202528E+02  0.15138082886E+03  0.12508998662E+03 0.  0.
          5    1    3    3  502    0 -0.77527827565E+02  0.12490897715E+02  0.45606815103E+02  0.90906768486E+02  0.41800000000E+01 0. -1.
         -5    1    3    3    0  502  0.46840264515E+02 -0.17450347374E+02  0.33780387425E+02  0.60474060372E+02  0.41800000000E+01 0. -1.
        -11    1    1    2    0    0  0.45110259510E+00  0.44368856720E+02  0.27135072982E+02  0.52010682806E+02  0.00000000000E+00 0.  1.
         11    1    1    2    0    0  0.30236460455E+02 -0.39409407061E+02  0.86625992507E+01  0.50422073852E+02  0.00000000000E+00 0. -1.
</event>
<event>
 7    1  0.3265282E-009  0.1024748E+03  0.7561462E-02  0.1275176E+00
         -1   -1    0    0    0  501 -0.00000000000E+00  0.00000000000E+00  0.49686912310E+03  0.49686912310E+03  0.00000000000E+00 0.  1.
          1   -1    0    0  501    0  0.00000000000E+00 -0.00000000000E+00 -0.35626639007E+02  0.35626639007E+02  0.00000000000E+00 0. -1.
         25    2    1    2    0    0  0.42228856438E+02  0.33369143473E+02  0.35517778540E+03  0.38038776074E+03  0.12508722249E+03 0.  0.
          5    1    3    3  502    0  0.66093833109E+02  0.45641097875E+02  0.12517882861E+03  0.14879084691E+03  0.41800000000E+01 0.  1.
         -5    1    3    3    0  502 -0.23864976671E+02 -0.12271954401E+02  0.22999895678E+03  0.23159691384E+03  0.41800000000E+01 0.  1.
        -11    1    1    2    0    0  0.24317127483E+02 -0.40912926770E+01  0.62892481034E+02  0.67553871357E+02  0.00000000000E+00 0.  1.
         11    1    1    2    0    0 -0.66545983920E+02 -0.29277850796E+02  0.43172217658E+02  0.84554130004E+02  0.00000000000E+00 0. -1.
</event>
<event>
 7    1  0.3265282E-009  0.1027096E+03  0.7561462E-02  0.1274699E+00
          2   -1    0    0  501    0  0.00000000000E+00  0.00000000000E+00  0.28885546185E+03  0.28885546185E+03  0.00000000000E+00 0. -1.
         -2   -1    0    0    0  501 -0.00000000000E+00 -0.00000000000E+00 -0.61191516640E+02  0.61191516640E+02  0.00000000000E+00 0.  1.
         25    2    1    2    0    0 -0.81421961594E+01  0.74845677867E+02  0.14391744541E+03  0.20500388539E+03  0.12508473560E+03 0.  0.
          5    1    3    3  502    0  0.41767964479E+02  0.63880412750E+02  0.13173519871E+03  0.15230530184E+03  0.41800000000E+01 0. -1.
         -5    1    3    3    0  502 -0.49910160639E+02  0.10965265117E+02  0.12182246697E+02  0.52698583555E+02  0.41800000000E+01 0. -1.
        -11    1    1    2    0    0  0.13739058188E+02 -0.37303167145E+02 -0.12427137833E+02  0.41649991040E+02  0.00000000000E+00 0.  1.
         11    1    1    2    0    0 -0.55968620290E+01 -0.37542510723E+02  0.96173637641E+02  0.10339310206E+03  0.00000000000E+00 0. -1.
</event>
<event>
 7    1  0.3265282E-009  0.1406003E+03  0.7561462E-02  0.1212524E+00
         -1   -1    0    0    0  501 -0.00000000000E+00  0.00000000000E+00  0.14965707706E+02  0.14965707706E+02  0.00000000000E+00 0. -1.
          1   -1    0    0  501    0  0.00000000000E+00 -0.00000000000E+00 -0.14859642757E+04  0.14859642757E+04  0.00000000000E+00 0.  1.
         25    2    1    2    0    0  0.90675617912E+02 -0.40047105976E+02 -0.82569232924E+03  0.84097593829E+03  0.12508744078E+03 0.  0.
          5    1    3    3  502    0  0.11144460830E+03 -0.99422784583E+01 -0.45977787924E+03  0.47321445483E+03  0.41800000000E+01 0. -1.
         -5    1    3    3    0  502 -0.20768990387E+02 -0.30104827518E+02 -0.36591444999E+03  0.36776148346E+03  0.41800000000E+01 0. -1.
        -11    1    1    2    0    0 -0.96519651477E+01  0.49879852643E+02 -0.16122390841E+03  0.16903937049E+03  0.00000000000E+00 0. -1.
         11    1    1    2    0    0 -0.81023652764E+02 -0.98327466668E+01 -0.48408233030E+03  0.49091467458E+03  0.00000000000E+00 0.  1.
</event>
<event>
 6    1  0.3265282E-009  0.9999516E+02  0.7561462E-02  0.1280306E+00
         -2   -1    0    0    0  501 -0.00000000000E+00  0.00000000000E+00  0.24549886144E+02  0.24549886144E+02  0.00000000000E+00 0.  1.
          2   -1    0    0  501    0  0.00000000000E+00 -0.00000000000E+00 -0.63510051294E+03  0.63510051294E+03  0.00000000000E+00 0. -1.
          5    1    1    2  502    0  0.63976650407E+02 -0.31634565707E+02 -0.14891009419E+03  0.16518306843E+03  0.41800000000E+01 0.  1.
         -5    1    1    2    0  502 -0.34520298179E+02  0.52312720818E+01 -0.31666413159E+03  0.31861051745E+03  0.41800000000E+01 0.  1.
        -11    1    1    2    0    0  0.48321750916E+01 -0.28334301142E+02 -0.19505538371E+02  0.34736847359E+02  0.00000000000E+00 0.  1.
         11    1    1    2    0    0 -0.34288527321E+02  0.54737594767E+02 -0.12547086264E+03  0.14111996584E+03  0.00000000000E+00 0. -1.
</event>
<event>
 7    1  0.3265282E-009  0.6901584E+02  0.7561462E-02  0.1363472E+00
         -1   -1    0    0    0  501 -0.00000000000E+00  0.00000000000E+00  0.13877242871E+03  0.13877242871E+03  0.00000000000E+00 0.  1.
          1   -1    0    0  501    0  0.00000000000E+00 -0.00000000000E+00 -0.10359035944E+03  0.10359035944E+03  0.00000000000E+00 0. -1.
         25    2    1    2    0    0  0.34357749340E+02 -0.19562381853E+02  0.54773567323E+02  0.14216257710E+03  0.12508762099E+03 0.  0.
          5    1    3    3  502    0  0.38002323115E+02  0.10863554219E+02 -0.31371331784E+02  0.50634239703E+02  0.41800000000E+01 0. -1.
         -5    1    3    3    0  502 -0.36445737748E+01 -0.30425936071E+02  0.86144899107E+02  0.91528337393E+02  0.41800000000E+01 0. -1.
        -11    1    1    2    0    0 -0.49186807414E+02  0.18284722285E+02  0.21338414770E+02  0.56648045311E+02  0.00000000000E+00 0.  1.
         11    1    1    2    0    0  0.14829058073E+02  0.12776595677E+01 -0.40929912819E+02  0.43552165740E+02  0.00000000000E+00 0. -1.
</event>
<event>
 7    1  0.3265282E-009  0.1191760E+03  0.7561462E-02  0.1244463E+00
          2   -1    0    0  501    0  0.00000000000E+00  0.00000000000E+00  0.71425393284E+03  0.71425393284E+03  0.00000000000E+00 0. -1.
         -2   -1    0    0    0  501 -0.00000000000E+00 -0.00000000000E+00 -0.24559518526E+02  0.24559518526E+02  0.00000000000E+00 0.  1.
         25    2    1    2    0    0 -0.15201122584E+02  0.71100223218E+02  0.33652374138E+03  0.36631047632E+03  0.12509524642E+03 0.  0.
          5    1    3    3  502    0  0.38428780798E+02  0.11106896810E+01  0.20021257422E+03  0.20391309939E+03  0.41800000000E+01 0. -1.
         -5    1    3    3    0  502 -0.53629903381E+02  0.69989533537E+02  0.13631116716E+03  0.16239737693E+03  0.41800000000E+01 0. -1.
        -11    1    1    2    0    0  0.14588188101E+02 -0.90665884770E+02  0.32802040807E+03  0.34063250873E+03  0.00000000000E+00 0. -1.
         11    1    1    2    0    0  0.61293448220E+00  0.19565661552E+02  0.25150264862E+02  0.31870466317E+02  0.00000000000E+00 0.  1.
</event>
<event>
 7    1  0.3265282E-009  0.8675343E+02  0.7561462E-02  0.1310910E+00
         -3   -1    0    0    0  501 -0.00000000000E+00  0.00000000000E+00  0.57326163070E+02  0.57326163070E+02  0.00000000000E+00 0.  1.
          3   -1    0    0  501    0  0.00000000000E+00 -0.00000000000E+00 -0.32323785139E+03  0.32323785139E+03  0.00000000000E+00 0. -1.
         25    2    1    2    0    0 -0.51696406704E+02  0.35713999896E+02 -0.21526036328E+03  0.25677184547E+03  0.12508696325E+03 0.  0.
          5    1    3    3  502    0 -0.70438981553E+02  0.66120590711E+01 -0.20984163757E+03  0.22148669194E+03  0.41800000000E+01 0. -1.
         -5    1    3    3    0  502  0.18742574849E+02  0.29101940824E+02 -0.54187257070E+01  0.35285153535E+02  0.41800000000E+01 0. -1.
        -11    1    1    2    0    0  0.41055235378E+01 -0.15548377410E+02 -0.67530553870E+02  0.69418895624E+02  0.00000000000E+00 0. -1.
         11    1    1    2    0    0  0.47590883166E+02 -0.20165622486E+02  0.16879228825E+02  0.54373273366E+02  0.00000000000E+00 0.  1.
</event>
<event>
 7    1  0.3265282E-009  0.7640340E+02  0.7561462E-02  0.1339579E+00
          2   -1    0    0  501    0  0.00000000000E+00  0.00000000000E+00  0.87431335759E+02  0.87431335759E+02  0.00000000000E+00 0. -1.
         -2   -1    0    0    0  501 -0.00000000000E+00 -0.00000000000E+00 -0.14872143894E+03  0.14872143894E+03  0.00000000000E+00 0.  1.
         25    2    1    2    0    0 -0.15662667507E+02  0.31369257589E+02 -0.24928593107E+02  0.13227874571E+03  0.12508749872E+03 0.  0.
          5    1    3    3  502    0 -0.39692845062E+02  0.38083628745E+02  0.36294169092E+02  0.66035019782E+02  0.41800000000E+01 0.  1.
         -5    1    3    3    0  502  0.24030177555E+02 -0.67143711557E+01 -0.61222762200E+02  0.66243725927E+02  0.41800000000E+01 0.  1.
        -11    1    1    2    0    0  0.40114996811E+02 -0.24246294124E+02 -0.55036798976E+02  0.72292081097E+02  0.00000000000E+00 0.  1.
         11    1    1    2    0    0 -0.24452329304E+02 -0.71229634649E+01  0.18675288904E+02  0.31581947890E+02  0.00000000000E+00 0. -1.
</event>
<event>
 7    1  0.3265282E-009  0.1113529E+03  0.7561462E-02  0.1258085E+00
          1   -1    0    0  501    0  0.00000000000E+00  0.00000000000E+00  0.35666037384E+02  0.35666037384E+02  0.00000000000E+00 0. -1.
         -1   -1    0    0    0  501 -0.00000000000E+00 -0.00000000000E+00 -0.46609012023E+03  0.46609012023E+03  0.00000000000E+00 0.  1.
         25    2    1    2    0    0 -0.23740162858E+02 -0.66154315131E+02 -0.24741736584E+03  0.28601261133E+03  0.12509145526E+03 0.  0.
          5    1    3    3  502    0 -0.56828684104E+02 -0.57644369463E+02 -0.75791847060E+02  0.11096958659E+03  0.41800000000E+01 0. -1.
         -5    1    3    3    0  502  0.33088521246E+02 -0.85099456676E+01 -0.17162551878E+03  0.17504302474E+03  0.41800000000E+01 0. -1.
        -11    1    1    2    0    0 -0.22520006409E+00  0.79701433602E+02 -0.16384517051E+03  0.18220211067E+03  0.00000000000E+00 0.  1.
         11    1    1    2    0    0  0.23965362922E+02 -0.13547118471E+02 -0.19161546497E+02  0.33541435613E+02  0.00000000000E+00 0. -1.
</event>
<event>
 7    1  0.3265282E-009  0.1095687E+03  0.7561462E-02  0.1261371E+00
         -2   -1    0    0    0  501 -0.00000000000E+00  0.00000000000E+00  0.66046116794E+02  0.66046116794E+02  0.00000000000E+00 0.  1.
          2   -1    0    0  501    0  0.00000000000E+00 -0.00000000000E+00 -0.30384594761E+03  0.30384594761E+03  0.00000000000E+00 0. -1.
         25    2    1    2    0    0  0.53657012923E+02 -0.64721111837E+02 -0.87010598567E+02  0.17402629732E+03  0.12508561285E+03 0.  0.
          5    1    3    3  502    0  0.28283857782E+02 -0.76319886273E+02  0.11030760570E+01  0.81506998647E+02  0.41800000000E+01 0.  1.
         -5    1    3    3    0  502  0.25373155142E+02  0.11598774436E+02 -0.88113674624E+02  0.92519298668E+02  0.41800000000E+01 0.  1.
        -11    1    1    2    0    0 -0.58937446138E+02  0.16894964437E+02 -0.12943808063E+03  0.14322457575E+03  0.00000000000E+00 0. -1.
         11    1    1    2    0    0  0.52804332142E+01  0.47826147400E+02 -0.21351151613E+02  0.52641191336E+02  0.00000000000E+00 0.  1.
</event>
<event>
 7    1  0.3265282E-009  0.1275914E+03  0.7561462E-02  0.1231074E+00
          2   -1    0    0  501    0  0.00000000000E+00  0.00000000000E+00  0.98695000133E+03  0.98695000133E+03  0.00000000000E+00 0. -1.
         -2   -1    0    0    0  501 -0.00000000000E+00 -0.00000000000E+00 -0.21766341261E+02  0.21766341261E+02  0.00000000000E+00 0.  1.
         25    2    1    2    0    0 -0.23632904011E+02 -0.96082478027E+02  0.56597589896E+03  0.58801746284E+03  0.12508181986E+03 0.  0.
          5    1    3    3  502    0 -0.32193751807E+02  0.71727320145E+01  0.40453850611E+02  0.52362889237E+02  0.41800000000E+01 0. -1.
         -5    1    3    3    0  502  0.85608477962E+01 -0.10325521004E+03  0.52552204835E+03  0.53565457360E+03  0.41800000000E+01 0. -1.
        -11    1    1    2    0    0  0.46187850766E+02  0.60544346579E+02  0.15282563330E+03  0.17074720980E+03  0.00000000000E+00 0.  1.
         11    1    1    2    0    0 -0.22554946755E+02  0.35538131448E+02  0.24638212780E+03  0.24995166995E+03  0.00000000000E+00 0. -1.
</event>
<event>
 7    1  0.3265282E-009  0.8327698E+02  0.7561462E-02  0.1320001E+00
          4   -1    0    0  501    0  0.00000000000E+00  0.00000000000E+00  0.15269267645E+03  0.15269267645E+03  0.00000000000E+00 0. -1.
         -4   -1    0    0    0  501 -0.00000000000E+00 -0.00000000000E+00 -0.93513133239E+02  0.93513133239E+02  0.00000000000E+00 0.  1.
         25    2    1    2    0    0  0.32033462369E+02  0.12146549800E+02  0.72184030493E+02  0.14843120375E+03  0.12509039373E+03 0.  0.
          5    1    3    3  502    0  0.62115901261E+02 -0.67230192489E+01 -0.55541771776E+01  0.62864182659E+02  0.41800000000E+01 0. -1.
         -5    1    3    3    0  502 -0.30082438891E+02  0.18869569049E+02  0.77738207671E+02  0.85567021086E+02  0.41800000000E+01 0. -1.
        -11    1    1    2    0    0 -0.15058302469E+02  0.23950199724E+02  0.28536350038E+02  0.40183178241E+02  0.00000000000E+00 0. -1.
         11    1    1    2    0    0 -0.16975159900E+02 -0.36096749524E+02 -0.41540837319E+02  0.57591427704E+02  0.00000000000E+00 0.  1.
</event>
<event>
 7    1  0.3721070E-009  0.1086043E+03  0.7561462E-02  0.1263176E+00
         -2   -1    0    0    0  501 -0.00000000000E+00  0.00000000000E+00  0.19748881151E+02  0.19748881151E+02  0.00000000000E+00 0.  1.
          2   -1    0    0  501    0  0.00000000000E+00 -0.00000000000E+00 -0.78709737401E+03  0.78709737401E+03  0.00000000000E+00 0. -1.
         25    2    1    2    0    0 -0.16700423703E+02  0.56878338907E+02 -0.47840004096E+03  0.49802404324E+03  0.12508916367E+03 0.  0.
          5    1    3    3  502    0  0.17216191691E+02  0.71165883197E+02 -0.43422811742E+03  0.44037769079E+03  0.41800000000E+01 0. -1.
         -5    1    3    3    0  502 -0.33916615394E+02 -0.14287544290E+02 -0.44171923532E+02  0.57646352444E+02  0.41800000000E+01 0. -1.
        -11    1    1    2    0    0 -0.63660582368E+01 -0.76368159864E+02 -0.23250240585E+03  0.24480602784E+03  0.00000000000E+00 0.  1.
         11    1    1    2    0    0  0.23066481940E+02  0.19489820957E+02 -0.56446046048E+02  0.64016184083E+02  0.00000000000E+00 0. -1.
</event>
<event>
 7    1  0.3265282E-009  0.2057710E+03  0.7561462E-02  0.1144959E+00
          1   -1    0    0  501    0  0.00000000000E+00  0.00000000000E+00  0.25642329717E+04  0.25642329717E+04  0.00000000000E+00 0. -1.
         -1   -1    0    0    0  501 -0.00000000000E+00 -0.00000000000E+00 -0.25397822859E+02  0.25397822859E+02  0.00000000000E+00 0.  1.
         25    2    1    2    0    0  0.16698352364E+03 -0.86687835344E+02  0.19876372913E+04  0.20004368835E+04  0.12508974831E+03 0.  0.
          5    1    3    3  502    0 -0.15720481829E+02 -0.18897162696E+02  0.11440290287E+03  0.11708856858E+03  0.41800000000E+01 0. -1.
         -5    1    3    3    0  502  0.18270400547E+03 -0.67790672647E+02  0.18732343884E+04  0.18833483149E+04  0.41800000000E+01 0. -1.
        -11    1    1    2    0    0 -0.86554345030E+02  0.65414294936E+02  0.19243906192E+03  0.22091509042E+03  0.00000000000E+00 0.  1.
         11    1    1    2    0    0 -0.80429178609E+02  0.21273540408E+02  0.35875879566E+03  0.36827882067E+03  0.00000000000E+00 0. -1.
</event>
<event>
 7    1  0.3265282E-009  0.1019713E+03  0.7561462E-02  0.1276204E+00
         -2   -1    0    0    0  501 -0.00000000000E+00  0.00000000000E+00  0.24349517276E+02  0.24349517276E+02  0.00000000000E+00 0.  1.
          2   -1    0    0  501    0  0.00000000000E+00 -0.00000000000E+00 -0.49852325496E+03  0.49852325496E+03  0.00000000000E+00 0. -1.
         25    2    1    2    0    0  0.40316005187E+01  0.16715828807E+02 -0.24536019761E+03  0.27597003825E+03  0.12514856255E+03 0.  0.
          5    1    3    3  502    0  0.44039179720E+01  0.64631562173E+02 -0.19839148124E+03  0.20874215087E+03  0.41800000000E+01 0. -1.
         -5    1    3    3    0  502 -0.37231745329E+00 -0.47915733366E+02 -0.46968716368E+02  0.67227887380E+02  0.41800000000E+01 0. -1.
        -11    1    1    2    0    0 -0.39609974525E+02 -0.33230266277E+02 -0.10526410534E+03  0.11727630857E+03  0.00000000000E+00 0.  1.
         11    1    1    2    0    0  0.35578374007E+02  0.16514437471E+02 -0.12354943473E+03  0.12962642541E+03  0.00000000000E+00 0. -1.
</event>
<event>
 7    1  0.3265282E-009  0.1299646E+03  0.7561462E-02  0.1227508E+00
          2   -1    0    0  501    0  0.00000000000E+00  0.00000000000E+00  0.14531011809E+04  0.14531011809E+04  0.00000000000E+00 0. -1.
         -2   -1    0    0    0  501 -0.00000000000E+00 -0.00000000000E+00 -0.14469753313E+02  0.14469753313E+02  0.00000000000E+00 0.  1.
         25    2    1    2    0    0 -0.51447063721E+02 -0.58475144760E+02  0.10607622587E+04  0.10709484293E+04  0.12509126974E+03 0.  0.
          5    1    3    3  502    0  0.12210569213E+02 -0.74006331079E+02  0.40508544150E+03  0.41199238142E+03  0.41800000000E+01 0. -1.
         -5    1    3    3    0  502 -0.63657632934E+02  0.15531186318E+02  0.65567681722E+03  0.65895604786E+03  0.41800000000E+01 0. -1.
        -11    1    1    2    0    0 -0.31066148466E+01  0.64217716843E+02  0.23327553027E+03  0.24197322008E+03  0.00000000000E+00 0. -1.
         11    1    1    2    0    0  0.54553678568E+02 -0.57425720828E+01  0.14459363864E+03  0.15464928489E+03  0.00000000000E+00 0.  1.
</event>
<event>
 7    1  0.3265282E-009  0.1305467E+03  0.7561462E-02  0.1226647E+00
         -4   -1    0    0    0  501 -0.00000000000E+00  0.00000000000E+00  0.67658919855E+02  0.67658919855E+02  0.00000000000E+00 0.  1.
          4   -1    0    0  501    0  0.00000000000E+00 -0.00000000000E+00 -0.29276713228E+03  0.29276713228E+03  0.00000000000E+00 0. -1.
         25    2    1    2    0    0 -0.80608314558E+02  0.26562934147E+02 -0.86010065890E+02  0.17392091177E+03  0.12508981681E+03 0.  0.
          5    1    3    3  502    0 -0.10922569036E+03  0.41950798493E+02 -0.57246612624E+02  0.13032562291E+03  0.41800000000E+01 0.  1.
         -5    1    3    3    0  502  0.28617375804E+02 -0.15387864346E+02 -0.28763453266E+02  0.43595288860E+02  0.41800000000E+01 0.  1.
        -11    1    1    2    0    0  0.90973447352E+02 -0.35414607904E+02 -0.81066420699E+02  0.12689415724E+03  0.00000000000E+00 0.  1.
         11    1    1    2    0    0 -0.10365132794E+02  0.88516737563E+01 -0.58031725832E+02  0.59610983125E+02  0.00000000000E+00 0. -1.
</event>
<event>
 7    1  0.3265282E-009  0.1366991E+03  0.7561462E-02  0.1217841E+00
          2   -1    0    0  501    0  0.00000000000E+00  0.00000000000E+00  0.39945793825E+02  0.39945793825E+02  0.00000000000E+00 0.  1.
         -2   -1    0    0    0  501 -0.00000000000E+00 -0.00000000000E+00 -0.52250788447E+03  0.52250788447E+03  0.00000000000E+00 0. -1.
         25    2    1    2    0    0 -0.82111595001E+02  0.51825601725E+02 -0.24333399889E+03  0.29032199583E+03  0.12508884532E+03 0.  0.
          5    1    3    3  502    0  0.25065690867E+02  0.19008025720E+02 -0.13320774361E+02  0.34416701323E+02  0.41800000000E+01 0.  1.
         -5    1    3    3    0  502 -0.10717728587E+03  0.32817576005E+02 -0.23001322453E+03  0.25590529451E+03  0.41800000000E+01 0.  1.
        -11    1    1    2    0    0  0.53918645363E+02 -0.75435279024E+02 -0.16403192690E+03  0.18842551495E+03  0.00000000000E+00 0.  1.
         11    1    1    2    0    0  0.28192949638E+02  0.23609677299E+02 -0.75196164859E+02  0.83706167520E+02  0.00000000000E+00 0. -1.
</event>
<event>
 7    1  0.3265282E-009  0.9142755E+02  0.7561462E-02  0.1299431E+00
          1   -1    0    0  501    0  0.00000000000E+00  0.00000000000E+00  0.54014712216E+02  0.54014712216E+02  0.00000000000E+00 0. -1.
         -1   -1    0    0    0  501 -0.00000000000E+00 -0.00000000000E+00 -0.34510243744E+03  0.34510243744E+03  0.00000000000E+00 0.  1.
         25    2    1    2    0    0  0.59498601597E+02 -0.22274963525E+02 -0.81856053722E+02  0.16243301823E+03  0.12509122386E+03 0.  0.
          5    1    3    3  502    0  0.43986967786E+01 -0.22380831498E+02 -0.10124898726E+03  0.10387049616E+03  0.41800000000E+01 0.  1.
         -5    1    3    3    0  502  0.55099904818E+02  0.10586797267E+00  0.19392933540E+02  0.58562522062E+02  0.41800000000E+01 0.  1.
        -11    1    1    2    0    0 -0.28170303113E+02  0.53319197543E+02 -0.80330916343E+02  0.10044679649E+03  0.00000000000E+00 0. -1.
         11    1    1    2    0    0 -0.31328298484E+02 -0.31044234018E+02 -0.12890075516E+03  0.13623733494E+03  0.00000000000E+00 0.  1.
</event>
<event>
 7    1  0.3265282E-009  0.1388402E+03  0.7561462E-02  0.1214898E+00
         -2   -1    0    0    0  501 -0.00000000000E+00  0.00000000000E+00  0.48856408486E+02  0.48856408486E+02  0.00000000000E+00 0.  1.
          2   -1    0    0  501    0  0.00000000000E+00 -0.00000000000E+00 -0.58920761808E+03  0.58920761808E+03  0.00000000000E+00 0. -1.
         25    2    1    2    0    0  0.10862709759E+03 -0.34996866626E+02 -0.19958384723E+03  0.26173626901E+03  0.12509010927E+03 0.  0.
          5    1    3    3  502    0  0.60438432942E+02  0.20756334223E+00 -0.19212258650E+03  0.20144827600E+03  0.41800000000E+01 0.  1.
         -5    1    3    3    0  502  0.48188664645E+02 -0.35204429968E+02 -0.74612607283E+01  0.60287993011E+02  0.41800000000E+01 0.  1.
        -11    1    1    2    0    0 -0.12959799734E+03  0.40155796546E+02 -0.31307668310E+03  0.34121128119E+03  0.00000000000E+00 0. -1.
         11    1    1    2    0    0  0.20970899751E+02 -0.51589299199E+01 -0.27690679266E+02  0.35116476368E+02  0.00000000000E+00 0.  1.
</event>
<event>
 7    1  0.3265282E-009  0.1441076E+03  0.7561462E-02  0.1207906E+00
         -2   -1    0    0    0  501 -0.00000000000E+00  0.00000000000E+00  0.18560262069E+03  0.18560262069E+03  0.00000000000E+00 0.  1.
          2   -1    0    0  501    0  0.00000000000E+00 -0.00000000000E+00 -0.20683223933E+03  0.20683223933E+03  0.00000000000E+00 0. -1.
         25    2    1    2    0    0 -0.10469696059E+03  0.65083426292E+02 -0.11877676509E+03  0.21201389524E+03  0.12507863892E+03 0.  0.
          5    1    3    3  502    0 -0.87744543321E+02  0.86798810888E+02 -0.42166669416E+02  0.13049382692E+03  0.41800000000E+01 0. -1.
         -5    1    3    3    0  502 -0.16952417265E+02 -0.21715384596E+02 -0.76610095678E+02  0.81520068321E+02  0.41800000000E+01 0. -1.
        -11    1    1    2    0    0  0.25444885401E+01  0.98468107754E+01  0.40005841035E+02  0.41278340826E+02  0.00000000000E+00 0.  1.
         11    1    1    2    0    0  0.10215247205E+03 -0.74930237068E+02  0.57541305415E+02  0.13914262395E+03  0.00000000000E+00 0. -1.
</event>
<event>
 7    1  0.3265282E-009  0.3103124E+03  0.7561462E-02  0.1080196E+00
          1   -1    0    0  501    0  0.00000000000E+00  0.00000000000E+00  0.10645900109E+03  0.10645900109E+03  0.00000000000E+00 0. -1.
         -1   -1    0    0    0  501 -0.00000000000E+00 -0.00000000000E+00 -0.10566911967E+04  0.10566911967E+04  0.00000000000E+00 0.  1.
         25    2    1    2    0    0 -0.19028041882E+03 -0.23336397284E+03 -0.30970659386E+03  0.44970066871E+03  0.12508851088E+03 0.  0.
          5    1    3    3  502    0 -0.14516872784E+03 -0.22991789683E+03 -0.29662802873E+03  0.40242000280E+03  0.41800000000E+01 0.  1.
         -5    1    3    3    0  502 -0.45111690975E+02 -0.34460760021E+01 -0.13078565126E+02  0.47280665903E+02  0.41800000000E+01 0.  1.
        -11    1    1    2    0    0  0.17634918314E+03  0.19752150525E+03 -0.47804529562E+03  0.54648063469E+03  0.00000000000E+00 0. -1.
         11    1    1    2    0    0  0.13931235674E+02  0.35842467588E+02 -0.16248030610E+03  0.16696889435E+03  0.00000000000E+00 0.  1.
</event>
<event>
 7    1  0.3265282E-009  0.1377661E+03  0.7561462E-02  0.1216367E+00
          2   -1    0    0  501    0  0.00000000000E+00  0.00000000000E+00  0.14139934176E+04  0.14139934176E+04  0.00000000000E+00 0. -1.
         -2   -1    0    0    0  501 -0.00000000000E+00 -0.00000000000E+00 -0.17870359633E+02  0.17870359633E+02  0.00000000000E+00 0.  1.
         25    2    1    2    0    0  0.98524830358E+02  0.80310607051E+01  0.96901207543E+03  0.98204022920E+03  0.12508784638E+03 0.  0.
          5    1    3    3  502    0  0.11573079476E+03 -0.93459782910E+01  0.91791880318E+03  0.92524232814E+03  0.41800000000E+01 0. -1.
         -5    1    3    3    0  502 -0.17205964400E+02  0.17377038996E+02  0.51093272253E+02  0.56797901059E+02  0.41800000000E+01 0. -1.
        -11    1    1    2    0    0 -0.71024524399E+02 -0.48217591625E+02  0.33266923185E+03  0.34356693238E+03  0.00000000000E+00 0.  1.
         11    1    1    2    0    0 -0.27500305959E+02  0.40186530919E+02  0.94441750677E+02  0.10625661563E+03  0.00000000000E+00 0. -1.
</event>
<event>
 7    1  0.3508383E-009  0.9655367E+02  0.7561462E-02  0.1287715E+00
         -2   -1    0    0    0  501 -0.00000000000E+00  0.00000000000E+00  0.10513544537E+02  0.10513544537E+02  0.00000000000E+00 0.  1.
          2   -1    0    0  501    0  0.00000000000E+00 -0.00000000000E+00 -0.14481008154E+04  0.14481008154E+04  0.00000000000E+00 0. -1.
         25    2    1    2    0    0 -0.18510519573E+02 -0.24409159450E+02 -0.11052165272E+04  0.11126949556E+04  0.12509214939E+03 0.  0.
          5    1    3    3  502    0 -0.24189940141E+02 -0.61802375360E+02 -0.33485776713E+03  0.34139695870E+03  0.41800000000E+01 0.  1.
         -5    1    3    3    0  502  0.56794205683E+01  0.37393215910E+02 -0.77035876003E+03  0.77129799686E+03  0.41800000000E+01 0.  1.
        -11    1    1    2    0    0 -0.24037578883E+02  0.37054417697E+02 -0.99597060985E+02  0.10895140947E+03  0.00000000000E+00 0.  1.
         11    1    1    2    0    0  0.42548098456E+02 -0.12645258247E+02 -0.23277368272E+03  0.23696799490E+03  0.00000000000E+00 0. -1.
</event>
<event>
 7    1  0.3265282E-009  0.1181714E+03  0.7561462E-02  0.1246145E+00
         -1   -1    0    0    0  501 -0.00000000000E+00  0.00000000000E+00  0.51815264479E+02  0.51815264479E+02  0.00000000000E+00 0.  1.
          1   -1    0    0  501    0  0.00000000000E+00 -0.00000000000E+00 -0.30440419480E+03  0.30440419480E+03  0.00000000000E+00 0. -1.
         25    2    1    2    0    0  0.14629316154E+02  0.54314998792E+02 -0.10036361488E+03  0.16995313224E+03  0.12508827275E+03 0.  0.
          5    1    3    3  502    0 -0.52856475330E+02  0.36771075264E+02 -0.65267234416E+02  0.91778010704E+02  0.41800000000E+01 0.  1.
         -5    1    3    3    0  502  0.67485791485E+02  0.17543923528E+02 -0.35096380459E+02  0.78175121531E+02  0.41800000000E+01 0.  1.
        -11    1    1    2    0    0  0.26052511035E+01  0.22799250768E+02 -0.13523503719E+02  0.26636034272E+02  0.00000000000E+00 0.  1.
         11    1    1    2    0    0 -0.17234567258E+02 -0.77114249561E+02 -0.13870181173E+03  0.15963029277E+03  0.00000000000E+00 0. -1.
</event>
<event>
 7    1  0.3265282E-009  0.1422500E+03  0.7561462E-02  0.1210333E+00
         -3   -1    0    0    0  501 -0.00000000000E+00  0.00000000000E+00  0.18185867405E+03  0.18185867405E+03  0.00000000000E+00 0.  1.
          3   -1    0    0  501    0  0.00000000000E+00 -0.00000000000E+00 -0.13078766510E+03  0.13078766510E+03  0.00000000000E+00 0. -1.
         25    2    1    2    0    0  0.19377224609E+02 -0.10962859435E+03  0.28917075419E+02  0.16993183532E+03  0.12508687330E+03 0.  0.
          5    1    3    3  502    0  0.40802361040E+02  0.93675822076E+01 -0.92412105320E+01  0.43075011723E+02  0.41800000000E+01 0. -1.
         -5    1    3    3    0  502 -0.21425136431E+02 -0.11899617655E+03  0.38158285951E+02  0.12685682359E+03  0.41800000000E+01 0. -1.
        -11    1    1    2    0    0  0.15534022385E+02  0.49911445703E+02  0.45914324363E+02  0.69574301615E+02  0.00000000000E+00 0.  1.
         11    1    1    2    0    0 -0.34911246994E+02  0.59717148643E+02 -0.23760390832E+02  0.73140202223E+02  0.00000000000E+00 0. -1.
</event>
<event>
 7    1  0.3265282E-009  0.1302720E+03  0.7561462E-02  0.1227053E+00
          2   -1    0    0  501    0  0.00000000000E+00  0.00000000000E+00  0.74959678402E+03  0.74959678402E+03  0.00000000000E+00 0. -1.
         -2   -1    0    0    0  501 -0.00000000000E+00 -0.00000000000E+00 -0.26533693944E+02  0.26533693944E+02  0.00000000000E+00 0.  1.
         25    2    1    2    0    0 -0.85583401010E+01 -0.55128710042E+02  0.23328082038E+03  0.27051861296E+03  0.12509180206E+03 0.  0.
          5    1    3    3  502    0 -0.13294899256E+02 -0.94309456529E+02  0.18412565122E+03  0.20734212253E+03  0.41800000000E+01 0. -1.
         -5    1    3    3    0  502  0.47365591551E+01  0.39180746487E+02  0.49155169157E+02  0.63176490427E+02  0.41800000000E+01 0. -1.
        -11    1    1    2    0    0  0.38611288780E+02  0.78480622978E+02  0.34261392931E+03  0.35360195752E+03  0.00000000000E+00 0.  1.
         11    1    1    2    0    0 -0.30052948679E+02 -0.23351912936E+02  0.14716834039E+03  0.15200990749E+03  0.00000000000E+00 0. -1.
</event>
<event>
 7    1  0.3265282E-009  0.1010212E+03  0.7561462E-02  0.1278163E+00
         -4   -1    0    0    0  501 -0.00000000000E+00  0.00000000000E+00  0.23260648884E+03  0.23260648884E+03  0.00000000000E+00 0.  1.
          4   -1    0    0  501    0  0.00000000000E+00 -0.00000000000E+00 -0.77383816112E+02  0.77383816112E+02  0.00000000000E+00 0. -1.
         25    2    1    2    0    0  0.85979446007E+02 -0.38305846119E+02  0.77991581350E+02  0.17489997306E+03  0.12509001092E+03 0.  0.
          5    1    3    3  502    0  0.33953243727E+02  0.30131794107E+01  0.99246220933E+02  0.10501993515E+03  0.41800000000E+01 0. -1.
         -5    1    3    3    0  502  0.52026202280E+02 -0.41319025530E+02 -0.21254639583E+02  0.69880037909E+02  0.41800000000E+01 0. -1.
        -11    1    1    2    0    0 -0.48542606405E+02  0.14018381742E+01  0.64965277063E+02  0.81110030272E+02  0.00000000000E+00 0. -1.
         11    1    1    2    0    0 -0.37436839602E+02  0.36904007945E+02  0.12265814312E+02  0.53980301616E+02  0.00000000000E+00 0.  1.
</event>
<event>
 7    1  0.3265282E-009  0.2053489E+03  0.7561462E-02  0.1145303E+00
         -3   -1    0    0    0  501 -0.00000000000E+00  0.00000000000E+00  0.25070144349E+03  0.25070144349E+03  0.00000000000E+00 0.  1.
          3   -1    0    0  501    0  0.00000000000E+00 -0.00000000000E+00 -0.33530928627E+03  0.33530928627E+03  0.00000000000E+00 0. -1.
         25    2    1    2    0    0 -0.55897807044E+01  0.19633201249E+03  0.14111616124E+03  0.27228229174E+03  0.12508545343E+03 0.  0.
          5    1    3    3  502    0 -0.77466154102E+01  0.16675209665E+03  0.16441055461E+03  0.23433858976E+03  0.41800000000E+01 0.  1.
         -5    1    3    3    0  502  0.21568347058E+01  0.29579915840E+02 -0.23294393373E+02  0.37943701976E+02  0.41800000000E+01 0.  1.
        -11    1    1    2    0    0  0.43866676679E+02 -0.12971050828E+03 -0.11420351633E+03  0.17830183516E+03  0.00000000000E+00 0.  1.
         11    1    1    2    0    0 -0.38276895975E+02 -0.66621504207E+02 -0.11152048769E+03  0.13542660286E+03  0.00000000000E+00 0. -1.
</event>
<event>
 7    1  0.3748863E-009  0.8373657E+02  0.7561462E-02  0.1318770E+00
          1   -1    0    0  501    0  0.00000000000E+00  0.00000000000E+00  0.19232770975E+03  0.19232770975E+03  0.00000000000E+00 0. -1.
         -1   -1    0    0    0  501 -0.00000000000E+00 -0.00000000000E+00 -0.68856627277E+02  0.68856627277E+02  0.00000000000E+00 0.  1.
         25    2    1    2    0    0 -0.10405790267E+02 -0.32241383886E+02  0.92755423813E+02  0.15936658741E+03  0.12508538375E+03 0.  0.
          5    1    3    3  502    0  0.44586040279E+02 -0.30900393460E+02  0.36042532567E+01  0.54527170707E+02  0.41800000000E+01 0. -1.
         -5    1    3    3    0  502 -0.54991830546E+02 -0.13409904257E+01  0.89151170556E+02  0.10483941670E+03  0.41800000000E+01 0. -1.
        -11    1    1    2    0    0  0.14213963818E+02  0.43631598980E+02 -0.19738706489E+02  0.49953675849E+02  0.00000000000E+00 0.  1.
         11    1    1    2    0    0 -0.38081735510E+01 -0.11390215095E+02  0.50454365151E+02  0.51864073775E+02  0.00000000000E+00 0. -1.
</event>
<event>
 7    1  0.3265282E-009  0.9241589E+02  0.7561462E-02  0.1297105E+00
          2   -1    0    0  501    0  0.00000000000E+00  0.00000000000E+00  0.18196995695E+03  0.18196995695E+03  0.00000000000E+00 0. -1.
         -2   -1    0    0    0  501 -0.00000000000E+00 -0.00000000000E+00 -0.71519828857E+02  0.71519828857E+02  0.00000000000E+00 0.  1.
         25    2    1    2    0    0 -0.77207577905E+01 -0.13167203010E+02  0.78405207726E+02  0.14841931102E+03  0.12509168617E+03 0.  0.
          5    1    3    3  502    0 -0.37983348163E+02  0.24109172907E+02 -0.11311326030E+02  0.46576876801E+02  0.41800000000E+01 0.  1.
         -5    1    3    3    0  502  0.30262590372E+02 -0.37276375918E+02  0.89716533757E+02  0.10184243422E+03  0.41800000000E+01 0.  1.
        -11    1    1    2    0    0 -0.22108174083E+01  0.51656398129E+02 -0.33962875319E+01  0.51815113146E+02  0.00000000000E+00 0.  1.
         11    1    1    2    0    0  0.99315751988E+01 -0.38489195119E+02  0.35441207903E+02  0.53255361650E+02  0.00000000000E+00 0. -1.
</event>
<event>
 7    1  0.3265282E-009  0.1226835E+03  0.7561462E-02  0.1238735E+00
          1   -1    0    0  501    0  0.00000000000E+00  0.00000000000E+00  0.22247760193E+03  0.22247760193E+03  0.00000000000E+00 0. -1.
         -1   -1    0    0    0  501 -0.00000000000E+00 -0.00000000000E+00 -0.10780228732E+03  0.10780228732E+03  0.00000000000E+00 0.  1.
         25    2    1    2    0    0  0.22015665117E+02 -0.55436350388E+02  0.15936108218E+03  0.21119012994E+03  0.12508971986E+03 0.  0.
          5    1    3    3  502    0 -0.50715171028E+02 -0.20203777324E+02  0.86082204190E+02  0.10201881919E+03  0.41800000000E+01 0.  1.
         -5    1    3    3    0  502  0.72730836146E+02 -0.35232573064E+02  0.73278877992E+02  0.10917131075E+03  0.41800000000E+01 0.  1.
        -11    1    1    2    0    0 -0.51409435471E+02  0.54410804470E+01 -0.14411969878E+02  0.53667870162E+02  0.00000000000E+00 0. -1.
         11    1    1    2    0    0  0.29393770354E+02  0.49995269941E+02 -0.30273797696E+02  0.65421889143E+02  0.00000000000E+00 0.  1.
</event>
<event>
 7    1  0.3265282E-009  0.1990736E+03  0.7561462E-02  0.1150523E+00
          2   -1    0    0  501    0  0.00000000000E+00  0.00000000000E+00  0.10984965766E+04  0.10984965766E+04  0.00000000000E+00 0.  1.
         -2   -1    0    0    0  501 -0.00000000000E+00 -0.00000000000E+00 -0.49415031885E+02  0.49415031885E+02  0.00000000000E+00 0. -1.
         25    2    1    2    0    0 -0.60226232844E+00  0.19801130084E+03  0.66718223763E+03  0.70709906689E+03  0.12509242267E+03 0.  0.
          5    1    3    3  502    0  0.60694536977E+01  0.18325015188E+03  0.40738011367E+03  0.44675886767E+03  0.41800000000E+01 0. -1.
         -5    1    3    3    0  502 -0.66717160262E+01  0.14761148954E+02  0.25980212396E+03  0.26034019922E+03  0.41800000000E+01 0. -1.
        -11    1    1    2    0    0 -0.51879495668E+00 -0.10782742855E+03  0.30072195900E+03  0.31946943535E+03  0.00000000000E+00 0.  1.
         11    1    1    2    0    0  0.11210572851E+01 -0.90183872287E+02  0.81177348064E+02  0.12134310623E+03  0.00000000000E+00 0. -1.
</event>
<event>
 7    1  0.3265282E-009  0.1400861E+03  0.7561462E-02  0.1213213E+00
          1   -1    0    0  501    0  0.00000000000E+00  0.00000000000E+00  0.31025239389E+03  0.31025239389E+03  0.00000000000E+00 0. -1.
         -1   -1    0    0    0  501 -0.00000000000E+00 -0.00000000000E+00 -0.79722399636E+02  0.79722399636E+02  0.00000000000E+00 0.  1.
         25    2    1    2    0    0 -0.20851666336E+02 -0.10571792100E+03  0.15639830338E+03  0.22741925076E+03  0.12509202815E+03 0.  0.
          5    1    3    3  502    0 -0.17802822573E+02 -0.13293915905E+03  0.11061873919E+03  0.17390726942E+03  0.41800000000E+01 0.  1.
         -5    1    3    3    0  502 -0.30488437631E+01  0.27221238042E+02  0.45779564192E+02  0.53511981335E+02  0.41800000000E+01 0.  1.
        -11    1    1    2    0    0  0.36914167855E+02  0.71199678370E+02  0.11136192648E+01  0.80207793488E+02  0.00000000000E+00 0.  1.
         11    1    1    2    0    0 -0.16062501519E+02  0.34518242634E+02  0.73018071613E+02  0.82347749281E+02  0.00000000000E+00 0. -1.
</event>
<event>
 7    1  0.3265282E-009  0.1143605E+03  0.7561462E-02  0.1252702E+00
          4   -1    0    0  501    0  0.00000000000E+00  0.00000000000E+00  0.41799741423E+02  0.41799741423E+02  0.00000000000E+00 0. -1.
         -4   -1    0    0    0  501 -0.00000000000E+00 -0.00000000000E+00 -0.37344629961E+03  0.37344629961E+03  0.00000000000E+00 0.  1.
         25    2    1    2    0    0  0.46738768177E+02 -0.38533588721E+02 -0.17214233984E+03  0.22124757091E+03  0.12509257596E+03 0.  0.
          5    1    3    3  502    0  0.80918730297E+02 -0.57068991096E+02 -0.11250360087E+03  0.14993079493E+03  0.41800000000E+01 0.  1.
         -5    1    3    3    0  502 -0.34179962120E+02  0.18535402375E+02 -0.59638738966E+02  0.71316775987E+02  0.41800000000E+01 0.  1.
        -11    1    1    2    0    0 -0.23890647564E+02  0.56563862416E+02 -0.45729499240E+02  0.76559915577E+02  0.00000000000E+00 0. -1.
         11    1    1    2    0    0 -0.22848120613E+02 -0.18030273695E+02 -0.11377471911E+03  0.11743855454E+03  0.00000000000E+00 0.  1.
</event>
<event>
 7    1  0.3265282E-009  0.1321198E+03  0.7561462E-02  0.1224344E+00
         -2   -1    0    0    0  501 -0.00000000000E+00  0.00000000000E+00  0.49008262451E+02  0.49008262451E+02  0.00000000000E+00 0.  1.
          2   -1    0    0  501    0  0.00000000000E+00 -0.00000000000E+00 -0.69103708472E+03  0.69103708472E+03  0.00000000000E+00 0. -1.
         25    2    1    2    0    0 -0.12665456326E+02 -0.88678311512E+02 -0.57464625104E+03  0.59488676144E+03  0.12509072062E+03 0.  0.
          5    1    3    3  502    0  0.40670876169E+02 -0.11901928283E+02 -0.33371304402E+03  0.33641885235E+03  0.41800000000E+01 0. -1.
         -5    1    3    3    0  502 -0.53336332495E+02 -0.76776383229E+02 -0.24093320702E+03  0.25846790910E+03  0.41800000000E+01 0. -1.
        -11    1    1    2    0    0 -0.27638661982E+02  0.82871632399E+02 -0.51777782621E+02  0.10155068619E+03  0.00000000000E+00 0. -1.
         11    1    1    2    0    0  0.40304118308E+02  0.58066791125E+01 -0.15604788607E+02  0.43607899541E+02  0.00000000000E+00 0.  1.
</event>
<event>
 7    1  0.3265282E-009  0.1052553E+03  0.7561462E-02  0.1269618E+00
         -1   -1    0    0    0  501 -0.00000000000E+00  0.00000000000E+00  0.40437246523E+03  0.40437246523E+03  0.00000000000E+00 0.  1.
          1   -1    0    0  501    0  0.00000000000E+00 -0.00000000000E+00 -0.35440813215E+02  0.35440813215E+02  0.00000000000E+00 0. -1.
         25    2    1    2    0    0 -0.23533868559E+02  0.18487572071E+02  0.13361196442E+03  0.18545686380E+03  0.12508580256E+03 0.  0.
          5    1    3    3  502    0  0.41779499150E+02  0.25238412669E+02  0.10049092376E+03  0.11179625299E+03  0.41800000000E+01 0.  1.
         -5    1    3    3    0  502 -0.65313367709E+02 -0.67508405985E+01  0.33121040655E+02  0.73660610806E+02  0.41800000000E+01 0.  1.
        -11    1    1    2    0    0  0.34647988050E+02  0.30092425230E+02  0.12945047623E+03  0.13734432252E+03  0.00000000000E+00 0. -1.
         11    1    1    2    0    0 -0.11114119490E+02 -0.48579997300E+02  0.10586921136E+03  0.11701209213E+03  0.00000000000E+00 0.  1.
</event>
<event>
 7    1  0.3265282E-009  0.6581186E+02  0.7561462E-02  0.1374943E+00
         -2   -1    0    0    0  501 -0.00000000000E+00  0.00000000000E+00  0.18483782167E+02  0.18483782167E+02  0.00000000000E+00 0.  1.
          2   -1    0    0  501    0  0.00000000000E+00 -0.00000000000E+00 -0.68465547549E+03  0.68465547549E+03  0.00000000000E+00 0. -1.
         25    2    1    2    0    0 -0.27953121655E+02  0.14039970925E+02 -0.38248590011E+03  0.40363534660E+03  0.12509009333E+03 0.  0.
          5    1    3    3  502    0 -0.25479515513E+02 -0.88473967400E+01 -0.37899824312E+03  0.37997976634E+03  0.41800000000E+01 0. -1.
         -5    1    3    3    0  502 -0.24736061417E+01  0.22887367665E+02 -0.34876569837E+01  0.23655580255E+02  0.41800000000E+01 0. -1.
        -11    1    1    2    0    0  0.50040225967E+02  0.68800449534E+01 -0.24569662568E+03  0.25083498780E+03  0.00000000000E+00 0.  1.
         11    1    1    2    0    0 -0.22087104311E+02 -0.20920015878E+02 -0.37989167539E+02  0.48668923262E+02  0.00000000000E+00 0. -1.
</event>
<event>
 7    1  0.3265282E-009  0.9081640E+02  0.7561462E-02  0.1300887E+00
          2   -1    0    0  501    0  0.00000000000E+00  0.00000000000E+00  0.11486142433E+04  0.11486142433E+04  0.00000000000E+00 0. -1.
         -2   -1    0    0    0  501 -0.00000000000E+00 -0.00000000000E+00 -0.13254004982E+02  0.13254004982E+02  0.00000000000E+00 0.  1.
         25    2    1    2    0    0  0.51640079602E+02  0.15188645889E+02  0.74485918364E+03  0.75720704488E+03  0.12509961061E+03 0.  0.
          5    1    3    3  502    0  0.38083258907E+02  0.38630136401E+02  0.71346899102E+03  0.71554042205E+03  0.41800000000E+01 0. -1.
         -5    1    3    3    0  502  0.13556820695E+02 -0.23441490512E+02  0.31390192624E+02  0.41666622827E+02  0.41800000000E+01 0. -1.
        -11    1    1    2    0    0  0.22823326333E+02 -0.10755772385E+02  0.49071914526E+02  0.55178289750E+02  0.00000000000E+00 0.  1.
         11    1    1    2    0    0 -0.74463405935E+02 -0.44328735036E+01  0.34142914012E+03  0.34948291362E+03  0.00000000000E+00 0. -1.
</event>
<event>
 7    1  0.3265282E-009  0.9886658E+02  0.7561462E-02  0.1282698E+00
          3   -1    0    0  501    0  0.00000000000E+00  0.00000000000E+00  0.46763315883E+02  0.46763315883E+02  0.00000000000E+00 0. -1.
         -3   -1    0    0    0  501 -0.00000000000E+00 -0.00000000000E+00 -0.30843550098E+03  0.30843550098E+03  0.00000000000E+00 0.  1.
         25    2    1    2    0    0  0.22032293972E+02 -0.37991259682E+02 -0.10938990850E+03  0.17187678838E+03  0.12508685187E+03 0.  0.
          5    1    3    3  502    0 -0.34411007924E+02 -0.35078312744E+02 -0.72523679371E+00  0.49321434080E+02  0.41800000000E+01 0.  1.
         -5    1    3    3    0  502  0.56443301897E+02 -0.29129469381E+01 -0.10866467171E+03  0.12255535430E+03  0.41800000000E+01 0.  1.
        -11    1    1    2    0    0  0.93961164008E+01 -0.22053502768E+02 -0.83046208512E+02  0.86436778838E+02  0.00000000000E+00 0.  1.
         11    1    1    2    0    0 -0.31428410373E+02  0.60044762450E+02 -0.69236068086E+02  0.96885249652E+02  0.00000000000E+00 0. -1.
</event>
<event>
 7    1  0.3265282E-009  0.7292086E+02  0.7561462E-02  0.1350433E+00
         -1   -1    0    0    0  501 -0.00000000000E+00  0.00000000000E+00  0.64950156833E+02  0.64950156833E+02  0.00000000000E+00 0.  1.
          1   -1    0    0  501    0  0.00000000000E+00 -0.00000000000E+00 -0.23924135753E+03  0.23924135753E+03  0.00000000000E+00 0. -1.
         25    2    1    2    0    0 -0.36941848546E+02  0.60500833980E+02 -0.84393452968E+02  0.16671820391E+03  0.12509058128E+03 0.  0.
          5    1    3    3  502    0 -0.18508778375E+02  0.47070491890E+02  0.23809616524E+02  0.56058686416E+02  0.41800000000E+01 0.  1.
         -5    1    3    3    0  502 -0.18433070171E+02  0.13430342091E+02 -0.10820306949E+03  0.11065951749E+03  0.41800000000E+01 0.  1.
        -11    1    1    2    0    0  0.10100155446E+02 -0.78007777716E+01  0.13361253573E+02  0.18476698053E+02  0.00000000000E+00 0.  1.
         11    1    1    2    0    0  0.26841693100E+02 -0.52700056209E+02 -0.10325900130E+03  0.11899661240E+03  0.00000000000E+00 0. -1.
</event>
<event>
 7    1  0.3265282E-009  0.6168062E+02  0.7561462E-02  0.1390911E+00
         -1   -1    0    0    0  501 -0.00000000000E+00  0.00000000000E+00  0.58602552913E+02  0.58602552913E+02  0.00000000000E+00 0.  1.
          1   -1    0    0  501    0  0.00000000000E+00 -0.00000000000E+00 -0.21866858977E+03  0.21866858977E+03  0.00000000000E+00 0. -1.
         25    2    1    2    0    0  0.21322720168E+00 -0.29888646867E+02 -0.10831472795E+03  0.16814551886E+03  0.12508980191E+03 0.  0.
          5    1    3    3  502    0 -0.22473438237E+02 -0.30987521336E+02  0.16003947037E+02  0.41699887596E+02  0.41800000000E+01 0.  1.
         -5    1    3    3    0  502  0.22686665439E+02  0.10988744690E+01 -0.12431867499E+03  0.12644563126E+03  0.41800000000E+01 0.  1.
        -11    1    1    2    0    0 -0.16555342333E+02  0.39480363731E+02 -0.70492592750E+02  0.82474142085E+02  0.00000000000E+00 0. -1.
         11    1    1    2    0    0  0.16342115131E+02 -0.95917168639E+01  0.18741283840E+02  0.26651481747E+02  0.00000000000E+00 0.  1.
</event>
<event>
 7    1  0.3265282E-009  0.1330909E+03  0.7561462E-02  0.1222940E+00
          2   -1    0    0  501    0  0.00000000000E+00  0.00000000000E+00  0.86912111129E+02  0.86912111129E+02  0.00000000000E+00 0. -1.
         -2   -1    0    0    0  501 -0.00000000000E+00 -0.00000000000E+00 -0.38684256023E+03  0.38684256023E+03  0.00000000000E+00 0.  1.
         25    2    1    2    0    0  0.52206282102E+02 -0.66322946427E+02 -0.31575396164E+03  0.34996071535E+03  0.12509080256E+03 0.  0.
          5    1    3    3  502    0 -0.20173792942E+01  0.31363902925E+02 -0.32333500108E+02  0.45284565308E+02  0.41800000000E+01 0.  1.
         -5    1    3    3    0  502  0.54223661396E+02 -0.97686849351E+02 -0.28342046153E+03  0.30467615005E+03  0.41800000000E+01 0.  1.
        -11    1    1    2    0    0 -0.71969832662E+02  0.23839224414E+02  0.72611602562E+01  0.76162260223E+02  0.00000000000E+00 0.  1.
         11    1    1    2    0    0  0.19763550560E+02  0.42483722013E+02  0.85623522802E+01  0.47631695785E+02  0.00000000000E+00 0. -1.
</event>
<event>
 7    1  0.3265282E-009  0.9775538E+02  0.7561462E-02  0.1285088E+00
         -1   -1    0    0    0  501 -0.00000000000E+00  0.00000000000E+00  0.13634476000E+03  0.13634476000E+03  0.00000000000E+00 0.  1.
          1   -1    0    0  501    0  0.00000000000E+00 -0.00000000000E+00 -0.12368888084E+03  0.12368888084E+03  0.00000000000E+00 0. -1.
         25    2    1    2    0    0  0.72779281074E+02 -0.11975729940E+02  0.27777728445E+02  0.14785322446E+03  0.12509489168E+03 0.  0.
          5    1    3    3  502    0  0.85375481877E+01 -0.28196567033E+02  0.65181346266E+02  0.71652051069E+02  0.41800000000E+01 0.  1.
         -5    1    3    3    0  502  0.64241732886E+02  0.16220837093E+02 -0.37403617821E+02  0.76201173392E+02  0.41800000000E+01 0.  1.
        -11    1    1    2    0    0 -0.81037277384E+02 -0.42609538999E+01 -0.32110983458E+02  0.87271480523E+02  0.00000000000E+00 0. -1.
         11    1    1    2    0    0  0.82579963098E+01  0.16236683840E+02  0.16989134178E+02  0.24908935852E+02  0.00000000000E+00 0.  1.
</event>
<event>
 7    1  0.3265282E-009  0.1144529E+03  0.7561462E-02  0.1252539E+00
          2   -1    0    0  501    0  0.00000000000E+00  0.00000000000E+00  0.16132516153E+03  0.16132516153E+03  0.00000000000E+00 0. -1.
         -2   -1    0    0    0  501 -0.00000000000E+00 -0.00000000000E+00 -0.94472510942E+02  0.94472510942E+02  0.00000000000E+00 0.  1.
         25    2    1    2    0    0 -0.51756919105E+02 -0.29076802983E+02  0.39872171115E+02  0.14408990881E+03  0.12509145712E+03 0.  0.
          5    1    3    3  502    0  0.12873151458E+02 -0.62506372971E+02  0.76846146732E+01  0.64414985781E+02  0.41800000000E+01 0.  1.
         -5    1    3    3    0  502 -0.64630070563E+02  0.33429569989E+02  0.32187556442E+02  0.79674923033E+02  0.41800000000E+01 0.  1.
        -11    1    1    2    0    0  0.93998533087E+01 -0.23054443152E+02  0.36171780071E+02  0.43911983157E+02  0.00000000000E+00 0. -1.
         11    1    1    2    0    0  0.42357065797E+02  0.52131246135E+02 -0.91913006017E+01  0.67795780497E+02  0.00000000000E+00 0.  1.
</event>
<event>
 6    1  0.3265282E-009  0.1163305E+03  0.7561462E-02  0.1249276E+00
          2   -1    0    0  501    0  0.00000000000E+00  0.00000000000E+00  0.82188739676E+03  0.82188739676E+03  0.00000000000E+00 0. -1.
         -2   -1    0    0    0  501 -0.00000000000E+00 -0.00000000000E+00 -0.19222054019E+02  0.19222054019E+02  0.00000000000E+00 0.  1.
          5    1    1    2  502    0  0.45490271295E+02  0.72831993167E+02  0.34065372490E+03  0.35133502060E+03  0.41800000000E+01 0.  1.
         -5    1    1    2    0  502 -0.22188302085E+02 -0.37951429507E+02  0.25318987849E+03  0.25701209839E+03  0.41800000000E+01 0.  1.
        -11    1    1    2    0    0 -0.59192710765E+02 -0.29828161071E+02  0.12645862628E+03  0.14277703023E+03  0.00000000000E+00 0.  1.
         11    1    1    2    0    0  0.35890741555E+02 -0.50524025890E+01  0.82363113074E+02  0.89985301559E+02  0.00000000000E+00 0. -1.
</event>
<event>
 7    1  0.3265282E-009  0.1166373E+03  0.7561462E-02  0.1248750E+00
          1   -1    0    0  501    0  0.00000000000E+00  0.00000000000E+00  0.40251276896E+02  0.40251276896E+02  0.00000000000E+00 0. -1.
         -1   -1    0    0    0  501 -0.00000000000E+00 -0.00000000000E+00 -0.57693037834E+03  0.57693037834E+03  0.00000000000E+00 0.  1.
         25    2    1    2    0    0 -0.42145279231E+02  0.95758071785E+02 -0.25784483303E+03  0.30508594510E+03  0.12509053964E+03 0.  0.
          5    1    3    3  502    0 -0.33720319728E+01  0.88785370738E+02 -0.24911605968E+03  0.26451936838E+03  0.41800000000E+01 0.  1.
         -5    1    3    3    0  502 -0.38773247258E+02  0.69727010468E+01 -0.87287733456E+01  0.40566576722E+02  0.41800000000E+01 0.  1.
        -11    1    1    2    0    0  0.24746222097E+02 -0.61368988324E+02 -0.26166894848E+03  0.26990584809E+03  0.00000000000E+00 0.  1.
         11    1    1    2    0    0  0.17399057134E+02 -0.34389083461E+02 -0.17165319933E+02  0.42189862039E+02  0.00000000000E+00 0. -1.
</event>
<event>
 7    1  0.3265282E-009  0.9333514E+02  0.7561462E-02  0.1294970E+00
         -1   -1    0    0    0  501 -0.00000000000E+00  0.00000000000E+00  0.16368139169E+03  0.16368139169E+03  0.00000000000E+00 0.  1.
          1   -1    0    0  501    0  0.00000000000E+00 -0.00000000000E+00 -0.99502547349E+02  0.99502547349E+02  0.00000000000E+00 0. -1.
         25    2    1    2    0    0  0.65895162100E+02 -0.10513193139E+02  0.35954673128E+02  0.14626269545E+03  0.12508931986E+03 0.  0.
          5    1    3    3  502    0 -0.25695864256E+02 -0.10149855824E+02 -0.23898882699E+02  0.36768546440E+02  0.41800000000E+01 0.  1.
         -5    1    3    3    0  502  0.91591026356E+02 -0.36333731505E+00  0.59853555827E+02  0.10949414901E+03  0.41800000000E+01 0.  1.
        -11    1    1    2    0    0 -0.44796126380E+02  0.40729691665E+01 -0.30395675626E+02  0.54287927878E+02  0.00000000000E+00 0. -1.
         11    1    1    2    0    0 -0.21099035720E+02  0.64402239729E+01  0.58619846840E+02  0.62633315709E+02  0.00000000000E+00 0.  1.
</event>
<event>
 7    1  0.3265282E-009  0.1250058E+03  0.7561462E-02  0.1235060E+00
          2   -1    0    0  501    0  0.00000000000E+00  0.00000000000E+00  0.20238107973E+04  0.20238107973E+04  0.00000000000E+00 0. -1.
         -2   -1    0    0    0  501 -0.00000000000E+00 -0.00000000000E+00 -0.13044072543E+02  0.13044072543E+02  0.00000000000E+00 0.  1.
         25    2    1    2    0    0  0.41030449640E+02  0.61161692234E+02  0.16949964738E+04  0.17012011164E+04  0.12509173392E+03 0.  0.
          5    1    3    3  502    0  0.40750943294E+02 -0.31003272696E+02  0.49319051960E+03  0.49585905591E+03  0.41800000000E+01 0. -1.
         -5    1    3    3    0  502  0.27950634601E+00  0.92164964930E+02  0.12018059542E+04  0.12053420605E+04  0.41800000000E+01 0. -1.
        -11    1    1    2    0    0 -0.63985155010E+02 -0.42770710798E+02  0.27374052702E+03  0.28435419796E+03  0.00000000000E+00 0. -1.
         11    1    1    2    0    0  0.22954705370E+02 -0.18390981436E+02  0.42029723905E+02  0.51299555440E+02  0.00000000000E+00 0.  1.
</event>
<event>
 7    1  0.3265282E-009  0.1010296E+03  0.7561462E-02  0.1278146E+00
          1   -1    0    0  501    0  0.00000000000E+00  0.00000000000E+00  0.25934958610E+03  0.25934958610E+03  0.00000000000E+00 0.  1.
         -1   -1    0    0    0  501 -0.00000000000E+00 -0.00000000000E+00 -0.87739065104E+02  0.87739065104E+02  0.00000000000E+00 0. -1.
         25    2    1    2    0    0  0.27212275176E+02 -0.70718381139E+02  0.17358312855E+03  0.22698706396E+03  0.12510166800E+03 0.  0.
          5    1    3    3  502    0  0.36053673693E+02  0.11256723915E+02  0.12620450997E+03  0.13180148693E+03  0.41800000000E+01 0. -1.
         -5    1    3    3    0  502 -0.88413985173E+01 -0.81975105054E+02  0.47378618581E+02  0.95185577032E+02  0.41800000000E+01 0. -1.
        -11    1    1    2    0    0  0.63876118285E+01  0.16778345753E+02 -0.41531533012E+02  0.45245803180E+02  0.00000000000E+00 0. -1.
         11    1    1    2    0    0 -0.33599887004E+02  0.53940035386E+02  0.39558925455E+02  0.74855784061E+02  0.00000000000E+00 0.  1.
</event>
<event>
 7    1  0.3265282E-009  0.1931694E+03  0.7561462E-02  0.1155633E+00
          1   -1    0    0  501    0  0.00000000000E+00  0.00000000000E+00  0.38257842140E+03  0.38257842140E+03  0.00000000000E+00 0. -1.
         -1   -1    0    0    0  501 -0.00000000000E+00 -0.00000000000E+00 -0.10714352482E+03  0.10714352482E+03  0.00000000000E+00 0.  1.
         25    2    1    2    0    0 -0.54264574506E+02 -0.15512972155E+03  0.88360198513E+02  0.22464146689E+03  0.12508552838E+03 0.  0.
          5    1    3    3  502    0  0.69319661427E+01 -0.13312240720E+03  0.28985797503E+02  0.13648178014E+03  0.41800000000E+01 0.  1.
         -5    1    3    3    0  502 -0.61196540649E+02 -0.22007314350E+02  0.59374401011E+02  0.88159686749E+02  0.41800000000E+01 0.  1.
        -11    1    1    2    0    0 -0.21636835850E+02  0.72245491258E+02  0.75744591212E+02  0.10688688774E+03  0.00000000000E+00 0.  1.
         11    1    1    2    0    0  0.75901410356E+02  0.82884230294E+02  0.11133010686E+03  0.15819359158E+03  0.00000000000E+00 0. -1.
</event>
<event>
 7    1  0.3265282E-009  0.1856467E+03  0.7561462E-02  0.1162447E+00
          1   -1    0    0  501    0  0.00000000000E+00  0.00000000000E+00  0.97511278183E+02  0.97511278183E+02  0.00000000000E+00 0. -1.
         -1   -1    0    0    0  501 -0.00000000000E+00 -0.00000000000E+00 -0.44154874541E+03  0.44154874541E+03  0.00000000000E+00 0.  1.
         25    2    1    2    0    0 -0.92619567689E+02  0.14610399779E+03 -0.12977153689E+03  0.24983058296E+03  0.12509958396E+03 0.  0.
          5    1    3    3  502    0 -0.68642426731E+02  0.14217913207E+03 -0.15009350364E+03  0.21788120750E+03  0.41800000000E+01 0. -1.
         -5    1    3    3    0  502 -0.23977140957E+02  0.39248657121E+01  0.20321966757E+02  0.31949375459E+02  0.41800000000E+01 0. -1.
        -11    1    1    2    0    0  0.11815940697E+02 -0.88944754349E+02 -0.13653339664E+03  0.16337733679E+03  0.00000000000E+00 0.  1.
         11    1    1    2    0    0  0.80803626992E+02 -0.57159243437E+02 -0.77732533704E+02  0.12585210384E+03  0.00000000000E+00 0. -1.
</event>
<event>
 7    1  0.3265282E-009  0.1020846E+03  0.7561462E-02  0.1275972E+00
          1   -1    0    0  501    0  0.00000000000E+00  0.00000000000E+00  0.86090886146E+02  0.86090886146E+02  0.00000000000E+00 0. -1.
         -1   -1    0    0    0  501 -0.00000000000E+00 -0.00000000000E+00 -0.19344934064E+03  0.19344934064E+03  0.00000000000E+00 0.  1.
         25    2    1    2    0    0 -0.13340849113E+02 -0.67921984190E+02 -0.55147028606E+02  0.15323445613E+03  0.12509288385E+03 0.  0.
          5    1    3    3  502    0 -0.39972637429E+02  0.48654000500E+01  0.20038220549E+02  0.45171744968E+02  0.41800000000E+01 0. -1.
         -5    1    3    3    0  502  0.26631788316E+02 -0.72787384240E+02 -0.75185249155E+02  0.10806271116E+03  0.41800000000E+01 0. -1.
        -11    1    1    2    0    0  0.17553188869E+02 -0.45533398702E+00 -0.55007216353E+02  0.57741801318E+02  0.00000000000E+00 0.  1.
         11    1    1    2    0    0 -0.42123397563E+01  0.68377318177E+02  0.27957904618E+01  0.68563969340E+02  0.00000000000E+00 0. -1.
</event>
<event>
 7    1  0.3915837E-009  0.1013329E+03  0.7561462E-02  0.1277518E+00
         -2   -1    0    0    0  501 -0.00000000000E+00  0.00000000000E+00  0.13908586605E+03  0.13908586605E+03  0.00000000000E+00 0.  1.
          2   -1    0    0  501    0  0.00000000000E+00 -0.00000000000E+00 -0.10857484717E+03  0.10857484717E+03  0.00000000000E+00 0. -1.
         25    2    1    2    0    0 -0.55596052307E+02  0.13342099847E+02  0.78078311376E+01  0.13776003254E+03  0.12509169308E+03 0.  0.
          5    1    3    3  502    0  0.21686336295E+02 -0.36895258103E+02 -0.91015022232E+01  0.43953008943E+02  0.41800000000E+01 0. -1.
         -5    1    3    3    0  502 -0.77282388603E+02  0.50237357950E+02  0.16909333361E+02  0.93807023600E+02  0.41800000000E+01 0. -1.
        -11    1    1    2    0    0  0.55999461959E+02 -0.19890729291E+01  0.53255391482E+02  0.77304804979E+02  0.00000000000E+00 0.  1.
         11    1    1    2    0    0 -0.40340965189E+00 -0.11353026918E+02 -0.30552203733E+02  0.32595875697E+02  0.00000000000E+00 0. -1.
</event>
<event>
 7    1  0.3265282E-009  0.9464114E+02  0.7561462E-02  0.1291986E+00
         -4   -1    0    0    0  501 -0.00000000000E+00  0.00000000000E+00  0.29653135006E+03  0.29653135006E+03  0.00000000000E+00 0.  1.
          4   -1    0    0  501    0  0.00000000000E+00 -0.00000000000E+00 -0.48311869608E+02  0.48311869608E+02  0.00000000000E+00 0. -1.
         25    2    1    2    0    0  0.37807838829E+02 -0.35351471636E+02  0.12624977380E+03  0.18511131729E+03  0.12509210679E+03 0.  0.
          5    1    3    3  502    0  0.20433552254E+02  0.36951222938E+02  0.95561887783E+02  0.10455845127E+03  0.41800000000E+01 0. -1.
         -5    1    3    3    0  502  0.17374286575E+02 -0.72302694574E+02  0.30687886015E+02  0.80552866024E+02  0.41800000000E+01 0. -1.
        -11    1    1    2    0    0  0.98576624898E+01  0.19998142933E+02 -0.53409081351E+01  0.22926502792E+02  0.00000000000E+00 0. -1.
         11    1    1    2    0    0 -0.47665501318E+02  0.15353328702E+02  0.12731061479E+03  0.13680539959E+03  0.00000000000E+00 0.  1.
</event>
<event>
 7    1  0.3265282E-009  0.9508717E+02  0.7561462E-02  0.1290980E+00
          1   -1    0    0  501    0  0.00000000000E+00  0.00000000000E+00  0.20018415307E+03  0.20018415307E+03  0.00000000000E+00 0. -1.
         -1   -1    0    0    0  501 -0.00000000000E+00 -0.00000000000E+00 -0.69855888024E+02  0.69855888024E+02  0.00000000000E+00 0.  1.
         25    2    1    2    0    0 -0.89715074061E+01 -0.83493075650E+01  0.25191903784E+02  0.12819007897E+03  0.12509142836E+03 0.  0.
          5    1    3    3  502    0 -0.39157069911E+02 -0.41625937840E+02 -0.23385408526E+02  0.61889777484E+02  0.41800000000E+01 0. -1.
         -5    1    3    3    0  502  0.30185562505E+02  0.33276630275E+02  0.48577312311E+02  0.66300301489E+02  0.41800000000E+01 0. -1.
        -11    1    1    2    0    0  0.13215174703E+02 -0.38502569267E+02  0.76827008201E+02  0.86945257903E+02  0.00000000000E+00 0. -1.
         11    1    1    2    0    0 -0.42436672967E+01  0.46851876832E+02  0.28309353063E+02  0.54904704221E+02  0.00000000000E+00 0.  1.
</event>
<event>
 7    1  0.3265282E-009  0.9798033E+02  0.7561462E-02  0.1284601E+00
         -2   -1    0    0    0  501 -0.00000000000E+00  0.00000000000E+00  0.18565939324E+02  0.18565939324E+02  0.00000000000E+00 0.  1.
          2   -1    0    0  501    0  0.00000000000E+00 -0.00000000000E+00 -0.65917624968E+03  0.65917624968E+03  0.00000000000E+00 0. -1.
         25    2    1    2    0    0  0.17521819753E+02 -0.57864485096E+01 -0.35949822211E+03  0.38108655125E+03  0.12508993040E+03 0.  0.
          5    1    3    3  502    0  0.61388865541E+02 -0.17597274705E+02 -0.29635790915E+03  0.30318928017E+03  0.41800000000E+01 0.  1.
         -5    1    3    3    0  502 -0.43867045788E+02  0.11810826196E+02 -0.63140312957E+02  0.77897271081E+02  0.41800000000E+01 0.  1.
        -11    1    1    2    0    0 -0.39495804407E+01 -0.39176427192E+02 -0.69356844268E+02  0.79754394738E+02  0.00000000000E+00 0.  1.
         11    1    1    2    0    0 -0.13572239312E+02  0.44962875702E+02 -0.21175524398E+03  0.21690124302E+03  0.00000000000E+00 0. -1.
</event>
<event>
 7    1  0.3265282E-009  0.8972679E+02  0.7561462E-02  0.1303515E+00
          2   -1    0    0  501    0  0.00000000000E+00  0.00000000000E+00  0.30314886894E+03  0.30314886894E+03  0.00000000000E+00 0. -1.
         -2   -1    0    0    0  501 -0.00000000000E+00 -0.00000000000E+00 -0.52337696379E+02  0.52337696379E+02  0.00000000000E+00 0.  1.
         25    2    1    2    0    0 -0.41986816801E+02 -0.26889872903E+02  0.19855408223E+03  0.23991143593E+03  0.12509122859E+03 0.  0.
          5    1    3    3  502    0  0.95174581690E+01 -0.61588472326E+02  0.14469904840E+03  0.15760396233E+03  0.41800000000E+01 0.  1.
         -5    1    3    3    0  502 -0.51504274970E+02  0.34698599423E+02  0.53855033829E+02  0.82307473603E+02  0.41800000000E+01 0.  1.
        -11    1    1    2    0    0  0.23997875510E+02  0.20548280154E+01 -0.23620579242E+02  0.33735027952E+02  0.00000000000E+00 0.  1.
         11    1    1    2    0    0  0.17988941291E+02  0.24835044887E+02  0.75877669573E+02  0.81840101437E+02  0.00000000000E+00 0. -1.
</event>
<event>
 7    1  0.3265282E-009  0.8633153E+02  0.7561462E-02  0.1311987E+00
          3   -1    0    0  501    0  0.00000000000E+00  0.00000000000E+00  0.59604026764E+03  0.59604026764E+03  0.00000000000E+00 0. -1.
         -3   -1    0    0    0  501 -0.00000000000E+00 -0.00000000000E+00 -0.24920000131E+02  0.24920000131E+02  0.00000000000E+00 0.  1.
         25    2    1    2    0    0  0.81364407630E+01 -0.52808819945E+02  0.36614683102E+03  0.39059715223E+03  0.12509060847E+03 0.  0.
          5    1    3    3  502    0  0.51523306015E+02 -0.42438725353E+02  0.31747298970E+03  0.32444147093E+03  0.41800000000E+01 0. -1.
         -5    1    3    3    0  502 -0.43386865252E+02 -0.10370094592E+02  0.48673841326E+02  0.66155681295E+02  0.41800000000E+01 0. -1.
        -11    1    1    2    0    0 -0.19311093172E+02  0.33268585850E+02  0.20425092806E+03  0.20784166747E+03  0.00000000000E+00 0. -1.
         11    1    1    2    0    0  0.11174652409E+02  0.19540234095E+02  0.72250842770E+00  0.22521448075E+02  0.00000000000E+00 0.  1.
</event>
<event>
 7    1  0.3265282E-009  0.1791150E+03  0.7561462E-02  0.1168662E+00
         -1   -1    0    0    0  501 -0.00000000000E+00  0.00000000000E+00  0.24234912415E+03  0.24234912415E+03  0.00000000000E+00 0.  1.
          1   -1    0    0  501    0  0.00000000000E+00 -0.00000000000E+00 -0.14274785552E+03  0.14274785552E+03  0.00000000000E+00 0. -1.
         25    2    1    2    0    0  0.12023781772E+03 -0.87969263524E+02  0.73726667535E+02  0.20803608801E+03  0.12509064022E+03 0.  0.
          5    1    3    3  502    0  0.11704687265E+03 -0.11289113541E+02  0.45585474113E+02  0.12618606235E+03  0.41800000000E+01 0. -1.
         -5    1    3    3    0  502  0.31909450691E+01 -0.76680149983E+02  0.28141193422E+02  0.81850025651E+02  0.41800000000E+01 0. -1.
        -11    1    1    2    0    0 -0.77355400024E+02  0.14596615858E+02  0.43973907908E+02  0.90169971077E+02  0.00000000000E+00 0.  1.
         11    1    1    2    0    0 -0.42882417698E+02  0.73372647666E+02 -0.18099306821E+02  0.86890920588E+02  0.00000000000E+00 0. -1.
</event>
<event>
 7    1  0.3265282E-009  0.2796620E+03  0.7561462E-02  0.1095874E+00
          1   -1    0    0  501    0  0.00000000000E+00  0.00000000000E+00  0.78065742320E+03  0.78065742320E+03  0.00000000000E+00 0. -1.
         -1   -1    0    0    0  501 -0.00000000000E+00 -0.00000000000E+00 -0.11904788788E+03  0.11904788788E+03  0.00000000000E+00 0.  1.
         25    2    1    2    0    0 -0.24551743986E+03 -0.98003886750E+02  0.18157387470E+03  0.34423830004E+03  0.12508940863E+03 0.  0.
          5    1    3    3  502    0 -0.95826412056E+02  0.24312845221E+02  0.66722096053E+02  0.11934456918E+03  0.41800000000E+01 0. -1.
         -5    1    3    3    0  502 -0.14969102780E+03 -0.12231673197E+03  0.11485177865E+03  0.22489373087E+03  0.41800000000E+01 0. -1.
        -11    1    1    2    0    0  0.92320317634E+02  0.56732955829E+02  0.27941913036E+03  0.29969437722E+03  0.00000000000E+00 0. -1.
         11    1    1    2    0    0  0.15319712223E+03  0.41270930921E+02  0.20061653025E+03  0.25577263381E+03  0.00000000000E+00 0.  1.
</event>
<event>
 7    1  0.3265282E-009  0.1594732E+03  0.7561462E-02  0.1189293E+00
          1   -1    0    0  501    0  0.00000000000E+00  0.00000000000E+00  0.44540131725E+02  0.44540131725E+02  0.00000000000E+00 0. -1.
         -1   -1    0    0    0  501 -0.00000000000E+00 -0.00000000000E+00 -0.10385057515E+04  0.10385057515E+04  0.00000000000E+00 0.  1.
         25    2    1    2    0    0  0.15467007574E+03 -0.16166927057E+01 -0.77363619544E+03  0.79880347119E+03  0.12509427110E+03 0.  0.
          5    1    3    3  502    0  0.10993007909E+03  0.23155265912E+02 -0.26873635986E+03  0.29130309325E+03  0.41800000000E+01 0.  1.
         -5    1    3    3    0  502  0.44739996646E+02 -0.24771958618E+02 -0.50489983558E+03  0.50750037793E+03  0.41800000000E+01 0.  1.
        -11    1    1    2    0    0 -0.10230316559E+03 -0.50406844298E+01 -0.20517631817E+03  0.22932219197E+03  0.00000000000E+00 0.  1.
         11    1    1    2    0    0 -0.52366910143E+02  0.66573771355E+01 -0.15153106186E+02  0.54920220096E+02  0.00000000000E+00 0. -1.
</event>
<event>
 7    1  0.3265282E-009  0.1808172E+03  0.7561462E-02  0.1167015E+00
          2   -1    0    0  501    0  0.00000000000E+00  0.00000000000E+00  0.35246038314E+03  0.35246038314E+03  0.00000000000E+00 0. -1.
         -2   -1    0    0    0  501 -0.00000000000E+00 -0.00000000000E+00 -0.99980904054E+02  0.99980904054E+02  0.00000000000E+00 0.  1.
         25    2    1    2    0    0 -0.11903507150E+03 -0.87288737784E+02  0.18061883867E+03  0.26469558209E+03  0.12510761089E+03 0.  0.
          5    1    3    3  502    0 -0.13570505043E+03 -0.98525214688E+02  0.17696729704E+03  0.24384006082E+03  0.41800000000E+01 0.  1.
         -5    1    3    3    0  502  0.16669978933E+02  0.11236476905E+02  0.36515416356E+01  0.20855521263E+02  0.41800000000E+01 0.  1.
        -11    1    1    2    0    0  0.15923479087E+02  0.66219862899E+02  0.25140265560E+02  0.72599313916E+02  0.00000000000E+00 0.  1.
         11    1    1    2    0    0  0.10311159241E+03  0.21068874885E+02  0.46720374857E+02  0.11514639119E+03  0.00000000000E+00 0. -1.
</event>
<event>
 7    1  0.3265282E-009  0.4196227E+03  0.7561462E-02  0.1037189E+00
         -1   -1    0    0    0  501 -0.00000000000E+00  0.00000000000E+00  0.57034051088E+03  0.57034051088E+03  0.00000000000E+00 0.  1.
          1   -1    0    0  501    0  0.00000000000E+00 -0.00000000000E+00 -0.67526569510E+03  0.67526569510E+03  0.00000000000E+00 0. -1.
         25    2    1    2    0    0 -0.17533224342E+03  0.37243506701E+03  0.40156134186E+03  0.58851387515E+03  0.12509114776E+03 0.  0.
          5    1    3    3  502    0 -0.16003278242E+03  0.37468640864E+03  0.40214443810E+03  0.57248407643E+03  0.41800000000E+01 0. -1.
         -5    1    3    3    0  502 -0.15299461001E+02 -0.22513416235E+01 -0.58309624042E+00  0.16029798728E+02  0.41800000000E+01 0. -1.
        -11    1    1    2    0    0  0.14880312295E+02 -0.87597791699E+02 -0.78746994704E+02  0.11872609645E+03  0.00000000000E+00 0.  1.
         11    1    1    2    0    0  0.16045193113E+03 -0.28483727532E+03 -0.42773953137E+03  0.53836623437E+03  0.00000000000E+00 0. -1.
</event>
<event>
 7    1  0.3265282E-009  0.2899593E+03  0.7561462E-02  0.1090370E+00
          1   -1    0    0  501    0  0.00000000000E+00  0.00000000000E+00  0.65901090610E+03  0.65901090610E+03  0.00000000000E+00 0. -1.
         -1   -1    0    0    0  501 -0.00000000000E+00 -0.00000000000E+00 -0.13153142893E+03  0.13153142893E+03  0.00000000000E+00 0.  1.
         25    2    1    2    0    0 -0.20913152217E+03  0.17414956588E+03  0.23525276886E+03  0.38086123115E+03  0.12508935717E+03 0.  0.
          5    1    3    3  502    0 -0.51042359080E+02 -0.14584617675E+02  0.39556969175E+02  0.66334453366E+02  0.41800000000E+01 0.  1.
         -5    1    3    3    0  502 -0.15808916309E+03  0.18873418356E+03  0.19569579969E+03  0.31452677779E+03  0.41800000000E+01 0.  1.
        -11    1    1    2    0    0  0.26424851127E+02 -0.58534829530E+02  0.33273206617E+02  0.72330528159E+02  0.00000000000E+00 0.  1.
         11    1    1    2    0    0  0.18270667104E+03 -0.11561473635E+03  0.25895350168E+03  0.33735057572E+03  0.00000000000E+00 0. -1.
</event>
<event>
 7    1  0.3265282E-009  0.7592724E+02  0.7561462E-02  0.1341023E+00
          1   -1    0    0  501    0  0.00000000000E+00  0.00000000000E+00  0.36098930478E+03  0.36098930478E+03  0.00000000000E+00 0. -1.
         -1   -1    0    0    0  501 -0.00000000000E+00 -0.00000000000E+00 -0.46599493493E+02  0.46599493493E+02  0.00000000000E+00 0.  1.
         25    2    1    2    0    0  0.49231420527E+02  0.64720987785E+01  0.97924702502E+02  0.16644032506E+03  0.12509002205E+03 0.  0.
          5    1    3    3  502    0  0.41024167704E+02  0.11410458401E+02 -0.20578172132E+02  0.47477515362E+02  0.41800000000E+01 0. -1.
         -5    1    3    3    0  502  0.82072528234E+01 -0.49383596229E+01  0.11850287463E+03  0.11896280970E+03  0.41800000000E+01 0. -1.
        -11    1    1    2    0    0 -0.72760331936E+02  0.39853850757E+01  0.19305257068E+03  0.20634738729E+03  0.00000000000E+00 0.  1.
         11    1    1    2    0    0  0.23528911409E+02 -0.10457483854E+02  0.23412538109E+02  0.34801085922E+02  0.00000000000E+00 0. -1.
</event>
<event>
 7    1  0.3265282E-009  0.9544789E+02  0.7561462E-02  0.1290171E+00
         -2   -1    0    0    0  501 -0.00000000000E+00  0.00000000000E+00  0.20874076089E+02  0.20874076089E+02  0.00000000000E+00 0.  1.
          2   -1    0    0  501    0  0.00000000000E+00 -0.00000000000E+00 -0.77188173464E+03  0.77188173464E+03  0.00000000000E+00 0. -1.
         25    2    1    2    0    0  0.21590947136E+02  0.16193038711E+02 -0.60685454202E+03  0.62020075065E+03  0.12509257549E+03 0.  0.
          5    1    3    3  502    0 -0.74848582764E+01  0.53565761584E+02 -0.12838013405E+03  0.13937089057E+03  0.41800000000E+01 0.  1.
         -5    1    3    3    0  502  0.29075805412E+02 -0.37372722873E+02 -0.47847440796E+03  0.48082986008E+03  0.41800000000E+01 0.  1.
        -11    1    1    2    0    0  0.30058981674E+02 -0.21839938572E+02 -0.32335733779E+02  0.49255710076E+02  0.00000000000E+00 0.  1.
         11    1    1    2    0    0 -0.51649928810E+02  0.56468998611E+01 -0.11181738275E+03  0.12329935000E+03  0.00000000000E+00 0. -1.
</event>
<event>
 7    1  0.3265282E-009  0.1325754E+03  0.7561462E-02  0.1223684E+00
          1   -1    0    0  501    0  0.00000000000E+00  0.00000000000E+00  0.83752980156E+03  0.83752980156E+03  0.00000000000E+00 0. -1.
         -1   -1    0    0    0  501 -0.00000000000E+00 -0.00000000000E+00 -0.22403091398E+02  0.22403091398E+02  0.00000000000E+00 0.  1.
         25    2    1    2    0    0  0.75612833797E+02 -0.14628611715E+02  0.55038586934E+03  0.56964578958E+03  0.12506167880E+03 0.  0.
          5    1    3    3  502    0  0.23792035581E+02 -0.67984241300E+02  0.25492093488E+03  0.26493409268E+03  0.41800000000E+01 0.  1.
         -5    1    3    3    0  502  0.51820798216E+02  0.53355629586E+02  0.29546493446E+03  0.30471169691E+03  0.41800000000E+01 0.  1.
        -11    1    1    2    0    0 -0.84110744390E+02  0.38987650458E+02  0.19467086987E+03  0.21561864897E+03  0.00000000000E+00 0.  1.
         11    1    1    2    0    0  0.84979105934E+01 -0.24359038744E+02  0.70069970953E+02  0.74668454399E+02  0.00000000000E+00 0. -1.
</event>
<event>
 7    1  0.3265282E-009  0.1403999E+03  0.7561462E-02  0.1212792E+00
          3   -1    0    0  501    0  0.00000000000E+00  0.00000000000E+00  0.13744163911E+03  0.13744163911E+03  0.00000000000E+00 0. -1.
         -3   -1    0    0    0  501 -0.00000000000E+00 -0.00000000000E+00 -0.16501404152E+03  0.16501404152E+03  0.00000000000E+00 0.  1.
         25    2    1    2    0    0  0.10005031781E+03 -0.32383675672E+02 -0.51456943116E+01  0.16350197534E+03  0.12509056410E+03 0.  0.
          5    1    3    3  502    0  0.10954257596E+02  0.35837751116E+02  0.27373162140E+02  0.46595091695E+02  0.41800000000E+01 0.  1.
         -5    1    3    3    0  502  0.89096060214E+02 -0.68221426788E+02 -0.32518856451E+02  0.11690688365E+03  0.41800000000E+01 0.  1.
        -11    1    1    2    0    0 -0.53219197201E+02  0.56925167893E+02  0.73495170539E+01  0.78273706257E+02  0.00000000000E+00 0. -1.
         11    1    1    2    0    0 -0.46831120610E+02 -0.24541492220E+02 -0.29776225149E+02  0.60679999028E+02  0.00000000000E+00 0.  1.
</event>
<event>
 7    1  0.3265282E-009  0.1493923E+03  0.7561462E-02  0.1201222E+00
         -2   -1    0    0    0  501 -0.00000000000E+00  0.00000000000E+00  0.19052363994E+03  0.19052363994E+03  0.00000000000E+00 0. -1.
          2   -1    0    0  501    0  0.00000000000E+00 -0.00000000000E+00 -0.12464930817E+03  0.12464930817E+03  0.00000000000E+00 0.  1.
         25    2    1    2    0    0  0.67788026372E+02  0.82097645616E+02  0.60523698071E+02  0.17505910402E+03  0.12508929586E+03 0.  0.
          5    1    3    3  502    0  0.35240805536E+02  0.11285877727E+03  0.52227826050E+02  0.12932221850E+03  0.41800000000E+01 0. -1.
         -5    1    3    3    0  502  0.32547220836E+02 -0.30761131659E+02  0.82958720206E+01  0.45736885526E+02  0.41800000000E+01 0. -1.
        -11    1    1    2    0    0 -0.41987280638E+02  0.71551048332E+01 -0.14718267757E+02  0.45063895375E+02  0.00000000000E+00 0.  1.
         11    1    1    2    0    0 -0.25800745734E+02 -0.89252750449E+02  0.20068901457E+02  0.95049948705E+02  0.00000000000E+00 0. -1.
</event>
<event>
 7    1  0.3265282E-009  0.1710071E+03  0.7561462E-02  0.1176802E+00
          1   -1    0    0  501    0  0.00000000000E+00  0.00000000000E+00  0.29108336231E+03  0.29108336231E+03  0.00000000000E+00 0. -1.
         -1   -1    0    0    0  501 -0.00000000000E+00 -0.00000000000E+00 -0.11173677609E+03  0.11173677609E+03  0.00000000000E+00 0.  1.
         25    2    1    2    0    0 -0.15323835817E+02 -0.13369135425E+03  0.15041826315E+03  0.23746348803E+03  0.12512016670E+03 0.  0.
          5    1    3    3  502    0 -0.55245578098E+02 -0.12984885262E+03  0.10049942083E+03  0.17329282851E+03  0.41800000000E+01 0. -1.
         -5    1    3    3    0  502  0.39921742281E+02 -0.38425016358E+01  0.49918842321E+02  0.64170659527E+02  0.41800000000E+01 0. -1.
        -11    1    1    2    0    0 -0.10038604166E+02  0.13475795766E+03  0.34284826737E+02  0.13941280454E+03  0.00000000000E+00 0. -1.
         11    1    1    2    0    0  0.25362439983E+02 -0.10666034057E+01 -0.53565036594E+01  0.25943845825E+02  0.00000000000E+00 0.  1.
</event>
<event>
 7    1  0.3265282E-009  0.1646811E+03  0.7561462E-02  0.1183511E+00
          2   -1    0    0  501    0  0.00000000000E+00  0.00000000000E+00  0.89544585004E+03  0.89544585004E+03  0.00000000000E+00 0. -1.
         -2   -1    0    0    0  501 -0.00000000000E+00 -0.00000000000E+00 -0.90490755701E+02  0.90490755701E+02  0.00000000000E+00 0.  1.
         25    2    1    2    0    0 -0.10717360593E+03  0.10901367267E+03  0.78119673452E+03  0.80578277239E+03  0.12508947045E+03 0.  0.
          5    1    3    3  502    0 -0.60659908167E+02  0.64845347745E+02  0.17593234101E+03  0.19711469909E+03  0.41800000000E+01 0.  1.
         -5    1    3    3    0  502 -0.46513697764E+02  0.44168324929E+02  0.60526439350E+03  0.60866807330E+03  0.41800000000E+01 0.  1.
        -11    1    1    2    0    0  0.12278766102E+03 -0.97484857638E+02  0.11508356104E+02  0.15720225643E+03  0.00000000000E+00 0.  1.
         11    1    1    2    0    0 -0.15614055084E+02 -0.11528815035E+02  0.12250003718E+02  0.22951576926E+02  0.00000000000E+00 0. -1.
</event>
<event>
 7    1  0.3265282E-009  0.2382209E+03  0.7561462E-02  0.1120984E+00
         -1   -1    0    0    0  501 -0.00000000000E+00  0.00000000000E+00  0.73237767673E+03  0.73237767673E+03  0.00000000000E+00 0.  1.
          1   -1    0    0  501    0  0.00000000000E+00 -0.00000000000E+00 -0.90889281625E+02  0.90889281625E+02  0.00000000000E+00 0. -1.
         25    2    1    2    0    0 -0.21156395850E+03  0.28691851042E+02  0.17559380047E+03  0.30342435491E+03  0.12510246015E+03 0.  0.
          5    1    3    3  502    0 -0.18604914735E+02 -0.37476833425E+02  0.18581225068E+02  0.45971624083E+02  0.41800000000E+01 0. -1.
         -5    1    3    3    0  502 -0.19295904377E+03  0.66168684466E+02  0.15701257541E+03  0.25745273083E+03  0.41800000000E+01 0. -1.
        -11    1    1    2    0    0  0.13610321913E+03 -0.59900073744E+02  0.31203265166E+03  0.34565370068E+03  0.00000000000E+00 0.  1.
         11    1    1    2    0    0  0.75460739369E+02  0.31208222703E+02  0.15386194298E+03  0.17418890277E+03  0.00000000000E+00 0. -1.
</event>
<event>
 7    1  0.3265282E-009  0.1257751E+03  0.7561462E-02  0.1233863E+00
          1   -1    0    0  501    0  0.00000000000E+00  0.00000000000E+00  0.13916970437E+03  0.13916970437E+03  0.00000000000E+00 0. -1.
         -1   -1    0    0    0  501 -0.00000000000E+00 -0.00000000000E+00 -0.13521143607E+03  0.13521143607E+03  0.00000000000E+00 0.  1.
         25    2    1    2    0    0 -0.73550700640E+02 -0.14637508523E+02  0.30149689290E+02  0.14893140110E+03  0.12509035234E+03 0.  0.
          5    1    3    3  502    0 -0.35512487410E+01  0.47324083473E+02  0.28144101807E+02  0.55333020076E+02  0.41800000000E+01 0. -1.
         -5    1    3    3    0  502 -0.69999451899E+02 -0.61961591997E+02  0.20055874826E+01  0.93598381023E+02  0.41800000000E+01 0. -1.
        -11    1    1    2    0    0  0.91101542563E+02  0.75819416243E+01 -0.42183303319E+02  0.10067972971E+03  0.00000000000E+00 0.  1.
         11    1    1    2    0    0 -0.17550841923E+02  0.70555668989E+01  0.15991882327E+02  0.24770009625E+02  0.00000000000E+00 0. -1.
</event>
<event>
 7    1  0.3265282E-009  0.8593331E+02  0.7561462E-02  0.1313010E+00
          3   -1    0    0  501    0  0.00000000000E+00  0.00000000000E+00  0.32105565773E+03  0.32105565773E+03  0.00000000000E+00 0. -1.
         -3   -1    0    0    0  501 -0.00000000000E+00 -0.00000000000E+00 -0.54430713415E+02  0.54430713415E+02  0.00000000000E+00 0.  1.
         25    2    1    2    0    0 -0.34982241656E+01 -0.74892133186E+02  0.14825891571E+03  0.20796527763E+03  0.12509109251E+03 0.  0.
          5    1    3    3  502    0 -0.28122511511E+02 -0.24553918943E+02 -0.10950381738E+02  0.39129961019E+02  0.41800000000E+01 0. -1.
         -5    1    3    3    0  502  0.24624287346E+02 -0.50338214242E+02  0.15920929745E+03  0.16883531661E+03  0.41800000000E+01 0. -1.
        -11    1    1    2    0    0 -0.90230059235E+01  0.22573625876E+02 -0.11544891307E+02  0.26912222806E+02  0.00000000000E+00 0.  1.
         11    1    1    2    0    0  0.12521230089E+02  0.52318507310E+02  0.12991091990E+03  0.14060887070E+03  0.00000000000E+00 0. -1.
</event>
<event>
 7    1  0.3265282E-009  0.1053941E+03  0.7561462E-02  0.1269345E+00
          2   -1    0    0  501    0  0.00000000000E+00  0.00000000000E+00  0.73591652261E+03  0.73591652261E+03  0.00000000000E+00 0. -1.
         -2   -1    0    0    0  501 -0.00000000000E+00 -0.00000000000E+00 -0.27324149308E+02  0.27324149308E+02  0.00000000000E+00 0.  1.
         25    2    1    2    0    0  0.75076968436E+02  0.16010695664E+02  0.51605870473E+03  0.53652361355E+03  0.12509239626E+03 0.  0.
          5    1    3    3  502    0 -0.38279502793E+00  0.16867293720E+02  0.38379368674E+03  0.38418708790E+03  0.41800000000E+01 0.  1.
         -5    1    3    3    0  502  0.75459763464E+02 -0.85659805595E+00  0.13226501799E+03  0.15233652565E+03  0.41800000000E+01 0.  1.
        -11    1    1    2    0    0 -0.38904487955E+01  0.31823968536E+02  0.71682707185E+02  0.78525862457E+02  0.00000000000E+00 0. -1.
         11    1    1    2    0    0 -0.71186519640E+02 -0.47834664200E+02  0.12085096138E+03  0.14819119591E+03  0.00000000000E+00 0.  1.
</event>
<event>
 7    1  0.3265282E-009  0.1119150E+03  0.7561462E-02  0.1257064E+00
          2   -1    0    0  501    0  0.00000000000E+00  0.00000000000E+00  0.63572823506E+03  0.63572823506E+03  0.00000000000E+00 0. -1.
         -2   -1    0    0    0  501 -0.00000000000E+00 -0.00000000000E+00 -0.28946066943E+02  0.28946066943E+02  0.00000000000E+00 0.  1.
         25    2    1    2    0    0 -0.46429846532E+02  0.36575401136E+02  0.19341805393E+03  0.23780591774E+03  0.12509044852E+03 0.  0.
          5    1    3    3  502    0 -0.47494760002E+02  0.71013018492E+02  0.18228861230E+03  0.20135841576E+03  0.41800000000E+01 0. -1.
         -5    1    3    3    0  502  0.10649134701E+01 -0.34437617356E+02  0.11129441629E+02  0.36447501984E+02  0.41800000000E+01 0. -1.
        -11    1    1    2    0    0  0.69419300469E+02 -0.40346502874E+02  0.35623966075E+03  0.36517608829E+03  0.00000000000E+00 0. -1.
         11    1    1    2    0    0 -0.22989453937E+02  0.37711017375E+01  0.57124453444E+02  0.61692295969E+02  0.00000000000E+00 0.  1.
</event>
<event>
 7    1  0.3265282E-009  0.7168641E+02  0.7561462E-02  0.1354450E+00
          1   -1    0    0  501    0  0.00000000000E+00  0.00000000000E+00  0.32218330223E+03  0.32218330223E+03  0.00000000000E+00 0. -1.
         -1   -1    0    0    0  501 -0.00000000000E+00 -0.00000000000E+00 -0.52266501062E+02  0.52266501062E+02  0.00000000000E+00 0.  1.
         25    2    1    2    0    0 -0.37605533479E+02 -0.37096225712E+02  0.21978357195E+03  0.25834538739E+03  0.12508882675E+03 0.  0.
          5    1    3    3  502    0  0.10245422749E+02  0.24092740384E+01 -0.13090813814E+02  0.17309393260E+02  0.41800000000E+01 0. -1.
         -5    1    3    3    0  502 -0.47850956228E+02 -0.39505499751E+02  0.23287438576E+03  0.24103599413E+03  0.41800000000E+01 0. -1.
        -11    1    1    2    0    0  0.39453844568E+02  0.74485255501E+01 -0.16299234988E+02  0.43333029495E+02  0.00000000000E+00 0.  1.
         11    1    1    2    0    0 -0.18483110890E+01  0.29647700162E+02  0.66432464211E+02  0.72771386410E+02  0.00000000000E+00 0. -1.
</event>
<event>
 7    1  0.3265282E-009  0.1149912E+03  0.7561462E-02  0.1251597E+00
          2   -1    0    0  501    0  0.00000000000E+00  0.00000000000E+00  0.21464331777E+03  0.21464331777E+03  0.00000000000E+00 0. -1.
         -2   -1    0    0    0  501 -0.00000000000E+00 -0.00000000000E+00 -0.87567597203E+02  0.87567597203E+02  0.00000000000E+00 0.  1.
         25    2    1    2    0    0  0.57303812926E+02  0.48049656709E+02  0.32062883599E+02  0.14922480928E+03  0.12509004243E+03 0.  0.
          5    1    3    3  502    0  0.22532441970E+02  0.67055011977E+02  0.66035513943E+02  0.96862000155E+02  0.41800000000E+01 0. -1.
         -5    1    3    3    0  502  0.34771370956E+02 -0.19005355268E+02 -0.33972630344E+02  0.52362809125E+02  0.41800000000E+01 0. -1.
        -11    1    1    2    0    0 -0.72840556141E+02 -0.44368659929E+01  0.50372016727E+02  0.88672275644E+02  0.00000000000E+00 0. -1.
         11    1    1    2    0    0  0.15536743215E+02 -0.43612790716E+02  0.44640820245E+02  0.64313830051E+02  0.00000000000E+00 0.  1.
</event>
<event>
 7    1  0.3265282E-009  0.8815758E+02  0.7561462E-02  0.1307376E+00
          2   -1    0    0  501    0  0.00000000000E+00  0.00000000000E+00  0.17398506099E+03  0.17398506099E+03  0.00000000000E+00 0. -1.
         -2   -1    0    0    0  501 -0.00000000000E+00 -0.00000000000E+00 -0.72119542382E+02  0.72119542382E+02  0.00000000000E+00 0.  1.
         25    2    1    2    0    0 -0.14718874728E+02  0.27098782638E+02  0.63505243906E+02  0.14364106051E+03  0.12509535950E+03 0.  0.
          5    1    3    3  502    0  0.17132109036E+01  0.60254932456E+02 -0.99949395201E+01  0.61245107502E+02  0.41800000000E+01 0. -1.
         -5    1    3    3    0  502 -0.16432085631E+02 -0.33156149818E+02  0.73500183426E+02  0.82395953011E+02  0.41800000000E+01 0. -1.
        -11    1    1    2    0    0  0.44244841381E+02 -0.14637094249E+02  0.50015168780E+02  0.68362033505E+02  0.00000000000E+00 0. -1.
         11    1    1    2    0    0 -0.29525966653E+02 -0.12461688389E+02 -0.11654894077E+02  0.34101509354E+02  0.00000000000E+00 0.  1.
</event>
<event>
 6    1  0.3265282E-009  0.4239426E+03  0.7561462E-02  0.1035791E+00
          1   -1    0    0  501    0  0.00000000000E+00  0.00000000000E+00  0.15912002990E+03  0.15912002990E+03  0.00000000000E+00 0. -1.
         -1   -1    0    0    0  501 -0.00000000000E+00 -0.00000000000E+00 -0.16670306638E+04  0.16670306638E+04  0.00000000000E+00 0.  1.
          5    1    1    2  502    0  0.15734139010E+01 -0.59987000709E+01 -0.34561087307E+02  0.35361012283E+02  0.41800000000E+01 0. -1.
         -5    1    1    2    0  502 -0.32810027086E+03 -0.25773020247E+03 -0.23305501781E+03  0.47791919686E+03  0.41800000000E+01 0. -1.
        -11    1    1    2    0    0  0.16306038964E+03  0.97309701521E+02 -0.43893753697E+03  0.47825101154E+03  0.00000000000E+00 0.  1.
         11    1    1    2    0    0  0.16346646732E+03  0.16641920102E+03 -0.80135699180E+03  0.83461947300E+03  0.00000000000E+00 0. -1.
</event>
<event>
 7    1  0.3265282E-009  0.1113826E+03  0.7561462E-02  0.1258031E+00
         -2   -1    0    0    0  501 -0.00000000000E+00  0.00000000000E+00  0.70675658980E+02  0.70675658980E+02  0.00000000000E+00 0.  1.
          2   -1    0    0  501    0  0.00000000000E+00 -0.00000000000E+00 -0.18724594046E+03  0.18724594046E+03  0.00000000000E+00 0. -1.
         25    2    1    2    0    0 -0.14301470509E+02 -0.23229795392E+02 -0.35536749058E+02  0.13286648090E+03  0.12508591351E+03 0.  0.
          5    1    3    3  502    0  0.50877957898E+02  0.13578314134E+02 -0.18624826775E+02  0.56011550479E+02  0.41800000000E+01 0.  1.
         -5    1    3    3    0  502 -0.65179428407E+02 -0.36808109526E+02 -0.16911922282E+02  0.76854930419E+02  0.41800000000E+01 0.  1.
        -11    1    1    2    0    0  0.52351842407E+02  0.22312362798E+02 -0.43821447796E+02  0.71825317430E+02  0.00000000000E+00 0. -1.
         11    1    1    2    0    0 -0.38050371898E+02  0.91743259434E+00 -0.37212084623E+02  0.53229801109E+02  0.00000000000E+00 0.  1.
</event>
<event>
 7    1  0.3265282E-009  0.9790274E+02  0.7561462E-02  0.1284769E+00
         -2   -1    0    0    0  501 -0.00000000000E+00  0.00000000000E+00  0.18340091589E+03  0.18340091589E+03  0.00000000000E+00 0.  1.
          2   -1    0    0  501    0  0.00000000000E+00 -0.00000000000E+00 -0.11559768293E+03  0.11559768293E+03  0.00000000000E+00 0. -1.
         25    2    1    2    0    0  0.32448364597E+02 -0.31708688159E+02 -0.51261479487E+02  0.14259668577E+03  0.12509091991E+03 0.  0.
          5    1    3    3  502    0 -0.29957361105E+02 -0.51430668945E+02 -0.50476842052E+00  0.59668118654E+02  0.41800000000E+01 0. -1.
         -5    1    3    3    0  502  0.62405725702E+02  0.19721980786E+02 -0.50756711066E+02  0.82928567121E+02  0.41800000000E+01 0. -1.
        -11    1    1    2    0    0 -0.47462106545E+02  0.19935432195E+02  0.12599262234E+03  0.13610368804E+03  0.00000000000E+00 0.  1.
         11    1    1    2    0    0  0.15013741949E+02  0.11773255964E+02 -0.69279098860E+01  0.20298225013E+02  0.00000000000E+00 0. -1.
</event>
<event>
 7    1  0.3265282E-009  0.1379928E+03  0.7561462E-02  0.1216056E+00
         -2   -1    0    0    0  501 -0.00000000000E+00  0.00000000000E+00  0.47926340319E+02  0.47926340319E+02  0.00000000000E+00 0.  1.
          2   -1    0    0  501    0  0.00000000000E+00 -0.00000000000E+00 -0.51709222156E+03  0.51709222156E+03  0.00000000000E+00 0. -1.
         25    2    1    2    0    0  0.11136592935E+03  0.12122984599E+02 -0.23248503347E+03  0.28678477313E+03  0.12508748273E+03 0.  0.
          5    1    3    3  502    0  0.29693735281E+02  0.55811486291E+02 -0.14943266968E+03  0.16230907271E+03  0.41800000000E+01 0.  1.
         -5    1    3    3    0  502  0.81672194066E+02 -0.43688501692E+02 -0.83052363793E+02  0.12447570042E+03  0.41800000000E+01 0.  1.
        -11    1    1    2    0    0 -0.81317393255E+02 -0.27902728440E+02 -0.78388043542E+02  0.11634331124E+03  0.00000000000E+00 0.  1.
         11    1    1    2    0    0 -0.30048536091E+02  0.15779743841E+02 -0.15829280423E+03  0.16189047750E+03  0.00000000000E+00 0. -1.
</event>
<event>
 7    1  0.3265282E-009  0.2294971E+03  0.7561462E-02  0.1126994E+00
          2   -1    0    0  501    0  0.00000000000E+00  0.00000000000E+00  0.58110950626E+02  0.58110950626E+02  0.00000000000E+00 0. -1.
         -2   -1    0    0    0  501 -0.00000000000E+00 -0.00000000000E+00 -0.11377303447E+04  0.11377303447E+04  0.00000000000E+00 0.  1.
         25    2    1    2    0    0 -0.14158808424E+03 -0.15738563715E+03 -0.77856824172E+03  0.81647477110E+03  0.12508045591E+03 0.  0.
          5    1    3    3  502    0 -0.10200659205E+03 -0.22645016300E+02 -0.36558890367E+03  0.38025104927E+03  0.41800000000E+01 0.  1.
         -5    1    3    3    0  502 -0.39581492190E+02 -0.13474062085E+03 -0.41297933806E+03  0.43622372184E+03  0.41800000000E+01 0.  1.
        -11    1    1    2    0    0  0.33156531995E+02  0.58144788181E+02 -0.16899825554E+03  0.18177068625E+03  0.00000000000E+00 0.  1.
         11    1    1    2    0    0  0.10843155225E+03  0.99240848967E+02 -0.13205289682E+03  0.19759583798E+03  0.00000000000E+00 0. -1.
</event>
<event>
 7    1  0.3265282E-009  0.1038883E+03  0.7561462E-02  0.1272326E+00
          2   -1    0    0  501    0  0.00000000000E+00  0.00000000000E+00  0.33795366645E+03  0.33795366645E+03  0.00000000000E+00 0. -1.
         -2   -1    0    0    0  501 -0.00000000000E+00 -0.00000000000E+00 -0.43879363100E+02  0.43879363100E+02  0.00000000000E+00 0.  1.
         25    2    1    2    0    0  0.42724485065E+02  0.31852224588E+02  0.14188385429E+03  0.19651640511E+03  0.12509086112E+03 0.  0.
          5    1    3    3  502    0  0.65392925084E+02 -0.40670135333E+01  0.21965442822E+02  0.69229533644E+02  0.41800000000E+01 0. -1.
         -5    1    3    3    0  502 -0.22668440019E+02  0.35919238121E+02  0.11991841147E+03  0.12728687147E+03  0.41800000000E+01 0. -1.
        -11    1    1    2    0    0 -0.29343167699E+02  0.26524134439E+02  0.93230042563E+02  0.10127384675E+03  0.00000000000E+00 0. -1.
         11    1    1    2    0    0 -0.13381317367E+02 -0.58376359026E+02  0.58960406503E+02  0.84042777694E+02  0.00000000000E+00 0.  1.
</event>
<event>
 7    1  0.3265282E-009  0.1348647E+03  0.7561462E-02  0.1220411E+00
         -2   -1    0    0    0  501 -0.00000000000E+00  0.00000000000E+00  0.42710362311E+03  0.42710362311E+03  0.00000000000E+00 0. -1.
          2   -1    0    0  501    0  0.00000000000E+00 -0.00000000000E+00 -0.51485359577E+02  0.51485359577E+02  0.00000000000E+00 0.  1.
         25    2    1    2    0    0  0.55470819574E+02 -0.58676867530E+02  0.10819053303E+03  0.18404389422E+03  0.12508787694E+03 0.  0.
          5    1    3    3  502    0  0.38983307497E+02  0.35463338058E+02  0.44667083845E+02  0.69209590296E+02  0.41800000000E+01 0. -1.
         -5    1    3    3    0  502  0.16487512077E+02 -0.94140205588E+02  0.63523449184E+02  0.11483430393E+03  0.41800000000E+01 0. -1.
        -11    1    1    2    0    0 -0.72543374802E+02  0.14690961602E+02  0.18955936438E+03  0.20349721916E+03  0.00000000000E+00 0.  1.
         11    1    1    2    0    0  0.17072555228E+02  0.43985905928E+02  0.77868366126E+02  0.91047869307E+02  0.00000000000E+00 0. -1.
</event>
<event>
 7    1  0.3265282E-009  0.1148085E+03  0.7561462E-02  0.1251916E+00
         -2   -1    0    0    0  501 -0.00000000000E+00  0.00000000000E+00  0.20794343513E+03  0.20794343513E+03  0.00000000000E+00 0.  1.
          2   -1    0    0  501    0  0.00000000000E+00 -0.00000000000E+00 -0.71767411444E+02  0.71767411444E+02  0.00000000000E+00 0. -1.
         25    2    1    2    0    0 -0.52228105460E+02 -0.84883052405E+01  0.10265077337E+03  0.17025746724E+03  0.12510234830E+03 0.  0.
          5    1    3    3  502    0  0.28767262108E+02  0.25833130948E+02  0.57419802437E+01  0.39310924193E+02  0.41800000000E+01 0.  1.
         -5    1    3    3    0  502 -0.80995367568E+02 -0.34321436189E+02  0.96908793130E+02  0.13094654305E+03  0.41800000000E+01 0.  1.
        -11    1    1    2    0    0  0.43039671201E+02 -0.36691312534E+02  0.27720620659E+02  0.62984907099E+02  0.00000000000E+00 0.  1.
         11    1    1    2    0    0  0.91884342595E+01  0.45179617774E+02  0.58046296506E+01  0.46468472234E+02  0.00000000000E+00 0. -1.
</event>
<event>
 7    1  0.3265282E-009  0.1875443E+03  0.7561462E-02  0.1160695E+00
         -1   -1    0    0    0  501 -0.00000000000E+00  0.00000000000E+00  0.50299339037E+03  0.50299339037E+03  0.00000000000E+00 0.  1.
          1   -1    0    0  501    0  0.00000000000E+00 -0.00000000000E+00 -0.97157674089E+02  0.97157674089E+02  0.00000000000E+00 0. -1.
         25    2    1    2    0    0  0.62947986892E+02  0.14449603701E+03  0.34260031882E+03  0.39732137609E+03  0.12509094162E+03 0.  0.
          5    1    3    3  502    0  0.84903037530E+02  0.77584368377E+02  0.13152316966E+03  0.17476749285E+03  0.41800000000E+01 0. -1.
         -5    1    3    3    0  502 -0.21955050638E+02  0.66911668631E+02  0.21107714916E+03  0.22255388324E+03  0.41800000000E+01 0. -1.
        -11    1    1    2    0    0 -0.39709995952E+02 -0.15777141246E+03  0.40361622162E+02  0.16762387333E+03  0.00000000000E+00 0. -1.
         11    1    1    2    0    0 -0.23237990940E+02  0.13275375450E+02  0.22873775298E+02  0.35205815040E+02  0.00000000000E+00 0.  1.
</event>
<event>
 7    1  0.3265282E-009  0.1134455E+03  0.7561462E-02  0.1254319E+00
         -2   -1    0    0    0  501 -0.00000000000E+00  0.00000000000E+00  0.15632546245E+03  0.15632546245E+03  0.00000000000E+00 0.  1.
          2   -1    0    0  501    0  0.00000000000E+00 -0.00000000000E+00 -0.12288256135E+03  0.12288256135E+03  0.00000000000E+00 0. -1.
         25    2    1    2    0    0 -0.74339237547E+02 -0.31948874416E+02 -0.66720506761E+01  0.14912771763E+03  0.12508999596E+03 0.  0.
          5    1    3    3  502    0  0.88653985988E+01 -0.27824101601E+02 -0.47767140971E+02  0.56142212984E+02  0.41800000000E+01 0. -1.
         -5    1    3    3    0  502 -0.83204636146E+02 -0.41247728153E+01  0.41095090295E+02  0.92985504641E+02  0.41800000000E+01 0. -1.
        -11    1    1    2    0    0  0.45761079604E+02 -0.23616372972E+02  0.43636049641E+02  0.67497513341E+02  0.00000000000E+00 0. -1.
         11    1    1    2    0    0  0.28578157942E+02  0.55565247389E+02 -0.35210978631E+01  0.62582792834E+02  0.00000000000E+00 0.  1.
</event>
<event>
 7    1  0.3265282E-009  0.1847214E+03  0.7561462E-02  0.1163310E+00
         -4   -1    0    0    0  501 -0.00000000000E+00  0.00000000000E+00  0.66432401791E+02  0.66432401791E+02  0.00000000000E+00 0.  1.
          4   -1    0    0  501    0  0.00000000000E+00 -0.00000000000E+00 -0.66182863461E+03  0.66182863461E+03  0.00000000000E+00 0. -1.
         25    2    1    2    0    0  0.16378214595E+03  0.70080233427E+02 -0.30443859924E+03  0.37425486276E+03  0.12509201071E+03 0.  0.
          5    1    3    3  502    0  0.88035291917E+02  0.61054382466E+02 -0.26989481932E+03  0.29041097799E+03  0.41800000000E+01 0. -1.
         -5    1    3    3    0  502  0.75746854037E+02  0.90258509606E+01 -0.34543779918E+02  0.83843884769E+02  0.41800000000E+01 0. -1.
        -11    1    1    2    0    0 -0.11469267917E+03 -0.21355667730E+02 -0.24385466975E+03  0.27032494365E+03  0.00000000000E+00 0. -1.
         11    1    1    2    0    0 -0.49089466780E+02 -0.48724565697E+02 -0.47102963824E+02  0.83681229987E+02  0.00000000000E+00 0.  1.
</event>
<event>
 7    1  0.3265282E-009  0.1029806E+03  0.7561462E-02  0.1274150E+00
         -1   -1    0    0    0  501 -0.00000000000E+00  0.00000000000E+00  0.52179775975E+03  0.52179775975E+03  0.00000000000E+00 0.  1.
          1   -1    0    0  501    0  0.00000000000E+00 -0.00000000000E+00 -0.35167638989E+02  0.35167638989E+02  0.00000000000E+00 0. -1.
         25    2    1    2    0    0  0.23279596997E+00  0.71846613653E+02  0.33704789277E+03  0.36661844190E+03  0.12508321164E+03 0.  0.
          5    1    3    3  502    0  0.28195068014E+02 -0.24592919019E+01  0.10409843119E+02  0.30444165463E+02  0.41800000000E+01 0. -1.
         -5    1    3    3    0  502 -0.27962272044E+02  0.74305905554E+02  0.32663804965E+03  0.33617427643E+03  0.41800000000E+01 0. -1.
        -11    1    1    2    0    0  0.94750348700E+01 -0.82726746571E+02  0.68096409284E+02  0.10756677852E+03  0.00000000000E+00 0. -1.
         11    1    1    2    0    0 -0.97078308400E+01  0.10880132918E+02  0.81485818712E+02  0.82780178322E+02  0.00000000000E+00 0.  1.
</event>
<event>
 7    1  0.3265282E-009  0.1069906E+03  0.7561462E-02  0.1266247E+00
          2   -1    0    0  501    0  0.00000000000E+00  0.00000000000E+00  0.88633068947E+03  0.88633068947E+03  0.00000000000E+00 0.  1.
         -2   -1    0    0    0  501 -0.00000000000E+00 -0.00000000000E+00 -0.16032230088E+02  0.16032230088E+02  0.00000000000E+00 0. -1.
         25    2    1    2    0    0  0.92879778210E+01 -0.37495963043E+02  0.59881980246E+03  0.61296434818E+03  0.12509165655E+03 0.  0.
          5    1    3    3  502    0  0.18343429869E+02  0.37193122886E+02  0.36332346690E+03  0.36570647220E+03  0.41800000000E+01 0. -1.
         -5    1    3    3    0  502 -0.90554520484E+01 -0.74689085929E+02  0.23549633557E+03  0.24725787598E+03  0.41800000000E+01 0. -1.
        -11    1    1    2    0    0  0.36673402015E+02 -0.14546163246E+01  0.14073357143E+03  0.14544068362E+03  0.00000000000E+00 0.  1.
         11    1    1    2    0    0 -0.45961379836E+02  0.38950579368E+02  0.13074508550E+03  0.14395788777E+03  0.00000000000E+00 0. -1.
</event>
<event>
 7    1  0.3265282E-009  0.9332207E+02  0.7561462E-02  0.1295001E+00
         -1   -1    0    0    0  501 -0.00000000000E+00  0.00000000000E+00  0.77816732702E+03  0.77816732702E+03  0.00000000000E+00 0.  1.
          1   -1    0    0  501    0  0.00000000000E+00 -0.00000000000E+00 -0.18645411858E+02  0.18645411858E+02  0.00000000000E+00 0. -1.
         25    2    1    2    0    0  0.47615159747E+02  0.72202684043E+01  0.49504074093E+03  0.51286630323E+03  0.12508866490E+03 0.  0.
          5    1    3    3  502    0 -0.16894521819E+02 -0.36171349373E+01  0.38035945539E+03  0.38077460030E+03  0.41800000000E+01 0.  1.
         -5    1    3    3    0  502  0.64509681565E+02  0.10837403342E+02  0.11468128555E+03  0.13209170292E+03  0.41800000000E+01 0.  1.
        -11    1    1    2    0    0  0.80857021320E+01 -0.38567086640E+02  0.10070735114E+03  0.10814235676E+03  0.00000000000E+00 0. -1.
         11    1    1    2    0    0 -0.55700861879E+02  0.31346818236E+02  0.16377382309E+03  0.17580407890E+03  0.00000000000E+00 0.  1.
</event>
<event>
 7    1  0.3265282E-009  0.8825660E+02  0.7561462E-02  0.1307129E+00
         -2   -1    0    0    0  501 -0.00000000000E+00  0.00000000000E+00  0.64347361021E+02  0.64347361021E+02  0.00000000000E+00 0.  1.
          2   -1    0    0  501    0  0.00000000000E+00 -0.00000000000E+00 -0.38675120029E+03  0.38675120029E+03  0.00000000000E+00 0. -1.
         25    2    1    2    0    0 -0.27604267085E+02 -0.15764067703E+02 -0.33041477259E+03  0.35473457909E+03  0.12510874575E+03 0.  0.
          5    1    3    3  502    0  0.27669408195E+01 -0.40768019910E+02 -0.30491107952E+03  0.30766528278E+03  0.41800000000E+01 0.  1.
         -5    1    3    3    0  502 -0.30371207905E+02  0.25003952207E+02 -0.25503693068E+02  0.47069296316E+02  0.41800000000E+01 0.  1.
        -11    1    1    2    0    0 -0.32681778025E+02 -0.27894230659E+01  0.53278243470E+01  0.33230486126E+02  0.00000000000E+00 0.  1.
         11    1    1    2    0    0  0.60286045110E+02  0.18553490769E+02  0.26831089799E+01  0.63133496090E+02  0.00000000000E+00 0. -1.
</event>
<event>
 7    1  0.3265282E-009  0.1861328E+03  0.7561462E-02  0.1161996E+00
          2   -1    0    0  501    0  0.00000000000E+00  0.00000000000E+00  0.86382973111E+03  0.86382973111E+03  0.00000000000E+00 0.  1.
         -2   -1    0    0    0  501 -0.00000000000E+00 -0.00000000000E+00 -0.71118164819E+02  0.71118164819E+02  0.00000000000E+00 0. -1.
         25    2    1    2    0    0 -0.80841553853E+02  0.15251953886E+03  0.67342947434E+03  0.70636564791E+03  0.12509038760E+03 0.  0.
          5    1    3    3  502    0 -0.86087029323E+02  0.69867460018E+02  0.23138422745E+03  0.25660976540E+03  0.41800000000E+01 0. -1.
         -5    1    3    3    0  502  0.52454754696E+01  0.82652078845E+02  0.44204524690E+03  0.44975588251E+03  0.41800000000E+01 0. -1.
        -11    1    1    2    0    0  0.24238631678E+02 -0.12304722168E+02 -0.10671938476E+02  0.29202871847E+02  0.00000000000E+00 0.  1.
         11    1    1    2    0    0  0.56602922175E+02 -0.14021481670E+03  0.12995403043E+03  0.19937937617E+03  0.00000000000E+00 0. -1.
</event>
<event>
 7    1  0.3265282E-009  0.1100051E+03  0.7561462E-02  0.1260560E+00
         -2   -1    0    0    0  501 -0.00000000000E+00  0.00000000000E+00  0.29547396405E+03  0.29547396405E+03  0.00000000000E+00 0.  1.
          2   -1    0    0  501    0  0.00000000000E+00 -0.00000000000E+00 -0.60430240765E+02  0.60430240765E+02  0.00000000000E+00 0. -1.
         25    2    1    2    0    0 -0.49568875409E+02  0.58876737696E+02  0.10972097085E+03  0.18332915329E+03  0.12508934147E+03 0.  0.
          5    1    3    3  502    0  0.17317951383E+02 -0.11392966767E+02  0.78547321530E+02  0.81344116268E+02  0.41800000000E+01 0.  1.
         -5    1    3    3    0  502 -0.66886826792E+02  0.70269704463E+02  0.31173649319E+02  0.10198503702E+03  0.41800000000E+01 0.  1.
        -11    1    1    2    0    0  0.58312356486E+02 -0.67691100593E+02  0.13128497450E+03  0.15880226871E+03  0.00000000000E+00 0.  1.
         11    1    1    2    0    0 -0.87434810776E+01  0.88143628967E+01 -0.59622220642E+01  0.13772782819E+02  0.00000000000E+00 0. -1.
</event>
<event>
 7    1  0.3265282E-009  0.1091379E+03  0.7561462E-02  0.1262175E+00
          1   -1    0    0  501    0  0.00000000000E+00  0.00000000000E+00  0.21424027564E+02  0.21424027564E+02  0.00000000000E+00 0. -1.
         -1   -1    0    0    0  501 -0.00000000000E+00 -0.00000000000E+00 -0.68690825640E+03  0.68690825640E+03  0.00000000000E+00 0.  1.
         25    2    1    2    0    0  0.44179698606E+01  0.28426537532E+02 -0.47290434613E+03  0.49001322949E+03  0.12508740144E+03 0.  0.
          5    1    3    3  502    0  0.28872305777E+02 -0.37424605443E+02 -0.10206566221E+03  0.11255702082E+03  0.41800000000E+01 0.  1.
         -5    1    3    3    0  502 -0.24454335917E+02  0.65851142975E+02 -0.37083868392E+03  0.37745620868E+03  0.41800000000E+01 0.  1.
        -11    1    1    2    0    0  0.99090474449E+01  0.34511717220E+02 -0.92547802018E+02  0.99269046057E+02  0.00000000000E+00 0.  1.
         11    1    1    2    0    0 -0.14327017305E+02 -0.62938254751E+02 -0.10003208069E+03  0.11905000842E+03  0.00000000000E+00 0. -1.
</event>
<event>
 7    1  0.3265282E-009  0.9939158E+02  0.7561462E-02  0.1281581E+00
          4   -1    0    0  501    0  0.00000000000E+00  0.00000000000E+00  0.13161861862E+02  0.13161861862E+02  0.00000000000E+00 0. -1.
         -4   -1    0    0    0  501 -0.00000000000E+00 -0.00000000000E+00 -0.94509116616E+03  0.94509116616E+03  0.00000000000E+00 0.  1.
         25    2    1    2    0    0 -0.17160796486E+02  0.99094674078E+01 -0.62795147796E+03  0.64059605280E+03  0.12509018229E+03 0.  0.
          5    1    3    3  502    0 -0.52770018753E+02  0.38729438512E+02 -0.20711021579E+03  0.21724814884E+03  0.41800000000E+01 0. -1.
         -5    1    3    3    0  502  0.35609222268E+02 -0.28819971105E+02 -0.42084126217E+03  0.42334790396E+03  0.41800000000E+01 0. -1.
        -11    1    1    2    0    0 -0.80282393598E+01  0.34887126859E+02 -0.17864326985E+03  0.18219490144E+03  0.00000000000E+00 0.  1.
         11    1    1    2    0    0  0.25189035845E+02 -0.44796594267E+02 -0.12533455649E+03  0.13546207379E+03  0.00000000000E+00 0. -1.
</event>
<event>
 7    1  0.3265282E-009  0.9425971E+02  0.7561462E-02  0.1292852E+00
          1   -1    0    0  501    0  0.00000000000E+00  0.00000000000E+00  0.47087294335E+03  0.47087294335E+03  0.00000000000E+00 0. -1.
         -1   -1    0    0    0  501 -0.00000000000E+00 -0.00000000000E+00 -0.28786960289E+02  0.28786960289E+02  0.00000000000E+00 0.  1.
         25    2    1    2    0    0  0.27229250262E+02  0.50544860624E+01  0.18206666375E+03  0.22262659274E+03  0.12508936743E+03 0.  0.
          5    1    3    3  502    0 -0.44509176839E+02  0.25555737033E+02  0.56001421010E+02  0.76077553019E+02  0.41800000000E+01 0.  1.
         -5    1    3    3    0  502  0.71738427101E+02 -0.20501250971E+02  0.12606524274E+03  0.14654903972E+03  0.41800000000E+01 0.  1.
        -11    1    1    2    0    0 -0.42865986745E+02  0.58093058382E+01  0.25310742544E+03  0.25677735427E+03  0.00000000000E+00 0. -1.
         11    1    1    2    0    0  0.15636736483E+02 -0.10863791901E+02  0.69118938711E+01  0.20255956635E+02  0.00000000000E+00 0.  1.
</event>
<event>
 7    1  0.3265282E-009  0.7902075E+02  0.7561462E-02  0.1331854E+00
         -1   -1    0    0    0  501 -0.00000000000E+00  0.00000000000E+00  0.89388831125E+02  0.89388831125E+02  0.00000000000E+00 0.  1.
          1   -1    0    0  501    0  0.00000000000E+00 -0.00000000000E+00 -0.19316555508E+03  0.19316555508E+03  0.00000000000E+00 0. -1.
         25    2    1    2    0    0  0.37969681254E+02  0.48786008228E+02 -0.12787065778E+02  0.14012109114E+03  0.12509452361E+03 0.  0.
          5    1    3    3  502    0  0.38146956287E+02  0.44010605351E+02 -0.65084866576E+02  0.87439327048E+02  0.41800000000E+01 0.  1.
         -5    1    3    3    0  502 -0.17727503323E+00  0.47754028775E+01  0.52297800798E+02  0.52681764088E+02  0.41800000000E+01 0.  1.
        -11    1    1    2    0    0  0.26581939240E+01 -0.52441542881E+02 -0.86773525386E+02  0.10142399185E+03  0.00000000000E+00 0.  1.
         11    1    1    2    0    0 -0.40627875178E+02  0.36555346531E+01 -0.42161327920E+01  0.41009303222E+02  0.00000000000E+00 0. -1.
</event>
<event>
 7    1  0.3265282E-009  0.1170147E+03  0.7561462E-02  0.1248105E+00
          1   -1    0    0  501    0  0.00000000000E+00  0.00000000000E+00  0.53582859273E+02  0.53582859273E+02  0.00000000000E+00 0. -1.
         -1   -1    0    0    0  501 -0.00000000000E+00 -0.00000000000E+00 -0.51273098729E+03  0.51273098729E+03  0.00000000000E+00 0.  1.
         25    2    1    2    0    0  0.42028369876E+02  0.42073040160E+02 -0.57282928210E+02  0.14988331027E+03  0.12508856163E+03 0.  0.
          5    1    3    3  502    0 -0.38415185961E+02  0.21977680680E+02  0.68459531135E+01  0.44978710903E+02  0.41800000000E+01 0. -1.
         -5    1    3    3    0  502  0.80443555837E+02  0.20095359480E+02 -0.64128881323E+02  0.10490459937E+03  0.41800000000E+01 0. -1.
        -11    1    1    2    0    0  0.82856418620E+01 -0.54175007544E+02 -0.16110579954E+03  0.17017244768E+03  0.00000000000E+00 0.  1.
         11    1    1    2    0    0 -0.50314011738E+02  0.12101967384E+02 -0.24075940027E+03  0.24625808862E+03  0.00000000000E+00 0. -1.
</event>
<event>
 7    1  0.3265282E-009  0.1619320E+03  0.7561462E-02  0.1186533E+00
          2   -1    0    0  501    0  0.00000000000E+00  0.00000000000E+00  0.35709132440E+03  0.35709132440E+03  0.00000000000E+00 0. -1.
         -2   -1    0    0    0  501 -0.00000000000E+00 -0.00000000000E+00 -0.13612724000E+03  0.13612724000E+03  0.00000000000E+00 0.  1.
         25    2    1    2    0    0  0.79179741999E+01 -0.15355577397E+03 -0.18507650165E+02  0.19907730703E+03  0.12508865266E+03 0.  0.
          5    1    3    3  502    0 -0.22840141146E+02 -0.85588978471E+02  0.46413041570E+02  0.10009389647E+03  0.41800000000E+01 0. -1.
         -5    1    3    3    0  502  0.30758115346E+02 -0.67966795498E+02 -0.64920691735E+02  0.98983410556E+02  0.41800000000E+01 0. -1.
        -11    1    1    2    0    0  0.15042279027E+02  0.11181936095E+03  0.11609727850E+03  0.16189014088E+03  0.00000000000E+00 0.  1.
         11    1    1    2    0    0 -0.22960253227E+02  0.41736413021E+02  0.12337445607E+03  0.13225111649E+03  0.00000000000E+00 0. -1.
</event>
<event>
 7    1  0.7206079E-009  0.1244168E+03  0.7561462E-02  0.1235984E+00
          2   -1    0    0  501    0  0.00000000000E+00  0.00000000000E+00  0.19866345638E+03  0.19866345638E+03  0.00000000000E+00 0. -1.
         -2   -1    0    0    0  501 -0.00000000000E+00 -0.00000000000E+00 -0.12040608390E+03  0.12040608390E+03  0.00000000000E+00 0.  1.
         25    2    1    2    0    0 -0.10843652394E+03 -0.37551532882E+01  0.59895860617E+02  0.17610291000E+03  0.12510851247E+03 0.  0.
          5    1    3    3  502    0 -0.93359643520E+02  0.33910084121E+02  0.82752257425E+02  0.12934962448E+03  0.41800000000E+01 0.  1.
         -5    1    3    3    0  502 -0.15076880417E+02 -0.37665237409E+02 -0.22856396808E+02  0.46753285523E+02  0.41800000000E+01 0.  1.
        -11    1    1    2    0    0  0.36578452695E+02 -0.12592073413E+01  0.51901151055E+02  0.63508253681E+02  0.00000000000E+00 0. -1.
         11    1    1    2    0    0  0.71858071242E+02  0.50143606295E+01 -0.33539639197E+02  0.79458376605E+02  0.00000000000E+00 0.  1.
</event>
<event>
 7    1  0.3265282E-009  0.1075810E+03  0.7561462E-02  0.1265116E+00
         -2   -1    0    0    0  501 -0.00000000000E+00  0.00000000000E+00  0.21202140770E+03  0.21202140770E+03  0.00000000000E+00 0.  1.
          2   -1    0    0  501    0  0.00000000000E+00 -0.00000000000E+00 -0.99761013705E+02  0.99761013705E+02  0.00000000000E+00 0. -1.
         25    2    1    2    0    0  0.70053524272E+02  0.59064634874E+02  0.91701464785E+02  0.18014498123E+03  0.12508768230E+03 0.  0.
          5    1    3    3  502    0  0.23271421749E+02  0.56522382141E+01  0.10500767613E+03  0.10778493083E+03  0.41800000000E+01 0.  1.
         -5    1    3    3    0  502  0.46782102522E+02  0.53412396660E+02 -0.13306211349E+02  0.72360050400E+02  0.41800000000E+01 0.  1.
        -11    1    1    2    0    0 -0.29982498232E+02 -0.71694609046E+02  0.37561695513E+02  0.86313082069E+02  0.00000000000E+00 0.  1.
         11    1    1    2    0    0 -0.40071026039E+02  0.12629974171E+02 -0.17002766306E+02  0.45324358103E+02  0.00000000000E+00 0. -1.
</event>
<event>
 7    1  0.3265282E-009  0.1059516E+03  0.7561462E-02  0.1268256E+00
         -2   -1    0    0    0  501 -0.00000000000E+00  0.00000000000E+00  0.67819697909E+03  0.67819697909E+03  0.00000000000E+00 0.  1.
          2   -1    0    0  501    0  0.00000000000E+00 -0.00000000000E+00 -0.27110911438E+02  0.27110911438E+02  0.00000000000E+00 0. -1.
         25    2    1    2    0    0  0.72148586015E+02  0.13253214743E+02  0.27013973261E+03  0.30659999548E+03  0.12508803271E+03 0.  0.
          5    1    3    3  502    0 -0.62346420295E+01  0.19583722241E+02  0.20014220177E+03  0.20123808354E+03  0.41800000000E+01 0. -1.
         -5    1    3    3    0  502  0.78383228045E+02 -0.63305074974E+01  0.69997530846E+02  0.10536191194E+03  0.41800000000E+01 0. -1.
        -11    1    1    2    0    0 -0.18131147572E+02 -0.45701481393E+02  0.10931116900E+03  0.11985948265E+03  0.00000000000E+00 0. -1.
         11    1    1    2    0    0 -0.54017438443E+02  0.32448266649E+02  0.27163516604E+03  0.27884841239E+03  0.00000000000E+00 0.  1.
</event>
<event>
 7    1  0.3265282E-009  0.1303277E+03  0.7561462E-02  0.1226970E+00
          1   -1    0    0  501    0  0.00000000000E+00  0.00000000000E+00  0.72755746350E+02  0.72755746350E+02  0.00000000000E+00 0. -1.
         -1   -1    0    0    0  501 -0.00000000000E+00 -0.00000000000E+00 -0.61118524299E+03  0.61118524299E+03  0.00000000000E+00 0.  1.
         25    2    1    2    0    0 -0.47162507940E+02  0.99850875637E+02 -0.50156834004E+03  0.52859095848E+03  0.12507238757E+03 0.  0.
          5    1    3    3  502    0 -0.28247633959E+02  0.45515367706E+02 -0.44349062774E+03  0.44673368668E+03  0.41800000000E+01 0. -1.
         -5    1    3    3    0  502 -0.18914873981E+02  0.54335507931E+02 -0.58077712299E+02  0.81857271795E+02  0.41800000000E+01 0. -1.
        -11    1    1    2    0    0 -0.30704389564E+02 -0.15335581642E+02  0.10591878726E+01  0.34337464696E+02  0.00000000000E+00 0.  1.
         11    1    1    2    0    0  0.77866897504E+02 -0.84515293995E+02 -0.37920344474E+02  0.12101256617E+03  0.00000000000E+00 0. -1.
</event>
<event>
 7    1  0.3265282E-009  0.1619910E+03  0.7561462E-02  0.1186467E+00
         -2   -1    0    0    0  501 -0.00000000000E+00  0.00000000000E+00  0.15496919172E+03  0.15496919172E+03  0.00000000000E+00 0.  1.
          2   -1    0    0  501    0  0.00000000000E+00 -0.00000000000E+00 -0.22745444250E+03  0.22745444250E+03  0.00000000000E+00 0. -1.
         25    2    1    2    0    0  0.40856234111E+02  0.14614477153E+03 -0.21905597780E+02  0.19788473041E+03  0.12510389763E+03 0.  0.
          5    1    3    3  502    0  0.55460518864E+02  0.11584761789E+03  0.33620710362E+02  0.13283209058E+03  0.41800000000E+01 0.  1.
         -5    1    3    3    0  502 -0.14604284754E+02  0.30297153640E+02 -0.55526308141E+02  0.65052639821E+02  0.41800000000E+01 0.  1.
        -11    1    1    2    0    0  0.13077599127E+02 -0.15731994400E+02 -0.37616319480E+02  0.42819466810E+02  0.00000000000E+00 0. -1.
         11    1    1    2    0    0 -0.53933833238E+02 -0.13041277713E+03 -0.12963333522E+02  0.14171943700E+03  0.00000000000E+00 0.  1.
</event>
<event>
 7    1  0.3265282E-009  0.1058770E+03  0.7561462E-02  0.1268401E+00
         -2   -1    0    0    0  501 -0.00000000000E+00  0.00000000000E+00  0.39858405717E+02  0.39858405717E+02  0.00000000000E+00 0.  1.
          2   -1    0    0  501    0  0.00000000000E+00 -0.00000000000E+00 -0.55131097778E+03  0.55131097778E+03  0.00000000000E+00 0. -1.
         25    2    1    2    0    0 -0.42501347992E+02 -0.63164149103E+01 -0.96197499825E+02  0.16354656262E+03  0.12508899829E+03 0.  0.
          5    1    3    3  502    0  0.27720014929E+02 -0.24240418660E+02 -0.81429477652E+02  0.89466358790E+02  0.41800000000E+01 0. -1.
         -5    1    3    3    0  502 -0.70221362921E+02  0.17924003750E+02 -0.14768022173E+02  0.74080203832E+02  0.41800000000E+01 0. -1.
        -11    1    1    2    0    0  0.43436102930E+02  0.45500841626E+02 -0.25573345484E+03  0.26335645340E+03  0.00000000000E+00 0.  1.
         11    1    1    2    0    0 -0.93475493753E+00 -0.39184426716E+02 -0.15952161740E+03  0.16426636747E+03  0.00000000000E+00 0. -1.
</event>
<event>
 7    1  0.3265282E-009  0.1892311E+03  0.7561462E-02  0.1159157E+00
          2   -1    0    0  501    0  0.00000000000E+00  0.00000000000E+00  0.26157638665E+02  0.26157638665E+02  0.00000000000E+00 0. -1.
         -2   -1    0    0    0  501 -0.00000000000E+00 -0.00000000000E+00 -0.14013625684E+04  0.14013625684E+04  0.00000000000E+00 0.  1.
         25    2    1    2    0    0 -0.98319420200E+01 -0.15477101699E+03 -0.82291930144E+03  0.84669633446E+03  0.12509105210E+03 0.  0.
          5    1    3    3  502    0 -0.67140588315E+02 -0.84106559174E+02 -0.41683853500E+03  0.43052712871E+03  0.41800000000E+01 0.  1.
         -5    1    3    3    0  502  0.57308646295E+02 -0.70664457814E+02 -0.40608076644E+03  0.41616920575E+03  0.41800000000E+01 0.  1.
        -11    1    1    2    0    0 -0.39474487564E+02  0.90043597036E+02 -0.29072284020E+03  0.30689713969E+03  0.00000000000E+00 0.  1.
         11    1    1    2    0    0  0.49306429584E+02  0.64727419952E+02 -0.26156278810E+03  0.27392673292E+03  0.00000000000E+00 0. -1.
</event>
<event>
 7    1  0.3265282E-009  0.9956770E+02  0.7561462E-02  0.1281208E+00
         -1   -1    0    0    0  501 -0.00000000000E+00  0.00000000000E+00  0.12885789982E+03  0.12885789982E+03  0.00000000000E+00 0.  1.
          1   -1    0    0  501    0  0.00000000000E+00 -0.00000000000E+00 -0.12072252112E+03  0.12072252112E+03  0.00000000000E+00 0. -1.
         25    2    1    2    0    0 -0.14805887610E+02 -0.47432737662E+02  0.41983665216E+02  0.14099595209E+03  0.12509257152E+03 0.  0.
          5    1    3    3  502    0  0.38592263315E+02 -0.52602403365E+02 -0.10049635083E+02  0.66142597415E+02  0.41800000000E+01 0. -1.
         -5    1    3    3    0  502 -0.53398150925E+02  0.51696657029E+01  0.52033300300E+02  0.74853354673E+02  0.41800000000E+01 0. -1.
        -11    1    1    2    0    0  0.23306040349E+02 -0.74077540005E+01 -0.45705406721E+02  0.51836575308E+02  0.00000000000E+00 0. -1.
         11    1    1    2    0    0 -0.85001527391E+01  0.54840491663E+02  0.11857120199E+02  0.56747893545E+02  0.00000000000E+00 0.  1.
</event>
<event>
 7    1  0.3265282E-009  0.9370942E+02  0.7561462E-02  0.1294110E+00
          2   -1    0    0  501    0  0.00000000000E+00  0.00000000000E+00  0.27241743416E+03  0.27241743416E+03  0.00000000000E+00 0. -1.
         -2   -1    0    0    0  501 -0.00000000000E+00 -0.00000000000E+00 -0.49320234852E+02  0.49320234852E+02  0.00000000000E+00 0.  1.
         25    2    1    2    0    0  0.15471446440E+02  0.22209936573E+02  0.17995819830E+03  0.22083168640E+03  0.12509609765E+03 0.  0.
          5    1    3    3  502    0  0.34515130687E+02  0.68313289928E+02  0.93235132671E+02  0.12069905630E+03  0.41800000000E+01 0. -1.
         -5    1    3    3    0  502 -0.19043684247E+02 -0.46103353356E+02  0.86723065626E+02  0.10013263011E+03  0.41800000000E+01 0. -1.
        -11    1    1    2    0    0  0.13046047260E+02 -0.28645202297E+02  0.59566942336E+02  0.67371860468E+02  0.00000000000E+00 0. -1.
         11    1    1    2    0    0 -0.28517493699E+02  0.64352657241E+01 -0.16427941321E+02  0.33534122143E+02  0.00000000000E+00 0.  1.
</event>
<event>
 7    1  0.3265282E-009  0.2247022E+03  0.7561462E-02  0.1130425E+00
          3   -1    0    0  501    0  0.00000000000E+00  0.00000000000E+00  0.27822901412E+02  0.27822901412E+02  0.00000000000E+00 0. -1.
         -3   -1    0    0    0  501 -0.00000000000E+00 -0.00000000000E+00 -0.26209398071E+04  0.26209398071E+04  0.00000000000E+00 0.  1.
         25    2    1    2    0    0  0.28317523722E+02 -0.20255357237E+03 -0.19330479137E+04  0.19478581967E+04  0.12508991043E+03 0.  0.
          5    1    3    3  502    0 -0.24570315137E+02 -0.12473675920E+03 -0.14596894129E+04  0.14652213532E+04  0.41800000000E+01 0. -1.
         -5    1    3    3    0  502  0.52887838859E+02 -0.77816813168E+02 -0.47335850084E+03  0.48263684342E+03  0.41800000000E+01 0. -1.
        -11    1    1    2    0    0 -0.60921468568E+02  0.76365027093E+02 -0.37395125358E+03  0.38650043047E+03  0.00000000000E+00 0.  1.
         11    1    1    2    0    0  0.32603944846E+02  0.12618854528E+03 -0.28611773838E+03  0.31440408139E+03  0.00000000000E+00 0. -1.
</event>
<event>
 7    1  0.3265282E-009  0.1952717E+03  0.7561462E-02  0.1153791E+00
          2   -1    0    0  501    0  0.00000000000E+00  0.00000000000E+00  0.77850736882E+03  0.77850736882E+03  0.00000000000E+00 0. -1.
         -2   -1    0    0    0  501 -0.00000000000E+00 -0.00000000000E+00 -0.52530101548E+02  0.52530101548E+02  0.00000000000E+00 0.  1.
         25    2    1    2    0    0 -0.16619429383E+03  0.13088242211E+02  0.46340649530E+03  0.50811716395E+03  0.12508248088E+03 0.  0.
          5    1    3    3  502    0 -0.42503495514E+02  0.61322500219E+02  0.18950402786E+03  0.20370627173E+03  0.41800000000E+01 0. -1.
         -5    1    3    3    0  502 -0.12369079832E+03 -0.48234258008E+02  0.27390246744E+03  0.30441089222E+03  0.41800000000E+01 0. -1.
        -11    1    1    2    0    0  0.80094007552E+02  0.31450581980E+02  0.86994307843E+02  0.12236093637E+03  0.00000000000E+00 0.  1.
         11    1    1    2    0    0  0.86100286283E+02 -0.44538824191E+02  0.17557646413E+03  0.20055937005E+03  0.00000000000E+00 0. -1.
</event>
<event>
 7    1  0.3265282E-009  0.1397458E+03  0.7561462E-02  0.1213671E+00
         -1   -1    0    0    0  501 -0.00000000000E+00  0.00000000000E+00  0.19157983993E+03  0.19157983993E+03  0.00000000000E+00 0.  1.
          1   -1    0    0  501    0  0.00000000000E+00 -0.00000000000E+00 -0.10804580665E+03  0.10804580665E+03  0.00000000000E+00 0. -1.
         25    2    1    2    0    0 -0.81744339268E+02 -0.36930488478E+02  0.47005271395E+02  0.16094781881E+03  0.12509479149E+03 0.  0.
          5    1    3    3  502    0  0.32217921406E+02 -0.18516628106E+02  0.36823534024E+01  0.37575152730E+02  0.41800000000E+01 0. -1.
         -5    1    3    3    0  502 -0.11396226067E+03 -0.18413860373E+02  0.43322917993E+02  0.12337266608E+03  0.41800000000E+01 0. -1.
        -11    1    1    2    0    0  0.35726454578E+02 -0.29113311274E+02 -0.78648216675E+01  0.46752752538E+02  0.00000000000E+00 0. -1.
         11    1    1    2    0    0  0.46017884690E+02  0.66043799753E+02  0.44393583555E+02  0.91925075240E+02  0.00000000000E+00 0.  1.
</event>
<event>
 7    1  0.3265282E-009  0.9898776E+02  0.7561462E-02  0.1282439E+00
          2   -1    0    0  501    0  0.00000000000E+00  0.00000000000E+00  0.62109450984E+03  0.62109450984E+03  0.00000000000E+00 0. -1.
         -2   -1    0    0    0  501 -0.00000000000E+00 -0.00000000000E+00 -0.22118636539E+02  0.22118636539E+02  0.00000000000E+00 0.  1.
         25    2    1    2    0    0  0.24301876046E+02  0.36917782608E+02  0.32957509047E+03  0.35528050470E+03  0.12510392844E+03 0.  0.
          5    1    3    3  502    0  0.59119830890E+02  0.93363809093E+01  0.71322341997E+02  0.93202313710E+02  0.41800000000E+01 0. -1.
         -5    1    3    3    0  502 -0.34817954844E+02  0.27581401699E+02  0.25825274848E+03  0.26207819099E+03  0.41800000000E+01 0. -1.
        -11    1    1    2    0    0 -0.39459477586E+02 -0.56303488452E+02  0.23968090512E+03  0.24934728685E+03  0.00000000000E+00 0. -1.
         11    1    1    2    0    0  0.15157601540E+02  0.19385705844E+02  0.29719877707E+02  0.38585354817E+02  0.00000000000E+00 0.  1.
</event>
<event>
 7    1  0.3265282E-009  0.1113536E+03  0.7561462E-02  0.1258084E+00
         -1   -1    0    0    0  501 -0.00000000000E+00  0.00000000000E+00  0.17467366730E+03  0.17467366730E+03  0.00000000000E+00 0.  1.
          1   -1    0    0  501    0  0.00000000000E+00 -0.00000000000E+00 -0.14071432570E+03  0.14071432570E+03  0.00000000000E+00 0. -1.
         25    2    1    2    0    0  0.47710262247E+02  0.35261032766E+02 -0.75819877220E+02  0.15784695066E+03  0.12508955390E+03 0.  0.
          5    1    3    3  502    0  0.47446923013E+02  0.80036593839E+02 -0.56224608617E+02  0.10879221420E+03  0.41800000000E+01 0. -1.
         -5    1    3    3    0  502  0.26333923460E+00 -0.44775561073E+02 -0.19595268603E+02  0.49054736455E+02  0.41800000000E+01 0. -1.
        -11    1    1    2    0    0  0.30356662121E+01 -0.33692325905E+02  0.10035535331E+03  0.10590365920E+03  0.00000000000E+00 0.  1.
         11    1    1    2    0    0 -0.50745928459E+02 -0.15687068608E+01  0.94238655130E+01  0.51637383141E+02  0.00000000000E+00 0. -1.
</event>
<event>
 7    1  0.3265282E-009  0.1229587E+03  0.7561462E-02  0.1238294E+00
          3   -1    0    0  501    0  0.00000000000E+00  0.00000000000E+00  0.40278073577E+02  0.40278073577E+02  0.00000000000E+00 0. -1.
         -3   -1    0    0    0  501 -0.00000000000E+00 -0.00000000000E+00 -0.68103316666E+03  0.68103316666E+03  0.00000000000E+00 0.  1.
         25    2    1    2    0    0  0.37979501696E+02  0.69538077198E+02 -0.55434972111E+03  0.57378486909E+03  0.12508987159E+03 0.  0.
          5    1    3    3  502    0  0.53945858072E+02 -0.19195412959E+02 -0.23655336729E+03  0.24342059785E+03  0.41800000000E+01 0. -1.
         -5    1    3    3    0  502 -0.15966356377E+02  0.88733490157E+02 -0.31779635382E+03  0.33036427124E+03  0.41800000000E+01 0. -1.
        -11    1    1    2    0    0 -0.14694944272E+02  0.83877030937E+01 -0.59503505076E+02  0.61862444720E+02  0.00000000000E+00 0.  1.
         11    1    1    2    0    0 -0.23284557423E+02 -0.77925780292E+02 -0.26901866899E+02  0.85663926428E+02  0.00000000000E+00 0. -1.
</event>
<event>
 7    1  0.3265282E-009  0.9599293E+02  0.7561462E-02  0.1288955E+00
         -2   -1    0    0    0  501 -0.00000000000E+00  0.00000000000E+00  0.21272781819E+02  0.21272781819E+02  0.00000000000E+00 0.  1.
          2   -1    0    0  501    0  0.00000000000E+00 -0.00000000000E+00 -0.70342039127E+03  0.70342039127E+03  0.00000000000E+00 0. -1.
         25    2    1    2    0    0  0.24754014702E+02 -0.33361994072E+02 -0.48794837972E+03  0.50543672053E+03  0.12508746256E+03 0.  0.
          5    1    3    3  502    0  0.45917016264E+02 -0.46320343522E+02 -0.12012222448E+03  0.13675075071E+03  0.41800000000E+01 0.  1.
         -5    1    3    3    0  502 -0.21163001562E+02  0.12958349451E+02 -0.36782615525E+03  0.36868596982E+03  0.41800000000E+01 0.  1.
        -11    1    1    2    0    0 -0.44055343017E+02 -0.17238802447E+02 -0.81929351624E+02  0.94606914206E+02  0.00000000000E+00 0.  1.
         11    1    1    2    0    0  0.19301328315E+02  0.50600796519E+02 -0.11226987811E+03  0.12464953836E+03  0.00000000000E+00 0. -1.
</event>
<event>
 7    1  0.3265282E-009  0.1229093E+03  0.7561462E-02  0.1238373E+00
         -2   -1    0    0    0  501 -0.00000000000E+00  0.00000000000E+00  0.21647940595E+03  0.21647940595E+03  0.00000000000E+00 0. -1.
          2   -1    0    0  501    0  0.00000000000E+00 -0.00000000000E+00 -0.99551955125E+02  0.99551955125E+02  0.00000000000E+00 0.  1.
         25    2    1    2    0    0 -0.73212031604E+01  0.67991467750E+02 -0.13528586572E+02  0.14319870648E+03  0.12508559941E+03 0.  0.
          5    1    3    3  502    0  0.28326720648E+01 -0.32673487657E+02  0.17344619620E+02  0.37334823643E+02  0.41800000000E+01 0. -1.
         -5    1    3    3    0  502 -0.10153875225E+02  0.10066495541E+03 -0.30873206192E+02  0.10586388284E+03  0.41800000000E+01 0. -1.
        -11    1    1    2    0    0  0.12097030548E+02 -0.89067321328E+02  0.91373739764E+02  0.12817365640E+03  0.00000000000E+00 0.  1.
         11    1    1    2    0    0 -0.47758273875E+01  0.21075853578E+02  0.39082297633E+02  0.44658998192E+02  0.00000000000E+00 0. -1.
</event>
<event>
 7    1  0.3265282E-009  0.7525024E+02  0.7561462E-02  0.1343098E+00
          2   -1    0    0  501    0  0.00000000000E+00  0.00000000000E+00  0.39261282485E+03  0.39261282485E+03  0.00000000000E+00 0. -1.
         -2   -1    0    0    0  501 -0.00000000000E+00 -0.00000000000E+00 -0.46751668330E+02  0.46751668330E+02  0.00000000000E+00 0.  1.
         25    2    1    2    0    0 -0.54965223314E+02  0.28380716769E+02  0.10961200459E+03  0.17745675856E+03  0.12509783671E+03 0.  0.
          5    1    3    3  502    0 -0.38650978978E+02  0.11852174183E+02  0.13606681531E+03  0.14200712249E+03  0.41800000000E+01 0. -1.
         -5    1    3    3    0  502 -0.16314244335E+02  0.16528542586E+02 -0.26454810712E+02  0.35449636078E+02  0.41800000000E+01 0. -1.
        -11    1    1    2    0    0  0.26062741639E+02 -0.45668684486E+02  0.49734549751E+02  0.72376934747E+02  0.00000000000E+00 0.  1.
         11    1    1    2    0    0  0.28902481675E+02  0.17287967717E+02  0.18651460217E+03  0.18953079987E+03  0.00000000000E+00 0. -1.
</event>
<event>
 7    1  0.3265282E-009  0.2082866E+03  0.7561462E-02  0.1142930E+00
         -2   -1    0    0    0  501 -0.00000000000E+00  0.00000000000E+00  0.39159170978E+03  0.39159170978E+03  0.00000000000E+00 0.  1.
          2   -1    0    0  501    0  0.00000000000E+00 -0.00000000000E+00 -0.13930288983E+03  0.13930288983E+03  0.00000000000E+00 0. -1.
         25    2    1    2    0    0  0.68132544335E+02  0.19381635982E+03  0.10960117278E+03  0.26432110130E+03  0.12508558105E+03 0.  0.
          5    1    3    3  502    0  0.93712979590E+01  0.46077531059E+02  0.93141354691E+02  0.10442099620E+03  0.41800000000E+01 0. -1.
         -5    1    3    3    0  502  0.58761246376E+02  0.14773882876E+03  0.16459818090E+02  0.15990010510E+03  0.41800000000E+01 0. -1.
        -11    1    1    2    0    0 -0.90374137252E+01 -0.93140303474E+02  0.11184551857E+03  0.14582939005E+03  0.00000000000E+00 0.  1.
         11    1    1    2    0    0 -0.59095130610E+02 -0.10067605634E+03  0.30842128596E+02  0.12074410826E+03  0.00000000000E+00 0. -1.
</event>
<event>
 7    1  0.3988826E-009  0.8243863E+02  0.7561462E-02  0.1322270E+00
          1   -1    0    0  501    0  0.00000000000E+00  0.00000000000E+00  0.14437580715E+03  0.14437580715E+03  0.00000000000E+00 0. -1.
         -1   -1    0    0    0  501 -0.00000000000E+00 -0.00000000000E+00 -0.15227233514E+03  0.15227233514E+03  0.00000000000E+00 0.  1.
         25    2    1    2    0    0  0.49788379167E+02 -0.24067945808E+02 -0.88528056086E+02  0.16291698075E+03  0.12508627897E+03 0.  0.
          5    1    3    3  502    0  0.21439004878E+02 -0.53337249535E+02 -0.10418502524E+03  0.11906504526E+03  0.41800000000E+01 0.  1.
         -5    1    3    3    0  502  0.28349374289E+02  0.29269303727E+02  0.15656969154E+02  0.43851935491E+02  0.41800000000E+01 0.  1.
        -11    1    1    2    0    0 -0.32727053657E+02 -0.44691550778E+01 -0.12132638570E+02  0.35188553634E+02  0.00000000000E+00 0.  1.
         11    1    1    2    0    0 -0.17061325510E+02  0.28537100886E+02  0.92764166671E+02  0.98542607908E+02  0.00000000000E+00 0. -1.
</event>
<event>
 7    1  0.3265282E-009  0.1145493E+03  0.7561462E-02  0.1252370E+00
          1   -1    0    0  501    0  0.00000000000E+00  0.00000000000E+00  0.85412693134E+03  0.85412693134E+03  0.00000000000E+00 0. -1.
         -1   -1    0    0    0  501 -0.00000000000E+00 -0.00000000000E+00 -0.17370520461E+02  0.17370520461E+02  0.00000000000E+00 0.  1.
         25    2    1    2    0    0 -0.55070247566E+02  0.41937990507E+01  0.45491199481E+03  0.47501910558E+03  0.12509159655E+03 0.  0.
          5    1    3    3  502    0 -0.56753072837E+02 -0.45484352418E+02  0.36497951524E+03  0.37217906515E+03  0.41800000000E+01 0. -1.
         -5    1    3    3    0  502  0.16828252714E+01  0.49678151469E+02  0.89932479577E+02  0.10284004044E+03  0.41800000000E+01 0. -1.
        -11    1    1    2    0    0 -0.55602000571E+01 -0.37009233063E+02  0.11923620729E+03  0.12497148589E+03  0.00000000000E+00 0.  1.
         11    1    1    2    0    0  0.60630447623E+02  0.32815434013E+02  0.26260820878E+03  0.27150686033E+03  0.00000000000E+00 0. -1.
</event>
<event>
 7    1  0.3265282E-009  0.2353149E+03  0.7561462E-02  0.1122954E+00
         -2   -1    0    0    0  501 -0.00000000000E+00  0.00000000000E+00  0.71296868681E+02  0.71296868681E+02  0.00000000000E+00 0.  1.
          2   -1    0    0  501    0  0.00000000000E+00 -0.00000000000E+00 -0.80950036748E+03  0.80950036748E+03  0.00000000000E+00 0. -1.
         25    2    1    2    0    0 -0.15788502690E+03  0.13671916462E+03 -0.46596657942E+03  0.52573972472E+03  0.12513030537E+03 0.  0.
          5    1    3    3  502    0 -0.38289312192E+02  0.11556589090E+03 -0.22467102006E+03  0.25557011997E+03  0.41800000000E+01 0. -1.
         -5    1    3    3    0  502 -0.11959571470E+03  0.21153273728E+02 -0.24129555936E+03  0.27016960475E+03  0.41800000000E+01 0. -1.
        -11    1    1    2    0    0  0.16308754728E+03 -0.10238064875E+03 -0.22050533082E+03  0.29274894746E+03  0.00000000000E+00 0.  1.
         11    1    1    2    0    0 -0.52025203846E+01 -0.34338515877E+02 -0.51731588560E+02  0.62308563986E+02  0.00000000000E+00 0. -1.
</event>
<event>
 7    1  0.3265282E-009  0.1463434E+03  0.7561462E-02  0.1205040E+00
         -1   -1    0    0    0  501 -0.00000000000E+00  0.00000000000E+00  0.61102997758E+03  0.61102997758E+03  0.00000000000E+00 0.  1.
          1   -1    0    0  501    0  0.00000000000E+00 -0.00000000000E+00 -0.45378258778E+02  0.45378258778E+02  0.00000000000E+00 0. -1.
         25    2    1    2    0    0 -0.10911708176E+03  0.62176250371E+02  0.30948323586E+03  0.35665065927E+03  0.12508955127E+03 0.  0.
          5    1    3    3  502    0  0.35383463209E+01  0.35517026328E+02  0.12791073331E+02  0.38145288187E+02  0.41800000000E+01 0.  1.
         -5    1    3    3    0  502 -0.11265542808E+03  0.26659224043E+02  0.29669216253E+03  0.31850537109E+03  0.41800000000E+01 0.  1.
        -11    1    1    2    0    0  0.64664689526E+02 -0.70519485509E+02  0.22592224931E+03  0.24534747327E+03  0.00000000000E+00 0.  1.
         11    1    1    2    0    0  0.44452392236E+02  0.83432351380E+01  0.30246233629E+02  0.54410103812E+02  0.00000000000E+00 0. -1.
</event>
<event>
 7    1  0.3265282E-009  0.1426532E+03  0.7561462E-02  0.1209803E+00
          2   -1    0    0  501    0  0.00000000000E+00  0.00000000000E+00  0.68280059136E+03  0.68280059136E+03  0.00000000000E+00 0.  1.
         -2   -1    0    0    0  501 -0.00000000000E+00 -0.00000000000E+00 -0.41253258719E+02  0.41253258719E+02  0.00000000000E+00 0. -1.
         25    2    1    2    0    0 -0.97443811440E+02  0.70934398755E+02  0.44128063801E+03  0.47424006815E+03  0.12509218776E+03 0.  0.
          5    1    3    3  502    0 -0.39264738158E+02  0.93917658980E+02  0.19387104515E+03  0.21901073234E+03  0.41800000000E+01 0. -1.
         -5    1    3    3    0  502 -0.58179073282E+02 -0.22983260225E+02  0.24740959286E+03  0.25522933581E+03  0.41800000000E+01 0. -1.
        -11    1    1    2    0    0  0.33050900175E+02 -0.28222845916E+02  0.10202504445E+02  0.44642828438E+02  0.00000000000E+00 0. -1.
         11    1    1    2    0    0  0.64392911264E+02 -0.42711552840E+02  0.19006419018E+03  0.20517095349E+03  0.00000000000E+00 0.  1.
</event>
<event>
 6    1  0.3265282E-009  0.1432823E+03  0.7561462E-02  0.1208979E+00
         -1   -1    0    0    0  501 -0.00000000000E+00  0.00000000000E+00  0.17794726059E+03  0.17794726059E+03  0.00000000000E+00 0.  1.
          1   -1    0    0  501    0  0.00000000000E+00 -0.00000000000E+00 -0.14312837388E+03  0.14312837388E+03  0.00000000000E+00 0. -1.
          5    1    1    2  502    0 -0.26870181286E+02 -0.81944018899E+02 -0.45552041008E+02  0.97618080885E+02  0.41800000000E+01 0. -1.
         -5    1    1    2    0  502 -0.61727732617E+02  0.17676194166E+02  0.29267398900E+02  0.70688145064E+02  0.41800000000E+01 0. -1.
        -11    1    1    2    0    0  0.87406202056E+02  0.17552549221E+02  0.56777262334E+02  0.10569575990E+03  0.00000000000E+00 0.  1.
         11    1    1    2    0    0  0.11917118479E+01  0.46715275511E+02 -0.56737335166E+01  0.47073648629E+02  0.00000000000E+00 0. -1.
</event>
<event>
 7    1  0.3265282E-009  0.9400094E+02  0.7561462E-02  0.1293442E+00
          2   -1    0    0  501    0  0.00000000000E+00  0.00000000000E+00  0.51458658334E+03  0.51458658334E+03  0.00000000000E+00 0.  1.
         -2   -1    0    0    0  501 -0.00000000000E+00 -0.00000000000E+00 -0.22805278841E+02  0.22805278841E+02  0.00000000000E+00 0. -1.
         25    2    1    2    0    0  0.11556281329E+02 -0.20023472377E+01  0.26666576275E+03  0.29478100319E+03  0.12509058232E+03 0.  0.
          5    1    3    3  502    0 -0.41069911380E+02  0.12211066604E+02  0.21597976778E+03  0.22022847287E+03  0.41800000000E+01 0. -1.
         -5    1    3    3    0  502  0.52626192709E+02 -0.14213413841E+02  0.50685994961E+02  0.74552530321E+02  0.41800000000E+01 0. -1.
        -11    1    1    2    0    0  0.38763908095E+02 -0.63210644967E+01  0.90404969379E+02  0.98568021770E+02  0.00000000000E+00 0.  1.
         11    1    1    2    0    0 -0.50320189424E+02  0.83234117343E+01  0.13471057237E+03  0.14404283722E+03  0.00000000000E+00 0. -1.
</event>
<event>
 7    1  0.3265282E-009  0.1744648E+03  0.7561462E-02  0.1173270E+00
         -2   -1    0    0    0  501 -0.00000000000E+00  0.00000000000E+00  0.37732901318E+02  0.37732901318E+02  0.00000000000E+00 0. -1.
          2   -1    0    0  501    0  0.00000000000E+00 -0.00000000000E+00 -0.99890675522E+03  0.99890675522E+03  0.00000000000E+00 0.  1.
         25    2    1    2    0    0  0.10572009242E+03 -0.11884061046E+03 -0.45856209405E+03  0.50122507929E+03  0.12509019696E+03 0.  0.
          5    1    3    3  502    0  0.10547614382E+03 -0.10083096685E+03 -0.46006994122E+03  0.48267372417E+03  0.41800000000E+01 0.  1.
         -5    1    3    3    0  502  0.24394860468E+00 -0.18009643605E+02  0.15078471708E+01  0.18551355120E+02  0.41800000000E+01 0.  1.
        -11    1    1    2    0    0 -0.64738859183E+02  0.67205740637E+01 -0.18420285664E+03  0.19536370799E+03  0.00000000000E+00 0.  1.
         11    1    1    2    0    0 -0.40981233242E+02  0.11212003639E+03 -0.31840890321E+03  0.34005086926E+03  0.00000000000E+00 0. -1.
</event>
<event>
 7    1  0.3265282E-009  0.6606816E+02  0.7561462E-02  0.1373998E+00
         -2   -1    0    0    0  501 -0.00000000000E+00  0.00000000000E+00  0.10375093653E+03  0.10375093653E+03  0.00000000000E+00 0.  1.
          2   -1    0    0  501    0  0.00000000000E+00 -0.00000000000E+00 -0.20492604504E+03  0.20492604504E+03  0.00000000000E+00 0. -1.
         25    2    1    2    0    0 -0.15127795514E+02  0.21608106607E+02  0.43307172384E+02  0.13497609825E+03  0.12508907007E+03 0.  0.
          5    1    3    3  502    0 -0.89073792427E+01 -0.49387922592E+01  0.84602145023E+02  0.85315464111E+02  0.41800000000E+01 0. -1.
         -5    1    3    3    0  502 -0.62204162716E+01  0.26546898866E+02 -0.41294972639E+02  0.49660634141E+02  0.41800000000E+01 0. -1.
        -11    1    1    2    0    0 -0.19484768151E+02 -0.46825642364E+02 -0.98968079146E+02  0.11120691374E+03  0.00000000000E+00 0. -1.
         11    1    1    2    0    0  0.34612563665E+02  0.25217535757E+02 -0.45514201747E+02  0.62493969580E+02  0.00000000000E+00 0.  1.
</event>
<event>
 7    1  0.3265282E-009  0.1004180E+03  0.7561462E-02  0.1279419E+00
          2   -1    0    0  501    0  0.00000000000E+00  0.00000000000E+00  0.73574052781E+03  0.73574052781E+03  0.00000000000E+00 0. -1.
         -2   -1    0    0    0  501 -0.00000000000E+00 -0.00000000000E+00 -0.17367399193E+02  0.17367399193E+02  0.00000000000E+00 0.  1.
         25    2    1    2    0    0  0.14485907689E+02  0.17931897216E+02  0.37352868255E+03  0.39458903240E+03  0.12508170668E+03 0.  0.
          5    1    3    3  502    0 -0.34801859155E+01  0.61577894207E+02  0.30545658340E+03  0.31164907427E+03  0.41800000000E+01 0.  1.
         -5    1    3    3    0  502  0.17966093604E+02 -0.43645996991E+02  0.68072099147E+02  0.82939958133E+02  0.41800000000E+01 0.  1.
        -11    1    1    2    0    0  0.38526385465E+01 -0.52426655455E+02  0.13133409409E+03  0.14146392224E+03  0.00000000000E+00 0.  1.
         11    1    1    2    0    0 -0.18338546235E+02  0.34494758239E+02  0.21351035198E+03  0.21705497237E+03  0.00000000000E+00 0. -1.
</event>
<event>
 7    1  0.3265282E-009  0.1160011E+03  0.7561462E-02  0.1249844E+00
         -1   -1    0    0    0  501 -0.00000000000E+00  0.00000000000E+00  0.63383753907E+02  0.63383753907E+02  0.00000000000E+00 0.  1.
          1   -1    0    0  501    0  0.00000000000E+00 -0.00000000000E+00 -0.32494645348E+03  0.32494645348E+03  0.00000000000E+00 0. -1.
         25    2    1    2    0    0 -0.59473046410E+02  0.53654173690E+02 -0.75556506374E+02  0.16664838551E+03  0.12508830934E+03 0.  0.
          5    1    3    3  502    0 -0.30381547932E+02 -0.22255811138E+02 -0.76358502825E+02  0.85243492056E+02  0.41800000000E+01 0.  1.
         -5    1    3    3    0  502 -0.29091498478E+02  0.75909984828E+02  0.80199645078E+00  0.81404893456E+02  0.41800000000E+01 0.  1.
        -11    1    1    2    0    0  0.51466517341E+02  0.66331147955E+01 -0.12590034376E+03  0.13617524437E+03  0.00000000000E+00 0. -1.
         11    1    1    2    0    0  0.80065290694E+01 -0.60287288485E+02 -0.60105849438E+02  0.85506577509E+02  0.00000000000E+00 0.  1.
</event>
<event>
 7    1  0.3265282E-009  0.1078758E+03  0.7561462E-02  0.1264555E+00
          2   -1    0    0  501    0  0.00000000000E+00  0.00000000000E+00  0.61195438799E+02  0.61195438799E+02  0.00000000000E+00 0.  1.
         -2   -1    0    0    0  501 -0.00000000000E+00 -0.00000000000E+00 -0.26284209153E+03  0.26284209153E+03  0.00000000000E+00 0. -1.
         25    2    1    2    0    0 -0.56683041711E+02 -0.10254922552E+02 -0.60384697092E+02  0.15037309679E+03  0.12509047102E+03 0.  0.
          5    1    3    3  502    0 -0.81125045836E+02 -0.33817805071E+02 -0.87351542132E+01  0.88423369766E+02  0.41800000000E+01 0. -1.
         -5    1    3    3    0  502  0.24442004125E+02  0.23562882519E+02 -0.51649542879E+02  0.61949727020E+02  0.41800000000E+01 0. -1.
        -11    1    1    2    0    0 -0.13640402385E+02 -0.13632046613E+02 -0.75483383003E+01  0.20709193205E+02  0.00000000000E+00 0.  1.
         11    1    1    2    0    0  0.70323444096E+02  0.23886969165E+02 -0.13371361734E+03  0.15295524034E+03  0.00000000000E+00 0. -1.
</event>
<event>
 7    1  0.3265282E-009  0.1639590E+03  0.7561462E-02  0.1184298E+00
          2   -1    0    0  501    0  0.00000000000E+00  0.00000000000E+00  0.15342738582E+04  0.15342738582E+04  0.00000000000E+00 0. -1.
         -2   -1    0    0    0  501 -0.00000000000E+00 -0.00000000000E+00 -0.19822753841E+02  0.19822753841E+02  0.00000000000E+00 0.  1.
         25    2    1    2    0    0  0.38834459193E+02  0.11825140013E+03  0.10397835560E+04  0.10546516834E+04  0.12509524816E+03 0.  0.
          5    1    3    3  502    0  0.82612661472E+02  0.63639384115E+02  0.54233605377E+03  0.55228678299E+03  0.41800000000E+01 0. -1.
         -5    1    3    3    0  502 -0.43778202279E+02  0.54612016020E+02  0.49744750219E+03  0.50236490037E+03  0.41800000000E+01 0. -1.
        -11    1    1    2    0    0  0.28898813556E+02 -0.46617369963E+02  0.20893105333E+03  0.21601042950E+03  0.00000000000E+00 0. -1.
         11    1    1    2    0    0 -0.67733272748E+02 -0.71634030171E+02  0.26573649510E+03  0.28343449921E+03  0.00000000000E+00 0.  1.
</event>
<event>
 7    1  0.3265282E-009  0.7894159E+02  0.7561462E-02  0.1332082E+00
          2   -1    0    0  501    0  0.00000000000E+00  0.00000000000E+00  0.28294678401E+02  0.28294678401E+02  0.00000000000E+00 0. -1.
         -2   -1    0    0    0  501 -0.00000000000E+00 -0.00000000000E+00 -0.71545978465E+03  0.71545978465E+03  0.00000000000E+00 0.  1.
         25    2    1    2    0    0 -0.71681086187E+02 -0.22604661549E+01 -0.52065845668E+03  0.54026752526E+03  0.12514184960E+03 0.  0.
          5    1    3    3  502    0 -0.50333195810E+02  0.25377396671E+01 -0.57501709098E+02  0.76575385551E+02  0.41800000000E+01 0.  1.
         -5    1    3    3    0  502 -0.21347890377E+02 -0.47982058220E+01 -0.46315674758E+03  0.46369213971E+03  0.41800000000E+01 0.  1.
        -11    1    1    2    0    0  0.12929331375E+02  0.19866962500E+02  0.23658826436E+01  0.23821444319E+02  0.00000000000E+00 0. -1.
         11    1    1    2    0    0  0.58751754812E+02 -0.17606496345E+02 -0.16887253222E+03  0.17966549347E+03  0.00000000000E+00 0.  1.
</event>
<event>
 7    1  0.3265282E-009  0.1080266E+03  0.7561462E-02  0.1264268E+00
         -2   -1    0    0    0  501 -0.00000000000E+00  0.00000000000E+00  0.11259619290E+02  0.11259619290E+02  0.00000000000E+00 0.  1.
          2   -1    0    0  501    0  0.00000000000E+00 -0.00000000000E+00 -0.14224031092E+04  0.14224031092E+04  0.00000000000E+00 0. -1.
         25    2    1    2    0    0  0.49239842352E+02  0.32978937533E+02 -0.10094643500E+04  0.10189100391E+04  0.12508885394E+03 0.  0.
          5    1    3    3  502    0  0.82998256944E+02  0.25171253619E+02 -0.44649669844E+03  0.45486160179E+03  0.41800000000E+01 0. -1.
         -5    1    3    3    0  502 -0.33758414591E+02  0.78076839139E+01 -0.56296765158E+03  0.56404843729E+03  0.41800000000E+01 0. -1.
        -11    1    1    2    0    0 -0.32563581019E+02  0.20380834874E+02 -0.86400004906E+02  0.94555412784E+02  0.00000000000E+00 0.  1.
         11    1    1    2    0    0 -0.16676261333E+02 -0.53359772407E+02 -0.31527913497E+03  0.32019727661E+03  0.00000000000E+00 0. -1.
</event>
<event>
 7    1  0.3265282E-009  0.1118315E+03  0.7561462E-02  0.1257215E+00
          1   -1    0    0  501    0  0.00000000000E+00  0.00000000000E+00  0.16542084647E+03  0.16542084647E+03  0.00000000000E+00 0. -1.
         -1   -1    0    0    0  501 -0.00000000000E+00 -0.00000000000E+00 -0.11269996587E+03  0.11269996587E+03  0.00000000000E+00 0.  1.
         25    2    1    2    0    0  0.83862775679E+02 -0.20527065505E+02  0.17371318370E+02  0.15298131760E+03  0.12508874958E+03 0.  0.
          5    1    3    3  502    0 -0.59409630470E+01 -0.13130580061E+02 -0.42261997906E+02  0.44847029351E+02  0.41800000000E+01 0. -1.
         -5    1    3    3    0  502  0.89803738726E+02 -0.73964854436E+01  0.59633316276E+02  0.10813428825E+03  0.41800000000E+01 0. -1.
        -11    1    1    2    0    0 -0.54695283597E+02  0.52051357830E+02  0.32176155891E+02  0.82074496085E+02  0.00000000000E+00 0. -1.
         11    1    1    2    0    0 -0.29167492082E+02 -0.31524292325E+02  0.31734063330E+01  0.43064998650E+02  0.00000000000E+00 0.  1.
</event>
<event>
 7    1  0.3265282E-009  0.1039716E+03  0.7561462E-02  0.1272159E+00
          1   -1    0    0  501    0  0.00000000000E+00  0.00000000000E+00  0.17316880183E+03  0.17316880183E+03  0.00000000000E+00 0. -1.
         -1   -1    0    0    0  501 -0.00000000000E+00 -0.00000000000E+00 -0.10436678927E+03  0.10436678927E+03  0.00000000000E+00 0.  1.
         25    2    1    2    0    0  0.10368843502E+01  0.15238607123E+02 -0.41915305657E+02  0.13280609335E+03  0.12508906949E+03 0.  0.
          5    1    3    3  502    0  0.49458454969E+02 -0.31098582117E+02 -0.24062113853E+02  0.63322336506E+02  0.41800000000E+01 0.  1.
         -5    1    3    3    0  502 -0.48421570618E+02  0.46337189240E+02 -0.17853191805E+02  0.69483756846E+02  0.41800000000E+01 0.  1.
        -11    1    1    2    0    0  0.17215515606E+02  0.29357521993E+02  0.14248207522E+02  0.36895114755E+02  0.00000000000E+00 0.  1.
         11    1    1    2    0    0 -0.18252399956E+02 -0.44596129116E+02  0.96469110694E+02  0.10783438299E+03  0.00000000000E+00 0. -1.
</event>
<event>
 7    1  0.3265282E-009  0.1168166E+03  0.7561462E-02  0.1248443E+00
         -1   -1    0    0    0  501 -0.00000000000E+00  0.00000000000E+00  0.66042698896E+02  0.66042698896E+02  0.00000000000E+00 0.  1.
          1   -1    0    0  501    0  0.00000000000E+00 -0.00000000000E+00 -0.26298072581E+03  0.26298072581E+03  0.00000000000E+00 0. -1.
         25    2    1    2    0    0 -0.24778291101E+02 -0.48822695967E+02 -0.17278765551E+03  0.22023572094E+03  0.12510227628E+03 0.  0.
          5    1    3    3  502    0  0.41305300947E+02  0.11897033432E+02 -0.34261735560E+02  0.55127182174E+02  0.41800000000E+01 0.  1.
         -5    1    3    3    0  502 -0.66083592049E+02 -0.60719729399E+02 -0.13852591995E+03  0.16510853877E+03  0.41800000000E+01 0.  1.
        -11    1    1    2    0    0  0.29711116840E+01 -0.24207077212E+02 -0.21520784974E+02  0.32526209089E+02  0.00000000000E+00 0. -1.
         11    1    1    2    0    0  0.21807179417E+02  0.73029773179E+02 -0.26295864266E+01  0.76261494672E+02  0.00000000000E+00 0.  1.
</event>
<event>
 7    1  0.3265282E-009  0.2553949E+03  0.7561462E-02  0.1109942E+00
         -2   -1    0    0    0  501 -0.00000000000E+00  0.00000000000E+00  0.28783870286E+03  0.28783870286E+03  0.00000000000E+00 0.  1.
          2   -1    0    0  501    0  0.00000000000E+00 -0.00000000000E+00 -0.42218990164E+03  0.42218990164E+03  0.00000000000E+00 0. -1.
         25    2    1    2    0    0  0.18363518548E+03  0.14904322440E+03 -0.30404221402E+03  0.40499986368E+03  0.12508979808E+03 0.  0.
          5    1    3    3  502    0  0.65226514964E+02 -0.27890906021E+01 -0.35187987224E+02  0.74282865627E+02  0.41800000000E+01 0. -1.
         -5    1    3    3    0  502  0.11840867052E+03  0.15183231500E+03 -0.26885422680E+03  0.33071699805E+03  0.41800000000E+01 0. -1.
        -11    1    1    2    0    0 -0.11706468103E+03 -0.37577819743E+02  0.71293926912E+02  0.14212338336E+03  0.00000000000E+00 0.  1.
         11    1    1    2    0    0 -0.66570504451E+02 -0.11146540466E+03  0.98397088336E+02  0.16290535747E+03  0.00000000000E+00 0. -1.
</event>
<event>
 7    1  0.3265282E-009  0.1624431E+03  0.7561462E-02  0.1185966E+00
          1   -1    0    0  501    0  0.00000000000E+00  0.00000000000E+00  0.67911326308E+03  0.67911326308E+03  0.00000000000E+00 0. -1.
         -1   -1    0    0    0  501 -0.00000000000E+00 -0.00000000000E+00 -0.73477891065E+02  0.73477891065E+02  0.00000000000E+00 0.  1.
         25    2    1    2    0    0 -0.10847292513E+03 -0.11890086543E+03  0.49450818783E+03  0.53487398186E+03  0.12509211545E+03 0.  0.
          5    1    3    3  502    0 -0.41069810748E+02 -0.63763401771E+02  0.39645852177E+03  0.40366983123E+03  0.41800000000E+01 0. -1.
         -5    1    3    3    0  502 -0.67403114382E+02 -0.55137463662E+02  0.98049666061E+02  0.13120415063E+03  0.41800000000E+01 0. -1.
        -11    1    1    2    0    0  0.51780339865E+02  0.45001542571E+02 -0.50794120096E+01  0.68790572440E+02  0.00000000000E+00 0.  1.
         11    1    1    2    0    0  0.56692585264E+02  0.73899322863E+02  0.11620659620E+03  0.14892659985E+03  0.00000000000E+00 0. -1.
</event>
<event>
 7    1  0.3265282E-009  0.9097074E+02  0.7561462E-02  0.1300518E+00
         -2   -1    0    0    0  501 -0.00000000000E+00  0.00000000000E+00  0.36432526792E+02  0.36432526792E+02  0.00000000000E+00 0.  1.
          2   -1    0    0  501    0  0.00000000000E+00 -0.00000000000E+00 -0.34772557833E+03  0.34772557833E+03  0.00000000000E+00 0. -1.
         25    2    1    2    0    0  0.10267082707E+02  0.18529032885E+01 -0.13329586994E+03  0.18309703455E+03  0.12509152202E+03 0.  0.
          5    1    3    3  502    0 -0.19644097653E+02  0.50382589819E+02 -0.10745428701E+03  0.12036690628E+03  0.41800000000E+01 0. -1.
         -5    1    3    3    0  502  0.29911180360E+02 -0.48529686531E+02 -0.25841582934E+02  0.62730128279E+02  0.41800000000E+01 0. -1.
        -11    1    1    2    0    0  0.44089910510E+01  0.32703583186E+02 -0.19830339828E+02  0.38499427697E+02  0.00000000000E+00 0.  1.
         11    1    1    2    0    0 -0.14676073758E+02 -0.34556486475E+02 -0.15816684176E+03  0.16256164287E+03  0.00000000000E+00 0. -1.
</event>
<event>
 7    1  0.3265282E-009  0.1141977E+03  0.7561462E-02  0.1252988E+00
          1   -1    0    0  501    0  0.00000000000E+00  0.00000000000E+00  0.14192952267E+03  0.14192952267E+03  0.00000000000E+00 0. -1.
         -1   -1    0    0    0  501 -0.00000000000E+00 -0.00000000000E+00 -0.13101767366E+03  0.13101767366E+03  0.00000000000E+00 0.  1.
         25    2    1    2    0    0 -0.42851115007E+01 -0.66638688965E+02 -0.42304292118E+02  0.14797355929E+03  0.12508974406E+03 0.  0.
          5    1    3    3  502    0  0.12530490984E+02 -0.98646502871E+02 -0.49049187239E+02  0.11095693264E+03  0.41800000000E+01 0.  1.
         -5    1    3    3    0  502 -0.16815602485E+02  0.32007813906E+02  0.67448951213E+01  0.37016626645E+02  0.41800000000E+01 0.  1.
        -11    1    1    2    0    0 -0.20311483138E+02 -0.11643654369E+01 -0.15327555043E+02  0.25472456453E+02  0.00000000000E+00 0.  1.
         11    1    1    2    0    0  0.24596594639E+02  0.67803054402E+02  0.68543696164E+02  0.99501180586E+02  0.00000000000E+00 0. -1.
</event>
<event>
 7    1  0.3265282E-009  0.2011985E+03  0.7561462E-02  0.1148732E+00
         -1   -1    0    0    0  501 -0.00000000000E+00  0.00000000000E+00  0.51568891661E+03  0.51568891661E+03  0.00000000000E+00 0.  1.
          1   -1    0    0  501    0  0.00000000000E+00 -0.00000000000E+00 -0.84564753429E+02  0.84564753429E+02  0.00000000000E+00 0. -1.
         25    2    1    2    0    0 -0.12374840288E+03 -0.11632156568E+03  0.29993875930E+03  0.36667997858E+03  0.12508626426E+03 0.  0.
          5    1    3    3  502    0 -0.53545272476E+02 -0.12785264206E+03  0.21445776068E+03  0.25538793590E+03  0.41800000000E+01 0. -1.
         -5    1    3    3    0  502 -0.70203130399E+02  0.11531076380E+02  0.85480998617E+02  0.11129204268E+03  0.41800000000E+01 0. -1.
        -11    1    1    2    0    0  0.66958847581E+02  0.45857557383E+01  0.35797550256E+02  0.76065636324E+02  0.00000000000E+00 0.  1.
         11    1    1    2    0    0  0.56789555294E+02  0.11173580994E+03  0.95387853633E+02  0.15750805514E+03  0.00000000000E+00 0. -1.
</event>
<event>
 7    1  0.3265282E-009  0.1175253E+03  0.7561462E-02  0.1247236E+00
         -1   -1    0    0    0  501 -0.00000000000E+00  0.00000000000E+00  0.11946569471E+03  0.11946569471E+03  0.00000000000E+00 0.  1.
          1   -1    0    0  501    0  0.00000000000E+00 -0.00000000000E+00 -0.23577114741E+03  0.23577114741E+03  0.00000000000E+00 0. -1.
         25    2    1    2    0    0  0.78590904374E+01 -0.75661486921E+02  0.46028656992E+02  0.15346860050E+03  0.12509016016E+03 0.  0.
          5    1    3    3  502    0  0.90222464251E+01 -0.96958772270E+02  0.70834252489E+02  0.12048804163E+03  0.41800000000E+01 0.  1.
         -5    1    3    3    0  502 -0.11631559877E+01  0.21297285348E+02 -0.24805595497E+02  0.32980558865E+02  0.41800000000E+01 0.  1.
        -11    1    1    2    0    0  0.15078488302E-01  0.94983557306E+02 -0.10945529151E+03  0.14492183143E+03  0.00000000000E+00 0.  1.
         11    1    1    2    0    0 -0.78741689257E+01 -0.19322070384E+02 -0.52878818177E+02  0.56846410195E+02  0.00000000000E+00 0. -1.
</event>
<event>
 7    1  0.3265282E-009  0.1080452E+03  0.7561462E-02  0.1264233E+00
         -1   -1    0    0    0  501 -0.00000000000E+00  0.00000000000E+00  0.22042078150E+02  0.22042078150E+02  0.00000000000E+00 0.  1.
          1   -1    0    0  501    0  0.00000000000E+00 -0.00000000000E+00 -0.70113097600E+03  0.70113097600E+03  0.00000000000E+00 0. -1.
         25    2    1    2    0    0 -0.58636096760E+02 -0.95655060581E+01 -0.41572771426E+03  0.43818538396E+03  0.12508879872E+03 0.  0.
          5    1    3    3  502    0 -0.82403616985E+02 -0.35776918535E+02 -0.19676558556E+03  0.21634350476E+03  0.41800000000E+01 0. -1.
         -5    1    3    3    0  502  0.23767520225E+02  0.26211412477E+02 -0.21896212870E+03  0.22184187920E+03  0.41800000000E+01 0. -1.
        -11    1    1    2    0    0 -0.55816663670E+01 -0.19323025777E+02 -0.10872466036E+02  0.22863613938E+02  0.00000000000E+00 0.  1.
         11    1    1    2    0    0  0.64217763127E+02  0.28888531835E+02 -0.25248871755E+03  0.26212405625E+03  0.00000000000E+00 0. -1.
</event>
<event>
 7    1  0.3265282E-009  0.1043770E+03  0.7561462E-02  0.1271352E+00
          1   -1    0    0  501    0  0.00000000000E+00  0.00000000000E+00  0.15224996663E+04  0.15224996663E+04  0.00000000000E+00 0. -1.
         -1   -1    0    0    0  501 -0.00000000000E+00 -0.00000000000E+00 -0.17927850605E+02  0.17927850605E+02  0.00000000000E+00 0.  1.
         25    2    1    2    0    0  0.36113530058E+02 -0.55304226696E+02  0.13024859674E+04  0.13101444497E+04  0.12508412924E+03 0.  0.
          5    1    3    3  502    0 -0.41672100118E+02 -0.46374412261E+02  0.52050354362E+03  0.52424093827E+03  0.41800000000E+01 0.  1.
         -5    1    3    3    0  502  0.77785630176E+02 -0.89298144350E+01  0.78198242375E+03  0.78590351144E+03  0.41800000000E+01 0.  1.
        -11    1    1    2    0    0 -0.25943805647E+02  0.25541142994E+02  0.13090456940E+02  0.38688384559E+02  0.00000000000E+00 0.  1.
         11    1    1    2    0    0 -0.10169724411E+02  0.29763083702E+02  0.18899539137E+03  0.19159468262E+03  0.00000000000E+00 0. -1.
</event>
<event>
 7    1  0.3265282E-009  0.9643749E+02  0.7561462E-02  0.1287971E+00
          2   -1    0    0  501    0  0.00000000000E+00  0.00000000000E+00  0.49813565504E+03  0.49813565504E+03  0.00000000000E+00 0. -1.
         -2   -1    0    0    0  501 -0.00000000000E+00 -0.00000000000E+00 -0.36848481672E+02  0.36848481672E+02  0.00000000000E+00 0.  1.
         25    2    1    2    0    0  0.62148960791E+01 -0.37787593388E+01  0.95962800184E+02  0.15782606496E+03  0.12508918341E+03 0.  0.
          5    1    3    3  502    0  0.53472437617E+02 -0.35513161503E+01  0.34571364030E+01  0.53864066159E+02  0.41800000000E+01 0.  1.
         -5    1    3    3    0  502 -0.47257541538E+02 -0.22744318853E+00  0.92505663781E+02  0.10396199880E+03  0.41800000000E+01 0.  1.
        -11    1    1    2    0    0  0.12268875196E+02 -0.41233364403E+02  0.21112213451E+03  0.21546060270E+03  0.00000000000E+00 0.  1.
         11    1    1    2    0    0 -0.18483771275E+02  0.45012123741E+02  0.15420223867E+03  0.16169746905E+03  0.00000000000E+00 0. -1.
</event>
<event>
 7    1  0.3265282E-009  0.1203292E+03  0.7561462E-02  0.1242555E+00
         -2   -1    0    0    0  501 -0.00000000000E+00  0.00000000000E+00  0.11431606806E+03  0.11431606806E+03  0.00000000000E+00 0.  1.
          2   -1    0    0  501    0  0.00000000000E+00 -0.00000000000E+00 -0.20910097539E+03  0.20910097539E+03  0.00000000000E+00 0. -1.
         25    2    1    2    0    0 -0.18425893924E+02 -0.10811971238E+03 -0.44840661726E+02  0.17230079312E+03  0.12508993801E+03 0.  0.
          5    1    3    3  502    0 -0.25549919422E+02 -0.10067901629E+03 -0.82703418849E+02  0.13283971768E+03  0.41800000000E+01 0. -1.
         -5    1    3    3    0  502  0.71240254986E+01 -0.74406960943E+01  0.37862757123E+02  0.39461075437E+02  0.41800000000E+01 0. -1.
        -11    1    1    2    0    0  0.41101833957E+02  0.66030648985E+02  0.54199227822E+01  0.77966550026E+02  0.00000000000E+00 0.  1.
         11    1    1    2    0    0 -0.22675940034E+02  0.42089063399E+02 -0.55364168384E+02  0.73149700308E+02  0.00000000000E+00 0. -1.
</event>
<event>
 7    1  0.3265282E-009  0.9042899E+02  0.7561462E-02  0.1301816E+00
          3   -1    0    0  501    0  0.00000000000E+00  0.00000000000E+00  0.16727516082E+03  0.16727516082E+03  0.00000000000E+00 0. -1.
         -3   -1    0    0    0  501 -0.00000000000E+00 -0.00000000000E+00 -0.81077630323E+02  0.81077630323E+02  0.00000000000E+00 0.  1.
         25    2    1    2    0    0  0.35145176053E+02 -0.99650089626E+00  0.64174259392E+02  0.14492872080E+03  0.12509924912E+03 0.  0.
          5    1    3    3  502    0 -0.21186296214E+02  0.88051010353E+01  0.81712829685E+02  0.84975572294E+02  0.41800000000E+01 0.  1.
         -5    1    3    3    0  502  0.56331472267E+02 -0.98016019315E+01 -0.17538570293E+02  0.59953148509E+02  0.41800000000E+01 0.  1.
        -11    1    1    2    0    0  0.21826354282E+02 -0.28623164987E+02  0.15533745419E+01  0.36028992320E+02  0.00000000000E+00 0.  1.
         11    1    1    2    0    0 -0.56971530335E+02  0.29619665883E+02  0.20469896559E+02  0.67395078017E+02  0.00000000000E+00 0. -1.
</event>
<event>
 7    1  0.3265282E-009  0.1775517E+03  0.7561462E-02  0.1170194E+00
         -1   -1    0    0    0  501 -0.00000000000E+00  0.00000000000E+00  0.66301449093E+02  0.66301449093E+02  0.00000000000E+00 0.  1.
          1   -1    0    0  501    0  0.00000000000E+00 -0.00000000000E+00 -0.62344280579E+03  0.62344280579E+03  0.00000000000E+00 0. -1.
         25    2    1    2    0    0  0.14907025599E+03 -0.24403981769E+02 -0.42957475803E+03  0.47222760044E+03  0.12508772255E+03 0.  0.
          5    1    3    3  502    0 -0.21229223173E+02  0.50345904863E+01 -0.35163971585E+02  0.41593320564E+02  0.41800000000E+01 0. -1.
         -5    1    3    3    0  502  0.17029947916E+03 -0.29438572255E+02 -0.39441078644E+03  0.43063427987E+03  0.41800000000E+01 0. -1.
        -11    1    1    2    0    0 -0.95293744343E+02  0.40991565666E+02 -0.35556624464E+02  0.10966074826E+03  0.00000000000E+00 0.  1.
         11    1    1    2    0    0 -0.53776511648E+02 -0.16587583898E+02 -0.92009974204E+02  0.10785590618E+03  0.00000000000E+00 0. -1.
</event>
<event>
 7    1  0.3265282E-009  0.1785854E+03  0.7561462E-02  0.1169179E+00
         -2   -1    0    0    0  501 -0.00000000000E+00  0.00000000000E+00  0.69282737641E+02  0.69282737641E+02  0.00000000000E+00 0.  1.
          2   -1    0    0  501    0  0.00000000000E+00 -0.00000000000E+00 -0.55261283904E+03  0.55261283904E+03  0.00000000000E+00 0. -1.
         25    2    1    2    0    0 -0.69633450544E+02  0.13765085564E+03 -0.33765143769E+03  0.39172946573E+03  0.12508759114E+03 0.  0.
          5    1    3    3  502    0  0.22907279120E+02  0.66618436559E+02 -0.68477877909E+02  0.98333370171E+02  0.41800000000E+01 0. -1.
         -5    1    3    3    0  502 -0.92540729664E+02  0.71032419080E+02 -0.26917355978E+03  0.29339609556E+03  0.41800000000E+01 0. -1.
        -11    1    1    2    0    0  0.39047029361E+02 -0.13338580558E+03 -0.14260742236E+03  0.19913141527E+03  0.00000000000E+00 0. -1.
         11    1    1    2    0    0  0.30586421184E+02 -0.42650500567E+01 -0.30712413503E+01  0.31034695685E+02  0.00000000000E+00 0.  1.
</event>
<event>
 7    1  0.3265282E-009  0.9029256E+02  0.7561462E-02  0.1302145E+00
          1   -1    0    0  501    0  0.00000000000E+00  0.00000000000E+00  0.17448592001E+03  0.17448592001E+03  0.00000000000E+00 0. -1.
         -1   -1    0    0    0  501 -0.00000000000E+00 -0.00000000000E+00 -0.84604986760E+02  0.84604986760E+02  0.00000000000E+00 0.  1.
         25    2    1    2    0    0 -0.22686563737E+02  0.43429605228E+02  0.76378936737E+02  0.15453730982E+03  0.12508887786E+03 0.  0.
          5    1    3    3  502    0  0.35469787085E+01  0.63739818701E+02  0.96300280321E+02  0.11561384837E+03  0.41800000000E+01 0. -1.
         -5    1    3    3    0  502 -0.26233542445E+02 -0.20310213473E+02 -0.19921343584E+02  0.38923461443E+02  0.41800000000E+01 0. -1.
        -11    1    1    2    0    0 -0.19107111514E+02  0.44478875005E+01  0.32727013916E+02  0.38156557150E+02  0.00000000000E+00 0. -1.
         11    1    1    2    0    0  0.41793675251E+02 -0.47877492728E+02 -0.19225017400E+02  0.66397039806E+02  0.00000000000E+00 0.  1.
</event>
<event>
 7    1  0.3265282E-009  0.7356539E+02  0.7561462E-02  0.1348372E+00
          2   -1    0    0  501    0  0.00000000000E+00  0.00000000000E+00  0.22768579199E+02  0.22768579199E+02  0.00000000000E+00 0. -1.
         -2   -1    0    0    0  501 -0.00000000000E+00 -0.00000000000E+00 -0.60166786948E+03  0.60166786948E+03  0.00000000000E+00 0.  1.
         25    2    1    2    0    0  0.68213008573E+01 -0.42167627575E+02 -0.27824312220E+03  0.30804469211E+03  0.12509060046E+03 0.  0.
          5    1    3    3  502    0  0.89082376517E+01  0.61372076486E+00  0.11485785320E+02  0.15137008148E+02  0.41800000000E+01 0. -1.
         -5    1    3    3    0  502 -0.20869367945E+01 -0.42781348340E+02 -0.28972890752E+03  0.29290768396E+03  0.41800000000E+01 0. -1.
        -11    1    1    2    0    0  0.34053276042E+02 -0.19302988933E+01 -0.67775281236E+02  0.75873845359E+02  0.00000000000E+00 0.  1.
         11    1    1    2    0    0 -0.40874576899E+02  0.44097926468E+02 -0.23288088685E+03  0.24051791121E+03  0.00000000000E+00 0. -1.
</event>
<event>
 7    1  0.3265282E-009  0.7644827E+02  0.7561462E-02  0.1339444E+00
         -3   -1    0    0    0  501 -0.00000000000E+00  0.00000000000E+00  0.36818841842E+03  0.36818841842E+03  0.00000000000E+00 0.  1.
          3   -1    0    0  501    0  0.00000000000E+00 -0.00000000000E+00 -0.37993653804E+02  0.37993653804E+02  0.00000000000E+00 0. -1.
         25    2    1    2    0    0  0.20216052644E+02 -0.11390728624E+02  0.11433224144E+03  0.17105415960E+03  0.12509686887E+03 0.  0.
          5    1    3    3  502    0  0.45932857372E+02 -0.21902174698E+01  0.13092153519E+03  0.13882559280E+03  0.41800000000E+01 0.  1.
         -5    1    3    3    0  502 -0.25716804728E+02 -0.92005111537E+01 -0.16589293751E+02  0.32228566801E+02  0.41800000000E+01 0.  1.
        -11    1    1    2    0    0 -0.35651878010E+02 -0.22286567458E+02  0.17496620673E+03  0.17994699496E+03  0.00000000000E+00 0.  1.
         11    1    1    2    0    0  0.15435825366E+02  0.33677296082E+02  0.40896316438E+02  0.55180917665E+02  0.00000000000E+00 0. -1.
</event>
<event>
 7    1  0.3265282E-009  0.1016302E+03  0.7561462E-02  0.1276905E+00
         -1   -1    0    0    0  501 -0.00000000000E+00  0.00000000000E+00  0.16749546182E+02  0.16749546182E+02  0.00000000000E+00 0.  1.
          1   -1    0    0  501    0  0.00000000000E+00 -0.00000000000E+00 -0.11697448491E+04  0.11697448491E+04  0.00000000000E+00 0. -1.
         25    2    1    2    0    0 -0.59087978783E+02 -0.14299813318E+01 -0.93011024581E+03  0.94034379020E+03  0.12509172767E+03 0.  0.
          5    1    3    3  502    0 -0.42957921289E+02 -0.45336040410E+02 -0.22138010025E+03  0.23005947220E+03  0.41800000000E+01 0.  1.
         -5    1    3    3    0  502 -0.16130057494E+02  0.43906059078E+02 -0.70873014556E+03  0.71028431800E+03  0.41800000000E+01 0.  1.
        -11    1    1    2    0    0  0.65828196541E+02 -0.21934091191E+02 -0.20364955544E+03  0.21514552575E+03  0.00000000000E+00 0. -1.
         11    1    1    2    0    0 -0.67402177575E+01  0.23364072523E+02 -0.19235501670E+02  0.31005079338E+02  0.00000000000E+00 0.  1.
</event>
<event>
 7    1  0.3265282E-009  0.2091381E+03  0.7561462E-02  0.1142250E+00
         -2   -1    0    0    0  501 -0.00000000000E+00  0.00000000000E+00  0.52590235405E+02  0.52590235405E+02  0.00000000000E+00 0.  1.
          2   -1    0    0  501    0  0.00000000000E+00 -0.00000000000E+00 -0.10796536165E+04  0.10796536165E+04  0.00000000000E+00 0. -1.
         25    2    1    2    0    0 -0.17289931046E+03 -0.96920973561E+02 -0.70816523775E+03  0.74594965282E+03  0.12512007794E+03 0.  0.
          5    1    3    3  502    0 -0.33570812642E+02 -0.16068235674E+01 -0.33075911059E+03  0.33248856067E+03  0.41800000000E+01 0. -1.
         -5    1    3    3    0  502 -0.13932849782E+03 -0.95314149994E+02 -0.37740612717E+03  0.41346109214E+03  0.41800000000E+01 0. -1.
        -11    1    1    2    0    0  0.50131243527E+02  0.75943773476E+02 -0.16378997411E+03  0.18737063250E+03  0.00000000000E+00 0.  1.
         11    1    1    2    0    0  0.12276806693E+03  0.20977200085E+02 -0.15510816927E+03  0.19892356662E+03  0.00000000000E+00 0. -1.
</event>
<event>
 7    1  0.3265282E-009  0.1444068E+03  0.7561462E-02  0.1207519E+00
          2   -1    0    0  501    0  0.00000000000E+00  0.00000000000E+00  0.28362485142E+03  0.28362485142E+03  0.00000000000E+00 0. -1.
         -2   -1    0    0    0  501 -0.00000000000E+00 -0.00000000000E+00 -0.10298140709E+03  0.10298140709E+03  0.00000000000E+00 0.  1.
         25    2    1    2    0    0 -0.11069213186E+03  0.62435740050E+02  0.58099461357E+02  0.18754492018E+03  0.12508629015E+03 0.  0.
          5    1    3    3  502    0 -0.21139005601E+02 -0.27283258690E+02 -0.18493112620E+02  0.39378945859E+02  0.41800000000E+01 0. -1.
         -5    1    3    3    0  502 -0.89553126256E+02  0.89718998741E+02  0.76592573978E+02  0.14816597432E+03  0.41800000000E+01 0. -1.
        -11    1    1    2    0    0  0.22280718026E+02 -0.15235766424E+02 -0.13425864539E+02  0.30146522402E+02  0.00000000000E+00 0.  1.
         11    1    1    2    0    0  0.88411413831E+02 -0.47199973626E+02  0.13596984751E+03  0.16891481592E+03  0.00000000000E+00 0. -1.
</event>
<event>
 7    1  0.3265282E-009  0.1488322E+03  0.7561462E-02  0.1201915E+00
         -2   -1    0    0    0  501 -0.00000000000E+00  0.00000000000E+00  0.27281012246E+02  0.27281012246E+02  0.00000000000E+00 0.  1.
          2   -1    0    0  501    0  0.00000000000E+00 -0.00000000000E+00 -0.90547159645E+03  0.90547159645E+03  0.00000000000E+00 0. -1.
         25    2    1    2    0    0  0.11057676134E+03  0.13076772480E+02 -0.45693646571E+03  0.48665980602E+03  0.12509440823E+03 0.  0.
          5    1    3    3  502    0 -0.19926384884E+02 -0.33749449027E+01 -0.14914943292E+02  0.25463287318E+02  0.41800000000E+01 0. -1.
         -5    1    3    3    0  502  0.13050314622E+03  0.16451717382E+02 -0.44202152242E+03  0.46119651870E+03  0.41800000000E+01 0. -1.
        -11    1    1    2    0    0 -0.29197059384E+02  0.39067009436E+02 -0.11398074109E+03  0.12397704966E+03  0.00000000000E+00 0.  1.
         11    1    1    2    0    0 -0.81379701954E+02 -0.52143781915E+02 -0.30727337741E+03  0.32211575302E+03  0.00000000000E+00 0. -1.
</event>
<event>
 7    1  0.3265282E-009  0.1934566E+03  0.7561462E-02  0.1155380E+00
         -1   -1    0    0    0  501 -0.00000000000E+00  0.00000000000E+00  0.39112288283E+02  0.39112288283E+02  0.00000000000E+00 0.  1.
          1   -1    0    0  501    0  0.00000000000E+00 -0.00000000000E+00 -0.19987517724E+04  0.19987517724E+04  0.00000000000E+00 0. -1.
         25    2    1    2    0    0 -0.17006578678E+03  0.20450296328E+02 -0.17034686694E+04  0.17166227922E+04  0.12509083303E+03 0.  0.
          5    1    3    3  502    0 -0.31215589327E+02  0.59576452583E+02 -0.59235057523E+03  0.59617148799E+03  0.41800000000E+01 0.  1.
         -5    1    3    3    0  502 -0.13885019745E+03 -0.39126156255E+02 -0.11111180942E+04  0.11204513042E+04  0.41800000000E+01 0.  1.
        -11    1    1    2    0    0  0.67236734254E+02 -0.26332516220E+02 -0.41860424061E+02  0.83465411676E+02  0.00000000000E+00 0.  1.
         11    1    1    2    0    0  0.10282905253E+03  0.58822198918E+01 -0.21431039070E+03  0.23777585688E+03  0.00000000000E+00 0. -1.
</event>
<event>
 6    1  0.3265282E-009  0.1896569E+03  0.7561462E-02  0.1158771E+00
         -3   -1    0    0    0  501 -0.00000000000E+00  0.00000000000E+00  0.41638819264E+03  0.41638819264E+03  0.00000000000E+00 0.  1.
          3   -1    0    0  501    0  0.00000000000E+00 -0.00000000000E+00 -0.96165947473E+02  0.96165947473E+02  0.00000000000E+00 0. -1.
          5    1    1    2  502    0 -0.88129501293E+00 -0.31542051577E+02  0.25773254972E+02  0.40956205518E+02  0.41800000000E+01 0.  1.
         -5    1    1    2    0  502 -0.14990559874E+03  0.80138338274E+02  0.14871560312E+03  0.22589299415E+03  0.41800000000E+01 0.  1.
        -11    1    1    2    0    0  0.43623063120E+02 -0.54876612077E+02  0.11388597929E+03  0.13373268287E+03  0.00000000000E+00 0.  1.
         11    1    1    2    0    0  0.10716383063E+03  0.62803253799E+01  0.31847407781E+02  0.11197225757E+03  0.00000000000E+00 0. -1.
</event>
<event>
 7    1  0.3265282E-009  0.1051795E+03  0.7561462E-02  0.1269766E+00
         -2   -1    0    0    0  501 -0.00000000000E+00  0.00000000000E+00  0.36219550656E+03  0.36219550656E+03  0.00000000000E+00 0.  1.
          2   -1    0    0  501    0  0.00000000000E+00 -0.00000000000E+00 -0.32997723849E+02  0.32997723849E+02  0.00000000000E+00 0. -1.
         25    2    1    2    0    0 -0.26629641047E+02  0.12445171547E+02  0.17554947854E+03  0.21755217998E+03  0.12508921425E+03 0.  0.
          5    1    3    3  502    0 -0.68525047425E+02 -0.19161258934E+02  0.12850641227E+03  0.14694967289E+03  0.41800000000E+01 0. -1.
         -5    1    3    3    0  502  0.41895406378E+02  0.31606430481E+02  0.47043066274E+02  0.70602507093E+02  0.41800000000E+01 0. -1.
        -11    1    1    2    0    0  0.24924125594E+02  0.32779703323E+02  0.51674100974E+02  0.66075212432E+02  0.00000000000E+00 0. -1.
         11    1    1    2    0    0  0.17055154530E+01 -0.45224874869E+02  0.10197420319E+03  0.11156583799E+03  0.00000000000E+00 0.  1.
</event>
<event>
 7    1  0.3265282E-009  0.8786336E+02  0.7561462E-02  0.1308110E+00
          1   -1    0    0  501    0  0.00000000000E+00  0.00000000000E+00  0.30639375472E+03  0.30639375472E+03  0.00000000000E+00 0. -1.
         -1   -1    0    0    0  501 -0.00000000000E+00 -0.00000000000E+00 -0.68481271381E+02  0.68481271381E+02  0.00000000000E+00 0.  1.
         25    2    1    2    0    0  0.26928122097E+02 -0.40085309332E+02  0.23842615041E+03  0.27354464023E+03  0.12509070796E+03 0.  0.
          5    1    3    3  502    0  0.72286480891E+02 -0.37106400047E+02  0.10702053900E+03  0.13443618714E+03  0.41800000000E+01 0.  1.
         -5    1    3    3    0  502 -0.45358358794E+02 -0.29789092850E+01  0.13140561140E+03  0.13910845309E+03  0.41800000000E+01 0.  1.
        -11    1    1    2    0    0 -0.16198221398E+02  0.18341598964E+02 -0.44682225064E+02  0.50944066050E+02  0.00000000000E+00 0.  1.
         11    1    1    2    0    0 -0.10729900699E+02  0.21743710368E+02  0.44168557996E+02  0.50386319820E+02  0.00000000000E+00 0. -1.
</event>
<event>
 7    1  0.3265282E-009  0.6682755E+02  0.7561462E-02  0.1371226E+00
         -1   -1    0    0    0  501 -0.00000000000E+00  0.00000000000E+00  0.14770720911E+03  0.14770720911E+03  0.00000000000E+00 0.  1.
          1   -1    0    0  501    0  0.00000000000E+00 -0.00000000000E+00 -0.87201758732E+02  0.87201758732E+02  0.00000000000E+00 0. -1.
         25    2    1    2    0    0 -0.15404640795E+01  0.36747533802E+02  0.24915665446E+02  0.13274571357E+03  0.12509148579E+03 0.  0.
          5    1    3    3  502    0 -0.14761765470E+01  0.26272305099E+02 -0.50176280599E+02  0.56811483409E+02  0.41800000000E+01 0.  1.
         -5    1    3    3    0  502 -0.64287532549E-01  0.10475228703E+02  0.75091946045E+02  0.75934230161E+02  0.41800000000E+01 0.  1.
        -11    1    1    2    0    0 -0.20552136481E+02  0.23702646546E+02  0.12885944505E+02  0.33915384901E+02  0.00000000000E+00 0. -1.
         11    1    1    2    0    0  0.22092600561E+02 -0.60450180348E+02  0.22703840429E+02  0.68247869372E+02  0.00000000000E+00 0.  1.
</event>
<event>
 7    1  0.3265282E-009  0.9466464E+02  0.7561462E-02  0.1291933E+00
          2   -1    0    0  501    0  0.00000000000E+00  0.00000000000E+00  0.10811361472E+04  0.10811361472E+04  0.00000000000E+00 0.  1.
         -2   -1    0    0    0  501 -0.00000000000E+00 -0.00000000000E+00 -0.13147234696E+02  0.13147234696E+02  0.00000000000E+00 0. -1.
         25    2    1    2    0    0 -0.52477846549E+01  0.39556160010E+02  0.72264867587E+03  0.73447936529E+03  0.12508637121E+03 0.  0.
          5    1    3    3  502    0 -0.24702929607E+02 -0.25242095708E+02  0.51110423782E+03  0.51234013355E+03  0.41800000000E+01 0.  1.
         -5    1    3    3    0  502  0.19455144952E+02  0.64798255719E+02  0.21154443805E+03  0.22213923174E+03  0.41800000000E+01 0.  1.
        -11    1    1    2    0    0  0.40784503187E+02 -0.22083673221E+02  0.27669865567E+03  0.28055874674E+03  0.00000000000E+00 0.  1.
         11    1    1    2    0    0 -0.35536718532E+02 -0.17472486790E+02  0.68641580966E+02  0.79245269866E+02  0.00000000000E+00 0. -1.
</event>
<event>
 7    1  0.3265282E-009  0.1494237E+03  0.7561462E-02  0.1201183E+00
          1   -1    0    0  501    0  0.00000000000E+00  0.00000000000E+00  0.19467808775E+03  0.19467808775E+03  0.00000000000E+00 0. -1.
         -1   -1    0    0    0  501 -0.00000000000E+00 -0.00000000000E+00 -0.15784832116E+03  0.15784832116E+03  0.00000000000E+00 0.  1.
         25    2    1    2    0    0 -0.10559934665E+03  0.90666122736E+01  0.10572899019E+03  0.19506966029E+03  0.12506049547E+03 0.  0.
          5    1    3    3  502    0 -0.83086883021E+02  0.63432854246E+02  0.61664547057E+02  0.12143782727E+03  0.41800000000E+01 0.  1.
         -5    1    3    3    0  502 -0.22512463627E+02 -0.54366241973E+02  0.44064443134E+02  0.73631833018E+02  0.41800000000E+01 0.  1.
        -11    1    1    2    0    0  0.10903771804E+03  0.15764609574E+02 -0.35608162701E+02  0.11578293537E+03  0.00000000000E+00 0. -1.
         11    1    1    2    0    0 -0.34383713955E+01 -0.24831221847E+02 -0.33291060894E+02  0.41673813261E+02  0.00000000000E+00 0.  1.
</event>
<event>
 7    1  0.3265282E-009  0.1854526E+03  0.7561462E-02  0.1162628E+00
          1   -1    0    0  501    0  0.00000000000E+00  0.00000000000E+00  0.81517541596E+02  0.81517541596E+02  0.00000000000E+00 0. -1.
         -1   -1    0    0    0  501 -0.00000000000E+00 -0.00000000000E+00 -0.47040035102E+03  0.47040035102E+03  0.00000000000E+00 0.  1.
         25    2    1    2    0    0 -0.16284208416E+03 -0.10559069077E+01 -0.19626166234E+03  0.28404989305E+03  0.12508813823E+03 0.  0.
          5    1    3    3  502    0 -0.17998650701E+03 -0.14447885380E+02 -0.15864401379E+03  0.24039400910E+03  0.41800000000E+01 0.  1.
         -5    1    3    3    0  502  0.17144422844E+02  0.13391978473E+02 -0.37617648544E+02  0.43655883957E+02  0.41800000000E+01 0.  1.
        -11    1    1    2    0    0  0.87555429512E+02 -0.20307162536E+02 -0.15909920386E+03  0.18273174535E+03  0.00000000000E+00 0.  1.
         11    1    1    2    0    0  0.75286654653E+02  0.21363069443E+02 -0.33521943225E+02  0.85136254219E+02  0.00000000000E+00 0. -1.
</event>
<event>
 7    1  0.3265282E-009  0.1425689E+03  0.7561462E-02  0.1209913E+00
         -1   -1    0    0    0  501 -0.00000000000E+00  0.00000000000E+00  0.20927169263E+03  0.20927169263E+03  0.00000000000E+00 0.  1.
          1   -1    0    0  501    0  0.00000000000E+00 -0.00000000000E+00 -0.17354488165E+03  0.17354488165E+03  0.00000000000E+00 0. -1.
         25    2    1    2    0    0  0.30132077997E+02 -0.11264486193E+03 -0.85954173831E+02  0.19139464883E+03  0.12508790732E+03 0.  0.
          5    1    3    3  502    0 -0.19076773455E+02 -0.71470349428E+02  0.11157321887E+02  0.74925912504E+02  0.41800000000E+01 0.  1.
         -5    1    3    3    0  502  0.49208851452E+02 -0.41174512505E+02 -0.97111495718E+02  0.11646873633E+03  0.41800000000E+01 0.  1.
        -11    1    1    2    0    0 -0.58830953931E+02  0.47676945606E+02  0.73992314078E+02  0.10587272938E+03  0.00000000000E+00 0.  1.
         11    1    1    2    0    0  0.28698875934E+02  0.64967916328E+02  0.47688670740E+02  0.85549196073E+02  0.00000000000E+00 0. -1.
</event>
<event>
 7    1  0.3265282E-009  0.8927172E+02  0.7561462E-02  0.1304625E+00
         -2   -1    0    0    0  501 -0.00000000000E+00  0.00000000000E+00  0.12815342671E+03  0.12815342671E+03  0.00000000000E+00 0.  1.
          2   -1    0    0  501    0  0.00000000000E+00 -0.00000000000E+00 -0.14445502336E+03  0.14445502336E+03  0.00000000000E+00 0. -1.
         25    2    1    2    0    0 -0.40365036659E+02  0.10719865816E+02  0.61727995894E+02  0.14561258985E+03  0.12509368144E+03 0.  0.
          5    1    3    3  502    0  0.29249613051E+02  0.11070857682E+02  0.68625235332E+02  0.75531444299E+02  0.41800000000E+01 0. -1.
         -5    1    3    3    0  502 -0.69614649710E+02 -0.35099186572E+00 -0.68972394383E+01  0.70081145549E+02  0.41800000000E+01 0. -1.
        -11    1    1    2    0    0  0.43343507894E+02 -0.33184726606E+02 -0.10268366767E+02  0.55545702917E+02  0.00000000000E+00 0.  1.
         11    1    1    2    0    0 -0.29784712352E+01  0.22464860790E+02 -0.67761225778E+02  0.71450157314E+02  0.00000000000E+00 0. -1.
</event>
<event>
 7    1  0.3265282E-009  0.1780339E+03  0.7561462E-02  0.1169720E+00
          1   -1    0    0  501    0  0.00000000000E+00  0.00000000000E+00  0.25373452292E+03  0.25373452292E+03  0.00000000000E+00 0. -1.
         -1   -1    0    0    0  501 -0.00000000000E+00 -0.00000000000E+00 -0.26593985232E+03  0.26593985232E+03  0.00000000000E+00 0.  1.
         25    2    1    2    0    0  0.19290983944E+02 -0.15405499985E+03 -0.18316937616E+03  0.27074872767E+03  0.12509503639E+03 0.  0.
          5    1    3    3  502    0  0.26020413260E+02  0.12839088861E+02 -0.46125423873E+02  0.54652824597E+02  0.41800000000E+01 0.  1.
         -5    1    3    3    0  502 -0.67294293159E+01 -0.16689408871E+03 -0.13704395229E+03  0.21609590307E+03  0.41800000000E+01 0.  1.
        -11    1    1    2    0    0  0.93718616924E+01  0.74936149110E+02  0.23414803919E+02  0.79066499085E+02  0.00000000000E+00 0.  1.
         11    1    1    2    0    0 -0.28662845637E+02  0.79118850738E+02  0.14754924285E+03  0.16985914849E+03  0.00000000000E+00 0. -1.
</event>
<event>
 7    1  0.3265282E-009  0.5779020E+02  0.7561462E-02  0.1407346E+00
          3   -1    0    0  501    0  0.00000000000E+00  0.00000000000E+00  0.92049684132E+03  0.92049684132E+03  0.00000000000E+00 0. -1.
         -3   -1    0    0    0  501 -0.00000000000E+00 -0.00000000000E+00 -0.25115992161E+02  0.25115992161E+02  0.00000000000E+00 0.  1.
         25    2    1    2    0    0 -0.16356081813E+02  0.32836163829E+01  0.80540266585E+03  0.81522987741E+03  0.12509194748E+03 0.  0.
          5    1    3    3  502    0 -0.10573579343E+02  0.13751725786E+02  0.11504313932E+02  0.21230454100E+02  0.41800000000E+01 0.  1.
         -5    1    3    3    0  502 -0.57825024697E+01 -0.10468109403E+02  0.79389835192E+03  0.79399942332E+03  0.41800000000E+01 0.  1.
        -11    1    1    2    0    0  0.40169529501E+02  0.25600432910E+02  0.21330301476E+02  0.52191522555E+02  0.00000000000E+00 0. -1.
         11    1    1    2    0    0 -0.23813447688E+02 -0.28884049293E+02  0.68647881829E+02  0.78191433507E+02  0.00000000000E+00 0.  1.
</event>
<event>
 7    1  0.3265282E-009  0.1209054E+03  0.7561462E-02  0.1241611E+00
         -2   -1    0    0    0  501 -0.00000000000E+00  0.00000000000E+00  0.51244299489E+02  0.51244299489E+02  0.00000000000E+00 0.  1.
          2   -1    0    0  501    0  0.00000000000E+00 -0.00000000000E+00 -0.35463482655E+03  0.35463482655E+03  0.00000000000E+00 0. -1.
         25    2    1    2    0    0 -0.79986116548E+02 -0.36719967285E+01 -0.16475650210E+03  0.22181756641E+03  0.12508823038E+03 0.  0.
          5    1    3    3  502    0  0.61662352763E+01 -0.44618926673E+02 -0.89362318281E+02  0.10015970948E+03  0.41800000000E+01 0.  1.
         -5    1    3    3    0  502 -0.86152351825E+02  0.40946929945E+02 -0.75394183824E+02  0.12165785692E+03  0.41800000000E+01 0.  1.
        -11    1    1    2    0    0  0.19710199334E+02  0.29532261006E+02 -0.10399159075E+03  0.10988583778E+03  0.00000000000E+00 0. -1.
         11    1    1    2    0    0  0.60275917215E+02 -0.25860264277E+02 -0.34642434202E+02  0.74175721850E+02  0.00000000000E+00 0.  1.
</event>
<event>
 7    1  0.3265282E-009  0.8851873E+02  0.7561462E-02  0.1306479E+00
         -2   -1    0    0    0  501 -0.00000000000E+00  0.00000000000E+00  0.49652267075E+03  0.49652267075E+03  0.00000000000E+00 0. -1.
          2   -1    0    0  501    0  0.00000000000E+00 -0.00000000000E+00 -0.32087421126E+02  0.32087421126E+02  0.00000000000E+00 0.  1.
         25    2    1    2    0    0 -0.27750254129E+02  0.65550605907E+02  0.26051159207E+03  0.29762127226E+03  0.12508066821E+03 0.  0.
          5    1    3    3  502    0 -0.28458577943E+02  0.44450094230E+01 -0.91008913167E+00  0.29119571246E+02  0.41800000000E+01 0.  1.
         -5    1    3    3    0  502  0.70832381366E+00  0.61105596484E+02  0.26142168120E+03  0.26850170101E+03  0.41800000000E+01 0.  1.
        -11    1    1    2    0    0  0.39503108927E+02 -0.31090432869E+02  0.43477865816E+02  0.66463790494E+02  0.00000000000E+00 0.  1.
         11    1    1    2    0    0 -0.11752854798E+02 -0.34460173038E+02  0.16044579174E+03  0.16452502913E+03  0.00000000000E+00 0. -1.
</event>
<event>
 7    1  0.3265282E-009  0.1800786E+03  0.7561462E-02  0.1167727E+00
         -2   -1    0    0    0  501 -0.00000000000E+00  0.00000000000E+00  0.72559253159E+02  0.72559253159E+02  0.00000000000E+00 0.  1.
          2   -1    0    0  501    0  0.00000000000E+00 -0.00000000000E+00 -0.71552517958E+03  0.71552517958E+03  0.00000000000E+00 0. -1.
         25    2    1    2    0    0  0.12507280836E+03  0.10377976678E+03 -0.13119082248E+03  0.24346506615E+03  0.12510299417E+03 0.  0.
          5    1    3    3  502    0  0.12967138896E+03  0.10652397542E+03 -0.69966185833E+02  0.18186469150E+03  0.41800000000E+01 0. -1.
         -5    1    3    3    0  502 -0.45985806036E+01 -0.27442086427E+01 -0.61224636648E+02  0.61600374652E+02  0.41800000000E+01 0. -1.
        -11    1    1    2    0    0 -0.12846733165E+03 -0.60354118054E+02 -0.41152718735E+03  0.43531724156E+03  0.00000000000E+00 0. -1.
         11    1    1    2    0    0  0.33945232914E+01 -0.43425648726E+02 -0.10024791659E+03  0.10930212503E+03  0.00000000000E+00 0.  1.
</event>
<event>
 7    1  0.3265282E-009  0.2032674E+03  0.7561462E-02  0.1147011E+00
          2   -1    0    0  501    0  0.00000000000E+00  0.00000000000E+00  0.11293912904E+04  0.11293912904E+04  0.00000000000E+00 0. -1.
         -2   -1    0    0    0  501 -0.00000000000E+00 -0.00000000000E+00 -0.52874868285E+02  0.52874868285E+02  0.00000000000E+00 0.  1.
         25    2    1    2    0    0 -0.14867959862E+03  0.10479532878E+03  0.26130408454E+03  0.34207476946E+03  0.12509052451E+03 0.  0.
          5    1    3    3  502    0 -0.10353187639E+03  0.12414759729E+02  0.72573740086E+02  0.12711174548E+03  0.41800000000E+01 0.  1.
         -5    1    3    3    0  502 -0.45147722226E+02  0.92380569054E+02  0.18873034445E+03  0.21496302398E+03  0.41800000000E+01 0.  1.
        -11    1    1    2    0    0  0.79077642935E+02 -0.72093810857E+01  0.41017193714E+03  0.41778734640E+03  0.00000000000E+00 0.  1.
         11    1    1    2    0    0  0.69601955680E+02 -0.97585947697E+02  0.40504040047E+03  0.42240404287E+03  0.00000000000E+00 0. -1.
</event>
<event>
 7    1  0.3265282E-009  0.1117580E+03  0.7561462E-02  0.1257348E+00
         -1   -1    0    0    0  501 -0.00000000000E+00  0.00000000000E+00  0.40478564917E+02  0.40478564917E+02  0.00000000000E+00 0.  1.
          1   -1    0    0  501    0  0.00000000000E+00 -0.00000000000E+00 -0.41783382093E+03  0.41783382093E+03  0.00000000000E+00 0. -1.
         25    2    1    2    0    0 -0.51558859667E+02  0.26232071584E+01 -0.29844484906E+03  0.32769319714E+03  0.12509319045E+03 0.  0.
          5    1    3    3  502    0 -0.82511412064E+02  0.35431128310E+02 -0.19143155615E+03  0.21148761445E+03  0.41800000000E+01 0.  1.
         -5    1    3    3    0  502  0.30952552397E+02 -0.32807921151E+02 -0.10701329291E+03  0.11620558270E+03  0.41800000000E+01 0.  1.
        -11    1    1    2    0    0  0.20151875442E+02 -0.36769978347E+02 -0.34942104713E+01  0.42075395403E+02  0.00000000000E+00 0.  1.
         11    1    1    2    0    0  0.31406984225E+02  0.34146771189E+02 -0.75416196486E+02  0.88543793307E+02  0.00000000000E+00 0. -1.
</event>
<event>
 7    1  0.3265282E-009  0.7017245E+02  0.7561462E-02  0.1359508E+00
          2   -1    0    0  501    0  0.00000000000E+00  0.00000000000E+00  0.49946924854E+03  0.49946924854E+03  0.00000000000E+00 0. -1.
         -2   -1    0    0    0  501 -0.00000000000E+00 -0.00000000000E+00 -0.29558062237E+02  0.29558062237E+02  0.00000000000E+00 0.  1.
         25    2    1    2    0    0  0.19732884093E+02 -0.97957513533E+01  0.35784001943E+03  0.37971436459E+03  0.12509266850E+03 0.  0.
          5    1    3    3  502    0  0.14902783936E+02 -0.54458996728E+02  0.78682866373E+02  0.96934726255E+02  0.41800000000E+01 0. -1.
         -5    1    3    3    0  502  0.48301001574E+01  0.44663245374E+02  0.27915715305E+03  0.28277963833E+03  0.41800000000E+01 0. -1.
        -11    1    1    2    0    0  0.71565834726E+01  0.92773954005E+01 -0.15222226102E+02  0.19209448714E+02  0.00000000000E+00 0.  1.
         11    1    1    2    0    0 -0.26889467566E+02  0.51835595285E+00  0.12729339298E+03  0.13010349747E+03  0.00000000000E+00 0. -1.
</event>
<event>
 7    1  0.3265282E-009  0.8060877E+02  0.7561462E-02  0.1327333E+00
          2   -1    0    0  501    0  0.00000000000E+00  0.00000000000E+00  0.15638105192E+03  0.15638105192E+03  0.00000000000E+00 0. -1.
         -2   -1    0    0    0  501 -0.00000000000E+00 -0.00000000000E+00 -0.85583997486E+02  0.85583997486E+02  0.00000000000E+00 0.  1.
         25    2    1    2    0    0 -0.52036155703E+00 -0.19818116952E+01  0.79407713141E+02  0.14818070318E+03  0.12509091708E+03 0.  0.
          5    1    3    3  502    0 -0.34554680047E+01  0.37581306874E+02  0.97310445036E+02  0.10445616305E+03  0.41800000000E+01 0. -1.
         -5    1    3    3    0  502  0.29351064477E+01 -0.39563118569E+02 -0.17902731894E+02  0.43724540135E+02  0.41800000000E+01 0. -1.
        -11    1    1    2    0    0 -0.16128790670E+02 -0.37328971372E+02  0.16917230948E+02  0.44042964195E+02  0.00000000000E+00 0. -1.
         11    1    1    2    0    0  0.16649152227E+02  0.39310783067E+02 -0.25527889659E+02  0.49741382024E+02  0.00000000000E+00 0.  1.
</event>
<event>
 7    1  0.3265282E-009  0.9987753E+02  0.7561462E-02  0.1280554E+00
          2   -1    0    0  501    0  0.00000000000E+00  0.00000000000E+00  0.15051743454E+03  0.15051743454E+03  0.00000000000E+00 0. -1.
         -2   -1    0    0    0  501 -0.00000000000E+00 -0.00000000000E+00 -0.10244428220E+03  0.10244428220E+03  0.00000000000E+00 0.  1.
         25    2    1    2    0    0 -0.41102873781E+02  0.42110132609E+02  0.39545503943E+02  0.14376686232E+03  0.12506939801E+03 0.  0.
          5    1    3    3  502    0 -0.44864313021E+02 -0.15948103660E+02  0.64536071975E+02  0.80308938352E+02  0.41800000000E+01 0.  1.
         -5    1    3    3    0  502  0.37614392398E+01  0.58058236270E+02 -0.24990568032E+02  0.63457923969E+02  0.41800000000E+01 0.  1.
        -11    1    1    2    0    0  0.55024958022E+02 -0.65184344858E+01  0.32348525238E+02  0.64161227221E+02  0.00000000000E+00 0. -1.
         11    1    1    2    0    0 -0.13922084240E+02 -0.35591698123E+02 -0.23820876848E+02  0.45033627199E+02  0.00000000000E+00 0.  1.
</event>
<event>
 7    1  0.3265282E-009  0.9620425E+02  0.7561462E-02  0.1288487E+00
         -1   -1    0    0    0  501 -0.00000000000E+00  0.00000000000E+00  0.86336894911E+02  0.86336894911E+02  0.00000000000E+00 0.  1.
          1   -1    0    0  501    0  0.00000000000E+00 -0.00000000000E+00 -0.17703128456E+03  0.17703128456E+03  0.00000000000E+00 0. -1.
         25    2    1    2    0    0  0.10090656933E+02 -0.19891695146E+01  0.92550956237E+01  0.12585368557E+03  0.12509082790E+03 0.  0.
          5    1    3    3  502    0  0.66830083561E+02  0.84357464836E+01  0.16002099763E+01  0.67508925035E+02  0.41800000000E+01 0. -1.
         -5    1    3    3    0  502 -0.56739426628E+02 -0.10424915998E+02  0.76548856474E+01  0.58344760535E+02  0.41800000000E+01 0. -1.
        -11    1    1    2    0    0 -0.26611712537E+02 -0.24294489603E+02 -0.35130182758E+01  0.36204236860E+02  0.00000000000E+00 0.  1.
         11    1    1    2    0    0  0.16521055604E+02  0.26283659117E+02 -0.96436467001E+02  0.10131025704E+03  0.00000000000E+00 0. -1.
</event>
<event>
 7    1  0.3265282E-009  0.1234687E+03  0.7561462E-02  0.1237482E+00
          1   -1    0    0  501    0  0.00000000000E+00  0.00000000000E+00  0.12268414165E+04  0.12268414165E+04  0.00000000000E+00 0. -1.
         -1   -1    0    0    0  501 -0.00000000000E+00 -0.00000000000E+00 -0.17611698570E+02  0.17611698570E+02  0.00000000000E+00 0.  1.
         25    2    1    2    0    0 -0.71601524849E+01  0.90349847452E+02  0.82079708757E+03  0.83520526000E+03  0.12508239143E+03 0.  0.
          5    1    3    3  502    0 -0.19981891003E+02 -0.11727376977E+02  0.44310235913E+03  0.44372737171E+03  0.41800000000E+01 0.  1.
         -5    1    3    3    0  502  0.12821738518E+02  0.10207722443E+03  0.37769472844E+03  0.39147788829E+03  0.41800000000E+01 0.  1.
        -11    1    1    2    0    0  0.41501466959E+02 -0.30778084735E+02  0.24227522171E+03  0.24772352596E+03  0.00000000000E+00 0. -1.
         11    1    1    2    0    0 -0.34341314474E+02 -0.59571762717E+02  0.14615740868E+03  0.16152432914E+03  0.00000000000E+00 0.  1.
</event>
<event>
 7    1  0.3265282E-009  0.9145225E+02  0.7561462E-02  0.1299372E+00
          1   -1    0    0  501    0  0.00000000000E+00  0.00000000000E+00  0.72611144590E+02  0.72611144590E+02  0.00000000000E+00 0. -1.
         -1   -1    0    0    0  501 -0.00000000000E+00 -0.00000000000E+00 -0.29660831904E+03  0.29660831904E+03  0.00000000000E+00 0.  1.
         25    2    1    2    0    0 -0.20125812044E+02 -0.25385081446E+02 -0.47381927766E+01  0.12930089197E+03  0.12508724764E+03 0.  0.
          5    1    3    3  502    0 -0.73030650014E+02 -0.92246214921E+01 -0.19561087806E+01  0.73755462474E+02  0.41800000000E+01 0. -1.
         -5    1    3    3    0  502  0.52904837970E+02 -0.16160459954E+02 -0.27820839960E+01  0.55545429496E+02  0.41800000000E+01 0. -1.
        -11    1    1    2    0    0  0.33576498736E+02  0.20757807646E+02 -0.22195753444E+03  0.22544049090E+03  0.00000000000E+00 0.  1.
         11    1    1    2    0    0 -0.13450686692E+02  0.46272738000E+01  0.26985527642E+01  0.14478080755E+02  0.00000000000E+00 0. -1.
</event>
<event>
 7    1  0.3265282E-009  0.8787091E+02  0.7561462E-02  0.1308091E+00
         -2   -1    0    0    0  501 -0.00000000000E+00  0.00000000000E+00  0.22994858337E+02  0.22994858337E+02  0.00000000000E+00 0.  1.
          2   -1    0    0  501    0  0.00000000000E+00 -0.00000000000E+00 -0.67225445772E+03  0.67225445772E+03  0.00000000000E+00 0. -1.
         25    2    1    2    0    0  0.30951952097E+02 -0.49850965787E+02 -0.45846645389E+03  0.47883501471E+03  0.12509332453E+03 0.  0.
          5    1    3    3  502    0  0.61969160770E+02 -0.47090524854E+02 -0.15254375858E+03  0.17130313803E+03  0.41800000000E+01 0. -1.
         -5    1    3    3    0  502 -0.31017208673E+02 -0.27604409332E+01 -0.30592269531E+03  0.30753187668E+03  0.41800000000E+01 0. -1.
        -11    1    1    2    0    0 -0.10231762364E+02 -0.21033122479E+01  0.58490590344E+01  0.11971815864E+02  0.00000000000E+00 0.  1.
         11    1    1    2    0    0 -0.20720189733E+02  0.51954278035E+02 -0.19664220453E+03  0.20444248549E+03  0.00000000000E+00 0. -1.
</event>
<event>
 7    1  0.3265282E-009  0.8812553E+02  0.7561462E-02  0.1307456E+00
         -2   -1    0    0    0  501 -0.00000000000E+00  0.00000000000E+00  0.21793984046E+02  0.21793984046E+02  0.00000000000E+00 0.  1.
          2   -1    0    0  501    0  0.00000000000E+00 -0.00000000000E+00 -0.55514779708E+03  0.55514779708E+03  0.00000000000E+00 0. -1.
         25    2    1    2    0    0  0.15357073391E+02 -0.12242430847E+02 -0.32341776050E+03  0.34732072530E+03  0.12508765566E+03 0.  0.
          5    1    3    3  502    0  0.44960918559E+02  0.28575322135E+02 -0.65720882512E+02  0.84703837168E+02  0.41800000000E+01 0.  1.
         -5    1    3    3    0  502 -0.29603845168E+02 -0.40817752983E+02 -0.25769687799E+03  0.26261688813E+03  0.41800000000E+01 0.  1.
        -11    1    1    2    0    0  0.16484705043E+02 -0.20660194844E+02 -0.17231981528E+02  0.31552025905E+02  0.00000000000E+00 0.  1.
         11    1    1    2    0    0 -0.31841778435E+02  0.32902625691E+02 -0.19270407101E+03  0.19806902992E+03  0.00000000000E+00 0. -1.
</event>
<event>
 7    1  0.3265282E-009  0.1132692E+03  0.7561462E-02  0.1254633E+00
          2   -1    0    0  501    0  0.00000000000E+00  0.00000000000E+00  0.19697584664E+03  0.19697584664E+03  0.00000000000E+00 0. -1.
         -2   -1    0    0    0  501 -0.00000000000E+00 -0.00000000000E+00 -0.10010489197E+03  0.10010489197E+03  0.00000000000E+00 0.  1.
         25    2    1    2    0    0  0.59819158335E+01 -0.88660443631E+02  0.47418949002E+02  0.16059719883E+03  0.12508575445E+03 0.  0.
          5    1    3    3  502    0  0.39962436115E+02 -0.14024190417E+02  0.63968770738E+02  0.76831961102E+02  0.41800000000E+01 0.  1.
         -5    1    3    3    0  502 -0.33980520281E+02 -0.74636253214E+02 -0.16549821736E+02  0.83765237730E+02  0.41800000000E+01 0.  1.
        -11    1    1    2    0    0  0.14587961385E+02  0.45551442536E+01 -0.20221900135E+02  0.25347252349E+02  0.00000000000E+00 0.  1.
         11    1    1    2    0    0 -0.20569877219E+02  0.84105299378E+02  0.69673905802E+02  0.11113628742E+03  0.00000000000E+00 0. -1.
</event>
<event>
 7    1  0.3265282E-009  0.5869399E+02  0.7561462E-02  0.1403396E+00
         -2   -1    0    0    0  501 -0.00000000000E+00  0.00000000000E+00  0.15778398746E+02  0.15778398746E+02  0.00000000000E+00 0.  1.
          2   -1    0    0  501    0  0.00000000000E+00 -0.00000000000E+00 -0.79601165581E+03  0.79601165581E+03  0.00000000000E+00 0. -1.
         25    2    1    2    0    0  0.23531403729E+02 -0.15943912787E+02 -0.46841086404E+03  0.48565894102E+03  0.12509170284E+03 0.  0.
          5    1    3    3  502    0  0.38922880988E+01 -0.56699100572E+01  0.64185898311E+01  0.10294099384E+02  0.41800000000E+01 0.  1.
         -5    1    3    3    0  502  0.19639115630E+02 -0.10274002730E+02 -0.47482945388E+03  0.47536484164E+03  0.41800000000E+01 0.  1.
        -11    1    1    2    0    0  0.19915649541E+02  0.34265622670E+02 -0.21275180408E+03  0.21641186690E+03  0.00000000000E+00 0. -1.
         11    1    1    2    0    0 -0.43447053270E+02 -0.18321709882E+02 -0.99070588933E+02  0.10971924664E+03  0.00000000000E+00 0.  1.
</event>
<event>
 7    1  0.3265282E-009  0.2985412E+03  0.7561462E-02  0.1085972E+00
         -1   -1    0    0    0  501 -0.00000000000E+00  0.00000000000E+00  0.61944767942E+03  0.61944767942E+03  0.00000000000E+00 0.  1.
          1   -1    0    0  501    0  0.00000000000E+00 -0.00000000000E+00 -0.15358610545E+03  0.15358610545E+03  0.00000000000E+00 0. -1.
         25    2    1    2    0    0 -0.59349478165E+02  0.28203977004E+03  0.22139139456E+03  0.38435968112E+03  0.12509765163E+03 0.  0.
          5    1    3    3  502    0 -0.66334737583E+02  0.69951140892E+02  0.10377531865E+03  0.14170479414E+03  0.41800000000E+01 0.  1.
         -5    1    3    3    0  502  0.69852594179E+01  0.21208862915E+03  0.11761607592E+03  0.24265488698E+03  0.41800000000E+01 0.  1.
        -11    1    1    2    0    0  0.36714682855E+02 -0.15372391795E+03  0.75097590754E+02  0.17498188199E+03  0.00000000000E+00 0. -1.
         11    1    1    2    0    0  0.22634795310E+02 -0.12831585209E+03  0.16937258865E+03  0.21369222176E+03  0.00000000000E+00 0.  1.
</event>
<event>
 7    1  0.3265282E-009  0.1044402E+03  0.7561462E-02  0.1271226E+00
         -4   -1    0    0    0  501 -0.00000000000E+00  0.00000000000E+00  0.49338461587E+02  0.49338461587E+02  0.00000000000E+00 0.  1.
          4   -1    0    0  501    0  0.00000000000E+00 -0.00000000000E+00 -0.30017692631E+03  0.30017692631E+03  0.00000000000E+00 0. -1.
         25    2    1    2    0    0  0.22393188193E+02 -0.44980644801E+02 -0.11500839684E+03  0.17719980709E+03  0.12509247381E+03 0.  0.
          5    1    3    3  502    0  0.58060737529E+02 -0.59229004007E+02 -0.38597969106E+02  0.91577288544E+02  0.41800000000E+01 0. -1.
         -5    1    3    3    0  502 -0.35667549336E+02  0.14248359205E+02 -0.76410427735E+02  0.85622518546E+02  0.41800000000E+01 0. -1.
        -11    1    1    2    0    0  0.25644620640E+02  0.89887657832E+01 -0.40051757041E+01  0.27467906919E+02  0.00000000000E+00 0.  1.
         11    1    1    2    0    0 -0.48037808833E+02  0.35991879018E+02 -0.13182489218E+03  0.14484767389E+03  0.00000000000E+00 0. -1.
</event>
<event>
 7    1  0.4022009E-009  0.1029956E+03  0.7561462E-02  0.1274120E+00
          2   -1    0    0  501    0  0.00000000000E+00  0.00000000000E+00  0.13605848315E+03  0.13605848315E+03  0.00000000000E+00 0. -1.
         -2   -1    0    0    0  501 -0.00000000000E+00 -0.00000000000E+00 -0.10259161683E+03  0.10259161683E+03  0.00000000000E+00 0.  1.
         25    2    1    2    0    0 -0.16352757759E+02 -0.38725604126E+02 -0.16283542847E+01  0.13197375585E+03  0.12508931047E+03 0.  0.
          5    1    3    3  502    0 -0.66816742519E+02 -0.40120698686E+02  0.13277590888E+02  0.79170160816E+02  0.41800000000E+01 0.  1.
         -5    1    3    3    0  502  0.50463984760E+02  0.13950945595E+01 -0.14905945173E+02  0.52803595031E+02  0.41800000000E+01 0.  1.
        -11    1    1    2    0    0 -0.36417845787E+01  0.52742404500E+02 -0.11469295756E+02  0.54097768646E+02  0.00000000000E+00 0.  1.
         11    1    1    2    0    0  0.19994542337E+02 -0.14016800373E+02  0.46564516363E+02  0.52578575486E+02  0.00000000000E+00 0. -1.
</event>
<event>
 7    1  0.3265282E-009  0.8586557E+02  0.7561462E-02  0.1313184E+00
         -1   -1    0    0    0  501 -0.00000000000E+00  0.00000000000E+00  0.86458099033E+01  0.86458099033E+01  0.00000000000E+00 0.  1.
          1   -1    0    0  501    0  0.00000000000E+00 -0.00000000000E+00 -0.16642968636E+04  0.16642968636E+04  0.00000000000E+00 0. -1.
         25    2    1    2    0    0  0.68472918154E+01 -0.19094488443E+02 -0.12722891472E+04  0.12785844812E+04  0.12508843490E+03 0.  0.
          5    1    3    3  502    0  0.23732528020E+02 -0.46696788701E+02 -0.11708286998E+04  0.11720073121E+04  0.41800000000E+01 0. -1.
         -5    1    3    3    0  502 -0.16885236205E+02  0.27602300258E+02 -0.10146044739E+03  0.10657716907E+03  0.41800000000E+01 0. -1.
        -11    1    1    2    0    0 -0.41518468003E+02  0.28827935579E+02 -0.28843162144E+03  0.29282696819E+03  0.00000000000E+00 0. -1.
         11    1    1    2    0    0  0.34671176187E+02 -0.97334471368E+01 -0.94930285035E+02  0.10153122410E+03  0.00000000000E+00 0.  1.
</event>
<event>
 7    1  0.3265282E-009  0.1230365E+03  0.7561462E-02  0.1238170E+00
         -2   -1    0    0    0  501 -0.00000000000E+00  0.00000000000E+00  0.14626795626E+02  0.14626795626E+02  0.00000000000E+00 0.  1.
          2   -1    0    0  501    0  0.00000000000E+00 -0.00000000000E+00 -0.14308363311E+04  0.14308363311E+04  0.00000000000E+00 0. -1.
         25    2    1    2    0    0 -0.70210104850E+02 -0.33914143912E+02 -0.10524056046E+04  0.10626779194E+04  0.12508867199E+03 0.  0.
          5    1    3    3  502    0  0.10265986190E+02  0.28572810041E+02 -0.94166809484E+02  0.99028563327E+02  0.41800000000E+01 0.  1.
         -5    1    3    3    0  502 -0.80476091040E+02 -0.62486953953E+02 -0.95823879514E+03  0.96364935612E+03  0.41800000000E+01 0.  1.
        -11    1    1    2    0    0 -0.19024968090E+02  0.55480745027E+01 -0.11987633914E+03  0.12150336302E+03  0.00000000000E+00 0. -1.
         11    1    1    2    0    0  0.89235072940E+02  0.28366069409E+02 -0.24392759169E+03  0.26128184423E+03  0.00000000000E+00 0.  1.
</event>
<event>
 7    1  0.3265282E-009  0.1157048E+03  0.7561462E-02  0.1250356E+00
          2   -1    0    0  501    0  0.00000000000E+00  0.00000000000E+00  0.38166249510E+03  0.38166249510E+03  0.00000000000E+00 0. -1.
         -2   -1    0    0    0  501 -0.00000000000E+00 -0.00000000000E+00 -0.11620136283E+03  0.11620136283E+03  0.00000000000E+00 0.  1.
         25    2    1    2    0    0 -0.70945780252E+02 -0.38495306620E+02  0.32711238491E+03  0.35940048117E+03  0.12510396129E+03 0.  0.
          5    1    3    3  502    0 -0.51792447027E+02 -0.80347444620E+02  0.26664707802E+03  0.28329543950E+03  0.41800000000E+01 0. -1.
         -5    1    3    3    0  502 -0.19153333225E+02  0.41852138000E+02  0.60465306892E+02  0.76105041661E+02  0.41800000000E+01 0. -1.
        -11    1    1    2    0    0  0.62324532316E+02  0.14468838176E+02  0.78131703979E+01  0.64457274517E+02  0.00000000000E+00 0. -1.
         11    1    1    2    0    0  0.86212479360E+01  0.24026468444E+02 -0.69464423036E+02  0.74006102246E+02  0.00000000000E+00 0.  1.
</event>
<event>
 7    1  0.3265282E-009  0.9919494E+02  0.7561462E-02  0.1281998E+00
         -1   -1    0    0    0  501 -0.00000000000E+00  0.00000000000E+00  0.51854821406E+02  0.51854821406E+02  0.00000000000E+00 0.  1.
          1   -1    0    0  501    0  0.00000000000E+00 -0.00000000000E+00 -0.45306434690E+03  0.45306434690E+03  0.00000000000E+00 0. -1.
         25    2    1    2    0    0  0.90790507135E+02 -0.21471630575E+01 -0.12025313731E+03  0.19584821112E+03  0.12509267873E+03 0.  0.
          5    1    3    3  502    0  0.47905458923E+02  0.26933557691E+02 -0.13156908901E+03  0.14264728216E+03  0.41800000000E+01 0. -1.
         -5    1    3    3    0  502  0.42885048212E+02 -0.29080720749E+02  0.11315951703E+02  0.53200928961E+02  0.41800000000E+01 0. -1.
        -11    1    1    2    0    0 -0.79826049957E+02 -0.11700830023E+01 -0.28572056695E+03  0.29666447331E+03  0.00000000000E+00 0. -1.
         11    1    1    2    0    0 -0.10964457178E+02  0.33172460598E+01  0.47641787699E+01  0.12406483869E+02  0.00000000000E+00 0.  1.
</event>
<event>
 7    1  0.3265282E-009  0.1558297E+03  0.7561462E-02  0.1193487E+00
          2   -1    0    0  501    0  0.00000000000E+00  0.00000000000E+00  0.12560784011E+03  0.12560784011E+03  0.00000000000E+00 0.  1.
         -2   -1    0    0    0  501 -0.00000000000E+00 -0.00000000000E+00 -0.23652008707E+03  0.23652008707E+03  0.00000000000E+00 0. -1.
         25    2    1    2    0    0 -0.99692151814E+02 -0.85778466505E+02 -0.47533480930E+02  0.18762529951E+03  0.12508937109E+03 0.  0.
          5    1    3    3  502    0 -0.42370125328E+02  0.28134173655E+02 -0.28998593801E+02  0.58695400927E+02  0.41800000000E+01 0.  1.
         -5    1    3    3    0  502 -0.57322026486E+02 -0.11391264016E+03 -0.18534887129E+02  0.12892989859E+03  0.41800000000E+01 0.  1.
        -11    1    1    2    0    0  0.12540818408E+02  0.31239300178E+01  0.23118697674E+02  0.26485944334E+02  0.00000000000E+00 0.  1.
         11    1    1    2    0    0  0.87151333406E+02  0.82654536488E+02 -0.86497463710E+02  0.14801668333E+03  0.00000000000E+00 0. -1.
</event>
<event>
 7    1  0.3265282E-009  0.1178865E+03  0.7561462E-02  0.1246625E+00
         -2   -1    0    0    0  501 -0.00000000000E+00  0.00000000000E+00  0.20285321870E+02  0.20285321870E+02  0.00000000000E+00 0. -1.
          2   -1    0    0  501    0  0.00000000000E+00 -0.00000000000E+00 -0.11114862304E+04  0.11114862304E+04  0.00000000000E+00 0.  1.
         25    2    1    2    0    0  0.20783221038E+02 -0.56413202347E+02 -0.91035127039E+03  0.92087038837E+03  0.12509374489E+03 0.  0.
          5    1    3    3  502    0  0.69919359227E+02 -0.41423846851E+02 -0.67830434927E+03  0.68316829151E+03  0.41800000000E+01 0. -1.
         -5    1    3    3    0  502 -0.49136138188E+02 -0.14989355496E+02 -0.23204692111E+03  0.23770209686E+03  0.41800000000E+01 0. -1.
        -11    1    1    2    0    0  0.18383421504E+02 -0.13438990252E+02 -0.73657056209E+02  0.77096812999E+02  0.00000000000E+00 0.  1.
         11    1    1    2    0    0 -0.39166642542E+02  0.69852192599E+02 -0.10719258195E+03  0.13380435092E+03  0.00000000000E+00 0. -1.
</event>
<event>
 7    1  0.3543846E-009  0.1349080E+03  0.7561462E-02  0.1220350E+00
          1   -1    0    0  501    0  0.00000000000E+00  0.00000000000E+00  0.10079723792E+04  0.10079723792E+04  0.00000000000E+00 0. -1.
         -1   -1    0    0    0  501 -0.00000000000E+00 -0.00000000000E+00 -0.20711462906E+02  0.20711462906E+02  0.00000000000E+00 0.  1.
         25    2    1    2    0    0 -0.84145029009E+02 -0.25497455418E+01  0.37622698964E+03  0.40531207664E+03  0.12507695481E+03 0.  0.
          5    1    3    3  502    0 -0.10829154246E+03  0.23352930794E+02  0.32071246994E+03  0.33933225358E+03  0.41800000000E+01 0.  1.
         -5    1    3    3    0  502  0.24146513450E+02 -0.25902676336E+02  0.55514519704E+02  0.65979823061E+02  0.41800000000E+01 0.  1.
        -11    1    1    2    0    0  0.50616169328E+02 -0.43222541023E+02  0.34298774956E+03  0.34938629194E+03  0.00000000000E+00 0.  1.
         11    1    1    2    0    0  0.33528859681E+02  0.45772286565E+02  0.26804617712E+03  0.27398547355E+03  0.00000000000E+00 0. -1.
</event>
<event>
 7    1  0.3265282E-009  0.1997101E+03  0.7561462E-02  0.1149984E+00
         -2   -1    0    0    0  501 -0.00000000000E+00  0.00000000000E+00  0.42557457767E+02  0.42557457767E+02  0.00000000000E+00 0. -1.
          2   -1    0    0  501    0  0.00000000000E+00 -0.00000000000E+00 -0.12224229914E+04  0.12224229914E+04  0.00000000000E+00 0.  1.
         25    2    1    2    0    0 -0.90253431669E+02  0.16608985635E+03 -0.78889932919E+03  0.82081700365E+03  0.12508748769E+03 0.  0.
          5    1    3    3  502    0 -0.46794010390E+02  0.96913907502E+02 -0.20842305399E+03  0.23460525721E+03  0.41800000000E+01 0. -1.
         -5    1    3    3    0  502 -0.43459421279E+02  0.69175948848E+02 -0.58047627520E+03  0.58621174644E+03  0.41800000000E+01 0. -1.
        -11    1    1    2    0    0  0.10086790163E+03 -0.96740311608E+02 -0.24087384647E+03  0.27848380811E+03  0.00000000000E+00 0.  1.
         11    1    1    2    0    0 -0.10614469958E+02 -0.69349544741E+02 -0.15009235801E+03  0.16567963744E+03  0.00000000000E+00 0. -1.
</event>
<event>
 7    1  0.3265282E-009  0.8419791E+02  0.7561462E-02  0.1317544E+00
          2   -1    0    0  501    0  0.00000000000E+00  0.00000000000E+00  0.27223167920E+03  0.27223167920E+03  0.00000000000E+00 0. -1.
         -2   -1    0    0    0  501 -0.00000000000E+00 -0.00000000000E+00 -0.45173376743E+02  0.45173376743E+02  0.00000000000E+00 0.  1.
         25    2    1    2    0    0  0.13832850549E+02  0.44464098739E+01  0.15372066437E+03  0.19871998713E+03  0.12509385402E+03 0.  0.
          5    1    3    3  502    0  0.39360276705E+02  0.21737493548E+02  0.34803738241E+01  0.45291670426E+02  0.41800000000E+01 0. -1.
         -5    1    3    3    0  502 -0.25527426156E+02 -0.17291083674E+02  0.15024029055E+03  0.15342831670E+03  0.41800000000E+01 0. -1.
        -11    1    1    2    0    0  0.47450593841E+01  0.41912822210E+02  0.43077648497E+02  0.60289999621E+02  0.00000000000E+00 0. -1.
         11    1    1    2    0    0 -0.18577909933E+02 -0.46359232084E+02  0.30259989591E+02  0.58395069201E+02  0.00000000000E+00 0.  1.
</event>
<event>
 7    1  0.3265282E-009  0.1747490E+03  0.7561462E-02  0.1172984E+00
          1   -1    0    0  501    0  0.00000000000E+00  0.00000000000E+00  0.10558199325E+04  0.10558199325E+04  0.00000000000E+00 0. -1.
         -1   -1    0    0    0  501 -0.00000000000E+00 -0.00000000000E+00 -0.35661246654E+02  0.35661246654E+02  0.00000000000E+00 0.  1.
         25    2    1    2    0    0 -0.15710798605E+02  0.15251165111E+03  0.40156581476E+03  0.44767005677E+03  0.12508694267E+03 0.  0.
          5    1    3    3  502    0 -0.47345476303E+02  0.11282193641E+03  0.16370796234E+03  0.20442150766E+03  0.41800000000E+01 0.  1.
         -5    1    3    3    0  502  0.31634677698E+02  0.39689714707E+02  0.23785785242E+03  0.24324854911E+03  0.41800000000E+01 0.  1.
        -11    1    1    2    0    0 -0.19162316956E+02  0.54240913659E+00  0.40887909436E+02  0.45158717174E+02  0.00000000000E+00 0.  1.
         11    1    1    2    0    0  0.34873115561E+02 -0.15305406025E+03  0.57770496164E+03  0.59865240520E+03  0.00000000000E+00 0. -1.
</event>
<event>
 7    1  0.3265282E-009  0.1949190E+03  0.7561462E-02  0.1154098E+00
         -1   -1    0    0    0  501 -0.00000000000E+00  0.00000000000E+00  0.15236275140E+03  0.15236275140E+03  0.00000000000E+00 0.  1.
          1   -1    0    0  501    0  0.00000000000E+00 -0.00000000000E+00 -0.28225774968E+03  0.28225774968E+03  0.00000000000E+00 0. -1.
         25    2    1    2    0    0  0.16506567046E+03  0.31396818178E+02 -0.12338798379E+03  0.24311021322E+03  0.12508215489E+03 0.  0.
          5    1    3    3  502    0  0.17383855401E+03  0.38887206524E+01 -0.81540601346E+02  0.19209712928E+03  0.41800000000E+01 0. -1.
         -5    1    3    3    0  502 -0.87728835584E+01  0.27508097526E+02 -0.41847382443E+02  0.51013083937E+02  0.41800000000E+01 0. -1.
        -11    1    1    2    0    0 -0.37468621702E+02 -0.44833463687E+02  0.17473847508E+02  0.60985837907E+02  0.00000000000E+00 0. -1.
         11    1    1    2    0    0 -0.12759704875E+03  0.13436645509E+02 -0.23980862000E+02  0.13052444995E+03  0.00000000000E+00 0.  1.
</event>
<event>
 7    1  0.3265282E-009  0.1123798E+03  0.7561462E-02  0.1256225E+00
          1   -1    0    0  501    0  0.00000000000E+00  0.00000000000E+00  0.27406385206E+03  0.27406385206E+03  0.00000000000E+00 0. -1.
         -1   -1    0    0    0  501 -0.00000000000E+00 -0.00000000000E+00 -0.56157231834E+02  0.56157231834E+02  0.00000000000E+00 0.  1.
         25    2    1    2    0    0  0.21743353746E+02 -0.33921149003E+02  0.18283123234E+03  0.22516371494E+03  0.12509205101E+03 0.  0.
          5    1    3    3  502    0 -0.31255301373E+02 -0.62873264397E+02  0.87969162963E+02  0.11263208811E+03  0.41800000000E+01 0.  1.
         -5    1    3    3    0  502  0.52998655119E+02  0.28952115394E+02  0.94862069376E+02  0.11253162683E+03  0.41800000000E+01 0.  1.
        -11    1    1    2    0    0 -0.37320026272E+02 -0.16726825452E+02  0.32090284665E+02  0.51984203568E+02  0.00000000000E+00 0. -1.
         11    1    1    2    0    0  0.15576672526E+02  0.50647974454E+02  0.29851032249E+01  0.53073165391E+02  0.00000000000E+00 0.  1.
</event>
<event>
 7    1  0.3265282E-009  0.9838141E+02  0.7561462E-02  0.1283737E+00
          2   -1    0    0  501    0  0.00000000000E+00  0.00000000000E+00  0.26242886557E+03  0.26242886557E+03  0.00000000000E+00 0.  1.
         -2   -1    0    0    0  501 -0.00000000000E+00 -0.00000000000E+00 -0.12222197327E+03  0.12222197327E+03  0.00000000000E+00 0. -1.
         25    2    1    2    0    0 -0.15702690291E+02 -0.37271830926E+02  0.22060983033E+03  0.25681206622E+03  0.12509187127E+03 0.  0.
          5    1    3    3  502    0 -0.69338212937E+02 -0.14951481942E+02  0.14398873271E+03  0.16056637921E+03  0.41800000000E+01 0. -1.
         -5    1    3    3    0  502  0.53635522646E+02 -0.22320348984E+02  0.76621097619E+02  0.96245687013E+02  0.41800000000E+01 0. -1.
        -11    1    1    2    0    0  0.35796571590E+02  0.20241104009E+02  0.21563117220E+01  0.41179442800E+02  0.00000000000E+00 0.  1.
         11    1    1    2    0    0 -0.20093881299E+02  0.17030726917E+02 -0.82559249748E+02  0.86659329815E+02  0.00000000000E+00 0. -1.
</event>
<event>
 7    1  0.3265282E-009  0.8718400E+02  0.7561462E-02  0.1309818E+00
         -2   -1    0    0    0  501 -0.00000000000E+00  0.00000000000E+00  0.34111711470E+03  0.34111711470E+03  0.00000000000E+00 0.  1.
          2   -1    0    0  501    0  0.00000000000E+00 -0.00000000000E+00 -0.38938497145E+02  0.38938497145E+02  0.00000000000E+00 0. -1.
         25    2    1    2    0    0  0.69060970380E+01 -0.45005260067E+02  0.20627217385E+03  0.24549741963E+03  0.12509039024E+03 0.  0.
          5    1    3    3  502    0  0.51107642971E+01 -0.63032668422E+02  0.33421902211E+02  0.71650074302E+02  0.41800000000E+01 0. -1.
         -5    1    3    3    0  502  0.17953327409E+01  0.18027408354E+02  0.17285027164E+03  0.17384734533E+03  0.41800000000E+01 0. -1.
        -11    1    1    2    0    0  0.33558892338E+02  0.24087326339E+01  0.22238367323E+02  0.40330462792E+02  0.00000000000E+00 0. -1.
         11    1    1    2    0    0 -0.40464989376E+02  0.42596527433E+02  0.73668076387E+02  0.94227729428E+02  0.00000000000E+00 0.  1.
</event>
<event>
 7    1  0.3265282E-009  0.2176010E+03  0.7561462E-02  0.1135684E+00
          1   -1    0    0  501    0  0.00000000000E+00  0.00000000000E+00  0.15103237947E+03  0.15103237947E+03  0.00000000000E+00 0. -1.
         -1   -1    0    0    0  501 -0.00000000000E+00 -0.00000000000E+00 -0.37505254400E+03  0.37505254400E+03  0.00000000000E+00 0.  1.
         25    2    1    2    0    0  0.19056782539E+03 -0.81529621333E+02 -0.60725691255E+02  0.24959737869E+03  0.12509223253E+03 0.  0.
          5    1    3    3  502    0  0.60469806562E+01 -0.26194417698E+02 -0.49624572447E+02  0.56593145204E+02  0.41800000000E+01 0. -1.
         -5    1    3    3    0  502  0.18452084474E+03 -0.55335203635E+02 -0.11101118808E+02  0.19300423348E+03  0.41800000000E+01 0. -1.
        -11    1    1    2    0    0 -0.28006037278E+02  0.37663152210E+02 -0.69164841762E+02  0.83586042461E+02  0.00000000000E+00 0.  1.
         11    1    1    2    0    0 -0.16256178811E+03  0.43866469123E+02 -0.94129631516E+02  0.19290150232E+03  0.00000000000E+00 0. -1.
</event>
<event>
 7    1  0.3265282E-009  0.9878879E+02  0.7561462E-02  0.1282864E+00
          4   -1    0    0  501    0  0.00000000000E+00  0.00000000000E+00  0.26420561586E+02  0.26420561586E+02  0.00000000000E+00 0. -1.
         -4   -1    0    0    0  501 -0.00000000000E+00 -0.00000000000E+00 -0.69090489879E+03  0.69090489879E+03  0.00000000000E+00 0.  1.
         25    2    1    2    0    0 -0.22133835699E+02  0.51978851488E+02 -0.52264277756E+03  0.54037633881E+03  0.12513755202E+03 0.  0.
          5    1    3    3  502    0 -0.15275027897E+01  0.90636110569E+02 -0.39735244992E+03  0.40758272739E+03  0.41800000000E+01 0.  1.
         -5    1    3    3    0  502 -0.20606332909E+02 -0.38657259081E+02 -0.12529032764E+03  0.13279361143E+03  0.41800000000E+01 0.  1.
        -11    1    1    2    0    0  0.26002972606E+01 -0.39634415134E+02 -0.14783449876E+03  0.15307739033E+03  0.00000000000E+00 0.  1.
         11    1    1    2    0    0  0.19533538438E+02 -0.12344436354E+02  0.59929391115E+01  0.23871731232E+02  0.00000000000E+00 0. -1.
</event>
<event>
 7    1  0.3265282E-009  0.1111378E+03  0.7561462E-02  0.1258477E+00
         -2   -1    0    0    0  501 -0.00000000000E+00  0.00000000000E+00  0.22940264335E+02  0.22940264335E+02  0.00000000000E+00 0.  1.
          2   -1    0    0  501    0  0.00000000000E+00 -0.00000000000E+00 -0.57530294541E+03  0.57530294541E+03  0.00000000000E+00 0. -1.
         25    2    1    2    0    0  0.14875653874E+02  0.19893442326E+01 -0.36054044207E+03  0.38191862147E+03  0.12508869050E+03 0.  0.
          5    1    3    3  502    0  0.37660149371E+02  0.53856347003E+02 -0.14936531544E+03  0.16323683047E+03  0.41800000000E+01 0.  1.
         -5    1    3    3    0  502 -0.22784495497E+02 -0.51867002771E+02 -0.21117512663E+03  0.21868179100E+03  0.41800000000E+01 0.  1.
        -11    1    1    2    0    0  0.29699990393E+02  0.31929638293E+02 -0.74682713050E+02  0.86481783396E+02  0.00000000000E+00 0.  1.
         11    1    1    2    0    0 -0.44575644267E+02 -0.33918982525E+02 -0.11713952595E+03  0.12984280488E+03  0.00000000000E+00 0. -1.
</event>
<event>
 7    1  0.3265282E-009  0.1296937E+03  0.7561462E-02  0.1227911E+00
         -1   -1    0    0    0  501 -0.00000000000E+00  0.00000000000E+00  0.11079765472E+02  0.11079765472E+02  0.00000000000E+00 0.  1.
          1   -1    0    0  501    0  0.00000000000E+00 -0.00000000000E+00 -0.23073371512E+04  0.23073371512E+04  0.00000000000E+00 0. -1.
         25    2    1    2    0    0  0.62890199739E+02 -0.64641948365E+02 -0.17720781245E+04  0.17787754667E+04  0.12509005963E+03 0.  0.
          5    1    3    3  502    0  0.71345636450E+02 -0.92544295593E+02 -0.15935472330E+04  0.15978313123E+04  0.41800000000E+01 0. -1.
         -5    1    3    3    0  502 -0.84554367116E+01  0.27902347228E+02 -0.17853089151E+03  0.18094415440E+03  0.41800000000E+01 0. -1.
        -11    1    1    2    0    0  0.10164812778E+02 -0.56466719939E+01 -0.93364425825E+01  0.14912326563E+02  0.00000000000E+00 0.  1.
         11    1    1    2    0    0 -0.73055012516E+02  0.70288620359E+02 -0.51484281865E+03  0.52472912338E+03  0.00000000000E+00 0. -1.
</event>
<event>
 7    1  0.3265282E-009  0.1144134E+03  0.7561462E-02  0.1252608E+00
         -1   -1    0    0    0  501 -0.00000000000E+00  0.00000000000E+00  0.19336734341E+03  0.19336734341E+03  0.00000000000E+00 0.  1.
          1   -1    0    0  501    0  0.00000000000E+00 -0.00000000000E+00 -0.10523167832E+03  0.10523167832E+03  0.00000000000E+00 0. -1.
         25    2    1    2    0    0 -0.51340280448E+02  0.41349067264E+02  0.11507658304E+03  0.18230428473E+03  0.12508662001E+03 0.  0.
          5    1    3    3  502    0 -0.73779565722E+02 -0.10816432812E+01  0.11179049194E+03  0.13401186797E+03  0.41800000000E+01 0. -1.
         -5    1    3    3    0  502  0.22439285274E+02  0.42430710545E+02  0.32860911057E+01  0.48292416752E+02  0.41800000000E+01 0. -1.
        -11    1    1    2    0    0  0.73122693085E+02 -0.43114146531E+02 -0.45528776616E+01  0.85008744081E+02  0.00000000000E+00 0.  1.
         11    1    1    2    0    0 -0.21782412638E+02  0.17650792674E+01 -0.22388040291E+02  0.31285992923E+02  0.00000000000E+00 0. -1.
</event>
<event>
 7    1  0.3265282E-009  0.9381257E+02  0.7561462E-02  0.1293873E+00
          2   -1    0    0  501    0  0.00000000000E+00  0.00000000000E+00  0.45671785239E+03  0.45671785239E+03  0.00000000000E+00 0. -1.
         -2   -1    0    0    0  501 -0.00000000000E+00 -0.00000000000E+00 -0.30298313209E+02  0.30298313209E+02  0.00000000000E+00 0.  1.
         25    2    1    2    0    0  0.39435625202E+02 -0.22635853045E+02  0.26497918452E+03  0.29652813964E+03  0.12508964381E+03 0.  0.
          5    1    3    3  502    0  0.11976414630E+02 -0.60289673223E+02  0.22999993251E+03  0.23810863185E+03  0.41800000000E+01 0.  1.
         -5    1    3    3    0  502  0.27459210572E+02  0.37653820178E+02  0.34979252006E+02  0.58419507787E+02  0.41800000000E+01 0.  1.
        -11    1    1    2    0    0  0.65860940220E+01 -0.17162182743E+02  0.10786110931E+03  0.10941634271E+03  0.00000000000E+00 0. -1.
         11    1    1    2    0    0 -0.46021719224E+02  0.39798035788E+02  0.53579245358E+02  0.81071683257E+02  0.00000000000E+00 0.  1.
</event>
<event>
 7    1  0.3265282E-009  0.9668551E+02  0.7561462E-02  0.1287424E+00
         -1   -1    0    0    0  501 -0.00000000000E+00  0.00000000000E+00  0.44135272456E+02  0.44135272456E+02  0.00000000000E+00 0.  1.
          1   -1    0    0  501    0  0.00000000000E+00 -0.00000000000E+00 -0.30448434892E+03  0.30448434892E+03  0.00000000000E+00 0. -1.
         25    2    1    2    0    0 -0.25349840803E+02  0.34955501172E+02 -0.15265823869E+03  0.20202992301E+03  0.12508817076E+03 0.  0.
          5    1    3    3  502    0 -0.67544163946E+02 -0.84126075091E+01 -0.10355850334E+03  0.12399525016E+03  0.41800000000E+01 0. -1.
         -5    1    3    3    0  502  0.42194323143E+02  0.43368108681E+02 -0.49099735343E+02  0.78034672851E+02  0.41800000000E+01 0. -1.
        -11    1    1    2    0    0  0.61865051632E+01 -0.43216431821E+02 -0.11614132637E+03  0.12407554359E+03  0.00000000000E+00 0. -1.
         11    1    1    2    0    0  0.19163335640E+02  0.82609306492E+01  0.84504885883E+01  0.22514154779E+02  0.00000000000E+00 0.  1.
</event>
<event>
 7    1  0.3265282E-009  0.1296299E+03  0.7561462E-02  0.1228006E+00
         -2   -1    0    0    0  501 -0.00000000000E+00  0.00000000000E+00  0.87385255388E+02  0.87385255388E+02  0.00000000000E+00 0.  1.
          2   -1    0    0  501    0  0.00000000000E+00 -0.00000000000E+00 -0.22396432108E+03  0.22396432108E+03  0.00000000000E+00 0. -1.
         25    2    1    2    0    0  0.92539544433E+01  0.77133507405E+02 -0.24733869828E+02  0.14931013350E+03  0.12508612238E+03 0.  0.
          5    1    3    3  502    0  0.28660850302E+02  0.10686053010E+03 -0.25254693405E+02  0.11356006857E+03  0.41800000000E+01 0. -1.
         -5    1    3    3    0  502 -0.19406895859E+02 -0.29727022698E+02  0.52082357694E+00  0.35750064931E+02  0.41800000000E+01 0. -1.
        -11    1    1    2    0    0 -0.18632295237E+02  0.12652894368E+02 -0.42883356040E+02  0.48438005605E+02  0.00000000000E+00 0. -1.
         11    1    1    2    0    0  0.93783407938E+01 -0.89786401773E+02 -0.68961839824E+02  0.11360143736E+03  0.00000000000E+00 0.  1.
</event>
<event>
 7    1  0.3265282E-009  0.1122395E+03  0.7561462E-02  0.1256478E+00
          2   -1    0    0  501    0  0.00000000000E+00  0.00000000000E+00  0.98295912214E+02  0.98295912214E+02  0.00000000000E+00 0. -1.
         -2   -1    0    0    0  501 -0.00000000000E+00 -0.00000000000E+00 -0.16897658690E+03  0.16897658690E+03  0.00000000000E+00 0.  1.
         25    2    1    2    0    0  0.10121133419E+02  0.67337079678E+02 -0.56637192194E+02  0.15326989896E+03  0.12508865154E+03 0.  0.
          5    1    3    3  502    0  0.57678633674E+02  0.73911514127E+02 -0.32049373186E+02  0.99168399325E+02  0.41800000000E+01 0.  1.
         -5    1    3    3    0  502 -0.47557500255E+02 -0.65744344493E+01 -0.24587819008E+02  0.54101499632E+02  0.41800000000E+01 0.  1.
        -11    1    1    2    0    0  0.10477932303E+02  0.15027928114E+01  0.28565430759E+02  0.30463573101E+02  0.00000000000E+00 0. -1.
         11    1    1    2    0    0 -0.20599065722E+02 -0.68839872489E+02 -0.42608913247E+02  0.83539027053E+02  0.00000000000E+00 0.  1.
</event>
<event>
 7    1  0.3265282E-009  0.1078889E+03  0.7561462E-02  0.1264530E+00
         -1   -1    0    0    0  501 -0.00000000000E+00  0.00000000000E+00  0.24958213011E+02  0.24958213011E+02  0.00000000000E+00 0.  1.
          1   -1    0    0  501    0  0.00000000000E+00 -0.00000000000E+00 -0.77639806296E+03  0.77639806296E+03  0.00000000000E+00 0. -1.
         25    2    1    2    0    0 -0.37537772885E+00 -0.66937717485E+02 -0.25121646482E+03  0.28851066401E+03  0.12509153495E+03 0.  0.
          5    1    3    3  502    0  0.39027382689E+02 -0.45305601584E+02 -0.23170002767E+03  0.23932845497E+03  0.41800000000E+01 0. -1.
         -5    1    3    3    0  502 -0.39402760418E+02 -0.21632115901E+02 -0.19516437153E+02  0.49182209040E+02  0.41800000000E+01 0. -1.
        -11    1    1    2    0    0  0.27527547533E+02  0.76969628304E+02 -0.41079803179E+03  0.41885213677E+03  0.00000000000E+00 0. -1.
         11    1    1    2    0    0 -0.27152169804E+02 -0.10031910819E+02 -0.89425353334E+02  0.93993475192E+02  0.00000000000E+00 0.  1.
</event>
<event>
 7    1  0.3265282E-009  0.3347362E+03  0.7561462E-02  0.1069060E+00
         -1   -1    0    0    0  501 -0.00000000000E+00  0.00000000000E+00  0.41695600790E+03  0.41695600790E+03  0.00000000000E+00 0.  1.
          1   -1    0    0  501    0  0.00000000000E+00 -0.00000000000E+00 -0.30837836092E+03  0.30837836092E+03  0.00000000000E+00 0. -1.
         25    2    1    2    0    0  0.54335661237E+02  0.31526608729E+03 -0.65698443671E+02  0.34972283851E+03  0.12507880876E+03 0.  0.
          5    1    3    3  502    0 -0.33643698550E+02  0.15675126807E+03 -0.13113356065E+02  0.16091081692E+03  0.41800000000E+01 0. -1.
         -5    1    3    3    0  502  0.87979359786E+02  0.15851481922E+03 -0.52585087606E+02  0.18881202159E+03  0.41800000000E+01 0. -1.
        -11    1    1    2    0    0 -0.62338104108E+02 -0.15190992935E+03  0.54938879599E+02  0.17315006887E+03  0.00000000000E+00 0.  1.
         11    1    1    2    0    0  0.80024428708E+01 -0.16335615794E+03  0.11933721105E+03  0.20246146144E+03  0.00000000000E+00 0. -1.
</event>
<event>
 7    1  0.3265282E-009  0.1288271E+03  0.7561462E-02  0.1229206E+00
          2   -1    0    0  501    0  0.00000000000E+00  0.00000000000E+00  0.64267742669E+03  0.64267742669E+03  0.00000000000E+00 0. -1.
         -2   -1    0    0    0  501 -0.00000000000E+00 -0.00000000000E+00 -0.27254308690E+02  0.27254308690E+02  0.00000000000E+00 0.  1.
         25    2    1    2    0    0  0.11788232756E+02  0.71165829191E+02  0.27889656326E+03  0.31405701541E+03  0.12507988750E+03 0.  0.
          5    1    3    3  502    0  0.26342841195E+02 -0.29799429710E+02  0.10564597096E+03  0.11296236043E+03  0.41800000000E+01 0.  1.
         -5    1    3    3    0  502 -0.14554608439E+02  0.10096525890E+03  0.17325059230E+03  0.20109465499E+03  0.41800000000E+01 0.  1.
        -11    1    1    2    0    0 -0.47067259857E+02 -0.15294995946E+02  0.13444816251E+03  0.14326748498E+03  0.00000000000E+00 0.  1.
         11    1    1    2    0    0  0.35279027100E+02 -0.55870833245E+02  0.20207839223E+03  0.21260723499E+03  0.00000000000E+00 0. -1.
</event>
<event>
 7    1  0.3265282E-009  0.2617129E+03  0.7561462E-02  0.1106118E+00
         -2   -1    0    0    0  501 -0.00000000000E+00  0.00000000000E+00  0.10265144616E+03  0.10265144616E+03  0.00000000000E+00 0.  1.
          2   -1    0    0  501    0  0.00000000000E+00 -0.00000000000E+00 -0.79471844456E+03  0.79471844456E+03  0.00000000000E+00 0. -1.
         25    2    1    2    0    0  0.17184113147E+03  0.17204201687E+03 -0.53003464806E+03  0.59641598991E+03  0.12508986710E+03 0.  0.
          5    1    3    3  502    0  0.16395026690E+03  0.82867241545E+02 -0.36297947202E+03  0.40683932854E+03  0.41800000000E+01 0. -1.
         -5    1    3    3    0  502  0.78908645688E+01  0.89174775322E+02 -0.16705517604E+03  0.18957666138E+03  0.41800000000E+01 0. -1.
        -11    1    1    2    0    0 -0.17245182451E+03 -0.15162768777E+03 -0.13271547749E+03  0.26522440582E+03  0.00000000000E+00 0.  1.
         11    1    1    2    0    0  0.61069304007E+00 -0.20414329093E+02 -0.29316872845E+02  0.35729494983E+02  0.00000000000E+00 0. -1.
</event>
<event>
 7    1  0.3265282E-009  0.1072648E+03  0.7561462E-02  0.1265720E+00
          1   -1    0    0  501    0  0.00000000000E+00  0.00000000000E+00  0.45241186528E+03  0.45241186528E+03  0.00000000000E+00 0. -1.
         -1   -1    0    0    0  501 -0.00000000000E+00 -0.00000000000E+00 -0.37592675459E+02  0.37592675459E+02  0.00000000000E+00 0.  1.
         25    2    1    2    0    0  0.21685511830E+02 -0.63740725706E+01  0.35702550081E+03  0.37898061505E+03  0.12509279806E+03 0.  0.
          5    1    3    3  502    0 -0.48559999435E+02 -0.77758426564E+01  0.21344103964E+03  0.21907324591E+03  0.41800000000E+01 0.  1.
         -5    1    3    3    0  502  0.70245511265E+02  0.14017700858E+01  0.14358446117E+03  0.15990736913E+03  0.41800000000E+01 0.  1.
        -11    1    1    2    0    0 -0.53768791373E+02  0.23202115449E+02  0.36290690716E+02  0.68894377998E+02  0.00000000000E+00 0. -1.
         11    1    1    2    0    0  0.32083279543E+02 -0.16828042879E+02  0.21502998297E+02  0.42129547696E+02  0.00000000000E+00 0.  1.
</event>
<event>
 7    1  0.3265282E-009  0.9777822E+02  0.7561462E-02  0.1285039E+00
         -1   -1    0    0    0  501 -0.00000000000E+00  0.00000000000E+00  0.46098061671E+03  0.46098061671E+03  0.00000000000E+00 0.  1.
          1   -1    0    0  501    0  0.00000000000E+00 -0.00000000000E+00 -0.25673147740E+02  0.25673147740E+02  0.00000000000E+00 0. -1.
         25    2    1    2    0    0  0.15699491436E+02 -0.10353887541E+02  0.22879903671E+03  0.26143793108E+03  0.12508843107E+03 0.  0.
          5    1    3    3  502    0  0.59106793321E+02 -0.17312337695E+02  0.19851445175E+03  0.20789129373E+03  0.41800000000E+01 0. -1.
         -5    1    3    3    0  502 -0.43407301884E+02  0.69584501541E+01  0.30284584954E+02  0.53546637348E+02  0.41800000000E+01 0. -1.
        -11    1    1    2    0    0  0.13725418687E+02  0.43340275762E+02  0.97113397450E+02  0.10722769505E+03  0.00000000000E+00 0. -1.
         11    1    1    2    0    0 -0.29424910123E+02 -0.32986388221E+02  0.10939503481E+03  0.11798813832E+03  0.00000000000E+00 0.  1.
</event>
<event>
 7    1  0.3265282E-009  0.5997710E+02  0.7561462E-02  0.1397928E+00
         -1   -1    0    0    0  501 -0.00000000000E+00  0.00000000000E+00  0.16472550880E+02  0.16472550880E+02  0.00000000000E+00 0.  1.
          1   -1    0    0  501    0  0.00000000000E+00 -0.00000000000E+00 -0.90234016204E+03  0.90234016204E+03  0.00000000000E+00 0. -1.
         25    2    1    2    0    0  0.19038112525E+02 -0.88852059912E+01 -0.75799691912E+03  0.76853607707E+03  0.12508787212E+03 0.  0.
          5    1    3    3  502    0  0.19874734673E+02  0.13508638975E+02 -0.24114534254E+02  0.34299731305E+02  0.41800000000E+01 0. -1.
         -5    1    3    3    0  502 -0.83662214807E+00 -0.22393844967E+02 -0.73388238487E+03  0.73423634577E+03  0.41800000000E+01 0. -1.
        -11    1    1    2    0    0 -0.14412280573E+02 -0.30171350555E+02 -0.30479750166E+02  0.45244219474E+02  0.00000000000E+00 0.  1.
         11    1    1    2    0    0 -0.46258319518E+01  0.39056556546E+02 -0.97390941877E+02  0.10503241638E+03  0.00000000000E+00 0. -1.
</event>
<event>
 7    1  0.3265282E-009  0.9583298E+02  0.7561462E-02  0.1289311E+00
         -1   -1    0    0    0  501 -0.00000000000E+00  0.00000000000E+00  0.15363130239E+03  0.15363130239E+03  0.00000000000E+00 0.  1.
          1   -1    0    0  501    0  0.00000000000E+00 -0.00000000000E+00 -0.11290002313E+03  0.11290002313E+03  0.00000000000E+00 0. -1.
         25    2    1    2    0    0  0.45555895848E+02  0.49639338729E+02 -0.26786532118E+01  0.14210604186E+03  0.12509016090E+03 0.  0.
          5    1    3    3  502    0 -0.26559132377E+02  0.11365136748E+02 -0.42194546177E+02  0.51306977820E+02  0.41800000000E+01 0.  1.
         -5    1    3    3    0  502  0.72115028226E+02  0.38274201981E+02  0.39515892965E+02  0.90799064038E+02  0.41800000000E+01 0.  1.
        -11    1    1    2    0    0 -0.38800108237E+02 -0.58122017350E+02 -0.94010817390E+01  0.70512393505E+02  0.00000000000E+00 0. -1.
         11    1    1    2    0    0 -0.67557876113E+01  0.84826786203E+01  0.52811014215E+02  0.53912890158E+02  0.00000000000E+00 0.  1.
</event>
<event>
 7    1  0.3265282E-009  0.7014122E+02  0.7561462E-02  0.1359613E+00
          2   -1    0    0  501    0  0.00000000000E+00  0.00000000000E+00  0.91319737329E+03  0.91319737329E+03  0.00000000000E+00 0.  1.
         -2   -1    0    0    0  501 -0.00000000000E+00 -0.00000000000E+00 -0.13962767892E+02  0.13962767892E+02  0.00000000000E+00 0. -1.
         25    2    1    2    0    0 -0.11463982292E+02 -0.35902289790E+02  0.62917153435E+03  0.64259234004E+03  0.12509076120E+03 0.  0.
          5    1    3    3  502    0 -0.20152687075E+02 -0.36790306713E+02  0.59947533003E+02  0.73285991687E+02  0.41800000000E+01 0.  1.
         -5    1    3    3    0  502  0.86887047822E+01  0.88801692286E+00  0.56922400135E+03  0.56930634836E+03  0.41800000000E+01 0.  1.
        -11    1    1    2    0    0 -0.87882813077E+01  0.57888312828E+02  0.15515633502E+03  0.16583660316E+03  0.00000000000E+00 0.  1.
         11    1    1    2    0    0  0.20252263600E+02 -0.21986023037E+02  0.11490673602E+03  0.11873119797E+03  0.00000000000E+00 0. -1.
</event>
<event>
 7    1  0.3265282E-009  0.1028915E+03  0.7561462E-02  0.1274330E+00
          1   -1    0    0  501    0  0.00000000000E+00  0.00000000000E+00  0.40330693664E+03  0.40330693664E+03  0.00000000000E+00 0. -1.
         -1   -1    0    0    0  501 -0.00000000000E+00 -0.00000000000E+00 -0.36270055846E+02  0.36270055846E+02  0.00000000000E+00 0.  1.
         25    2    1    2    0    0  0.11585418486E+01  0.53072156314E+02  0.18845236602E+03  0.23233985146E+03  0.12509802685E+03 0.  0.
          5    1    3    3  502    0 -0.47777157622E+02 -0.10436012077E+02  0.39004662754E+02  0.62692928270E+02  0.41800000000E+01 0.  1.
         -5    1    3    3    0  502  0.48935699471E+02  0.63508168391E+02  0.14944770327E+03  0.16964692319E+03  0.41800000000E+01 0.  1.
        -11    1    1    2    0    0  0.26886646007E+02 -0.27599049299E+02  0.18520819513E+02  0.42750672640E+02  0.00000000000E+00 0.  1.
         11    1    1    2    0    0 -0.28045187856E+02 -0.25473107015E+02  0.16006369526E+03  0.16448646839E+03  0.00000000000E+00 0. -1.
</event>
<event>
 7    1  0.3265282E-009  0.1092581E+03  0.7561462E-02  0.1261950E+00
         -1   -1    0    0    0  501 -0.00000000000E+00  0.00000000000E+00  0.29417007818E+02  0.29417007818E+02  0.00000000000E+00 0.  1.
          1   -1    0    0  501    0  0.00000000000E+00 -0.00000000000E+00 -0.55503000696E+03  0.55503000696E+03  0.00000000000E+00 0. -1.
         25    2    1    2    0    0 -0.41524952026E+02  0.45880057113E+02 -0.23720559551E+03  0.27521236527E+03  0.12508417234E+03 0.  0.
          5    1    3    3  502    0 -0.67140346754E+02  0.15942378153E+02 -0.53868954227E+02  0.87643152687E+02  0.41800000000E+01 0.  1.
         -5    1    3    3    0  502  0.25615394728E+02  0.29937678960E+02 -0.18333664129E+03  0.18756921258E+03  0.41800000000E+01 0.  1.
        -11    1    1    2    0    0 -0.19002227954E+02 -0.45416850251E+02 -0.10227015569E+03  0.11350312639E+03  0.00000000000E+00 0.  1.
         11    1    1    2    0    0  0.60527179980E+02 -0.46320686270E+00 -0.18613724793E+03  0.19573152312E+03  0.00000000000E+00 0. -1.
</event>
<event>
 7    1  0.3265282E-009  0.2047952E+03  0.7561462E-02  0.1145755E+00
          2   -1    0    0  501    0  0.00000000000E+00  0.00000000000E+00  0.66570063299E+03  0.66570063299E+03  0.00000000000E+00 0. -1.
         -2   -1    0    0    0  501 -0.00000000000E+00 -0.00000000000E+00 -0.10846912095E+03  0.10846912095E+03  0.00000000000E+00 0.  1.
         25    2    1    2    0    0  0.16558845395E+03 -0.68224829425E+02  0.43755840214E+02  0.22278999714E+03  0.12508655339E+03 0.  0.
          5    1    3    3  502    0  0.10609947076E+03  0.14411909603E+02 -0.99143399196E+01  0.10761304461E+03  0.41800000000E+01 0.  1.
         -5    1    3    3    0  502  0.59488983196E+02 -0.82636739028E+02  0.53670180133E+02  0.11517695253E+03  0.41800000000E+01 0.  1.
        -11    1    1    2    0    0 -0.55326710791E+02 -0.20497929375E+02  0.13608816617E+03  0.14832801153E+03  0.00000000000E+00 0.  1.
         11    1    1    2    0    0 -0.11026174316E+03  0.88722758800E+02  0.37738750566E+03  0.40305174526E+03  0.00000000000E+00 0. -1.
</event>
<event>
 7    1  0.3265282E-009  0.6674356E+02  0.7561462E-02  0.1371530E+00
          4   -1    0    0  501    0  0.00000000000E+00  0.00000000000E+00  0.11619682798E+03  0.11619682798E+03  0.00000000000E+00 0. -1.
         -4   -1    0    0    0  501 -0.00000000000E+00 -0.00000000000E+00 -0.15440319045E+03  0.15440319045E+03  0.00000000000E+00 0.  1.
         25    2    1    2    0    0  0.51889996987E+02 -0.31439211743E+02  0.23238104279E+02  0.14095461650E+03  0.12508876288E+03 0.  0.
          5    1    3    3  502    0  0.41298010436E+02 -0.35636887714E+02  0.72157606496E+02  0.90552228063E+02  0.41800000000E+01 0. -1.
         -5    1    3    3    0  502  0.10591986551E+02  0.41976759712E+01 -0.48919502217E+02  0.50402388434E+02  0.41800000000E+01 0. -1.
        -11    1    1    2    0    0 -0.40215121450E+02  0.87941468671E+01  0.18944753202E+02  0.45315523678E+02  0.00000000000E+00 0. -1.
         11    1    1    2    0    0 -0.11674875537E+02  0.22645064876E+02 -0.80389219950E+02  0.84329878253E+02  0.00000000000E+00 0.  1.
</event>
<event>
 7    1  0.3265282E-009  0.1014489E+03  0.7561462E-02  0.1277278E+00
         -2   -1    0    0    0  501 -0.00000000000E+00  0.00000000000E+00  0.11753493443E+03  0.11753493443E+03  0.00000000000E+00 0.  1.
          2   -1    0    0  501    0  0.00000000000E+00 -0.00000000000E+00 -0.11254790939E+03  0.11254790939E+03  0.00000000000E+00 0. -1.
         25    2    1    2    0    0 -0.40631736336E+01 -0.40898503986E+02 -0.49956720661E+00  0.13167266832E+03  0.12509294547E+03 0.  0.
          5    1    3    3  502    0  0.53916968059E+02 -0.79165714517E+01  0.25047318255E+02  0.60121145198E+02  0.41800000000E+01 0.  1.
         -5    1    3    3    0  502 -0.57980141692E+02 -0.32981932535E+02 -0.25546885462E+02  0.71551523123E+02  0.41800000000E+01 0.  1.
        -11    1    1    2    0    0  0.37171386835E+02  0.23879991280E+02 -0.24580167038E+02  0.50558387973E+02  0.00000000000E+00 0. -1.
         11    1    1    2    0    0 -0.33108213202E+02  0.17018512706E+02  0.30066759275E+02  0.47851787526E+02  0.00000000000E+00 0.  1.
</event>
<event>
 7    1  0.3265282E-009  0.1475410E+03  0.7561462E-02  0.1203528E+00
          2   -1    0    0  501    0  0.00000000000E+00  0.00000000000E+00  0.16611481734E+03  0.16611481734E+03  0.00000000000E+00 0.  1.
         -2   -1    0    0    0  501 -0.00000000000E+00 -0.00000000000E+00 -0.18579065726E+03  0.18579065726E+03  0.00000000000E+00 0. -1.
         25    2    1    2    0    0 -0.11375114756E+03  0.25447408779E+02 -0.82736842570E+02  0.18994963798E+03  0.12509430709E+03 0.  0.
          5    1    3    3  502    0 -0.10197478126E+03 -0.34734639969E+02 -0.39575879043E+02  0.11484369303E+03  0.41800000000E+01 0.  1.
         -5    1    3    3    0  502 -0.11776366303E+02  0.60182048747E+02 -0.43160963527E+02  0.75105944953E+02  0.41800000000E+01 0.  1.
        -11    1    1    2    0    0  0.10618797164E+03 -0.36611626684E+02  0.81741183170E+02  0.13891694481E+03  0.00000000000E+00 0.  1.
         11    1    1    2    0    0  0.75631759181E+01  0.11164217905E+02 -0.18680180525E+02  0.23038891811E+02  0.00000000000E+00 0. -1.
</event>
<event>
 7    1  0.4581304E-009  0.1620838E+03  0.7561462E-02  0.1186364E+00
          2   -1    0    0  501    0  0.00000000000E+00  0.00000000000E+00  0.50520798101E+03  0.50520798101E+03  0.00000000000E+00 0. -1.
         -2   -1    0    0    0  501 -0.00000000000E+00 -0.00000000000E+00 -0.70857206675E+02  0.70857206675E+02  0.00000000000E+00 0.  1.
         25    2    1    2    0    0 -0.10451471555E+03  0.10306544988E+03  0.30262222965E+03  0.35885091882E+03  0.12509178764E+03 0.  0.
          5    1    3    3  502    0 -0.12355180773E+03  0.95568415820E+02  0.29939858933E+03  0.33772082996E+03  0.41800000000E+01 0. -1.
         -5    1    3    3    0  502  0.19037092181E+02  0.74970340586E+01  0.32236403212E+01  0.21130088862E+02  0.41800000000E+01 0. -1.
        -11    1    1    2    0    0  0.34101833386E+02 -0.39317997693E+02  0.10712132413E+03  0.11909583564E+03  0.00000000000E+00 0. -1.
         11    1    1    2    0    0  0.70412882162E+02 -0.63747452185E+02  0.24607220546E+02  0.98118433220E+02  0.00000000000E+00 0.  1.
</event>
<event>
 7    1  0.3265282E-009  0.1610919E+03  0.7561462E-02  0.1187469E+00
         -2   -1    0    0    0  501 -0.00000000000E+00  0.00000000000E+00  0.69839168249E+02  0.69839168249E+02  0.00000000000E+00 0.  1.
          2   -1    0    0  501    0  0.00000000000E+00 -0.00000000000E+00 -0.51772084238E+03  0.51772084238E+03  0.00000000000E+00 0. -1.
         25    2    1    2    0    0  0.13655298165E+03  0.71670284493E+02 -0.26324517668E+03  0.32974114885E+03  0.12509138948E+03 0.  0.
          5    1    3    3  502    0  0.11321182807E+03  0.26050155473E+02 -0.84403631607E+02  0.14365574838E+03  0.41800000000E+01 0.  1.
         -5    1    3    3    0  502  0.23341153576E+02  0.45620129020E+02 -0.17884154507E+03  0.18608540046E+03  0.41800000000E+01 0.  1.
        -11    1    1    2    0    0 -0.46252149670E+02 -0.19146779963E+02 -0.53838626171E+01  0.50347259198E+02  0.00000000000E+00 0.  1.
         11    1    1    2    0    0 -0.90300831977E+02 -0.52523504530E+02 -0.17925263484E+03  0.20747160259E+03  0.00000000000E+00 0. -1.
</event>
<event>
 7    1  0.3265282E-009  0.1465194E+03  0.7561462E-02  0.1204816E+00
         -3   -1    0    0    0  501 -0.00000000000E+00  0.00000000000E+00  0.19070292612E+03  0.19070292612E+03  0.00000000000E+00 0.  1.
          3   -1    0    0  501    0  0.00000000000E+00 -0.00000000000E+00 -0.15727279683E+03  0.15727279683E+03  0.00000000000E+00 0. -1.
         25    2    1    2    0    0 -0.10244977730E+03  0.35809068630E+02  0.97703838662E+02  0.19228077592E+03  0.12509040904E+03 0.  0.
          5    1    3    3  502    0 -0.24619648677E+02 -0.37177870424E+02  0.68039061014E+02  0.81456168422E+02  0.41800000000E+01 0.  1.
         -5    1    3    3    0  502 -0.77830128623E+02  0.72986939054E+02  0.29664777648E+02  0.11082460750E+03  0.41800000000E+01 0.  1.
        -11    1    1    2    0    0  0.33150236556E+02  0.30873590925E+02 -0.25642543062E+02  0.52054364034E+02  0.00000000000E+00 0.  1.
         11    1    1    2    0    0  0.69299540744E+02 -0.66682659555E+02 -0.38631166318E+02  0.10364058300E+03  0.00000000000E+00 0. -1.
</event>
<event>
 7    1  0.3265282E-009  0.1159939E+03  0.7561462E-02  0.1249856E+00
         -3   -1    0    0    0  501 -0.00000000000E+00  0.00000000000E+00  0.37457398639E+03  0.37457398639E+03  0.00000000000E+00 0.  1.
          3   -1    0    0  501    0  0.00000000000E+00 -0.00000000000E+00 -0.48211369954E+02  0.48211369954E+02  0.00000000000E+00 0. -1.
         25    2    1    2    0    0 -0.67137277226E+02 -0.42058242740E+02  0.20308967373E+03  0.25133797819E+03  0.12509617871E+03 0.  0.
          5    1    3    3  502    0 -0.41822301040E+02 -0.86733083228E+02  0.12648543875E+03  0.15902129167E+03  0.41800000000E+01 0.  1.
         -5    1    3    3    0  502 -0.25314976186E+02  0.44674840488E+02  0.76604234985E+02  0.92316686517E+02  0.41800000000E+01 0.  1.
        -11    1    1    2    0    0  0.38856888453E+02  0.39949525387E+02  0.12516782461E+02  0.57118230033E+02  0.00000000000E+00 0. -1.
         11    1    1    2    0    0  0.28280388773E+02  0.21087173528E+01  0.11075616024E+03  0.11432914812E+03  0.00000000000E+00 0.  1.
</event>
<event>
 7    1  0.3265282E-009  0.1119236E+03  0.7561462E-02  0.1257049E+00
         -2   -1    0    0    0  501 -0.00000000000E+00  0.00000000000E+00  0.10064605046E+02  0.10064605046E+02  0.00000000000E+00 0.  1.
          2   -1    0    0  501    0  0.00000000000E+00 -0.00000000000E+00 -0.14960513412E+04  0.14960513412E+04  0.00000000000E+00 0. -1.
         25    2    1    2    0    0  0.92112502450E+01 -0.35691481926E+02 -0.10776407134E+04  0.10855023094E+04  0.12508807872E+03 0.  0.
          5    1    3    3  502    0  0.16649339558E+02  0.42640697125E+02 -0.56190957675E+03  0.56378655040E+03  0.41800000000E+01 0.  1.
         -5    1    3    3    0  502 -0.74380893130E+01 -0.78332179051E+02 -0.51573113667E+03  0.52171575899E+03  0.41800000000E+01 0.  1.
        -11    1    1    2    0    0  0.32199858911E+02  0.46244675900E+02 -0.19252163663E+03  0.20059905667E+03  0.00000000000E+00 0. -1.
         11    1    1    2    0    0 -0.41411109156E+02 -0.10553193974E+02 -0.21582438612E+03  0.22001458022E+03  0.00000000000E+00 0.  1.
</event>
<event>
 7    1  0.3265282E-009  0.7817980E+02  0.7561462E-02  0.1334298E+00
          1   -1    0    0  501    0  0.00000000000E+00  0.00000000000E+00  0.14948157990E+03  0.14948157990E+03  0.00000000000E+00 0. -1.
         -1   -1    0    0    0  501 -0.00000000000E+00 -0.00000000000E+00 -0.12045371306E+03  0.12045371306E+03  0.00000000000E+00 0.  1.
         25    2    1    2    0    0 -0.27995138158E+02 -0.23522372746E+02  0.84735022080E+02  0.15544771542E+03  0.12508772315E+03 0.  0.
          5    1    3    3  502    0  0.13096027023E+02 -0.17368084548E+02  0.10620658412E+03  0.10849178400E+03  0.41800000000E+01 0. -1.
         -5    1    3    3    0  502 -0.41091165181E+02 -0.61542881979E+01 -0.21471562039E+02  0.46955931421E+02  0.41800000000E+01 0. -1.
        -11    1    1    2    0    0 -0.19795022083E+02 -0.19762735233E+02  0.18825549788E+01  0.28034846466E+02  0.00000000000E+00 0. -1.
         11    1    1    2    0    0  0.47790160241E+02  0.43285107978E+02 -0.57589710220E+02  0.86452731083E+02  0.00000000000E+00 0.  1.
</event>
<event>
 7    1  0.3265282E-009  0.1186553E+03  0.7561462E-02  0.1245332E+00
         -1   -1    0    0    0  501 -0.00000000000E+00  0.00000000000E+00  0.24336515367E+03  0.24336515367E+03  0.00000000000E+00 0.  1.
          1   -1    0    0  501    0  0.00000000000E+00 -0.00000000000E+00 -0.98586969634E+02  0.98586969634E+02  0.00000000000E+00 0. -1.
         25    2    1    2    0    0  0.10350636390E+03  0.37166803634E+02  0.80035830027E+02  0.18479001112E+03  0.12508667180E+03 0.  0.
          5    1    3    3  502    0  0.97279451468E+02  0.52233691356E+02  0.79666343535E+01  0.11078172166E+03  0.41800000000E+01 0. -1.
         -5    1    3    3    0  502  0.62269124337E+01 -0.15066887722E+02  0.72069195674E+02  0.74008289462E+02  0.41800000000E+01 0. -1.
        -11    1    1    2    0    0 -0.63681532582E+02 -0.23567629260E+02  0.86354765308E+02  0.10985406789E+03  0.00000000000E+00 0.  1.
         11    1    1    2    0    0 -0.39824831320E+02 -0.13599174374E+02 -0.21612411293E+02  0.47308044297E+02  0.00000000000E+00 0. -1.
</event>
<event>
 7    1  0.3265282E-009  0.5676486E+02  0.7561462E-02  0.1411932E+00
         -1   -1    0    0    0  501 -0.00000000000E+00  0.00000000000E+00  0.33594357362E+03  0.33594357362E+03  0.00000000000E+00 0.  1.
          1   -1    0    0  501    0  0.00000000000E+00 -0.00000000000E+00 -0.38872233546E+02  0.38872233546E+02  0.00000000000E+00 0. -1.
         25    2    1    2    0    0  0.25803022257E+02 -0.97462817948E+01  0.22665755830E+03  0.26035092346E+03  0.12509264025E+03 0.  0.
          5    1    3    3  502    0  0.25489635842E+02  0.10542614263E+02  0.23598659236E+03  0.23762999058E+03  0.41800000000E+01 0.  1.
         -5    1    3    3    0  502  0.31338641512E+00 -0.20288896058E+02 -0.93290340586E+01  0.22720932876E+02  0.41800000000E+01 0.  1.
        -11    1    1    2    0    0 -0.44317059732E+02  0.73542253986E+00  0.35072864929E+01  0.44461710360E+02  0.00000000000E+00 0. -1.
         11    1    1    2    0    0  0.18514037475E+02  0.90108592550E+01  0.66906495282E+02  0.70003173350E+02  0.00000000000E+00 0.  1.
</event>
<event>
 7    1  0.3265282E-009  0.1235291E+03  0.7561462E-02  0.1237386E+00
         -2   -1    0    0    0  501 -0.00000000000E+00  0.00000000000E+00  0.49638883408E+02  0.49638883408E+02  0.00000000000E+00 0.  1.
          2   -1    0    0  501    0  0.00000000000E+00 -0.00000000000E+00 -0.40941372339E+03  0.40941372339E+03  0.00000000000E+00 0. -1.
         25    2    1    2    0    0  0.75741840340E+02  0.48176697150E+02 -0.16146547392E+03  0.22310599934E+03  0.12508943658E+03 0.  0.
          5    1    3    3  502    0 -0.10116737254E+02  0.35420593649E+02 -0.12228310714E+03  0.12777948786E+03  0.41800000000E+01 0.  1.
         -5    1    3    3    0  502  0.85858577594E+02  0.12756103501E+02 -0.39182366788E+02  0.95326511476E+02  0.41800000000E+01 0.  1.
        -11    1    1    2    0    0 -0.93868736283E+02 -0.46842207982E+02 -0.18735061696E+03  0.21472257864E+03  0.00000000000E+00 0. -1.
         11    1    1    2    0    0  0.18126895943E+02 -0.13344891680E+01 -0.10958749099E+02  0.21224028828E+02  0.00000000000E+00 0.  1.
</event>
<event>
 7    1  0.3265282E-009  0.2512691E+03  0.7561462E-02  0.1112505E+00
          1   -1    0    0  501    0  0.00000000000E+00  0.00000000000E+00  0.50982881396E+03  0.50982881396E+03  0.00000000000E+00 0. -1.
         -1   -1    0    0    0  501 -0.00000000000E+00 -0.00000000000E+00 -0.13316294170E+03  0.13316294170E+03  0.00000000000E+00 0.  1.
         25    2    1    2    0    0 -0.22911279146E+03 -0.44739207518E+02  0.23855457865E+03  0.35644252184E+03  0.12509482995E+03 0.  0.
          5    1    3    3  502    0 -0.71464394023E+02  0.43673232375E+02  0.81967186796E+02  0.11726296496E+03  0.41800000000E+01 0. -1.
         -5    1    3    3    0  502 -0.15764839744E+03 -0.88412439892E+02  0.15658739186E+03  0.23917955688E+03  0.41800000000E+01 0. -1.
        -11    1    1    2    0    0  0.86178309902E+01  0.12297356669E+02 -0.10811501674E+02  0.18503528325E+02  0.00000000000E+00 0.  1.
         11    1    1    2    0    0  0.22049496047E+03  0.32441850849E+02  0.14892279528E+03  0.26804570549E+03  0.00000000000E+00 0. -1.
</event>
<event>
 7    1  0.3265282E-009  0.9495328E+02  0.7561462E-02  0.1291281E+00
         -1   -1    0    0    0  501 -0.00000000000E+00  0.00000000000E+00  0.49275761804E+03  0.49275761804E+03  0.00000000000E+00 0.  1.
          1   -1    0    0  501    0  0.00000000000E+00 -0.00000000000E+00 -0.28367000665E+02  0.28367000665E+02  0.00000000000E+00 0. -1.
         25    2    1    2    0    0  0.43331596153E+02 -0.17484361885E+02  0.20953147787E+03  0.24846372840E+03  0.12508978366E+03 0.  0.
          5    1    3    3  502    0  0.36496010955E+02 -0.56682329257E+02  0.19421209755E+03  0.20562260698E+03  0.41800000000E+01 0.  1.
         -5    1    3    3    0  502  0.68355851975E+01  0.39197967372E+02  0.15319380317E+02  0.42841121418E+02  0.41800000000E+01 0.  1.
        -11    1    1    2    0    0 -0.22396861506E+02  0.43519900779E+02  0.21571732488E+03  0.22120028350E+03  0.00000000000E+00 0.  1.
         11    1    1    2    0    0 -0.20934734647E+02 -0.26035538894E+02  0.39141814622E+02  0.51460606799E+02  0.00000000000E+00 0. -1.
</event>
<event>
 7    1  0.4075834E-009  0.1264971E+03  0.7561462E-02  0.1232748E+00
          2   -1    0    0  501    0  0.00000000000E+00  0.00000000000E+00  0.12768015395E+03  0.12768015395E+03  0.00000000000E+00 0. -1.
         -2   -1    0    0    0  501 -0.00000000000E+00 -0.00000000000E+00 -0.17277352825E+03  0.17277352825E+03  0.00000000000E+00 0.  1.
         25    2    1    2    0    0 -0.33988818067E+02  0.92188158472E+02 -0.45533685806E+00  0.15906699083E+03  0.12509278126E+03 0.  0.
          5    1    3    3  502    0  0.25866082483E+02  0.51722756516E+02 -0.45605243609E+02  0.73767258383E+02  0.41800000000E+01 0.  1.
         -5    1    3    3    0  502 -0.59854900550E+02  0.40465401956E+02  0.45149906751E+02  0.85299732443E+02  0.41800000000E+01 0.  1.
        -11    1    1    2    0    0 -0.13912005407E+02 -0.67182178096E+02 -0.53017847037E+02  0.86705715224E+02  0.00000000000E+00 0.  1.
         11    1    1    2    0    0  0.47900823474E+02 -0.25005980376E+02  0.83798095914E+01  0.54680976151E+02  0.00000000000E+00 0. -1.
</event>
<event>
 7    1  0.3265282E-009  0.1191389E+03  0.7561462E-02  0.1244524E+00
         -1   -1    0    0    0  501 -0.00000000000E+00  0.00000000000E+00  0.15158534520E+03  0.15158534520E+03  0.00000000000E+00 0.  1.
          1   -1    0    0  501    0  0.00000000000E+00 -0.00000000000E+00 -0.25727226705E+03  0.25727226705E+03  0.00000000000E+00 0. -1.
         25    2    1    2    0    0  0.60555622292E+02  0.44504251900E+02  0.95860218533E+02  0.17459794747E+03  0.12509056693E+03 0.  0.
          5    1    3    3  502    0  0.66874440967E+01 -0.40742681502E+02  0.11514850111E+02  0.43066833847E+02  0.41800000000E+01 0.  1.
         -5    1    3    3    0  502  0.53868178195E+02  0.85246933402E+02  0.84345368422E+02  0.13153111362E+03  0.41800000000E+01 0.  1.
        -11    1    1    2    0    0 -0.66360452414E+01  0.14484959340E+02  0.15462665905E+01  0.16007563334E+02  0.00000000000E+00 0.  1.
         11    1    1    2    0    0 -0.53919577050E+02 -0.58989211240E+02 -0.20309340697E+03  0.21825210145E+03  0.00000000000E+00 0. -1.
</event>
<event>
 7    1  0.3265282E-009  0.1761210E+03  0.7561462E-02  0.1171611E+00
          2   -1    0    0  501    0  0.00000000000E+00  0.00000000000E+00  0.89458382775E+03  0.89458382775E+03  0.00000000000E+00 0. -1.
         -2   -1    0    0    0  501 -0.00000000000E+00 -0.00000000000E+00 -0.40053449584E+02  0.40053449584E+02  0.00000000000E+00 0.  1.
         25    2    1    2    0    0 -0.53295484680E+02  0.13822249928E+03  0.56408985571E+03  0.59648188436E+03  0.12508958814E+03 0.  0.
          5    1    3    3  502    0 -0.79577302297E+02  0.14351801658E+03  0.44426078459E+03  0.47361913522E+03  0.41800000000E+01 0.  1.
         -5    1    3    3    0  502  0.26281817617E+02 -0.52955173001E+01  0.11982907112E+03  0.12286274914E+03  0.41800000000E+01 0.  1.
        -11    1    1    2    0    0 -0.11427703091E+02 -0.51423088784E+02  0.16101190617E+03  0.16941003627E+03  0.00000000000E+00 0. -1.
         11    1    1    2    0    0  0.64723187771E+02 -0.86799410493E+02  0.12942861628E+03  0.16874535671E+03  0.00000000000E+00 0.  1.
</event>
<event>
 7    1  0.3265282E-009  0.1106894E+03  0.7561462E-02  0.1259299E+00
          2   -1    0    0  501    0  0.00000000000E+00  0.00000000000E+00  0.51508138998E+03  0.51508138998E+03  0.00000000000E+00 0. -1.
         -2   -1    0    0    0  501 -0.00000000000E+00 -0.00000000000E+00 -0.45954155773E+02  0.45954155773E+02  0.00000000000E+00 0.  1.
         25    2    1    2    0    0  0.66813948179E+02  0.79779042906E+02  0.19643345024E+03  0.25507012575E+03  0.12508344942E+03 0.  0.
          5    1    3    3  502    0  0.49117292522E+02  0.57189302266E+02  0.22568134478E+02  0.78803031745E+02  0.41800000000E+01 0.  1.
         -5    1    3    3    0  502  0.17696655657E+02  0.22589740639E+02  0.17386531577E+03  0.17626709401E+03  0.41800000000E+01 0.  1.
        -11    1    1    2    0    0 -0.37539470714E+02 -0.66729209535E+01  0.23884600528E+02  0.44991264462E+02  0.00000000000E+00 0.  1.
         11    1    1    2    0    0 -0.29274477465E+02 -0.73106121952E+02  0.24880918344E+03  0.26097415554E+03  0.00000000000E+00 0. -1.
</event>
<event>
 7    1  0.3265282E-009  0.7825327E+02  0.7561462E-02  0.1334083E+00
         -2   -1    0    0    0  501 -0.00000000000E+00  0.00000000000E+00  0.14337817206E+03  0.14337817206E+03  0.00000000000E+00 0. -1.
          2   -1    0    0  501    0  0.00000000000E+00 -0.00000000000E+00 -0.84743563663E+02  0.84743563663E+02  0.00000000000E+00 0.  1.
         25    2    1    2    0    0 -0.49659614590E-01 -0.24969583106E+02  0.34155149123E+02  0.13204890742E+03  0.12508739822E+03 0.  0.
          5    1    3    3  502    0 -0.39972664758E+00  0.25517950403E+02  0.66901232750E+02  0.71725678231E+02  0.41800000000E+01 0. -1.
         -5    1    3    3    0  502  0.35006703299E+00 -0.50487533510E+02 -0.32746083627E+02  0.60323229189E+02  0.41800000000E+01 0. -1.
        -11    1    1    2    0    0  0.18341903628E+02 -0.22548573586E+02 -0.13988801465E+02  0.32257559826E+02  0.00000000000E+00 0.  1.
         11    1    1    2    0    0 -0.18292244014E+02  0.47518156693E+02  0.38468260741E+02  0.63815268478E+02  0.00000000000E+00 0. -1.
</event>
<event>
 7    1  0.3265282E-009  0.1707682E+03  0.7561462E-02  0.1177049E+00
         -1   -1    0    0    0  501 -0.00000000000E+00  0.00000000000E+00  0.58684687148E+02  0.58684687148E+02  0.00000000000E+00 0.  1.
          1   -1    0    0  501    0  0.00000000000E+00 -0.00000000000E+00 -0.76903085722E+03  0.76903085722E+03  0.00000000000E+00 0. -1.
         25    2    1    2    0    0 -0.99741793829E+02  0.11858487175E+03 -0.55069717633E+03  0.58559820245E+03  0.12508827862E+03 0.  0.
          5    1    3    3  502    0 -0.67734292458E+02  0.31240908320E+02 -0.41084060988E+03  0.41757802607E+03  0.41800000000E+01 0.  1.
         -5    1    3    3    0  502 -0.32007501371E+02  0.87343963433E+02 -0.13985656645E+03  0.16802017638E+03  0.41800000000E+01 0.  1.
        -11    1    1    2    0    0  0.61398532287E+01 -0.66124960715E+02 -0.27465075408E+02  0.71864724270E+02  0.00000000000E+00 0.  1.
         11    1    1    2    0    0  0.93601940600E+02 -0.52459911038E+02 -0.13218391833E+03  0.17025261765E+03  0.00000000000E+00 0. -1.
</event>
<event>
 7    1  0.3265282E-009  0.1115854E+03  0.7561462E-02  0.1257662E+00
         -2   -1    0    0    0  501 -0.00000000000E+00  0.00000000000E+00  0.21181967135E+03  0.21181967135E+03  0.00000000000E+00 0. -1.
          2   -1    0    0  501    0  0.00000000000E+00 -0.00000000000E+00 -0.78731747492E+02  0.78731747492E+02  0.00000000000E+00 0.  1.
         25    2    1    2    0    0 -0.12922973376E+02 -0.51341992894E+02  0.22671247941E+02  0.13770922592E+03  0.12508733727E+03 0.  0.
          5    1    3    3  502    0 -0.15192198900E+02  0.40021580311E+02  0.16312979246E+02  0.46001255307E+02  0.41800000000E+01 0. -1.
         -5    1    3    3    0  502  0.22692255244E+01 -0.91363573204E+02  0.63582686949E+01  0.91707970613E+02  0.41800000000E+01 0. -1.
        -11    1    1    2    0    0 -0.97776150696E+00  0.67414693195E+02  0.11284671432E+03  0.13145370976E+03  0.00000000000E+00 0. -1.
         11    1    1    2    0    0  0.13900734883E+02 -0.16072700301E+02 -0.24300384068E+01  0.21388483161E+02  0.00000000000E+00 0.  1.
</event>
<event>
 7    1  0.3265282E-009  0.8637964E+02  0.7561462E-02  0.1311864E+00
         -2   -1    0    0    0  501 -0.00000000000E+00  0.00000000000E+00  0.30928949909E+02  0.30928949909E+02  0.00000000000E+00 0.  1.
          2   -1    0    0  501    0  0.00000000000E+00 -0.00000000000E+00 -0.48566048315E+03  0.48566048315E+03  0.00000000000E+00 0. -1.
         25    2    1    2    0    0  0.85044482790E+01 -0.80627550500E+01 -0.13865710728E+03  0.18711086723E+03  0.12508936636E+03 0.  0.
          5    1    3    3  502    0 -0.35392808292E+02 -0.34856808289E+01 -0.13821246647E+03  0.14277590531E+03  0.41800000000E+01 0.  1.
         -5    1    3    3    0  502  0.43897256571E+02 -0.45770742211E+01 -0.44464081085E+00  0.44334961919E+02  0.41800000000E+01 0.  1.
        -11    1    1    2    0    0  0.40779811235E+02 -0.63453864614E+01 -0.15624323467E+03  0.16160199662E+03  0.00000000000E+00 0.  1.
         11    1    1    2    0    0 -0.49284259514E+02  0.14408141511E+02 -0.15983119130E+03  0.16787656921E+03  0.00000000000E+00 0. -1.
</event>
<event>
 7    1  0.3265282E-009  0.1238227E+03  0.7561462E-02  0.1236921E+00
          1   -1    0    0  501    0  0.00000000000E+00  0.00000000000E+00  0.29602052380E+03  0.29602052380E+03  0.00000000000E+00 0. -1.
         -1   -1    0    0    0  501 -0.00000000000E+00 -0.00000000000E+00 -0.92365092750E+02  0.92365092750E+02  0.00000000000E+00 0.  1.
         25    2    1    2    0    0 -0.29894237442E+01 -0.82651859187E+02  0.21741629428E+03  0.26411827843E+03  0.12509337914E+03 0.  0.
          5    1    3    3  502    0 -0.17150658286E+02  0.16609232027E+02  0.12619238813E+03  0.12849903848E+03  0.41800000000E+01 0. -1.
         -5    1    3    3    0  502  0.14161234542E+02 -0.99261091214E+02  0.91223906145E+02  0.13561923995E+03  0.41800000000E+01 0. -1.
        -11    1    1    2    0    0 -0.77685513104E+01 -0.19160178088E+02  0.16245836564E+01  0.20738902716E+02  0.00000000000E+00 0. -1.
         11    1    1    2    0    0  0.10757975055E+02  0.10181203727E+03 -0.15385446881E+02  0.10352843540E+03  0.00000000000E+00 0.  1.
</event>
<event>
 7    1  0.3265282E-009  0.1367395E+03  0.7561462E-02  0.1217785E+00
         -1   -1    0    0    0  501 -0.00000000000E+00  0.00000000000E+00  0.28753564785E+03  0.28753564785E+03  0.00000000000E+00 0.  1.
          1   -1    0    0  501    0  0.00000000000E+00 -0.00000000000E+00 -0.83380695006E+02  0.83380695006E+02  0.00000000000E+00 0. -1.
         25    2    1    2    0    0  0.10196257627E+03 -0.18571493271E+02  0.16861685602E+03  0.23413779505E+03  0.12509034981E+03 0.  0.
          5    1    3    3  502    0  0.62089289394E+02 -0.68554026503E+02  0.68094827667E+02  0.11493090256E+03  0.41800000000E+01 0. -1.
         -5    1    3    3    0  502  0.39873286879E+02  0.49982533233E+02  0.10052202835E+03  0.11920689250E+03  0.41800000000E+01 0. -1.
        -11    1    1    2    0    0 -0.41600021161E+02  0.34883358010E+02  0.48640913204E+02  0.72892721611E+02  0.00000000000E+00 0. -1.
         11    1    1    2    0    0 -0.60362555112E+02 -0.16311864739E+02 -0.13102816381E+02  0.63885826191E+02  0.00000000000E+00 0.  1.
</event>
<event>
 7    1  0.3265282E-009  0.1127408E+03  0.7561462E-02  0.1255577E+00
         -1   -1    0    0    0  501 -0.00000000000E+00  0.00000000000E+00  0.12978182760E+03  0.12978182760E+03  0.00000000000E+00 0.  1.
          1   -1    0    0  501    0  0.00000000000E+00 -0.00000000000E+00 -0.16802494544E+03  0.16802494544E+03  0.00000000000E+00 0. -1.
         25    2    1    2    0    0 -0.34901240510E+02  0.89998295727E+02  0.82167152496E+01  0.15821498190E+03  0.12508667501E+03 0.  0.
          5    1    3    3  502    0 -0.27036619621E+01  0.41164724097E+02  0.64666277724E+02  0.76818254163E+02  0.41800000000E+01 0.  1.
         -5    1    3    3    0  502 -0.32197578548E+02  0.48833571630E+02 -0.56449562475E+02  0.81396727736E+02  0.41800000000E+01 0.  1.
        -11    1    1    2    0    0  0.49290840117E+02 -0.18827535163E+02 -0.40915960286E+02  0.66769594921E+02  0.00000000000E+00 0.  1.
         11    1    1    2    0    0 -0.14389599607E+02 -0.71170760564E+02 -0.55438728037E+01  0.72822196217E+02  0.00000000000E+00 0. -1.
</event>
<event>
 7    1  0.3265282E-009  0.1526652E+03  0.7561462E-02  0.1197236E+00
         -2   -1    0    0    0  501 -0.00000000000E+00  0.00000000000E+00  0.26230009183E+02  0.26230009183E+02  0.00000000000E+00 0.  1.
          2   -1    0    0  501    0  0.00000000000E+00 -0.00000000000E+00 -0.10683621709E+04  0.10683621709E+04  0.00000000000E+00 0. -1.
         25    2    1    2    0    0 -0.11090901067E+03  0.62369180797E+02 -0.55004603250E+03  0.57826344198E+03  0.12508895675E+03 0.  0.
          5    1    3    3  502    0 -0.12340465661E+03  0.57408867454E+02 -0.31974519701E+03  0.34753266141E+03  0.41800000000E+01 0.  1.
         -5    1    3    3    0  502  0.12495645936E+02  0.49603133438E+01 -0.23030083549E+03  0.23073078057E+03  0.41800000000E+01 0.  1.
        -11    1    1    2    0    0  0.13523376916E+02 -0.55866584872E+02 -0.15166107750E+03  0.16218828397E+03  0.00000000000E+00 0.  1.
         11    1    1    2    0    0  0.97385633759E+02 -0.65025959255E+01 -0.34042505173E+03  0.35414045414E+03  0.00000000000E+00 0. -1.
</event>
<event>
 7    1  0.3265282E-009  0.1124956E+03  0.7561462E-02  0.1256017E+00
          1   -1    0    0  501    0  0.00000000000E+00  0.00000000000E+00  0.10843650802E+03  0.10843650802E+03  0.00000000000E+00 0.  1.
         -1   -1    0    0    0  501 -0.00000000000E+00 -0.00000000000E+00 -0.21572844423E+03  0.21572844423E+03  0.00000000000E+00 0. -1.
         25    2    1    2    0    0 -0.12895021026E+02  0.10087155371E+03 -0.91434553893E+02  0.18533759861E+03  0.12509354858E+03 0.  0.
          5    1    3    3  502    0 -0.12911986908E+02 -0.20160720019E+01 -0.80642169328E+02  0.81801074725E+02  0.41800000000E+01 0. -1.
         -5    1    3    3    0  502  0.16965882102E-01  0.10288762572E+03 -0.10792384565E+02  0.10353652388E+03  0.41800000000E+01 0. -1.
        -11    1    1    2    0    0 -0.13257301519E+02 -0.33230682889E+02  0.35157705594E+02  0.50160727581E+02  0.00000000000E+00 0.  1.
         11    1    1    2    0    0  0.26152322545E+02 -0.67640870826E+02 -0.51015087913E+02  0.88666626052E+02  0.00000000000E+00 0. -1.
</event>
<event>
 7    1  0.4376438E-009  0.1310147E+03  0.7561462E-02  0.1225958E+00
          1   -1    0    0  501    0  0.00000000000E+00  0.00000000000E+00  0.15195425150E+03  0.15195425150E+03  0.00000000000E+00 0. -1.
         -1   -1    0    0    0  501 -0.00000000000E+00 -0.00000000000E+00 -0.15067937744E+03  0.15067937744E+03  0.00000000000E+00 0.  1.
         25    2    1    2    0    0  0.65763642598E+02  0.55280069091E+02 -0.59271418175E+02  0.16291631203E+03  0.12509149046E+03 0.  0.
          5    1    3    3  502    0 -0.27865355635E+02 -0.12997901289E+02  0.32134824620E+01  0.31196511858E+02  0.41800000000E+01 0. -1.
         -5    1    3    3    0  502  0.93628998234E+02  0.68277970381E+02 -0.62484900637E+02  0.13171980017E+03  0.41800000000E+01 0. -1.
        -11    1    1    2    0    0 -0.45284680790E+02  0.10213604445E+02 -0.25571492782E+01  0.46492569755E+02  0.00000000000E+00 0.  1.
         11    1    1    2    0    0 -0.20478961809E+02 -0.65493673536E+02  0.63103441515E+02  0.93224747149E+02  0.00000000000E+00 0. -1.
</event>
<event>
 7    1  0.3265282E-009  0.1153447E+03  0.7561462E-02  0.1250981E+00
          2   -1    0    0  501    0  0.00000000000E+00  0.00000000000E+00  0.41019751711E+03  0.41019751711E+03  0.00000000000E+00 0. -1.
         -2   -1    0    0    0  501 -0.00000000000E+00 -0.00000000000E+00 -0.56607071655E+02  0.56607071655E+02  0.00000000000E+00 0.  1.
         25    2    1    2    0    0 -0.45220139915E+02 -0.76998950644E+02  0.10116086279E+03  0.18399624740E+03  0.12508956568E+03 0.  0.
          5    1    3    3  502    0 -0.57450004792E+02 -0.31440504335E+02  0.11692776003E+03  0.13408423408E+03  0.41800000000E+01 0.  1.
         -5    1    3    3    0  502  0.12229864877E+02 -0.45558446309E+02 -0.15766897235E+02  0.49912013317E+02  0.41800000000E+01 0.  1.
        -11    1    1    2    0    0 -0.21707999628E+02  0.14257174612E+02  0.11270838822E+03  0.11566194297E+03  0.00000000000E+00 0.  1.
         11    1    1    2    0    0  0.66928139543E+02  0.62741776031E+02  0.13972119443E+03  0.16714639839E+03  0.00000000000E+00 0. -1.
</event>
<event>
 7    1  0.3265282E-009  0.1628239E+03  0.7561462E-02  0.1185545E+00
         -3   -1    0    0    0  501 -0.00000000000E+00  0.00000000000E+00  0.29401213852E+03  0.29401213852E+03  0.00000000000E+00 0.  1.
          3   -1    0    0  501    0  0.00000000000E+00 -0.00000000000E+00 -0.12220908173E+03  0.12220908173E+03  0.00000000000E+00 0. -1.
         25    2    1    2    0    0 -0.50899829760E+02 -0.13623763566E+03  0.22888026126E+02  0.19319135602E+03  0.12509017652E+03 0.  0.
          5    1    3    3  502    0 -0.54151571634E+02 -0.37257420604E+02  0.58274369473E+02  0.87942496201E+02  0.41800000000E+01 0.  1.
         -5    1    3    3    0  502  0.32517418748E+01 -0.98980215057E+02 -0.35386343348E+02  0.10524885982E+03  0.41800000000E+01 0.  1.
        -11    1    1    2    0    0 -0.15712615543E+01  0.92052191034E+02  0.11248925422E+03  0.14536129833E+03  0.00000000000E+00 0.  1.
         11    1    1    2    0    0  0.52471091314E+02  0.44185444627E+02  0.36425776439E+02  0.77668565905E+02  0.00000000000E+00 0. -1.
</event>
<event>
 7    1  0.3265282E-009  0.1757082E+03  0.7561462E-02  0.1172022E+00
          2   -1    0    0  501    0  0.00000000000E+00  0.00000000000E+00  0.63198113041E+02  0.63198113041E+02  0.00000000000E+00 0. -1.
         -2   -1    0    0    0  501 -0.00000000000E+00 -0.00000000000E+00 -0.78952123356E+03  0.78952123356E+03  0.00000000000E+00 0.  1.
         25    2    1    2    0    0 -0.16941291933E+02 -0.14639219339E+03 -0.62680604536E+03  0.65593557810E+03  0.12509189609E+03 0.  0.
          5    1    3    3  502    0  0.14732596348E+02  0.17893291219E+02 -0.48785624864E+02  0.54173137800E+02  0.41800000000E+01 0. -1.
         -5    1    3    3    0  502 -0.31673888281E+02 -0.16428548461E+03 -0.57802042049E+03  0.60176244030E+03  0.41800000000E+01 0. -1.
        -11    1    1    2    0    0 -0.11485069711E+02  0.11288360441E+00 -0.30442287567E+02  0.32536939642E+02  0.00000000000E+00 0.  1.
         11    1    1    2    0    0  0.28426361645E+02  0.14627930979E+03 -0.69074787599E+02  0.16424682886E+03  0.00000000000E+00 0. -1.
</event>
<event>
 7    1  0.3265282E-009  0.2036921E+03  0.7561462E-02  0.1146661E+00
          1   -1    0    0  501    0  0.00000000000E+00  0.00000000000E+00  0.70113226226E+03  0.70113226226E+03  0.00000000000E+00 0. -1.
         -1   -1    0    0    0  501 -0.00000000000E+00 -0.00000000000E+00 -0.10528592956E+03  0.10528592956E+03  0.00000000000E+00 0.  1.
         25    2    1    2    0    0  0.52271987047E+02 -0.16547962940E+03  0.57136611334E+03  0.61010030792E+03  0.12508909573E+03 0.  0.
          5    1    3    3  502    0  0.89861398860E+02 -0.80495563459E+02  0.33532508222E+03  0.35639162435E+03  0.41800000000E+01 0.  1.
         -5    1    3    3    0  502 -0.37589411812E+02 -0.84984065943E+02  0.23604103112E+03  0.25370868356E+03  0.41800000000E+01 0.  1.
        -11    1    1    2    0    0 -0.25605865305E+02  0.16500401941E+03  0.13662072995E+02  0.16753697800E+03  0.00000000000E+00 0. -1.
         11    1    1    2    0    0 -0.26666121742E+02  0.47560999332E+00  0.10818146362E+02  0.28780905898E+02  0.00000000000E+00 0.  1.
</event>
<event>
 7    1  0.3265282E-009  0.1033489E+03  0.7561462E-02  0.1273407E+00
         -2   -1    0    0    0  501 -0.00000000000E+00  0.00000000000E+00  0.54132458156E+02  0.54132458156E+02  0.00000000000E+00 0. -1.
          2   -1    0    0  501    0  0.00000000000E+00 -0.00000000000E+00 -0.26360109231E+03  0.26360109231E+03  0.00000000000E+00 0.  1.
         25    2    1    2    0    0 -0.39057401735E+02  0.39793367444E+01 -0.16441930784E+03  0.21029033939E+03  0.12508797823E+03 0.  0.
          5    1    3    3  502    0 -0.54603022747E+02 -0.37249706525E+02 -0.38024025266E+02  0.76369690497E+02  0.41800000000E+01 0.  1.
         -5    1    3    3    0  502  0.15545621012E+02  0.41229043269E+02 -0.12639528257E+03  0.13392064889E+03  0.41800000000E+01 0.  1.
        -11    1    1    2    0    0  0.19908151626E+02 -0.45948249355E+02 -0.32276583341E+02  0.59576454679E+02  0.00000000000E+00 0.  1.
         11    1    1    2    0    0  0.19149250109E+02  0.41968912611E+02 -0.12772742974E+02  0.47866756403E+02  0.00000000000E+00 0. -1.
</event>
<event>
 7    1  0.3265282E-009  0.9134374E+02  0.7561462E-02  0.1299630E+00
          3   -1    0    0  501    0  0.00000000000E+00  0.00000000000E+00  0.17973053361E+03  0.17973053361E+03  0.00000000000E+00 0. -1.
         -3   -1    0    0    0  501 -0.00000000000E+00 -0.00000000000E+00 -0.12939630443E+03  0.12939630443E+03  0.00000000000E+00 0.  1.
         25    2    1    2    0    0 -0.21360165155E+02  0.58040845862E+02 -0.60768636094E+02  0.15220047285E+03  0.12508861003E+03 0.  0.
          5    1    3    3  502    0 -0.29103739153E+02  0.57939121194E+02  0.22280254418E+02  0.68686618306E+02  0.41800000000E+01 0.  1.
         -5    1    3    3    0  502  0.77435739977E+01  0.10172466862E+00 -0.83048890512E+02  0.83513854548E+02  0.41800000000E+01 0.  1.
        -11    1    1    2    0    0 -0.79709398862E+00  0.23959818264E+02  0.37628977353E+02  0.44616680588E+02  0.00000000000E+00 0.  1.
         11    1    1    2    0    0  0.22157259144E+02 -0.82000664126E+02  0.73473887922E+02  0.11230968461E+03  0.00000000000E+00 0. -1.
</event>
<event>
 7    1  0.3265282E-009  0.1050558E+03  0.7561462E-02  0.1270010E+00
         -1   -1    0    0    0  501 -0.00000000000E+00  0.00000000000E+00  0.18625761770E+03  0.18625761770E+03  0.00000000000E+00 0.  1.
          1   -1    0    0  501    0  0.00000000000E+00 -0.00000000000E+00 -0.10663992643E+03  0.10663992643E+03  0.00000000000E+00 0. -1.
         25    2    1    2    0    0 -0.89069365736E+02 -0.11531573187E+02  0.40044393044E+02  0.15912115002E+03  0.12509859262E+03 0.  0.
          5    1    3    3  502    0 -0.21510110810E+02  0.15839355708E+02 -0.41585581029E+02  0.49602449595E+02  0.41800000000E+01 0. -1.
         -5    1    3    3    0  502 -0.67559254926E+02 -0.27370928895E+02  0.81629974073E+02  0.10951870042E+03  0.41800000000E+01 0. -1.
        -11    1    1    2    0    0  0.63288753881E+02 -0.22674039299E+02  0.56404067870E+02  0.87755326324E+02  0.00000000000E+00 0.  1.
         11    1    1    2    0    0  0.25780611855E+02  0.34205612486E+02 -0.16830769650E+02  0.46021067787E+02  0.00000000000E+00 0. -1.
</event>
<event>
 7    1  0.3265282E-009  0.1232664E+03  0.7561462E-02  0.1237804E+00
          1   -1    0    0  501    0  0.00000000000E+00  0.00000000000E+00  0.87747335058E+02  0.87747335058E+02  0.00000000000E+00 0. -1.
         -1   -1    0    0    0  501 -0.00000000000E+00 -0.00000000000E+00 -0.19601021167E+03  0.19601021167E+03  0.00000000000E+00 0.  1.
         25    2    1    2    0    0  0.67746104843E+01  0.67798144046E+02 -0.90266803312E+02  0.16863812142E+03  0.12509291161E+03 0.  0.
          5    1    3    3  502    0  0.29581163232E+02  0.95845049452E+02 -0.85633733666E+02  0.13195426277E+03  0.41800000000E+01 0. -1.
         -5    1    3    3    0  502 -0.22806552748E+02 -0.28046905406E+02 -0.46330696459E+01  0.36683858650E+02  0.41800000000E+01 0. -1.
        -11    1    1    2    0    0 -0.46037674005E+02 -0.28211842670E+02  0.61827923943E+01  0.54347055269E+02  0.00000000000E+00 0. -1.
         11    1    1    2    0    0  0.39263063520E+02 -0.39586301376E+02 -0.24178865698E+02  0.60772370038E+02  0.00000000000E+00 0.  1.
</event>
<event>
 7    1  0.3265282E-009  0.1073160E+03  0.7561462E-02  0.1265622E+00
          1   -1    0    0  501    0  0.00000000000E+00  0.00000000000E+00  0.65202832728E+03  0.65202832728E+03  0.00000000000E+00 0. -1.
         -1   -1    0    0    0  501 -0.00000000000E+00 -0.00000000000E+00 -0.19546230902E+02  0.19546230902E+02  0.00000000000E+00 0.  1.
         25    2    1    2    0    0  0.10872831426E+02  0.36101199857E+02  0.38101923149E+03  0.40279596674E+03  0.12508965172E+03 0.  0.
          5    1    3    3  502    0 -0.55088086559E+02  0.30867085603E+02  0.21178430576E+03  0.22103741498E+03  0.41800000000E+01 0.  1.
         -5    1    3    3    0  502  0.65960917985E+02  0.52341142537E+01  0.16923492572E+03  0.18175855176E+03  0.41800000000E+01 0.  1.
        -11    1    1    2    0    0  0.31670515691E+02 -0.43633891677E+01  0.42510301528E+02  0.53190097435E+02  0.00000000000E+00 0.  1.
         11    1    1    2    0    0 -0.42543347117E+02 -0.31737810689E+02  0.20895256337E+03  0.21558849401E+03  0.00000000000E+00 0. -1.
</event>
<event>
 7    1  0.3265282E-009  0.1023228E+03  0.7561462E-02  0.1275486E+00
          1   -1    0    0  501    0  0.00000000000E+00  0.00000000000E+00  0.26176594719E+03  0.26176594719E+03  0.00000000000E+00 0. -1.
         -1   -1    0    0    0  501 -0.00000000000E+00 -0.00000000000E+00 -0.51918803492E+02  0.51918803492E+02  0.00000000000E+00 0.  1.
         25    2    1    2    0    0 -0.43462408140E+01 -0.27148670219E+01  0.57753664846E+02  0.13787154516E+03  0.12508723696E+03 0.  0.
          5    1    3    3  502    0 -0.61268387189E+02  0.16977980833E+02  0.20523173964E+02  0.66938331108E+02  0.41800000000E+01 0.  1.
         -5    1    3    3    0  502  0.56922146375E+02 -0.19692847854E+02  0.37230490882E+02  0.70933214053E+02  0.41800000000E+01 0.  1.
        -11    1    1    2    0    0 -0.26947598965E+02  0.29071259172E+02  0.11082477121E+03  0.11770064194E+03  0.00000000000E+00 0. -1.
         11    1    1    2    0    0  0.31293839779E+02 -0.26356392151E+02  0.41268707643E+02  0.58112563580E+02  0.00000000000E+00 0.  1.
</event>
<event>
 7    1  0.3265282E-009  0.2081757E+03  0.7561462E-02  0.1143019E+00
          2   -1    0    0  501    0  0.00000000000E+00  0.00000000000E+00  0.50459962172E+03  0.50459962172E+03  0.00000000000E+00 0. -1.
         -2   -1    0    0    0  501 -0.00000000000E+00 -0.00000000000E+00 -0.14831534151E+03  0.14831534151E+03  0.00000000000E+00 0.  1.
         25    2    1    2    0    0  0.17558795869E+02 -0.20542316520E+03  0.32804731508E+01  0.24117339925E+03  0.12508740500E+03 0.  0.
          5    1    3    3  502    0  0.67928137280E+01 -0.10098101770E+03 -0.60756790814E+02  0.11811929683E+03  0.41800000000E+01 0. -1.
         -5    1    3    3    0  502  0.10765982141E+02 -0.10444214749E+03  0.64037263965E+02  0.12305410241E+03  0.41800000000E+01 0. -1.
        -11    1    1    2    0    0 -0.29230580422E+02  0.10904273127E+03  0.21743413930E+03  0.24499458975E+03  0.00000000000E+00 0.  1.
         11    1    1    2    0    0  0.11671784552E+02  0.96380433925E+02  0.13556966776E+03  0.16674697423E+03  0.00000000000E+00 0. -1.
</event>
<event>
 7    1  0.3265282E-009  0.1057791E+03  0.7561462E-02  0.1268592E+00
          3   -1    0    0  501    0  0.00000000000E+00  0.00000000000E+00  0.25043475366E+03  0.25043475366E+03  0.00000000000E+00 0. -1.
         -3   -1    0    0    0  501 -0.00000000000E+00 -0.00000000000E+00 -0.71596004766E+02  0.71596004766E+02  0.00000000000E+00 0.  1.
         25    2    1    2    0    0  0.56474494441E+02 -0.37743196278E+02  0.14474078359E+03  0.20300563296E+03  0.12508986845E+03 0.  0.
          5    1    3    3  502    0  0.30515566017E+02 -0.81067787009E+02  0.64409784793E+02  0.10802443537E+03  0.41800000000E+01 0.  1.
         -5    1    3    3    0  502  0.25958928424E+02  0.43324590732E+02  0.80330998797E+02  0.94981197585E+02  0.41800000000E+01 0.  1.
        -11    1    1    2    0    0  0.61227898005E+00  0.11173777986E+02 -0.28266736023E+02  0.30401259274E+02  0.00000000000E+00 0.  1.
         11    1    1    2    0    0 -0.57086773421E+02  0.26569418291E+02  0.62364701324E+02  0.88623866194E+02  0.00000000000E+00 0. -1.
</event>
<event>
 7    1  0.3265282E-009  0.1327017E+03  0.7561462E-02  0.1223501E+00
          2   -1    0    0  501    0  0.00000000000E+00  0.00000000000E+00  0.28346116952E+03  0.28346116952E+03  0.00000000000E+00 0.  1.
         -2   -1    0    0    0  501 -0.00000000000E+00 -0.00000000000E+00 -0.96506478737E+02  0.96506478737E+02  0.00000000000E+00 0. -1.
         25    2    1    2    0    0  0.74893168969E+02  0.51858673393E+02  0.20454307324E+03  0.25648386373E+03  0.12509114589E+03 0.  0.
          5    1    3    3  502    0 -0.20234130984E+02 -0.24839987314E+02  0.47743640413E+02  0.57648700127E+02  0.41800000000E+01 0. -1.
         -5    1    3    3    0  502  0.95127299952E+02  0.76698660707E+02  0.15679943283E+03  0.19883516360E+03  0.41800000000E+01 0. -1.
        -11    1    1    2    0    0 -0.12149609368E+02  0.14889734440E+02 -0.25049459885E+02  0.31572023059E+02  0.00000000000E+00 0. -1.
         11    1    1    2    0    0 -0.62743559601E+02 -0.66748407833E+02  0.74610774268E+01  0.91911761467E+02  0.00000000000E+00 0.  1.
</event>
<event>
 7    1  0.3265282E-009  0.1209575E+03  0.7561462E-02  0.1241526E+00
         -1   -1    0    0    0  501 -0.00000000000E+00  0.00000000000E+00  0.19571648442E+03  0.19571648442E+03  0.00000000000E+00 0.  1.
          1   -1    0    0  501    0  0.00000000000E+00 -0.00000000000E+00 -0.11244826862E+03  0.11244826862E+03  0.00000000000E+00 0. -1.
         25    2    1    2    0    0  0.27064142946E+02  0.50006891113E+02 -0.41407239532E+02  0.14350804893E+03  0.12508734400E+03 0.  0.
          5    1    3    3  502    0  0.49008494193E+02 -0.26608371644E+02 -0.61440028850E+01  0.56258858112E+02  0.41800000000E+01 0. -1.
         -5    1    3    3    0  502 -0.21944351247E+02  0.76615262757E+02 -0.35263236647E+02  0.87249190815E+02  0.41800000000E+01 0. -1.
        -11    1    1    2    0    0 -0.55687577501E+02 -0.93531543328E+01  0.79257354760E+02  0.97315548950E+02  0.00000000000E+00 0.  1.
         11    1    1    2    0    0  0.28623434554E+02 -0.40653736780E+02  0.45418100570E+02  0.67341155167E+02  0.00000000000E+00 0. -1.
</event>
<event>
 7    1  0.3265282E-009  0.2369507E+03  0.7561462E-02  0.1121841E+00
         -1   -1    0    0    0  501 -0.00000000000E+00  0.00000000000E+00  0.39145533619E+02  0.39145533619E+02  0.00000000000E+00 0.  1.
          1   -1    0    0  501    0  0.00000000000E+00 -0.00000000000E+00 -0.16603685998E+04  0.16603685998E+04  0.00000000000E+00 0. -1.
         25    2    1    2    0    0  0.80857045493E+02  0.19941831705E+03 -0.11046027863E+04  0.11322989944E+04  0.12509264690E+03 0.  0.
          5    1    3    3  502    0  0.10602270130E+03  0.13324158380E+03 -0.89381242393E+03  0.90989683724E+03  0.41800000000E+01 0.  1.
         -5    1    3    3    0  502 -0.25165655811E+02  0.66176733252E+02 -0.21079036237E+03  0.22240215719E+03  0.41800000000E+01 0.  1.
        -11    1    1    2    0    0 -0.87923982167E+02 -0.10071558113E+03 -0.32830547243E+03  0.35448376288E+03  0.00000000000E+00 0. -1.
         11    1    1    2    0    0  0.70669366735E+01 -0.98702735917E+02 -0.18831480745E+03  0.21273137610E+03  0.00000000000E+00 0.  1.
</event>
<event>
 7    1  0.3265282E-009  0.1140833E+03  0.7561462E-02  0.1253190E+00
          2   -1    0    0  501    0  0.00000000000E+00  0.00000000000E+00  0.65435100507E+03  0.65435100507E+03  0.00000000000E+00 0. -1.
         -2   -1    0    0    0  501 -0.00000000000E+00 -0.00000000000E+00 -0.25844844407E+02  0.25844844407E+02  0.00000000000E+00 0.  1.
         25    2    1    2    0    0  0.64625767141E+01  0.68064711676E+02  0.28440562618E+03  0.31813197080E+03  0.12508725264E+03 0.  0.
          5    1    3    3  502    0  0.21889597955E+01  0.91667378787E+02  0.27827731643E+03  0.29302463569E+03  0.41800000000E+01 0.  1.
         -5    1    3    3    0  502  0.42736169185E+01 -0.23602667111E+02  0.61283097446E+01  0.25107335116E+02  0.41800000000E+01 0.  1.
        -11    1    1    2    0    0 -0.45713740711E+02 -0.52989889633E+02  0.19644894229E+03  0.20854222934E+03  0.00000000000E+00 0.  1.
         11    1    1    2    0    0  0.39251163997E+02 -0.15074822043E+02  0.14765159220E+03  0.15352164933E+03  0.00000000000E+00 0. -1.
</event>
<event>
 7    1  0.4326735E-009  0.1716118E+03  0.7561462E-02  0.1176177E+00
          1   -1    0    0  501    0  0.00000000000E+00  0.00000000000E+00  0.56743424540E+03  0.56743424540E+03  0.00000000000E+00 0. -1.
         -1   -1    0    0    0  501 -0.00000000000E+00 -0.00000000000E+00 -0.86203071151E+02  0.86203071151E+02  0.00000000000E+00 0.  1.
         25    2    1    2    0    0  0.13846290951E+03 -0.69067326561E+02  0.80901621074E+02  0.21479102576E+03  0.12509132483E+03 0.  0.
          5    1    3    3  502    0  0.48131792471E+02 -0.83768420207E+02  0.67673119253E+01  0.96938571174E+02  0.41800000000E+01 0. -1.
         -5    1    3    3    0  502  0.90331117036E+02  0.14701093647E+02  0.74134309149E+02  0.11785245459E+03  0.41800000000E+01 0. -1.
        -11    1    1    2    0    0 -0.29204035208E+02  0.17967886169E+02  0.19661584156E+02  0.39525921840E+02  0.00000000000E+00 0.  1.
         11    1    1    2    0    0 -0.10925887430E+03  0.51099440392E+02  0.38066796901E+03  0.39932036895E+03  0.00000000000E+00 0. -1.
</event>
<event>
 7    1  0.3265282E-009  0.8610263E+02  0.7561462E-02  0.1312574E+00
         -1   -1    0    0    0  501 -0.00000000000E+00  0.00000000000E+00  0.11114238729E+03  0.11114238729E+03  0.00000000000E+00 0.  1.
          1   -1    0    0  501    0  0.00000000000E+00 -0.00000000000E+00 -0.11433885621E+03  0.11433885621E+03  0.00000000000E+00 0. -1.
         25    2    1    2    0    0 -0.29996760159E+02  0.11578638639E+02 -0.15123073968E+02  0.13002946758E+03  0.12508031252E+03 0.  0.
          5    1    3    3  502    0  0.24166817932E+02  0.41835681802E+02 -0.40190789561E+02  0.62984373668E+02  0.41800000000E+01 0. -1.
         -5    1    3    3    0  502 -0.54163578092E+02 -0.30257043163E+02  0.25067715592E+02  0.67045093912E+02  0.41800000000E+01 0. -1.
        -11    1    1    2    0    0 -0.14319191874E+02 -0.94594320375E+01  0.39602288105E+02  0.43160877349E+02  0.00000000000E+00 0.  1.
         11    1    1    2    0    0  0.44315952033E+02 -0.21192066018E+01 -0.27675683059E+02  0.52290898578E+02  0.00000000000E+00 0. -1.
</event>
<event>
 7    1  0.3265282E-009  0.1354100E+03  0.7561462E-02  0.1219642E+00
          2   -1    0    0  501    0  0.00000000000E+00  0.00000000000E+00  0.14493809649E+03  0.14493809649E+03  0.00000000000E+00 0. -1.
         -2   -1    0    0    0  501 -0.00000000000E+00 -0.00000000000E+00 -0.37951233955E+03  0.37951233955E+03  0.00000000000E+00 0.  1.
         25    2    1    2    0    0 -0.10868527611E+03  0.17322871465E+02  0.76284060471E+02  0.18324731342E+03  0.12509096241E+03 0.  0.
          5    1    3    3  502    0 -0.35582493549E+02  0.50715027712E+02  0.81665515498E+02  0.10259072426E+03  0.41800000000E+01 0.  1.
         -5    1    3    3    0  502 -0.73102782556E+02 -0.33392156247E+02 -0.53814550269E+01  0.80656589157E+02  0.41800000000E+01 0.  1.
        -11    1    1    2    0    0  0.99261543313E+02  0.96004780938E+01 -0.28759641333E+03  0.30439566377E+03  0.00000000000E+00 0.  1.
         11    1    1    2    0    0  0.94237327917E+01 -0.26923349559E+02 -0.23261890205E+02  0.36807458851E+02  0.00000000000E+00 0. -1.
</event>
<event>
 7    1  0.3265282E-009  0.1389072E+03  0.7561462E-02  0.1214807E+00
          2   -1    0    0  501    0  0.00000000000E+00  0.00000000000E+00  0.31745955931E+03  0.31745955931E+03  0.00000000000E+00 0. -1.
         -2   -1    0    0    0  501 -0.00000000000E+00 -0.00000000000E+00 -0.86708700180E+02  0.86708700180E+02  0.00000000000E+00 0.  1.
         25    2    1    2    0    0  0.72357469926E+02  0.98406572623E+02  0.15989568316E+03  0.23692421816E+03  0.12508796372E+03 0.  0.
          5    1    3    3  502    0 -0.11447156841E+02  0.38685105126E+02  0.11966830263E+03  0.12635485671E+03  0.41800000000E+01 0.  1.
         -5    1    3    3    0  502  0.83804626767E+02  0.59721467497E+02  0.40227380525E+02  0.11056936145E+03  0.41800000000E+01 0.  1.
        -11    1    1    2    0    0  0.64787743795E+01 -0.27427279983E+02 -0.13936399745E+02  0.31439679429E+02  0.00000000000E+00 0.  1.
         11    1    1    2    0    0 -0.78836244306E+02 -0.70979292640E+02  0.84791575719E+02  0.13580436191E+03  0.00000000000E+00 0. -1.
</event>
<event>
 7    1  0.3265282E-009  0.1071766E+03  0.7561462E-02  0.1265889E+00
          1   -1    0    0  501    0  0.00000000000E+00  0.00000000000E+00  0.24492587163E+02  0.24492587163E+02  0.00000000000E+00 0. -1.
         -1   -1    0    0    0  501 -0.00000000000E+00 -0.00000000000E+00 -0.51112290975E+03  0.51112290975E+03  0.00000000000E+00 0.  1.
         25    2    1    2    0    0 -0.15516718557E+02  0.96144572561E+01 -0.23556331784E+03  0.26733774826E+03  0.12508472566E+03 0.  0.
          5    1    3    3  502    0 -0.28302197845E+01  0.65556046494E+02 -0.15483418087E+03  0.16821623388E+03  0.41800000000E+01 0.  1.
         -5    1    3    3    0  502 -0.12686498772E+02 -0.55941589237E+02 -0.80729136964E+02  0.99121514377E+02  0.41800000000E+01 0.  1.
        -11    1    1    2    0    0 -0.36330888131E+02 -0.14269645203E+02 -0.14445514906E+03  0.14963571197E+03  0.00000000000E+00 0. -1.
         11    1    1    2    0    0  0.51847606688E+02  0.46551879465E+01 -0.10661185568E+03  0.11864203667E+03  0.00000000000E+00 0.  1.
</event>
<event>
 7    1  0.3265282E-009  0.1097957E+03  0.7561462E-02  0.1260949E+00
          2   -1    0    0  501    0  0.00000000000E+00  0.00000000000E+00  0.12805028302E+03  0.12805028302E+03  0.00000000000E+00 0.  1.
         -2   -1    0    0    0  501 -0.00000000000E+00 -0.00000000000E+00 -0.97747838754E+02  0.97747838754E+02  0.00000000000E+00 0. -1.
         25    2    1    2    0    0 -0.12754032135E+02  0.21817873333E+02  0.35900925299E+02  0.13257143946E+03  0.12509046803E+03 0.  0.
          5    1    3    3  502    0 -0.56152955657E+02  0.49489358298E+02  0.13011613242E+02  0.76086302926E+02  0.41800000000E+01 0. -1.
         -5    1    3    3    0  502  0.43398923523E+02 -0.27671484965E+02  0.22889312057E+02  0.56485136536E+02  0.41800000000E+01 0. -1.
        -11    1    1    2    0    0  0.23887986012E+02  0.30927414306E+02 -0.41655332121E+01  0.39300031785E+02  0.00000000000E+00 0.  1.
         11    1    1    2    0    0 -0.11133953878E+02 -0.52745287639E+02 -0.14329478238E+01  0.53926650522E+02  0.00000000000E+00 0. -1.
</event>
<event>
 7    1  0.3265282E-009  0.1363997E+03  0.7561462E-02  0.1218257E+00
          2   -1    0    0  501    0  0.00000000000E+00  0.00000000000E+00  0.94436538423E+03  0.94436538423E+03  0.00000000000E+00 0.  1.
         -2   -1    0    0    0  501 -0.00000000000E+00 -0.00000000000E+00 -0.20713059647E+02  0.20713059647E+02  0.00000000000E+00 0. -1.
         25    2    1    2    0    0  0.32752095640E+02 -0.77067025856E+02  0.58876316124E+03  0.60770258470E+03  0.12509334588E+03 0.  0.
          5    1    3    3  502    0 -0.31480726531E+01 -0.10356631329E+03  0.36234173802E+03  0.37688844387E+03  0.41800000000E+01 0.  1.
         -5    1    3    3    0  502  0.35900168293E+02  0.26499287435E+02  0.22642142321E+03  0.23081414083E+03  0.41800000000E+01 0.  1.
        -11    1    1    2    0    0  0.29241042731E+02  0.57700704817E+01  0.67560621718E+02  0.73842873050E+02  0.00000000000E+00 0.  1.
         11    1    1    2    0    0 -0.61993138370E+02  0.71296955374E+02  0.26732854163E+03  0.28353298612E+03  0.00000000000E+00 0. -1.
</event>
<event>
 7    1  0.3265282E-009  0.8778833E+02  0.7561462E-02  0.1308298E+00
         -1   -1    0    0    0  501 -0.00000000000E+00  0.00000000000E+00  0.23521685968E+02  0.23521685968E+02  0.00000000000E+00 0. -1.
          1   -1    0    0  501    0  0.00000000000E+00 -0.00000000000E+00 -0.54341443048E+03  0.54341443048E+03  0.00000000000E+00 0.  1.
         25    2    1    2    0    0 -0.18834883662E+02 -0.28273105300E+02 -0.31199733364E+03  0.33785173115E+03  0.12508930695E+03 0.  0.
          5    1    3    3  502    0  0.52274349442E+01 -0.48120443912E+02 -0.37023419322E+02  0.61082805900E+02  0.41800000000E+01 0.  1.
         -5    1    3    3    0  502 -0.24062318606E+02  0.19847338612E+02 -0.27497391432E+03  0.27676892525E+03  0.41800000000E+01 0.  1.
        -11    1    1    2    0    0  0.54497437761E+02  0.24197397172E+02 -0.14278189780E+03  0.15473252758E+03  0.00000000000E+00 0.  1.
         11    1    1    2    0    0 -0.35662554100E+02  0.40757081277E+01 -0.65113513070E+02  0.74351857717E+02  0.00000000000E+00 0. -1.
</event>
<event>
 7    1  0.3265282E-009  0.1111106E+03  0.7561462E-02  0.1258527E+00
         -1   -1    0    0    0  501 -0.00000000000E+00  0.00000000000E+00  0.17219981835E+02  0.17219981835E+02  0.00000000000E+00 0.  1.
          1   -1    0    0  501    0  0.00000000000E+00 -0.00000000000E+00 -0.93076547886E+03  0.93076547886E+03  0.00000000000E+00 0. -1.
         25    2    1    2    0    0  0.21839151195E+02  0.61834684229E+02 -0.51400733032E+03  0.53305888198E+03  0.12509100422E+03 0.  0.
          5    1    3    3  502    0  0.16136421785E+02 -0.32183873233E+02 -0.66585788685E+02  0.75811116989E+02  0.41800000000E+01 0. -1.
         -5    1    3    3    0  502  0.57027294101E+01  0.94018557462E+02 -0.44742154164E+03  0.45724776500E+03  0.41800000000E+01 0. -1.
        -11    1    1    2    0    0 -0.44441448744E+02 -0.46844523944E+02 -0.36667571252E+03  0.37231778086E+03  0.00000000000E+00 0.  1.
         11    1    1    2    0    0  0.22602297549E+02 -0.14990160285E+02 -0.32862454180E+02  0.42608797854E+02  0.00000000000E+00 0. -1.
</event>
<event>
 7    1  0.3265282E-009  0.1177789E+03  0.7561462E-02  0.1246807E+00
          2   -1    0    0  501    0  0.00000000000E+00  0.00000000000E+00  0.75751276096E+03  0.75751276096E+03  0.00000000000E+00 0. -1.
         -2   -1    0    0    0  501 -0.00000000000E+00 -0.00000000000E+00 -0.41241102619E+02  0.41241102619E+02  0.00000000000E+00 0.  1.
         25    2    1    2    0    0 -0.27419272878E+02 -0.96920087552E+02  0.60103747484E+03  0.62212368455E+03  0.12508602171E+03 0.  0.
          5    1    3    3  502    0  0.16793728823E+02 -0.27140640008E+02  0.43916662129E+03  0.44034468014E+03  0.41800000000E+01 0. -1.
         -5    1    3    3    0  502 -0.44213001701E+02 -0.69779447545E+02  0.16187085355E+03  0.18177900442E+03  0.41800000000E+01 0. -1.
        -11    1    1    2    0    0 -0.16800344628E+02  0.33045640040E+01 -0.51199603546E+01  0.17871365837E+02  0.00000000000E+00 0.  1.
         11    1    1    2    0    0  0.44219617506E+02  0.93615523548E+02  0.12035414386E+03  0.15875881319E+03  0.00000000000E+00 0. -1.
</event>
<event>
 7    1  0.3265282E-009  0.1052434E+03  0.7561462E-02  0.1269641E+00
          2   -1    0    0  501    0  0.00000000000E+00  0.00000000000E+00  0.14172088623E+03  0.14172088623E+03  0.00000000000E+00 0. -1.
         -2   -1    0    0    0  501 -0.00000000000E+00 -0.00000000000E+00 -0.14202218929E+03  0.14202218929E+03  0.00000000000E+00 0.  1.
         25    2    1    2    0    0  0.71769233887E+02  0.17182631859E+01 -0.54538639092E+02  0.15419226199E+03  0.12508802958E+03 0.  0.
          5    1    3    3  502    0  0.73492358988E+02  0.44022689386E+02 -0.68121371297E+02  0.10953135459E+03  0.41800000000E+01 0. -1.
         -5    1    3    3    0  502 -0.17231251009E+01 -0.42304426200E+02  0.13582732204E+02  0.44660907406E+02  0.41800000000E+01 0. -1.
        -11    1    1    2    0    0 -0.19881234445E+02  0.17847040668E+02 -0.22461917303E+02  0.34904413368E+02  0.00000000000E+00 0.  1.
         11    1    1    2    0    0 -0.51887999442E+02 -0.19565303854E+02  0.76699253336E+02  0.94646400160E+02  0.00000000000E+00 0. -1.
</event>
<event>
 7    1  0.3265282E-009  0.1810247E+03  0.7561462E-02  0.1166815E+00
          1   -1    0    0  501    0  0.00000000000E+00  0.00000000000E+00  0.30931098035E+03  0.30931098035E+03  0.00000000000E+00 0. -1.
         -1   -1    0    0    0  501 -0.00000000000E+00 -0.00000000000E+00 -0.12855358174E+03  0.12855358174E+03  0.00000000000E+00 0.  1.
         25    2    1    2    0    0 -0.86957950777E+02  0.13348000422E+03  0.39495490181E+02  0.20636256640E+03  0.12508804234E+03 0.  0.
          5    1    3    3  502    0  0.14275550161E+02  0.51307510690E+02  0.52951983891E+02  0.75217265196E+02  0.41800000000E+01 0.  1.
         -5    1    3    3    0  502 -0.10123350094E+03  0.82172493528E+02 -0.13456493710E+02  0.13114530120E+03  0.41800000000E+01 0.  1.
        -11    1    1    2    0    0  0.64335080621E+01 -0.82759051979E+02  0.93470404414E+02  0.12500866855E+03  0.00000000000E+00 0. -1.
         11    1    1    2    0    0  0.80524442715E+02 -0.50720952238E+02  0.47791504014E+02  0.10649332715E+03  0.00000000000E+00 0.  1.
</event>
<event>
 7    1  0.3265282E-009  0.1318680E+03  0.7561462E-02  0.1224710E+00
          2   -1    0    0  501    0  0.00000000000E+00  0.00000000000E+00  0.11591845565E+04  0.11591845565E+04  0.00000000000E+00 0.  1.
         -2   -1    0    0    0  501 -0.00000000000E+00 -0.00000000000E+00 -0.25915860975E+02  0.25915860975E+02  0.00000000000E+00 0. -1.
         25    2    1    2    0    0  0.42066739541E+02  0.80704944784E+02  0.93771315370E+03  0.95038732985E+03  0.12508884620E+03 0.  0.
          5    1    3    3  502    0  0.85433607048E+02  0.48839269169E+02  0.67866062201E+03  0.68577101696E+03  0.41800000000E+01 0.  1.
         -5    1    3    3    0  502 -0.43366867507E+02  0.31865675615E+02  0.25905253168E+03  0.26461631290E+03  0.41800000000E+01 0.  1.
        -11    1    1    2    0    0 -0.58984271580E+02 -0.56105072614E+02  0.75592497860E+02  0.11109072508E+03  0.00000000000E+00 0. -1.
         11    1    1    2    0    0  0.16917532039E+02 -0.24599872170E+02  0.11996304395E+03  0.12362236252E+03  0.00000000000E+00 0.  1.
</event>
<event>
 7    1  0.3988807E-009  0.1118163E+03  0.7561462E-02  0.1257243E+00
         -2   -1    0    0    0  501 -0.00000000000E+00  0.00000000000E+00  0.30797091226E+02  0.30797091226E+02  0.00000000000E+00 0.  1.
          2   -1    0    0  501    0  0.00000000000E+00 -0.00000000000E+00 -0.52270062346E+03  0.52270062346E+03  0.00000000000E+00 0. -1.
         25    2    1    2    0    0  0.58404401036E+02 -0.21630605117E+02 -0.31912885621E+03  0.34838258867E+03  0.12509294177E+03 0.  0.
          5    1    3    3  502    0  0.91187454209E+02  0.12611889786E+02 -0.21058015784E+03  0.22986014627E+03  0.41800000000E+01 0.  1.
         -5    1    3    3    0  502 -0.32783053173E+02 -0.34242494903E+02 -0.10854869838E+03  0.11852244240E+03  0.41800000000E+01 0.  1.
        -11    1    1    2    0    0 -0.47412194632E+02 -0.11668076078E+02 -0.28277775376E+02  0.56424221566E+02  0.00000000000E+00 0.  1.
         11    1    1    2    0    0 -0.10992206404E+02  0.33298681195E+02 -0.14449690064E+03  0.14869090445E+03  0.00000000000E+00 0. -1.
</event>
<event>
 7    1  0.3265282E-009  0.6341792E+02  0.7561462E-02  0.1384023E+00
          1   -1    0    0  501    0  0.00000000000E+00  0.00000000000E+00  0.33189139527E+03  0.33189139527E+03  0.00000000000E+00 0. -1.
         -1   -1    0    0    0  501 -0.00000000000E+00 -0.00000000000E+00 -0.41305437662E+02  0.41305437662E+02  0.00000000000E+00 0.  1.
         25    2    1    2    0    0  0.34901943853E+01  0.23210276679E+02  0.22005210620E+03  0.25420685303E+03  0.12508915335E+03 0.  0.
          5    1    3    3  502    0  0.48552578670E+01 -0.64919055945E+01  0.22376628205E+03  0.22395209254E+03  0.41800000000E+01 0. -1.
         -5    1    3    3    0  502 -0.13650634817E+01  0.29702182274E+02 -0.37141758589E+01  0.30254760492E+02  0.41800000000E+01 0. -1.
        -11    1    1    2    0    0  0.76947814087E+01  0.31203149206E+02  0.50653810591E+02  0.59988788191E+02  0.00000000000E+00 0. -1.
         11    1    1    2    0    0 -0.11184975794E+02 -0.54413425885E+02  0.19880040819E+02  0.59001191709E+02  0.00000000000E+00 0.  1.
</event>
<event>
 7    1  0.3265282E-009  0.7472145E+02  0.7561462E-02  0.1344736E+00
          2   -1    0    0  501    0  0.00000000000E+00  0.00000000000E+00  0.19025509544E+03  0.19025509544E+03  0.00000000000E+00 0. -1.
         -2   -1    0    0    0  501 -0.00000000000E+00 -0.00000000000E+00 -0.74123595598E+02  0.74123595598E+02  0.00000000000E+00 0.  1.
         25    2    1    2    0    0  0.39464051787E+02 -0.52742647803E+01  0.30484982232E+02  0.13476962919E+03  0.12509312354E+03 0.  0.
          5    1    3    3  502    0 -0.48440461229E+01 -0.52815385162E+01  0.72852280199E+02  0.73323165249E+02  0.41800000000E+01 0. -1.
         -5    1    3    3    0  502  0.44308097910E+02  0.72737359601E-02 -0.42367297967E+02  0.61446463937E+02  0.41800000000E+01 0. -1.
        -11    1    1    2    0    0 -0.30836904045E+02 -0.40025979025E+02  0.52151305921E+02  0.72613720172E+02  0.00000000000E+00 0.  1.
         11    1    1    2    0    0 -0.86271477423E+01  0.45300243805E+02  0.33495211686E+02  0.56995341677E+02  0.00000000000E+00 0. -1.
</event>
<event>
 7    1  0.3265282E-009  0.1699842E+03  0.7561462E-02  0.1177864E+00
         -2   -1    0    0    0  501 -0.00000000000E+00  0.00000000000E+00  0.25093160387E+02  0.25093160387E+02  0.00000000000E+00 0. -1.
          2   -1    0    0  501    0  0.00000000000E+00 -0.00000000000E+00 -0.12373786810E+04  0.12373786810E+04  0.00000000000E+00 0.  1.
         25    2    1    2    0    0 -0.12392316347E+03  0.55958650721E+02 -0.74531525471E+03  0.76787379314E+03  0.12508801804E+03 0.  0.
          5    1    3    3  502    0  0.23343801981E+02 -0.66982827269E+01 -0.10311694453E+03  0.10602064295E+03  0.41800000000E+01 0. -1.
         -5    1    3    3    0  502 -0.14726696545E+03  0.62656933448E+02 -0.64219831018E+03  0.66185315019E+03  0.41800000000E+01 0. -1.
        -11    1    1    2    0    0  0.60654630790E+02  0.12587625068E+02 -0.26473530170E+03  0.27188639632E+03  0.00000000000E+00 0.  1.
         11    1    1    2    0    0  0.63268532681E+02 -0.68546275790E+02 -0.20223496418E+03  0.22271165189E+03  0.00000000000E+00 0. -1.
</event>
<event>
 7    1  0.3265282E-009  0.9931622E+02  0.7561462E-02  0.1281740E+00
          2   -1    0    0  501    0  0.00000000000E+00  0.00000000000E+00  0.17641185738E+02  0.17641185738E+02  0.00000000000E+00 0. -1.
         -2   -1    0    0    0  501 -0.00000000000E+00 -0.00000000000E+00 -0.81895583444E+03  0.81895583444E+03  0.00000000000E+00 0.  1.
         25    2    1    2    0    0  0.42188946021E+02  0.47857569761E+01 -0.35898336963E+03  0.38251611135E+03  0.12508679040E+03 0.  0.
          5    1    3    3  502    0 -0.29975343279E+02 -0.37495735081E+01 -0.21602159476E+02  0.37372532698E+02  0.41800000000E+01 0. -1.
         -5    1    3    3    0  502  0.72164289300E+02  0.85353304842E+01 -0.33738121016E+03  0.34514357865E+03  0.41800000000E+01 0. -1.
        -11    1    1    2    0    0  0.57716219288E+00  0.36146065431E+02 -0.93182005822E+02  0.99948773737E+02  0.00000000000E+00 0. -1.
         11    1    1    2    0    0 -0.42766108214E+02 -0.40931822407E+02 -0.34914927324E+03  0.35413213509E+03  0.00000000000E+00 0.  1.
</event>
<event>
 7    1  0.4241646E-009  0.1478981E+03  0.7561462E-02  0.1203080E+00
          1   -1    0    0  501    0  0.00000000000E+00  0.00000000000E+00  0.22529342499E+03  0.22529342499E+03  0.00000000000E+00 0. -1.
         -1   -1    0    0    0  501 -0.00000000000E+00 -0.00000000000E+00 -0.11800321437E+03  0.11800321437E+03  0.00000000000E+00 0.  1.
         25    2    1    2    0    0 -0.12091457305E+03 -0.69132063997E+01  0.64073200382E+02  0.18552938380E+03  0.12509057057E+03 0.  0.
          5    1    3    3  502    0 -0.94441362950E+02  0.39364311486E+02  0.43296704534E+00  0.10240302688E+03  0.41800000000E+01 0.  1.
         -5    1    3    3    0  502 -0.26473210104E+02 -0.46277517886E+02  0.63640233337E+02  0.83126356916E+02  0.41800000000E+01 0.  1.
        -11    1    1    2    0    0  0.31522889935E+02  0.34142167576E+02  0.44459958646E+02  0.64312270364E+02  0.00000000000E+00 0.  1.
         11    1    1    2    0    0  0.89391683119E+02 -0.27228961176E+02 -0.12429484033E+01  0.93454985198E+02  0.00000000000E+00 0. -1.
</event>
<event>
 7    1  0.3265282E-009  0.1181369E+03  0.7561462E-02  0.1246203E+00
         -4   -1    0    0    0  501 -0.00000000000E+00  0.00000000000E+00  0.27624153549E+02  0.27624153549E+02  0.00000000000E+00 0.  1.
          4   -1    0    0  501    0  0.00000000000E+00 -0.00000000000E+00 -0.64633721009E+03  0.64633721009E+03  0.00000000000E+00 0. -1.
         25    2    1    2    0    0  0.57173493194E+02 -0.30142808434E+02 -0.23720456790E+03  0.27584566207E+03  0.12508966795E+03 0.  0.
          5    1    3    3  502    0 -0.95027157022E+01 -0.52886688591E+02 -0.42162352064E+02  0.68428354996E+02  0.41800000000E+01 0.  1.
         -5    1    3    3    0  502  0.66676208897E+02  0.22743880157E+02 -0.19504221583E+03  0.20741730708E+03  0.41800000000E+01 0.  1.
        -11    1    1    2    0    0 -0.79181699637E+02  0.38773597759E+02 -0.26658028456E+03  0.28078137680E+03  0.00000000000E+00 0. -1.
         11    1    1    2    0    0  0.22008206442E+02 -0.86307893249E+01 -0.11492820408E+03  0.11733432477E+03  0.00000000000E+00 0.  1.
</event>
<event>
 7    1  0.3265282E-009  0.9897024E+02  0.7561462E-02  0.1282476E+00
         -2   -1    0    0    0  501 -0.00000000000E+00  0.00000000000E+00  0.84410972493E+03  0.84410972493E+03  0.00000000000E+00 0.  1.
          2   -1    0    0  501    0  0.00000000000E+00 -0.00000000000E+00 -0.17589981864E+02  0.17589981864E+02  0.00000000000E+00 0. -1.
         25    2    1    2    0    0  0.44081563436E+02  0.29958334838E+02  0.53114374939E+03  0.54827384344E+03  0.12509931583E+03 0.  0.
          5    1    3    3  502    0 -0.44545152842E+01  0.43242835793E+02  0.58827817220E+02  0.73266431827E+02  0.41800000000E+01 0.  1.
         -5    1    3    3    0  502  0.48536078720E+02 -0.13284500956E+02  0.47231593217E+03  0.47500741161E+03  0.41800000000E+01 0.  1.
        -11    1    1    2    0    0 -0.62020432040E+02 -0.47928964040E+02  0.24071721769E+03  0.25315706286E+03  0.00000000000E+00 0.  1.
         11    1    1    2    0    0  0.17938868604E+02  0.17970629202E+02  0.54658775980E+02  0.60268800489E+02  0.00000000000E+00 0. -1.
</event>
<event>
 7    1  0.3265282E-009  0.1113518E+03  0.7561462E-02  0.1258087E+00
         -4   -1    0    0    0  501 -0.00000000000E+00  0.00000000000E+00  0.28522137366E+02  0.28522137366E+02  0.00000000000E+00 0.  1.
          4   -1    0    0  501    0  0.00000000000E+00 -0.00000000000E+00 -0.76142998085E+03  0.76142998085E+03  0.00000000000E+00 0. -1.
         25    2    1    2    0    0  0.86887391691E+02  0.41115807023E+01 -0.47651053681E+03  0.50027578251E+03  0.12508894016E+03 0.  0.
          5    1    3    3  502    0  0.56061892686E+01 -0.27794288999E+02 -0.31773688784E+03  0.31902688625E+03  0.41800000000E+01 0.  1.
         -5    1    3    3    0  502  0.81281202422E+02  0.31905869702E+02 -0.15877364897E+03  0.18124889626E+03  0.41800000000E+01 0.  1.
        -11    1    1    2    0    0 -0.88074656389E+02 -0.20306867335E+02 -0.25798500252E+03  0.27336015709E+03  0.00000000000E+00 0. -1.
         11    1    1    2    0    0  0.11872646982E+01  0.16195286633E+02  0.15876958387E+01  0.16316178617E+02  0.00000000000E+00 0.  1.
</event>
<event>
 7    1  0.3265282E-009  0.1265647E+03  0.7561462E-02  0.1232644E+00
          2   -1    0    0  501    0  0.00000000000E+00  0.00000000000E+00  0.14397160268E+04  0.14397160268E+04  0.00000000000E+00 0. -1.
         -2   -1    0    0    0  501 -0.00000000000E+00 -0.00000000000E+00 -0.15244498047E+02  0.15244498047E+02  0.00000000000E+00 0.  1.
         25    2    1    2    0    0  0.49258946547E+02  0.60456317888E+02  0.10829354813E+04  0.10929209851E+04  0.12508242374E+03 0.  0.
          5    1    3    3  502    0  0.32636059749E+02  0.95249379774E+02  0.91662231498E+03  0.92214505229E+03  0.41800000000E+01 0. -1.
         -5    1    3    3    0  502  0.16622886799E+02 -0.34793061886E+02  0.16631316635E+03  0.17077593279E+03  0.41800000000E+01 0. -1.
        -11    1    1    2    0    0 -0.51020202775E+02  0.20295545544E+01  0.21400697071E+03  0.22001400795E+03  0.00000000000E+00 0.  1.
         11    1    1    2    0    0  0.17612562281E+01 -0.62485872443E+02  0.12752907672E+03  0.14202553182E+03  0.00000000000E+00 0. -1.
</event>
<event>
 7    1  0.3265282E-009  0.5804505E+02  0.7561462E-02  0.1406224E+00
         -1   -1    0    0    0  501 -0.00000000000E+00  0.00000000000E+00  0.41611479694E+02  0.41611479694E+02  0.00000000000E+00 0.  1.
          1   -1    0    0  501    0  0.00000000000E+00 -0.00000000000E+00 -0.31262134385E+03  0.31262134385E+03  0.00000000000E+00 0. -1.
         25    2    1    2    0    0 -0.11616984614E+01 -0.36081982726E+02 -0.14766816015E+03  0.19686962539E+03  0.12509398410E+03 0.  0.
          5    1    3    3  502    0 -0.32233565152E+02 -0.36172863668E+02 -0.15683780881E+03  0.16420429184E+03  0.41800000000E+01 0. -1.
         -5    1    3    3    0  502  0.31071866690E+02  0.90880941314E-01  0.91696486580E+01  0.32665333543E+02  0.41800000000E+01 0. -1.
        -11    1    1    2    0    0  0.59938784992E-01  0.12119677605E+02  0.13669092241E+02  0.18268395129E+02  0.00000000000E+00 0.  1.
         11    1    1    2    0    0  0.11017596764E+01  0.23962305121E+02 -0.13701079625E+03  0.13909480303E+03  0.00000000000E+00 0. -1.
</event>
<event>
 7    1  0.3265282E-009  0.1036243E+03  0.7561462E-02  0.1272854E+00
          2   -1    0    0  501    0  0.00000000000E+00  0.00000000000E+00  0.14249840567E+03  0.14249840567E+03  0.00000000000E+00 0. -1.
         -2   -1    0    0    0  501 -0.00000000000E+00 -0.00000000000E+00 -0.12935660649E+03  0.12935660649E+03  0.00000000000E+00 0.  1.
         25    2    1    2    0    0 -0.65923827420E+01 -0.19051555106E+02 -0.70735171220E+02  0.14511184941E+03  0.12509021996E+03 0.  0.
          5    1    3    3  502    0  0.49669529187E+02  0.17444897987E+02 -0.84308900397E+01  0.53478396595E+02  0.41800000000E+01 0. -1.
         -5    1    3    3    0  502 -0.56261911929E+02 -0.36496453092E+02 -0.62304281181E+02  0.91633452820E+02  0.41800000000E+01 0. -1.
        -11    1    1    2    0    0  0.33051433937E+02  0.41144967252E+02  0.24725610610E+02  0.58280883963E+02  0.00000000000E+00 0.  1.
         11    1    1    2    0    0 -0.26459051195E+02 -0.22093412146E+02  0.59151359797E+02  0.68462278784E+02  0.00000000000E+00 0. -1.
</event>
<event>
 7    1  0.3265282E-009  0.2452149E+03  0.7561462E-02  0.1116367E+00
         -1   -1    0    0    0  501 -0.00000000000E+00  0.00000000000E+00  0.96834862618E+02  0.96834862618E+02  0.00000000000E+00 0.  1.
          1   -1    0    0  501    0  0.00000000000E+00 -0.00000000000E+00 -0.73152022883E+03  0.73152022883E+03  0.00000000000E+00 0. -1.
         25    2    1    2    0    0 -0.22491839335E+03 -0.93535085387E+02 -0.31726274286E+03  0.41909201447E+03  0.12508146435E+03 0.  0.
          5    1    3    3  502    0 -0.51288104389E+02 -0.25884547402E+02 -0.17609372777E+03  0.18527534322E+03  0.41800000000E+01 0.  1.
         -5    1    3    3    0  502 -0.17363028896E+03 -0.67650537985E+02 -0.14116901509E+03  0.23381667125E+03  0.41800000000E+01 0.  1.
        -11    1    1    2    0    0  0.43344024009E+02  0.27481538027E+01 -0.16909603915E+02  0.46606774949E+02  0.00000000000E+00 0.  1.
         11    1    1    2    0    0  0.18157436934E+03  0.90786931584E+02 -0.30051301944E+03  0.36265630203E+03  0.00000000000E+00 0. -1.
</event>
<event>
 7    1  0.3265282E-009  0.8599607E+02  0.7561462E-02  0.1312848E+00
         -2   -1    0    0    0  501 -0.00000000000E+00  0.00000000000E+00  0.64869613180E+02  0.64869613180E+02  0.00000000000E+00 0. -1.
          2   -1    0    0  501    0  0.00000000000E+00 -0.00000000000E+00 -0.22919102651E+03  0.22919102651E+03  0.00000000000E+00 0.  1.
         25    2    1    2    0    0 -0.41244313019E+02  0.32985332140E+02 -0.67150577465E+02  0.15149020116E+03  0.12510377893E+03 0.  0.
          5    1    3    3  502    0 -0.26804151508E+02 -0.47702807309E+01 -0.97149439045E+02  0.10097873055E+03  0.41800000000E+01 0. -1.
         -5    1    3    3    0  502 -0.14440161511E+02  0.37755612871E+02  0.29998861580E+02  0.50511470616E+02  0.41800000000E+01 0. -1.
        -11    1    1    2    0    0  0.38308557503E+02  0.25003542508E+02 -0.49921355676E+02  0.67711627276E+02  0.00000000000E+00 0.  1.
         11    1    1    2    0    0  0.29357555160E+01 -0.57988874648E+02 -0.47249480187E+02  0.74858811247E+02  0.00000000000E+00 0. -1.
</event>
<event>
 7    1  0.3265282E-009  0.9663270E+02  0.7561462E-02  0.1287541E+00
          2   -1    0    0  501    0  0.00000000000E+00  0.00000000000E+00  0.97289984012E+02  0.97289984012E+02  0.00000000000E+00 0. -1.
         -2   -1    0    0    0  501 -0.00000000000E+00 -0.00000000000E+00 -0.15752051797E+03  0.15752051797E+03  0.00000000000E+00 0.  1.
         25    2    1    2    0    0 -0.55788381652E+02  0.14646207586E+02 -0.18361739145E+02  0.13896615401E+03  0.12509030168E+03 0.  0.
          5    1    3    3  502    0 -0.29944566595E+02  0.43616200685E+02 -0.61197887805E+02  0.81004344961E+02  0.41800000000E+01 0. -1.
         -5    1    3    3    0  502 -0.25843815057E+02 -0.28969993099E+02  0.42836148660E+02  0.57961809054E+02  0.41800000000E+01 0. -1.
        -11    1    1    2    0    0  0.80322897482E+01 -0.44241628245E+02  0.13128171321E+01  0.44984028690E+02  0.00000000000E+00 0. -1.
         11    1    1    2    0    0  0.47756091904E+02  0.29595420658E+02 -0.43181611944E+02  0.70860319276E+02  0.00000000000E+00 0.  1.
</event>
<event>
 7    1  0.3265282E-009  0.1203606E+03  0.7561462E-02  0.1242503E+00
         -2   -1    0    0    0  501 -0.00000000000E+00  0.00000000000E+00  0.18278702735E+02  0.18278702735E+02  0.00000000000E+00 0.  1.
          2   -1    0    0  501    0  0.00000000000E+00 -0.00000000000E+00 -0.90097988168E+03  0.90097988168E+03  0.00000000000E+00 0. -1.
         25    2    1    2    0    0 -0.53039031093E+02  0.13690344253E+02 -0.58833117452E+03  0.60396911636E+03  0.12507820855E+03 0.  0.
          5    1    3    3  502    0 -0.28499302096E+02  0.65329318067E+02 -0.42295928320E+03  0.42894307043E+03  0.41800000000E+01 0.  1.
         -5    1    3    3    0  502 -0.24539728997E+02 -0.51638973815E+02 -0.16537189132E+03  0.17502604593E+03  0.41800000000E+01 0.  1.
        -11    1    1    2    0    0  0.42449621751E-01  0.37980644788E+02 -0.11979026558E+03  0.12566717514E+03  0.00000000000E+00 0. -1.
         11    1    1    2    0    0  0.52996581471E+02 -0.51670989041E+02 -0.17457973885E+03  0.18962229292E+03  0.00000000000E+00 0.  1.
</event>
<event>
 7    1  0.3265282E-009  0.1793406E+03  0.7561462E-02  0.1168443E+00
          1   -1    0    0  501    0  0.00000000000E+00  0.00000000000E+00  0.26741345852E+03  0.26741345852E+03  0.00000000000E+00 0. -1.
         -1   -1    0    0    0  501 -0.00000000000E+00 -0.00000000000E+00 -0.14507064284E+03  0.14507064284E+03  0.00000000000E+00 0.  1.
         25    2    1    2    0    0 -0.12284747554E+03  0.10581365246E+03  0.35776456968E+02  0.20788077872E+03  0.12508569860E+03 0.  0.
          5    1    3    3  502    0 -0.11507931622E+03  0.45542652037E+02  0.65514167594E+02  0.14009625524E+03  0.41800000000E+01 0.  1.
         -5    1    3    3    0  502 -0.77681593249E+01  0.60271000420E+02 -0.29737710626E+02  0.67784523486E+02  0.41800000000E+01 0.  1.
        -11    1    1    2    0    0  0.85146221868E+01 -0.42291446856E+02  0.55277376905E+02  0.70118853853E+02  0.00000000000E+00 0. -1.
         11    1    1    2    0    0  0.11433285336E+03 -0.63522205601E+02  0.31288981810E+02  0.13448446878E+03  0.00000000000E+00 0.  1.
</event>
<event>
 7    1  0.3265282E-009  0.9363877E+02  0.7561462E-02  0.1294272E+00
          1   -1    0    0  501    0  0.00000000000E+00  0.00000000000E+00  0.17288129083E+03  0.17288129083E+03  0.00000000000E+00 0. -1.
         -1   -1    0    0    0  501 -0.00000000000E+00 -0.00000000000E+00 -0.69216024104E+02  0.69216024104E+02  0.00000000000E+00 0.  1.
         25    2    1    2    0    0 -0.21969429622E+02 -0.43559516973E+02  0.72800087998E+02  0.15273129377E+03  0.12508760102E+03 0.  0.
          5    1    3    3  502    0  0.33168729093E+02 -0.46646765104E+02  0.78296452752E+02  0.97076733556E+02  0.41800000000E+01 0. -1.
         -5    1    3    3    0  502 -0.55138158715E+02  0.30872481302E+01 -0.54963647543E+01  0.55654560218E+02  0.41800000000E+01 0. -1.
        -11    1    1    2    0    0  0.14394318757E+00 -0.13455274946E+02  0.24543452611E+02  0.27990109138E+02  0.00000000000E+00 0. -1.
         11    1    1    2    0    0  0.21825486435E+02  0.57014791920E+02  0.63217261202E+01  0.61375912025E+02  0.00000000000E+00 0.  1.
</event>
<event>
 7    1  0.3265282E-009  0.1456736E+03  0.7561462E-02  0.1205892E+00
          1   -1    0    0  501    0  0.00000000000E+00  0.00000000000E+00  0.28822025637E+03  0.28822025637E+03  0.00000000000E+00 0. -1.
         -1   -1    0    0    0  501 -0.00000000000E+00 -0.00000000000E+00 -0.11089338392E+03  0.11089338392E+03  0.00000000000E+00 0.  1.
         25    2    1    2    0    0 -0.49838293288E+02 -0.12817551205E+03  0.12354492765E+03  0.22321465147E+03  0.12509442080E+03 0.  0.
          5    1    3    3  502    0 -0.43163513297E+02 -0.73531284091E+02  0.14141684812E+03  0.16518515658E+03  0.41800000000E+01 0.  1.
         -5    1    3    3    0  502 -0.66747799908E+01 -0.54644227954E+02 -0.17871920467E+02  0.58029494896E+02  0.41800000000E+01 0.  1.
        -11    1    1    2    0    0  0.60289820450E+02  0.73295375879E+02 -0.46991935985E+01  0.95021876405E+02  0.00000000000E+00 0. -1.
         11    1    1    2    0    0 -0.10451527162E+02  0.54880136166E+02  0.58481138386E+02  0.80877112415E+02  0.00000000000E+00 0.  1.
</event>
<event>
 7    1  0.3265282E-009  0.1378472E+03  0.7561462E-02  0.1216255E+00
         -1   -1    0    0    0  501 -0.00000000000E+00  0.00000000000E+00  0.35105722137E+02  0.35105722137E+02  0.00000000000E+00 0.  1.
          1   -1    0    0  501    0  0.00000000000E+00 -0.00000000000E+00 -0.79603730945E+03  0.79603730945E+03  0.00000000000E+00 0. -1.
         25    2    1    2    0    0 -0.54474133997E+02  0.95069092608E+02 -0.55109724101E+03  0.57563782482E+03  0.12508066468E+03 0.  0.
          5    1    3    3  502    0 -0.62398902267E+00 -0.13883705024E+02 -0.25674805506E+03  0.25715789470E+03  0.41800000000E+01 0. -1.
         -5    1    3    3    0  502 -0.53850144974E+02  0.10895279763E+03 -0.29434918595E+03  0.31847993013E+03  0.41800000000E+01 0. -1.
        -11    1    1    2    0    0  0.16495270135E+02 -0.99934221038E+02 -0.11506664232E+03  0.15329473131E+03  0.00000000000E+00 0.  1.
         11    1    1    2    0    0  0.37978863862E+02  0.48651284297E+01 -0.94767703983E+02  0.10221047546E+03  0.00000000000E+00 0. -1.
</event>
<event>
 7    1  0.3265282E-009  0.1286991E+03  0.7561462E-02  0.1229399E+00
         -1   -1    0    0    0  501 -0.00000000000E+00  0.00000000000E+00  0.75958671773E+02  0.75958671773E+02  0.00000000000E+00 0.  1.
          1   -1    0    0  501    0  0.00000000000E+00 -0.00000000000E+00 -0.32658184368E+03  0.32658184368E+03  0.00000000000E+00 0. -1.
         25    2    1    2    0    0 -0.47983318582E+02 -0.10236661562E+03 -0.13915328043E+03  0.21861316349E+03  0.12508699749E+03 0.  0.
          5    1    3    3  502    0 -0.52814750823E+01  0.15501114849E+02  0.13071965418E+02  0.21366497619E+02  0.41800000000E+01 0.  1.
         -5    1    3    3    0  502 -0.42701843500E+02 -0.11786773047E+03 -0.15222524585E+03  0.19724666587E+03  0.41800000000E+01 0.  1.
        -11    1    1    2    0    0  0.21598739713E+02  0.23585629239E+02  0.12796225121E+02  0.34446056975E+02  0.00000000000E+00 0.  1.
         11    1    1    2    0    0  0.26384578869E+02  0.78780986382E+02 -0.12426611660E+03  0.14948129499E+03  0.00000000000E+00 0. -1.
</event>
<event>
 7    1  0.3265282E-009  0.1213431E+03  0.7561462E-02  0.1240898E+00
          2   -1    0    0  501    0  0.00000000000E+00  0.00000000000E+00  0.30740724765E+03  0.30740724765E+03  0.00000000000E+00 0. -1.
         -2   -1    0    0    0  501 -0.00000000000E+00 -0.00000000000E+00 -0.49323511611E+02  0.49323511611E+02  0.00000000000E+00 0.  1.
         25    2    1    2    0    0 -0.48695477159E+02 -0.34534054471E+02  0.13735835644E+03  0.19515299280E+03  0.12511403638E+03 0.  0.
          5    1    3    3  502    0 -0.14563322427E+02 -0.79277392445E+02  0.66562677287E+02  0.10461862989E+03  0.41800000000E+01 0.  1.
         -5    1    3    3    0  502 -0.34132154732E+02  0.44743337973E+02  0.70795679152E+02  0.90534362903E+02  0.41800000000E+01 0.  1.
        -11    1    1    2    0    0  0.74095739237E+02  0.22502543040E+02  0.10086823035E+03  0.12716502235E+03  0.00000000000E+00 0. -1.
         11    1    1    2    0    0 -0.25400262078E+02  0.12031511432E+02  0.19857149248E+02  0.34412744110E+02  0.00000000000E+00 0.  1.
</event>
<event>
 7    1  0.3265282E-009  0.1097490E+03  0.7561462E-02  0.1261035E+00
          3   -1    0    0  501    0  0.00000000000E+00  0.00000000000E+00  0.13575537715E+02  0.13575537715E+02  0.00000000000E+00 0. -1.
         -3   -1    0    0    0  501 -0.00000000000E+00 -0.00000000000E+00 -0.10501061050E+04  0.10501061050E+04  0.00000000000E+00 0.  1.
         25    2    1    2    0    0  0.79044996133E-01 -0.19247261987E+02 -0.78837002222E+03  0.79846420682E+03  0.12508930527E+03 0.  0.
          5    1    3    3  502    0 -0.54203325306E+02  0.21321734752E+02 -0.39061489485E+03  0.39495580173E+03  0.41800000000E+01 0.  1.
         -5    1    3    3    0  502  0.54282370302E+02 -0.40568996739E+02 -0.39775512738E+03  0.40350840509E+03  0.41800000000E+01 0.  1.
        -11    1    1    2    0    0  0.35204754150E+02 -0.19952137790E+02 -0.11956366053E+03  0.12622571623E+03  0.00000000000E+00 0. -1.
         11    1    1    2    0    0 -0.35283799147E+02  0.39199399776E+02 -0.12859688453E+03  0.13899171967E+03  0.00000000000E+00 0.  1.
</event>
<event>
 7    1  0.3265282E-009  0.9592708E+02  0.7561462E-02  0.1289102E+00
          1   -1    0    0  501    0  0.00000000000E+00  0.00000000000E+00  0.15658587574E+04  0.15658587574E+04  0.00000000000E+00 0. -1.
         -1   -1    0    0    0  501 -0.00000000000E+00 -0.00000000000E+00 -0.10802195883E+02  0.10802195883E+02  0.00000000000E+00 0.  1.
         25    2    1    2    0    0  0.70208602479E+01 -0.15492524010E+01  0.12911187516E+04  0.12971883892E+04  0.12513350323E+03 0.  0.
          5    1    3    3  502    0  0.18150040827E+02 -0.56463940256E+02  0.41103971471E+03  0.41531761340E+03  0.41800000000E+01 0.  1.
         -5    1    3    3    0  502 -0.11129180579E+02  0.54914687855E+02  0.88007903693E+03  0.88187077582E+03  0.41800000000E+01 0.  1.
        -11    1    1    2    0    0 -0.35075103841E+02  0.22080398842E+02  0.21777285750E+03  0.22168180887E+03  0.00000000000E+00 0. -1.
         11    1    1    2    0    0  0.28054243593E+02 -0.20531146441E+02  0.46164952400E+02  0.57790755211E+02  0.00000000000E+00 0.  1.
</event>
<event>
 7    1  0.3265282E-009  0.1103112E+03  0.7561462E-02  0.1259995E+00
          1   -1    0    0  501    0  0.00000000000E+00  0.00000000000E+00  0.10688633487E+04  0.10688633487E+04  0.00000000000E+00 0. -1.
         -1   -1    0    0    0  501 -0.00000000000E+00 -0.00000000000E+00 -0.23762962592E+02  0.23762962592E+02  0.00000000000E+00 0.  1.
         25    2    1    2    0    0  0.15030457750E+01  0.73662901106E+02  0.88800560307E+03  0.89979361407E+03  0.12508443024E+03 0.  0.
          5    1    3    3  502    0  0.40026426793E+02  0.53171792221E+02  0.20913137816E+03  0.21950571760E+03  0.41800000000E+01 0. -1.
         -5    1    3    3    0  502 -0.38523381018E+02  0.20491108885E+02  0.67887422491E+03  0.68028789646E+03  0.41800000000E+01 0. -1.
        -11    1    1    2    0    0  0.36727891021E+02 -0.14129345194E+02  0.40642516149E+02  0.56571993896E+02  0.00000000000E+00 0. -1.
         11    1    1    2    0    0 -0.38230936796E+02 -0.59533555913E+02  0.11645226689E+03  0.13626070333E+03  0.00000000000E+00 0.  1.
</event>
<event>
 7    1  0.3265282E-009  0.1605594E+03  0.7561462E-02  0.1188067E+00
          2   -1    0    0  501    0  0.00000000000E+00  0.00000000000E+00  0.22815294241E+03  0.22815294241E+03  0.00000000000E+00 0. -1.
         -2   -1    0    0    0  501 -0.00000000000E+00 -0.00000000000E+00 -0.12240179481E+03  0.12240179481E+03  0.00000000000E+00 0.  1.
         25    2    1    2    0    0  0.86069987674E+02 -0.83244996428E+02  0.13601493519E+02  0.17369291027E+03  0.12508578754E+03 0.  0.
          5    1    3    3  502    0  0.14078319175E+02 -0.95844575837E+02 -0.82023569409E+01  0.97309469465E+02  0.41800000000E+01 0.  1.
         -5    1    3    3    0  502  0.71991668500E+02  0.12599579409E+02  0.21803850460E+02  0.76383440807E+02  0.41800000000E+01 0.  1.
        -11    1    1    2    0    0  0.53233946808E+01 -0.15507769697E+02  0.94311569745E+01  0.18914972212E+02  0.00000000000E+00 0. -1.
         11    1    1    2    0    0 -0.91393382355E+02  0.98752766125E+02  0.82718497111E+02  0.15794685473E+03  0.00000000000E+00 0.  1.
</event>
<event>
 7    1  0.3265282E-009  0.7715332E+02  0.7561462E-02  0.1337330E+00
         -3   -1    0    0    0  501 -0.00000000000E+00  0.00000000000E+00  0.63791536362E+02  0.63791536362E+02  0.00000000000E+00 0.  1.
          3   -1    0    0  501    0  0.00000000000E+00 -0.00000000000E+00 -0.20725330925E+03  0.20725330925E+03  0.00000000000E+00 0. -1.
         25    2    1    2    0    0 -0.36160482651E+02  0.13582862579E+02 -0.10392460445E+03  0.16715189145E+03  0.12508939501E+03 0.  0.
          5    1    3    3  502    0  0.50033684234E+01  0.16977892207E+02  0.25449663918E+02  0.31280030577E+02  0.41800000000E+01 0.  1.
         -5    1    3    3    0  502 -0.41163851075E+02 -0.33950296272E+01 -0.12937426836E+03  0.13587186087E+03  0.41800000000E+01 0.  1.
        -11    1    1    2    0    0 -0.64827678000E+01  0.31728186886E+02 -0.51172866084E+01  0.32785526435E+02  0.00000000000E+00 0.  1.
         11    1    1    2    0    0  0.42643250451E+02 -0.45311049465E+02 -0.34419881830E+02  0.71107427727E+02  0.00000000000E+00 0. -1.
</event>
<event>
 7    1  0.3265282E-009  0.8670819E+02  0.7561462E-02  0.1311025E+00
          1   -1    0    0  501    0  0.00000000000E+00  0.00000000000E+00  0.93040261594E+02  0.93040261594E+02  0.00000000000E+00 0. -1.
         -1   -1    0    0    0  501 -0.00000000000E+00 -0.00000000000E+00 -0.18344806959E+03  0.18344806959E+03  0.00000000000E+00 0.  1.
         25    2    1    2    0    0 -0.53798950816E+02 -0.23488442135E+02 -0.34713248191E+01  0.13822401100E+03  0.12509113917E+03 0.  0.
          5    1    3    3  502    0 -0.70793782125E+02 -0.48710492227E+01  0.44505426743E+02  0.83867109868E+02  0.41800000000E+01 0. -1.
         -5    1    3    3    0  502  0.16994831309E+02 -0.18617392912E+02 -0.47976751563E+02  0.54356901131E+02  0.41800000000E+01 0. -1.
        -11    1    1    2    0    0  0.51496067411E+02  0.36785510920E+02 -0.10073446234E+03  0.11896407305E+03  0.00000000000E+00 0.  1.
         11    1    1    2    0    0  0.23028834058E+01 -0.13297068785E+02  0.13797979170E+02  0.19300247134E+02  0.00000000000E+00 0. -1.
</event>
<event>
 7    1  0.3265282E-009  0.1083189E+03  0.7561462E-02  0.1263715E+00
         -2   -1    0    0    0  501 -0.00000000000E+00  0.00000000000E+00  0.18483887218E+02  0.18483887218E+02  0.00000000000E+00 0.  1.
          2   -1    0    0  501    0  0.00000000000E+00 -0.00000000000E+00 -0.65714911751E+03  0.65714911751E+03  0.00000000000E+00 0. -1.
         25    2    1    2    0    0 -0.70444183370E+01 -0.77028877219E+01 -0.42748074201E+03  0.44553040454E+03  0.12509435747E+03 0.  0.
          5    1    3    3  502    0 -0.63081437284E+02  0.14478419002E+02 -0.20695869981E+03  0.21688307489E+03  0.41800000000E+01 0. -1.
         -5    1    3    3    0  502  0.56037018947E+02 -0.22181306724E+02 -0.22052204220E+03  0.22864732965E+03  0.41800000000E+01 0. -1.
        -11    1    1    2    0    0 -0.20228004920E+02  0.42553030665E+02 -0.10873899295E+03  0.11850781067E+03  0.00000000000E+00 0.  1.
         11    1    1    2    0    0  0.27272423257E+02 -0.34850142944E+02 -0.10244549533E+03  0.11159478952E+03  0.00000000000E+00 0. -1.
</event>
<event>
 7    1  0.3265282E-009  0.9674706E+02  0.7561462E-02  0.1287289E+00
          1   -1    0    0  501    0  0.00000000000E+00  0.00000000000E+00  0.22650841414E+02  0.22650841414E+02  0.00000000000E+00 0. -1.
         -1   -1    0    0    0  501 -0.00000000000E+00 -0.00000000000E+00 -0.49629511738E+03  0.49629511738E+03  0.00000000000E+00 0.  1.
         25    2    1    2    0    0 -0.23618969325E+02  0.38617095653E+01 -0.35170083563E+03  0.37404803074E+03  0.12508270465E+03 0.  0.
          5    1    3    3  502    0 -0.56963262652E+02  0.37678890041E+02 -0.27780480039E+03  0.28610748254E+03  0.41800000000E+01 0. -1.
         -5    1    3    3    0  502  0.33344293327E+02 -0.33817180476E+02 -0.73896035241E+02  0.87940548196E+02  0.41800000000E+01 0. -1.
        -11    1    1    2    0    0 -0.34489050097E+01 -0.35551098112E+02 -0.67121242109E+02  0.76033128733E+02  0.00000000000E+00 0. -1.
         11    1    1    2    0    0  0.27067874335E+02  0.31689388546E+02 -0.54822198229E+02  0.68864799326E+02  0.00000000000E+00 0.  1.
</event>
<event>
 7    1  0.3265282E-009  0.1449479E+03  0.7561462E-02  0.1206822E+00
         -1   -1    0    0    0  501 -0.00000000000E+00  0.00000000000E+00  0.10963842820E+03  0.10963842820E+03  0.00000000000E+00 0.  1.
          1   -1    0    0  501    0  0.00000000000E+00 -0.00000000000E+00 -0.29150983437E+03  0.29150983437E+03  0.00000000000E+00 0. -1.
         25    2    1    2    0    0  0.95776147303E+02 -0.26581413609E+02  0.16869118530E+02  0.16066063000E+03  0.12509048298E+03 0.  0.
          5    1    3    3  502    0  0.21566716593E+02 -0.69931266118E+02  0.19126888533E+01  0.73325548236E+02  0.41800000000E+01 0. -1.
         -5    1    3    3    0  502  0.74209430710E+02  0.43349852508E+02  0.14956429676E+02  0.87335081768E+02  0.41800000000E+01 0. -1.
        -11    1    1    2    0    0  0.83936128536E+01  0.24996989487E+02 -0.70451505438E+02  0.75224443093E+02  0.00000000000E+00 0. -1.
         11    1    1    2    0    0 -0.10416976016E+03  0.15844241224E+01 -0.12828901926E+03  0.16526318947E+03  0.00000000000E+00 0.  1.
</event>
<event>
 7    1  0.3265282E-009  0.1054698E+03  0.7561462E-02  0.1269197E+00
         -2   -1    0    0    0  501 -0.00000000000E+00  0.00000000000E+00  0.48446128101E+03  0.48446128101E+03  0.00000000000E+00 0.  1.
          2   -1    0    0  501    0  0.00000000000E+00 -0.00000000000E+00 -0.42892464492E+02  0.42892464492E+02  0.00000000000E+00 0. -1.
         25    2    1    2    0    0  0.90906807843E+02 -0.25116187035E+02  0.27275367977E+03  0.31454241578E+03  0.12508993140E+03 0.  0.
          5    1    3    3  502    0  0.82831753464E+02 -0.37938553285E+02  0.80501442595E+02  0.12164862460E+03  0.41800000000E+01 0.  1.
         -5    1    3    3    0  502  0.80750543784E+01  0.12822366249E+02  0.19225223717E+03  0.19289379118E+03  0.41800000000E+01 0.  1.
        -11    1    1    2    0    0 -0.42911067974E+02  0.34565177123E+02  0.15102003632E+03  0.16075808718E+03  0.00000000000E+00 0.  1.
         11    1    1    2    0    0 -0.47995739869E+02 -0.94489900877E+01  0.17795100432E+02  0.52053242537E+02  0.00000000000E+00 0. -1.
</event>
<event>
 7    1  0.3265282E-009  0.9200673E+02  0.7561462E-02  0.1298064E+00
         -3   -1    0    0    0  501 -0.00000000000E+00  0.00000000000E+00  0.98014227618E+02  0.98014227618E+02  0.00000000000E+00 0.  1.
          3   -1    0    0  501    0  0.00000000000E+00 -0.00000000000E+00 -0.12049515275E+03  0.12049515275E+03  0.00000000000E+00 0. -1.
         25    2    1    2    0    0  0.17734647129E+02  0.13730411567E+02 -0.15834962863E+02  0.12806778303E+03  0.12509024378E+03 0.  0.
          5    1    3    3  502    0 -0.28696098000E+02 -0.22956699107E+02 -0.47991471147E+02  0.60589848796E+02  0.41800000000E+01 0. -1.
         -5    1    3    3    0  502  0.46430745129E+02  0.36687110674E+02  0.32156508284E+02  0.67477934230E+02  0.41800000000E+01 0. -1.
        -11    1    1    2    0    0 -0.18804992738E+02  0.34590561141E+02  0.75031284514E+01  0.40080314476E+02  0.00000000000E+00 0.  1.
         11    1    1    2    0    0  0.10703456093E+01 -0.48320972709E+02 -0.14149090716E+02  0.50361282860E+02  0.00000000000E+00 0. -1.
</event>
<event>
 7    1  0.3265282E-009  0.1589566E+03  0.7561462E-02  0.1189880E+00
         -2   -1    0    0    0  501 -0.00000000000E+00  0.00000000000E+00  0.82377189693E+02  0.82377189693E+02  0.00000000000E+00 0. -1.
          2   -1    0    0  501    0  0.00000000000E+00 -0.00000000000E+00 -0.34332855225E+03  0.34332855225E+03  0.00000000000E+00 0.  1.
         25    2    1    2    0    0 -0.10777011788E+03  0.68924469902E+02 -0.12089845773E+03  0.21593694191E+03  0.12508934783E+03 0.  0.
          5    1    3    3  502    0 -0.24819481289E+02 -0.35365130009E+02 -0.45007933387E+02  0.62529077554E+02  0.41800000000E+01 0.  1.
         -5    1    3    3    0  502 -0.82950636590E+02  0.10428959991E+03 -0.75890524341E+02  0.15340786435E+03  0.41800000000E+01 0.  1.
        -11    1    1    2    0    0  0.59368973568E+02 -0.71231488235E+02 -0.13096254157E+03  0.16046740240E+03  0.00000000000E+00 0.  1.
         11    1    1    2    0    0  0.48401144311E+02  0.23070183332E+01 -0.90903632501E+01  0.49301397629E+02  0.00000000000E+00 0. -1.
</event>
<event>
 7    1  0.3265282E-009  0.8855524E+02  0.7561462E-02  0.1306389E+00
          2   -1    0    0  501    0  0.00000000000E+00  0.00000000000E+00  0.17628059744E+04  0.17628059744E+04  0.00000000000E+00 0. -1.
         -2   -1    0    0    0  501 -0.00000000000E+00 -0.00000000000E+00 -0.86783091388E+01  0.86783091388E+01  0.00000000000E+00 0.  1.
         25    2    1    2    0    0 -0.19814295820E+02 -0.24214019570E+02  0.13517986383E+04  0.13579340765E+04  0.12508586068E+03 0.  0.
          5    1    3    3  502    0 -0.23081741661E+02 -0.49932720318E+02  0.12846374841E+04  0.12858215200E+04  0.41800000000E+01 0. -1.
         -5    1    3    3    0  502  0.32674458410E+01  0.25718700748E+02  0.67161154216E+02  0.72112556508E+02  0.41800000000E+01 0. -1.
        -11    1    1    2    0    0 -0.18115165423E+02  0.47731547025E+02  0.21515618986E+03  0.22113038198E+03  0.00000000000E+00 0.  1.
         11    1    1    2    0    0  0.37929461243E+02 -0.23517527456E+02  0.18717283711E+03  0.19241982507E+03  0.00000000000E+00 0. -1.
</event>
<event>
 7    1  0.3265282E-009  0.7478507E+02  0.7561462E-02  0.1344538E+00
         -1   -1    0    0    0  501 -0.00000000000E+00  0.00000000000E+00  0.54938273863E+02  0.54938273863E+02  0.00000000000E+00 0.  1.
          1   -1    0    0  501    0  0.00000000000E+00 -0.00000000000E+00 -0.25243308116E+03  0.25243308116E+03  0.00000000000E+00 0. -1.
         25    2    1    2    0    0  0.33153829565E+01  0.38415022281E+02 -0.80300670544E+02  0.15355796747E+03  0.12508055798E+03 0.  0.
          5    1    3    3  502    0 -0.11534964729E+02  0.45605711103E+01  0.32363378674E+02  0.34910097384E+02  0.41800000000E+01 0.  1.
         -5    1    3    3    0  502  0.14850347686E+02  0.33854451171E+02 -0.11266404922E+03  0.11864787009E+03  0.41800000000E+01 0.  1.
        -11    1    1    2    0    0 -0.25604365105E+02  0.22704006191E+02 -0.34461378262E+02  0.48565852215E+02  0.00000000000E+00 0. -1.
         11    1    1    2    0    0  0.22288982149E+02 -0.61119028473E+02 -0.82732758495E+02  0.10524753534E+03  0.00000000000E+00 0.  1.
</event>
<event>
 7    1  0.3265282E-009  0.1475561E+03  0.7561462E-02  0.1203509E+00
         -2   -1    0    0    0  501 -0.00000000000E+00  0.00000000000E+00  0.71631862293E+03  0.71631862293E+03  0.00000000000E+00 0.  1.
          2   -1    0    0  501    0  0.00000000000E+00 -0.00000000000E+00 -0.42121618095E+02  0.42121618095E+02  0.00000000000E+00 0. -1.
         25    2    1    2    0    0 -0.82475485838E+02 -0.10451063658E+03  0.40276191948E+03  0.44225471529E+03  0.12508952993E+03 0.  0.
          5    1    3    3  502    0 -0.47131610271E+02 -0.31143112951E+02  0.32389518540E+03  0.32881126151E+03  0.41800000000E+01 0.  1.
         -5    1    3    3    0  502 -0.35343875567E+02 -0.73367523625E+02  0.78866734079E+02  0.11344345379E+03  0.41800000000E+01 0.  1.
        -11    1    1    2    0    0  0.42256751608E+02  0.10856564600E+03  0.16212935059E+03  0.19964483181E+03  0.00000000000E+00 0. -1.
         11    1    1    2    0    0  0.40218734230E+02 -0.40550094250E+01  0.10930573478E+03  0.11654069392E+03  0.00000000000E+00 0.  1.
</event>
<event>
 7    1  0.3265282E-009  0.1233079E+03  0.7561462E-02  0.1237738E+00
         -1   -1    0    0    0  501 -0.00000000000E+00  0.00000000000E+00  0.29971924340E+02  0.29971924340E+02  0.00000000000E+00 0. -1.
          1   -1    0    0  501    0  0.00000000000E+00 -0.00000000000E+00 -0.80754291643E+03  0.80754291643E+03  0.00000000000E+00 0.  1.
         25    2    1    2    0    0 -0.82383687509E+02  0.66280722284E+02 -0.36067638216E+03  0.39612526370E+03  0.12509023054E+03 0.  0.
          5    1    3    3  502    0 -0.37229041060E+02 -0.19618280680E+02 -0.22688069961E+03  0.23078822043E+03  0.41800000000E+01 0. -1.
         -5    1    3    3    0  502 -0.45154646449E+02  0.85899002964E+02 -0.13379568255E+03  0.16533704327E+03  0.41800000000E+01 0. -1.
        -11    1    1    2    0    0  0.65204641915E+02 -0.60819522309E+02 -0.41355278023E+03  0.42305621572E+03  0.00000000000E+00 0.  1.
         11    1    1    2    0    0  0.17179045594E+02 -0.54611999754E+01 -0.33418296942E+01  0.18333361350E+02  0.00000000000E+00 0. -1.
</event>
<event>
 7    1  0.3391907E-009  0.2137573E+03  0.7561462E-02  0.1138625E+00
         -2   -1    0    0    0  501 -0.00000000000E+00  0.00000000000E+00  0.41628763841E+02  0.41628763841E+02  0.00000000000E+00 0.  1.
          2   -1    0    0  501    0  0.00000000000E+00 -0.00000000000E+00 -0.13101280452E+04  0.13101280452E+04  0.00000000000E+00 0. -1.
         25    2    1    2    0    0 -0.20311262315E+03  0.34181413353E+02 -0.61490212969E+03  0.66043552836E+03  0.12508937336E+03 0.  0.
          5    1    3    3  502    0 -0.56275968009E+01 -0.58540108441E+01 -0.18933844078E+03  0.18955858421E+03  0.41800000000E+01 0.  1.
         -5    1    3    3    0  502 -0.19748502635E+03  0.40035424197E+02 -0.42556368891E+03  0.47087694416E+03  0.41800000000E+01 0.  1.
        -11    1    1    2    0    0  0.12551492947E+03  0.12732441098E+02 -0.46875976002E+03  0.48543982654E+03  0.00000000000E+00 0. -1.
         11    1    1    2    0    0  0.77597693677E+02 -0.46913854451E+02 -0.18483739161E+03  0.20588145410E+03  0.00000000000E+00 0.  1.
</event>
<event>
 7    1  0.3265282E-009  0.1017403E+03  0.7561462E-02  0.1276678E+00
         -2   -1    0    0    0  501 -0.00000000000E+00  0.00000000000E+00  0.25524741182E+02  0.25524741182E+02  0.00000000000E+00 0.  1.
          2   -1    0    0  501    0  0.00000000000E+00 -0.00000000000E+00 -0.61582617517E+03  0.61582617517E+03  0.00000000000E+00 0. -1.
         25    2    1    2    0    0 -0.35370215701E+02  0.39525951016E+02 -0.20753153581E+03  0.24805166834E+03  0.12508772462E+03 0.  0.
          5    1    3    3  502    0  0.77459836883E+01 -0.31998072568E+02 -0.12948042416E+03  0.13366573814E+03  0.41800000000E+01 0. -1.
         -5    1    3    3    0  502 -0.43116199389E+02  0.71524023584E+02 -0.78051111642E+02  0.11438593020E+03  0.41800000000E+01 0. -1.
        -11    1    1    2    0    0  0.50650787685E+02 -0.75168847536E+01 -0.27832056039E+03  0.28299176699E+03  0.00000000000E+00 0.  1.
         11    1    1    2    0    0 -0.15280571984E+02 -0.32009066263E+02 -0.10444933779E+03  0.11030748102E+03  0.00000000000E+00 0. -1.
</event>
<event>
 7    1  0.3265282E-009  0.1580655E+03  0.7561462E-02  0.1190898E+00
          2   -1    0    0  501    0  0.00000000000E+00  0.00000000000E+00  0.39843264684E+04  0.39843264684E+04  0.00000000000E+00 0.  1.
         -2   -1    0    0    0  501 -0.00000000000E+00 -0.00000000000E+00 -0.95801991536E+01  0.95801991536E+01  0.00000000000E+00 0. -1.
         25    2    1    2    0    0 -0.98148190054E+02 -0.65919459913E+02  0.31989229652E+04  0.32035502030E+04  0.12508926201E+03 0.  0.
          5    1    3    3  502    0 -0.51802397907E+02  0.31275736478E+02  0.85321929844E+03  0.85537261106E+03  0.41800000000E+01 0.  1.
         -5    1    3    3    0  502 -0.46345792146E+02 -0.97195196391E+02  0.23457036668E+04  0.23481775920E+04  0.41800000000E+01 0.  1.
        -11    1    1    2    0    0 -0.15467240769E+02  0.19727724130E+02  0.80955582973E+02  0.84748009126E+02  0.00000000000E+00 0. -1.
         11    1    1    2    0    0  0.11361543082E+03  0.46191735783E+02  0.69486772102E+03  0.70560845537E+03  0.00000000000E+00 0.  1.
</event>
<event>
 7    1  0.3265282E-009  0.1036451E+03  0.7561462E-02  0.1272812E+00
          1   -1    0    0  501    0  0.00000000000E+00  0.00000000000E+00  0.16124873825E+03  0.16124873825E+03  0.00000000000E+00 0. -1.
         -1   -1    0    0    0  501 -0.00000000000E+00 -0.00000000000E+00 -0.87664057825E+02  0.87664057825E+02  0.00000000000E+00 0.  1.
         25    2    1    2    0    0  0.45472682843E+01  0.32122996215E+02  0.79215013727E+02  0.15157330047E+03  0.12508749930E+03 0.  0.
          5    1    3    3  502    0  0.54336138639E+02  0.73548841841E+01  0.36009785590E+00  0.54991929899E+02  0.41800000000E+01 0.  1.
         -5    1    3    3    0  502 -0.49788870355E+02  0.24768112031E+02  0.78854915871E+02  0.96581370574E+02  0.41800000000E+01 0.  1.
        -11    1    1    2    0    0  0.41933648143E+02 -0.26758381251E+02  0.26880693849E+01  0.49816337990E+02  0.00000000000E+00 0.  1.
         11    1    1    2    0    0 -0.46480916427E+02 -0.53646149646E+01 -0.83184026919E+01  0.47523157608E+02  0.00000000000E+00 0. -1.
</event>
<event>
 7    1  0.3265282E-009  0.9221949E+02  0.7561462E-02  0.1297564E+00
         -2   -1    0    0    0  501 -0.00000000000E+00  0.00000000000E+00  0.26662684446E+03  0.26662684446E+03  0.00000000000E+00 0.  1.
          2   -1    0    0  501    0  0.00000000000E+00 -0.00000000000E+00 -0.61009445801E+02  0.61009445801E+02  0.00000000000E+00 0. -1.
         25    2    1    2    0    0 -0.39757449439E+02  0.13141290689E+02  0.48981121421E+02  0.14071043331E+03  0.12508767917E+03 0.  0.
          5    1    3    3  502    0 -0.65950394658E+02  0.51551453260E+02  0.41187738428E+02  0.93385807731E+02  0.41800000000E+01 0.  1.
         -5    1    3    3    0  502  0.26192945219E+02 -0.38410162571E+02  0.77933829934E+01  0.47324625582E+02  0.41800000000E+01 0.  1.
        -11    1    1    2    0    0  0.61239702865E+01  0.10971066637E+02 -0.94753025674E+01  0.15736857182E+02  0.00000000000E+00 0. -1.
         11    1    1    2    0    0  0.33633479152E+02 -0.24112357326E+02  0.16611157981E+03  0.17118899977E+03  0.00000000000E+00 0.  1.
</event>
<event>
 7    1  0.3265282E-009  0.1099981E+03  0.7561462E-02  0.1260573E+00
         -1   -1    0    0    0  501 -0.00000000000E+00  0.00000000000E+00  0.68682507077E+02  0.68682507077E+02  0.00000000000E+00 0.  1.
          1   -1    0    0  501    0  0.00000000000E+00 -0.00000000000E+00 -0.31961881186E+03  0.31961881186E+03  0.00000000000E+00 0. -1.
         25    2    1    2    0    0 -0.71660066970E+02 -0.93346936493E+00 -0.64086091945E+02  0.15776690480E+03  0.12508929813E+03 0.  0.
          5    1    3    3  502    0 -0.33075807917E+01 -0.16257208238E+02 -0.83277058415E+02  0.85016338245E+02  0.41800000000E+01 0.  1.
         -5    1    3    3    0  502 -0.68352486178E+02  0.15323738873E+02  0.19190966470E+02  0.72750566553E+02  0.41800000000E+01 0.  1.
        -11    1    1    2    0    0  0.18473850482E+02  0.54307795790E+02 -0.10226361263E+03  0.11725385411E+03  0.00000000000E+00 0. -1.
         11    1    1    2    0    0  0.53186216488E+02 -0.53374326425E+02 -0.84586600202E+02  0.11328056002E+03  0.00000000000E+00 0.  1.
</event>
<event>
 7    1  0.3265282E-009  0.6334923E+02  0.7561462E-02  0.1384291E+00
         -1   -1    0    0    0  501 -0.00000000000E+00  0.00000000000E+00  0.22887137667E+02  0.22887137667E+02  0.00000000000E+00 0.  1.
          1   -1    0    0  501    0  0.00000000000E+00 -0.00000000000E+00 -0.53173527529E+03  0.53173527529E+03  0.00000000000E+00 0. -1.
         25    2    1    2    0    0  0.45956142374E+01  0.53937473545E+01 -0.34141627971E+03  0.36367794847E+03  0.12508541871E+03 0.  0.
          5    1    3    3  502    0  0.23027975789E+02 -0.21956931653E+02 -0.32503505697E+03  0.32661545458E+03  0.41800000000E+01 0. -1.
         -5    1    3    3    0  502 -0.18432361552E+02  0.27350679008E+02 -0.16381222741E+02  0.37062493886E+02  0.41800000000E+01 0. -1.
        -11    1    1    2    0    0 -0.20845423661E+02  0.21495550405E+02 -0.11818392266E+02  0.32191066627E+02  0.00000000000E+00 0.  1.
         11    1    1    2    0    0  0.16249809424E+02 -0.26889297760E+02 -0.15561346565E+03  0.15875339786E+03  0.00000000000E+00 0. -1.
</event>
<event>
 7    1  0.3265282E-009  0.8976597E+02  0.7561462E-02  0.1303419E+00
         -1   -1    0    0    0  501 -0.00000000000E+00  0.00000000000E+00  0.16909831482E+03  0.16909831482E+03  0.00000000000E+00 0.  1.
          1   -1    0    0  501    0  0.00000000000E+00 -0.00000000000E+00 -0.74430695277E+02  0.74430695277E+02  0.00000000000E+00 0. -1.
         25    2    1    2    0    0  0.16643316530E+02 -0.25333384389E+02  0.56282178526E+02  0.14047798237E+03  0.12509036559E+03 0.  0.
          5    1    3    3  502    0 -0.30863583191E+02 -0.61256823179E+02  0.34759045575E+02  0.77010536959E+02  0.41800000000E+01 0. -1.
         -5    1    3    3    0  502  0.47506899721E+02  0.35923438790E+02  0.21523132951E+02  0.63467445416E+02  0.41800000000E+01 0. -1.
        -11    1    1    2    0    0 -0.18537463444E+02 -0.61759803887E+01  0.61108798219E+02  0.64156570236E+02  0.00000000000E+00 0.  1.
         11    1    1    2    0    0  0.18941469139E+01  0.31509364777E+02 -0.22723357197E+02  0.38894457491E+02  0.00000000000E+00 0. -1.
</event>
<event>
 7    1  0.3265282E-009  0.1237695E+03  0.7561462E-02  0.1237005E+00
         -1   -1    0    0    0  501 -0.00000000000E+00  0.00000000000E+00  0.63087629621E+03  0.63087629621E+03  0.00000000000E+00 0.  1.
          1   -1    0    0  501    0  0.00000000000E+00 -0.00000000000E+00 -0.34763794510E+02  0.34763794510E+02  0.00000000000E+00 0. -1.
         25    2    1    2    0    0  0.56097515431E+02  0.57494481302E+02  0.46519636712E+03  0.48837227446E+03  0.12508905571E+03 0.  0.
          5    1    3    3  502    0  0.19066855188E+02  0.89853035036E+02  0.36863161233E+03  0.37992611239E+03  0.41800000000E+01 0. -1.
         -5    1    3    3    0  502  0.37030660243E+02 -0.32358553733E+02  0.96564754798E+02  0.10844616207E+03  0.41800000000E+01 0. -1.
        -11    1    1    2    0    0 -0.20090431302E+02 -0.66208607743E+02  0.12021924996E+03  0.13870787011E+03  0.00000000000E+00 0.  1.
         11    1    1    2    0    0 -0.36007084129E+02  0.87141264405E+01  0.10696884621E+02  0.38559946158E+02  0.00000000000E+00 0. -1.
</event>
<event>
 7    1  0.3265282E-009  0.1276922E+03  0.7561462E-02  0.1230921E+00
          1   -1    0    0  501    0  0.00000000000E+00  0.00000000000E+00  0.24726371318E+03  0.24726371318E+03  0.00000000000E+00 0. -1.
         -1   -1    0    0    0  501 -0.00000000000E+00 -0.00000000000E+00 -0.93118413445E+02  0.93118413445E+02  0.00000000000E+00 0.  1.
         25    2    1    2    0    0 -0.69333241095E+02  0.39721924131E+02  0.47651408209E+01  0.14851297434E+03  0.12509383440E+03 0.  0.
          5    1    3    3  502    0 -0.40719745164E+01  0.72969846378E+02 -0.93760907871E+01  0.73800832891E+02  0.41800000000E+01 0.  1.
         -5    1    3    3    0  502 -0.65261266579E+02 -0.33247922247E+02  0.14141231608E+02  0.74712141454E+02  0.41800000000E+01 0.  1.
        -11    1    1    2    0    0  0.23233634434E+02  0.21855787950E+02  0.87543954869E+02  0.93174144858E+02  0.00000000000E+00 0.  1.
         11    1    1    2    0    0  0.46099606661E+02 -0.61577712081E+02  0.61836204048E+02  0.98695007424E+02  0.00000000000E+00 0. -1.
</event>
<event>
 7    1  0.3265282E-009  0.1045577E+03  0.7561462E-02  0.1270994E+00
         -1   -1    0    0    0  501 -0.00000000000E+00  0.00000000000E+00  0.65153170843E+02  0.65153170843E+02  0.00000000000E+00 0.  1.
          1   -1    0    0  501    0  0.00000000000E+00 -0.00000000000E+00 -0.23616914555E+03  0.23616914555E+03  0.00000000000E+00 0. -1.
         25    2    1    2    0    0  0.42002334250E+02  0.60996803404E+02 -0.10359003929E+03  0.17850317023E+03  0.12509068485E+03 0.  0.
          5    1    3    3  502    0  0.20143208491E+02 -0.32353127037E+02 -0.14707894582E+01  0.38368076561E+02  0.41800000000E+01 0. -1.
         -5    1    3    3    0  502  0.21859125760E+02  0.93349930441E+02 -0.10211924983E+03  0.14013509367E+03  0.41800000000E+01 0. -1.
        -11    1    1    2    0    0 -0.19251139233E+02 -0.19013439180E+02  0.12429155493E+02  0.29775848224E+02  0.00000000000E+00 0. -1.
         11    1    1    2    0    0 -0.22751195018E+02 -0.41983364224E+02 -0.79855090907E+02  0.93043297932E+02  0.00000000000E+00 0.  1.
</event>
<event>
 7    1  0.3265282E-009  0.8177397E+02  0.7561462E-02  0.1324091E+00
         -2   -1    0    0    0  501 -0.00000000000E+00  0.00000000000E+00  0.34293037554E+02  0.34293037554E+02  0.00000000000E+00 0.  1.
          2   -1    0    0  501    0  0.00000000000E+00 -0.00000000000E+00 -0.46233212564E+03  0.46233212564E+03  0.00000000000E+00 0. -1.
         25    2    1    2    0    0 -0.46772686280E+02  0.33089214582E+02 -0.18108022561E+03  0.22742063986E+03  0.12509004367E+03 0.  0.
          5    1    3    3  502    0 -0.48685148797E+02  0.31870145114E+02 -0.19978100258E+03  0.20812465316E+03  0.41800000000E+01 0. -1.
         -5    1    3    3    0  502  0.19124625169E+01  0.12190694681E+01  0.18700776972E+02  0.19295986697E+02  0.41800000000E+01 0. -1.
        -11    1    1    2    0    0  0.51332599212E+02 -0.56654478343E+02 -0.13927669667E+03  0.15887971517E+03  0.00000000000E+00 0. -1.
         11    1    1    2    0    0 -0.45599129322E+01  0.23565263761E+02 -0.10768216581E+03  0.11032480816E+03  0.00000000000E+00 0.  1.
</event>
<event>
 7    1  0.3265282E-009  0.1099034E+03  0.7561462E-02  0.1260749E+00
          2   -1    0    0  501    0  0.00000000000E+00  0.00000000000E+00  0.84590369053E+02  0.84590369053E+02  0.00000000000E+00 0. -1.
         -2   -1    0    0    0  501 -0.00000000000E+00 -0.00000000000E+00 -0.15687212068E+03  0.15687212068E+03  0.00000000000E+00 0.  1.
         25    2    1    2    0    0  0.44222116399E+01  0.22977385315E+01 -0.47684186479E+02  0.13396145245E+03  0.12508818307E+03 0.  0.
          5    1    3    3  502    0 -0.48413904063E+02 -0.35421523059E+02 -0.23156461903E+02  0.64438222588E+02  0.41800000000E+01 0.  1.
         -5    1    3    3    0  502  0.52836115703E+02  0.37719261590E+02 -0.24527724575E+02  0.69523229861E+02  0.41800000000E+01 0.  1.
        -11    1    1    2    0    0 -0.41082086576E+02 -0.28115451307E+02 -0.35759472238E+02  0.61294015159E+02  0.00000000000E+00 0.  1.
         11    1    1    2    0    0  0.36659874936E+02  0.25817712775E+02  0.11161907094E+02  0.46207022121E+02  0.00000000000E+00 0. -1.
</event>
<event>
 7    1  0.3265282E-009  0.7151407E+02  0.7561462E-02  0.1355019E+00
          2   -1    0    0  501    0  0.00000000000E+00  0.00000000000E+00  0.18966565333E+03  0.18966565333E+03  0.00000000000E+00 0. -1.
         -2   -1    0    0    0  501 -0.00000000000E+00 -0.00000000000E+00 -0.75782603508E+02  0.75782603508E+02  0.00000000000E+00 0.  1.
         25    2    1    2    0    0  0.27518262775E+02 -0.34279411579E+02  0.33838186619E+02  0.13684076111E+03  0.12509211879E+03 0.  0.
          5    1    3    3  502    0  0.59910187927E+02 -0.24782998353E+02  0.64134334891E+02  0.91291362881E+02  0.41800000000E+01 0. -1.
         -5    1    3    3    0  502 -0.32391925152E+02 -0.94964132258E+01 -0.30296148272E+02  0.45549398233E+02  0.41800000000E+01 0. -1.
        -11    1    1    2    0    0 -0.18795443048E+02  0.21282796960E+02  0.99594957883E+02  0.10356341903E+03  0.00000000000E+00 0. -1.
         11    1    1    2    0    0 -0.87228197263E+01  0.12996614619E+02 -0.19550094678E+02  0.25044076694E+02  0.00000000000E+00 0.  1.
</event>
<event>
 7    1  0.3265282E-009  0.1091310E+03  0.7561462E-02  0.1262188E+00
          2   -1    0    0  501    0  0.00000000000E+00  0.00000000000E+00  0.56639603040E+03  0.56639603040E+03  0.00000000000E+00 0.  1.
         -2   -1    0    0    0  501 -0.00000000000E+00 -0.00000000000E+00 -0.26985242659E+02  0.26985242659E+02  0.00000000000E+00 0. -1.
         25    2    1    2    0    0 -0.49870278101E+02  0.50573106692E+00  0.23157029875E+03  0.26788004656E+03  0.12509043002E+03 0.  0.
          5    1    3    3  502    0 -0.61419048497E+02 -0.49483981790E+02  0.10618491979E+03  0.13233923667E+03  0.41800000000E+01 0. -1.
         -5    1    3    3    0  502  0.11548770396E+02  0.49989712857E+02  0.12538537896E+03  0.13554080989E+03  0.41800000000E+01 0. -1.
        -11    1    1    2    0    0  0.26154725802E+02 -0.36374736489E+02  0.24681284143E+03  0.25084610786E+03  0.00000000000E+00 0.  1.
         11    1    1    2    0    0  0.23715552299E+02  0.35869005423E+02  0.61027647569E+02  0.74655118637E+02  0.00000000000E+00 0. -1.
</event>
<event>
 7    1  0.3265282E-009  0.1254750E+03  0.7561462E-02  0.1234329E+00
         -1   -1    0    0    0  501 -0.00000000000E+00  0.00000000000E+00  0.39669668090E+02  0.39669668090E+02  0.00000000000E+00 0.  1.
          1   -1    0    0  501    0  0.00000000000E+00 -0.00000000000E+00 -0.57426887814E+03  0.57426887814E+03  0.00000000000E+00 0. -1.
         25    2    1    2    0    0  0.31552199948E+02  0.92141134247E+02 -0.27947803030E+03  0.32131114247E+03  0.12508937170E+03 0.  0.
          5    1    3    3  502    0  0.76489949467E+02  0.65614972129E+02 -0.14177731188E+03  0.17399515941E+03  0.41800000000E+01 0.  1.
         -5    1    3    3    0  502 -0.44937749519E+02  0.26526162118E+02 -0.13770071842E+03  0.14731598305E+03  0.41800000000E+01 0.  1.
        -11    1    1    2    0    0 -0.60411893476E+01 -0.29262962800E+02 -0.13172186353E+01  0.29909062598E+02  0.00000000000E+00 0.  1.
         11    1    1    2    0    0 -0.25511010600E+02 -0.62878171448E+02 -0.25380396112E+03  0.26271834117E+03  0.00000000000E+00 0. -1.
</event>
<event>
 7    1  0.3265282E-009  0.1140158E+03  0.7561462E-02  0.1253309E+00
         -2   -1    0    0    0  501 -0.00000000000E+00  0.00000000000E+00  0.30868246009E+03  0.30868246009E+03  0.00000000000E+00 0.  1.
          2   -1    0    0  501    0  0.00000000000E+00 -0.00000000000E+00 -0.67163056998E+02  0.67163056998E+02  0.00000000000E+00 0. -1.
         25    2    1    2    0    0 -0.50434453843E+02  0.66420651273E+02  0.19493909390E+03  0.24617792916E+03  0.12508791079E+03 0.  0.
          5    1    3    3  502    0 -0.68897037269E+02 -0.62860035529E+01  0.12796463433E+03  0.14552915730E+03  0.41800000000E+01 0. -1.
         -5    1    3    3    0  502  0.18462583426E+02  0.72706654826E+02  0.66974459564E+02  0.10064877186E+03  0.41800000000E+01 0. -1.
        -11    1    1    2    0    0  0.39878925831E+02 -0.48462142401E+02 -0.15111018468E+02  0.64554247348E+02  0.00000000000E+00 0. -1.
         11    1    1    2    0    0  0.10555528013E+02 -0.17958508872E+02  0.61691327667E+02  0.65113340582E+02  0.00000000000E+00 0.  1.
</event>
<event>
 7    1  0.3265282E-009  0.1409294E+03  0.7561462E-02  0.1212084E+00
         -2   -1    0    0    0  501 -0.00000000000E+00  0.00000000000E+00  0.86511984260E+03  0.86511984260E+03  0.00000000000E+00 0.  1.
          2   -1    0    0  501    0  0.00000000000E+00 -0.00000000000E+00 -0.32302090273E+02  0.32302090273E+02  0.00000000000E+00 0. -1.
         25    2    1    2    0    0 -0.19286754988E+02  0.11196774038E+03  0.29811032052E+03  0.34267494446E+03  0.12509036957E+03 0.  0.
          5    1    3    3  502    0 -0.56534549411E+02  0.10305535864E+02  0.13584712583E+03  0.14756108343E+03  0.41800000000E+01 0.  1.
         -5    1    3    3    0  502  0.37247794423E+02  0.10166220452E+03  0.16226319469E+03  0.19511386103E+03  0.41800000000E+01 0.  1.
        -11    1    1    2    0    0  0.89965973765E+01 -0.98648970661E+02  0.52701114212E+03  0.53623996689E+03  0.00000000000E+00 0.  1.
         11    1    1    2    0    0  0.10290157611E+02 -0.13318769718E+02  0.76962896905E+01  0.18507021518E+02  0.00000000000E+00 0. -1.
</event>
<event>
 7    1  0.3265282E-009  0.1379056E+03  0.7561462E-02  0.1216175E+00
          2   -1    0    0  501    0  0.00000000000E+00  0.00000000000E+00  0.14928329951E+03  0.14928329951E+03  0.00000000000E+00 0. -1.
         -2   -1    0    0    0  501 -0.00000000000E+00 -0.00000000000E+00 -0.17825515684E+03  0.17825515684E+03  0.00000000000E+00 0.  1.
         25    2    1    2    0    0  0.10765123927E+03  0.23927530129E+02  0.37097224530E+02  0.17083395796E+03  0.12508685426E+03 0.  0.
          5    1    3    3  502    0  0.43599029585E+02 -0.29364666331E+02 -0.32710121199E+02  0.62053069532E+02  0.41800000000E+01 0. -1.
         -5    1    3    3    0  502  0.64052209681E+02  0.53292196460E+02  0.69807345729E+02  0.10878088842E+03  0.41800000000E+01 0. -1.
        -11    1    1    2    0    0  0.35384135449E+01  0.19843658931E+02 -0.20683510573E+02  0.28880768338E+02  0.00000000000E+00 0.  1.
         11    1    1    2    0    0 -0.11118965281E+03 -0.43771189060E+02 -0.45385571294E+02  0.12782373006E+03  0.00000000000E+00 0. -1.
</event>
<event>
 7    1  0.3265282E-009  0.3889338E+03  0.7561462E-02  0.1047680E+00
          1   -1    0    0  501    0  0.00000000000E+00  0.00000000000E+00  0.41622408365E+03  0.41622408365E+03  0.00000000000E+00 0. -1.
         -1   -1    0    0    0  501 -0.00000000000E+00 -0.00000000000E+00 -0.37721114044E+03  0.37721114044E+03  0.00000000000E+00 0.  1.
         25    2    1    2    0    0 -0.36490023830E+03 -0.10071890990E+03 -0.33043005200E+02  0.40004659232E+03  0.12509577578E+03 0.  0.
          5    1    3    3  502    0 -0.21070603269E+02  0.23724267452E+02  0.49987258421E+01  0.32392450483E+02  0.41800000000E+01 0.  1.
         -5    1    3    3    0  502 -0.34382963503E+03 -0.12444317735E+03 -0.38041731043E+02  0.36765414184E+03  0.41800000000E+01 0.  1.
        -11    1    1    2    0    0  0.12885532733E+03  0.53179602673E+02  0.61531590841E+02  0.15237421761E+03  0.00000000000E+00 0. -1.
         11    1    1    2    0    0  0.23604491097E+03  0.47539307230E+02  0.10524357572E+02  0.24101441415E+03  0.00000000000E+00 0.  1.
</event>
<event>
 7    1  0.3265282E-009  0.8667920E+02  0.7561462E-02  0.1311099E+00
          1   -1    0    0  501    0  0.00000000000E+00  0.00000000000E+00  0.33354333551E+03  0.33354333551E+03  0.00000000000E+00 0. -1.
         -1   -1    0    0    0  501 -0.00000000000E+00 -0.00000000000E+00 -0.38015533451E+02  0.38015533451E+02  0.00000000000E+00 0.  1.
         25    2    1    2    0    0 -0.26331853134E+02 -0.50183678098E+01  0.19422856898E+03  0.23257318716E+03  0.12508796854E+03 0.  0.
          5    1    3    3  502    0 -0.65604192690E+01 -0.46794317234E+02  0.18659572261E+02  0.50974496205E+02  0.41800000000E+01 0.  1.
         -5    1    3    3    0  502 -0.19771433865E+02  0.41775949424E+02  0.17556899672E+03  0.18159869095E+03  0.41800000000E+01 0.  1.
        -11    1    1    2    0    0  0.49097468530E+02 -0.12645978833E+02  0.97535849924E+02  0.10992599427E+03  0.00000000000E+00 0.  1.
         11    1    1    2    0    0 -0.22765615396E+02  0.17664346643E+02  0.37633831589E+01  0.29059687533E+02  0.00000000000E+00 0. -1.
</event>
<event>
 6    1  0.3265282E-009  0.1218526E+03  0.7561462E-02  0.1240072E+00
          2   -1    0    0  501    0  0.00000000000E+00  0.00000000000E+00  0.64596736311E+03  0.64596736311E+03  0.00000000000E+00 0. -1.
         -2   -1    0    0    0  501 -0.00000000000E+00 -0.00000000000E+00 -0.79266732743E+02  0.79266732743E+02  0.00000000000E+00 0.  1.
          5    1    1    2  502    0  0.21679911239E+02 -0.14391117282E+02 -0.37463644497E+02  0.45805238422E+02  0.41800000000E+01 0. -1.
         -5    1    1    2    0  502 -0.19303600214E+01  0.95655506757E+02  0.42582474571E+02  0.10480668778E+03  0.41800000000E+01 0. -1.
        -11    1    1    2    0    0 -0.50668257278E+02 -0.74231274440E+02  0.40274185923E+03  0.41264822740E+03  0.00000000000E+00 0.  1.
         11    1    1    2    0    0  0.30918706060E+02 -0.70331150345E+01  0.15883994107E+03  0.16197394225E+03  0.00000000000E+00 0. -1.
</event>
<event>
 7    1  0.3265282E-009  0.1068758E+03  0.7561462E-02  0.1266467E+00
          2   -1    0    0  501    0  0.00000000000E+00  0.00000000000E+00  0.20963327168E+03  0.20963327168E+03  0.00000000000E+00 0. -1.
         -2   -1    0    0    0  501 -0.00000000000E+00 -0.00000000000E+00 -0.70888955581E+02  0.70888955581E+02  0.00000000000E+00 0.  1.
         25    2    1    2    0    0 -0.12040074432E+02  0.83195765417E+01  0.14067467146E+03  0.18880098482E+03  0.12506906065E+03 0.  0.
          5    1    3    3  502    0 -0.58217226271E+01  0.66516168779E+02  0.67957628373E+02  0.95362491669E+02  0.41800000000E+01 0.  1.
         -5    1    3    3    0  502 -0.62183518045E+01 -0.58196592237E+02  0.72717043090E+02  0.93438493155E+02  0.41800000000E+01 0.  1.
        -11    1    1    2    0    0  0.40254352843E+02 -0.31932545688E+02  0.11324139574E+02  0.52614983931E+02  0.00000000000E+00 0.  1.
         11    1    1    2    0    0 -0.28214278412E+02  0.23612969146E+02 -0.13254494938E+02  0.39106258505E+02  0.00000000000E+00 0. -1.
</event>
<event>
 7    1  0.3265282E-009  0.1243886E+03  0.7561462E-02  0.1236028E+00
         -1   -1    0    0    0  501 -0.00000000000E+00  0.00000000000E+00  0.85202795139E+02  0.85202795139E+02  0.00000000000E+00 0.  1.
          1   -1    0    0  501    0  0.00000000000E+00 -0.00000000000E+00 -0.19854183162E+03  0.19854183162E+03  0.00000000000E+00 0. -1.
         25    2    1    2    0    0  0.41794949370E+02  0.59372132137E+02 -0.77320138322E+02  0.16400778062E+03  0.12509308713E+03 0.  0.
          5    1    3    3  502    0  0.37145985673E+02  0.97123332854E+02 -0.68951214591E+02  0.12483792865E+03  0.41800000000E+01 0.  1.
         -5    1    3    3    0  502  0.46489636973E+01 -0.37751200717E+02 -0.83689237318E+01  0.39169851971E+02  0.41800000000E+01 0.  1.
        -11    1    1    2    0    0 -0.12451440587E+02  0.19023454887E+02  0.92818101174E+01  0.24557732134E+02  0.00000000000E+00 0.  1.
         11    1    1    2    0    0 -0.29343508783E+02 -0.78395587024E+02 -0.45300708281E+02  0.95179114007E+02  0.00000000000E+00 0. -1.
</event>
<event>
 7    1  0.3265282E-009  0.1114386E+03  0.7561462E-02  0.1257929E+00
          3   -1    0    0  501    0  0.00000000000E+00  0.00000000000E+00  0.27815780352E+03  0.27815780352E+03  0.00000000000E+00 0. -1.
         -3   -1    0    0    0  501 -0.00000000000E+00 -0.00000000000E+00 -0.74855974558E+02  0.74855974558E+02  0.00000000000E+00 0.  1.
         25    2    1    2    0    0 -0.35161831382E+02 -0.62208034229E+02  0.19061429947E+03  0.23892888601E+03  0.12508799903E+03 0.  0.
          5    1    3    3  502    0 -0.79006457900E+02 -0.61159934373E+02  0.13153264087E+03  0.16522973696E+03  0.41800000000E+01 0. -1.
         -5    1    3    3    0  502  0.43844626518E+02 -0.10480998561E+01  0.59081658604E+02  0.73699149053E+02  0.41800000000E+01 0. -1.
        -11    1    1    2    0    0  0.19257934072E+02  0.59689199685E+02 -0.29219084122E+02  0.69191209417E+02  0.00000000000E+00 0.  1.
         11    1    1    2    0    0  0.15903897311E+02  0.25188345441E+01  0.41906613615E+02  0.44893682649E+02  0.00000000000E+00 0. -1.
</event>
<event>
 7    1  0.3265282E-009  0.2198540E+03  0.7561462E-02  0.1133992E+00
         -1   -1    0    0    0  501 -0.00000000000E+00  0.00000000000E+00  0.15876957102E+03  0.15876957102E+03  0.00000000000E+00 0.  1.
          1   -1    0    0  501    0  0.00000000000E+00 -0.00000000000E+00 -0.45293795171E+03  0.45293795171E+03  0.00000000000E+00 0. -1.
         25    2    1    2    0    0  0.19581193693E+03  0.36057162286E+02  0.11502320225E+02  0.23541964285E+03  0.12509065222E+03 0.  0.
          5    1    3    3  502    0  0.23723827552E+02 -0.34414032725E+02  0.25071014282E+02  0.48920075626E+02  0.41800000000E+01 0. -1.
         -5    1    3    3    0  502  0.17208810938E+03  0.70471195012E+02 -0.13568694057E+02  0.18649956722E+03  0.41800000000E+01 0. -1.
        -11    1    1    2    0    0 -0.10110081080E+03 -0.55023116517E+02 -0.11587846996E+03  0.16333014754E+03  0.00000000000E+00 0.  1.
         11    1    1    2    0    0 -0.94711126128E+02  0.18965954230E+02 -0.18979223096E+03  0.21295773234E+03  0.00000000000E+00 0. -1.
</event>
<event>
 7    1  0.3265282E-009  0.1190752E+03  0.7561462E-02  0.1244631E+00
         -2   -1    0    0    0  501 -0.00000000000E+00  0.00000000000E+00  0.33395529924E+02  0.33395529924E+02  0.00000000000E+00 0.  1.
          2   -1    0    0  501    0  0.00000000000E+00 -0.00000000000E+00 -0.66182099037E+03  0.66182099037E+03  0.00000000000E+00 0. -1.
         25    2    1    2    0    0 -0.82613417538E+02 -0.47022673170E+02 -0.25451212701E+03  0.29909015052E+03  0.12506952785E+03 0.  0.
          5    1    3    3  502    0 -0.46852700638E+01 -0.46253877327E+02 -0.17990174511E+02  0.50024910817E+02  0.41800000000E+01 0. -1.
         -5    1    3    3    0  502 -0.77928147474E+02 -0.76879584234E+00 -0.23652195250E+03  0.24906523970E+03  0.41800000000E+01 0. -1.
        -11    1    1    2    0    0  0.38197534982E+02 -0.11562958030E+02 -0.50000918855E+02  0.63975351218E+02  0.00000000000E+00 0. -1.
         11    1    1    2    0    0  0.44415882556E+02  0.58585631200E+02 -0.32391241459E+03  0.33215101856E+03  0.00000000000E+00 0.  1.
</event>
<event>
 7    1  0.3265282E-009  0.1068493E+03  0.7561462E-02  0.1266518E+00
          2   -1    0    0  501    0  0.00000000000E+00  0.00000000000E+00  0.31204452307E+02  0.31204452307E+02  0.00000000000E+00 0.  1.
         -2   -1    0    0    0  501 -0.00000000000E+00 -0.00000000000E+00 -0.67429693671E+03  0.67429693671E+03  0.00000000000E+00 0. -1.
         25    2    1    2    0    0 -0.45293290141E+02  0.36732399816E+02 -0.16329558379E+03  0.21380987870E+03  0.12509382565E+03 0.  0.
          5    1    3    3  502    0 -0.72442902069E+02  0.26298198207E+02 -0.39747238077E+02  0.86815232672E+02  0.41800000000E+01 0.  1.
         -5    1    3    3    0  502  0.27149611928E+02  0.10434201609E+02 -0.12354834571E+03  0.12699464603E+03  0.41800000000E+01 0.  1.
        -11    1    1    2    0    0  0.46911099010E+02  0.19553563578E+02 -0.20750762448E+03  0.21364083710E+03  0.00000000000E+00 0.  1.
         11    1    1    2    0    0 -0.16178088684E+01 -0.56285963394E+02 -0.27228927614E+03  0.27805067323E+03  0.00000000000E+00 0. -1.
</event>
<event>
 7    1  0.3265282E-009  0.1124270E+03  0.7561462E-02  0.1256140E+00
          2   -1    0    0  501    0  0.00000000000E+00  0.00000000000E+00  0.37147004096E+03  0.37147004096E+03  0.00000000000E+00 0. -1.
         -2   -1    0    0    0  501 -0.00000000000E+00 -0.00000000000E+00 -0.44062993332E+02  0.44062993332E+02  0.00000000000E+00 0.  1.
         25    2    1    2    0    0 -0.36131546829E+02 -0.60083161543E+02  0.16606540150E+03  0.21941195869E+03  0.12509362519E+03 0.  0.
          5    1    3    3  502    0  0.19370228377E+02 -0.74395252637E+02  0.13140968163E+03  0.15230179313E+03  0.41800000000E+01 0.  1.
         -5    1    3    3    0  502 -0.55501775206E+02  0.14312091094E+02  0.34655719867E+02  0.67110165564E+02  0.41800000000E+01 0.  1.
        -11    1    1    2    0    0  0.33911604399E+02  0.38626217939E+01  0.11422279962E+02  0.35991460648E+02  0.00000000000E+00 0.  1.
         11    1    1    2    0    0  0.22199424302E+01  0.56220539749E+02  0.14991936616E+03  0.16012961495E+03  0.00000000000E+00 0. -1.
</event>
<event>
 7    1  0.3265282E-009  0.7840003E+02  0.7561462E-02  0.1333654E+00
         -1   -1    0    0    0  501 -0.00000000000E+00  0.00000000000E+00  0.90278550320E+03  0.90278550320E+03  0.00000000000E+00 0.  1.
          1   -1    0    0  501    0  0.00000000000E+00 -0.00000000000E+00 -0.15156321479E+02  0.15156321479E+02  0.00000000000E+00 0. -1.
         25    2    1    2    0    0  0.22676034030E+02 -0.12195156521E+02  0.35804932708E+03  0.38014392124E+03  0.12508859207E+03 0.  0.
          5    1    3    3  502    0 -0.18811597424E+02 -0.98752718273E+01  0.32795299921E+03  0.32866706450E+03  0.41800000000E+01 0. -1.
         -5    1    3    3    0  502  0.41487631454E+02 -0.23198846940E+01  0.30096327870E+02  0.51476856741E+02  0.41800000000E+01 0. -1.
        -11    1    1    2    0    0 -0.49322808752E+02  0.33198872346E+02  0.35649203855E+03  0.36141593509E+03  0.00000000000E+00 0.  1.
         11    1    1    2    0    0  0.26646774723E+02 -0.21003715824E+02  0.17308781609E+03  0.17638196836E+03  0.00000000000E+00 0. -1.
</event>
<event>
 7    1  0.3265282E-009  0.9132540E+02  0.7561462E-02  0.1299673E+00
          1   -1    0    0  501    0  0.00000000000E+00  0.00000000000E+00  0.12595220074E+03  0.12595220074E+03  0.00000000000E+00 0. -1.
         -1   -1    0    0    0  501 -0.00000000000E+00 -0.00000000000E+00 -0.11117402165E+03  0.11117402165E+03  0.00000000000E+00 0.  1.
         25    2    1    2    0    0 -0.79258212433E+01 -0.43631717909E+02 -0.77258258318E+01  0.13295712168E+03  0.12510540504E+03 0.  0.
          5    1    3    3  502    0 -0.35283190732E+02  0.26222316225E+02 -0.31394200191E+02  0.54181007946E+02  0.41800000000E+01 0. -1.
         -5    1    3    3    0  502  0.27357369489E+02 -0.69854034134E+02  0.23668374359E+02  0.78776113733E+02  0.41800000000E+01 0. -1.
        -11    1    1    2    0    0  0.63861364796E+01 -0.88156847694E+01 -0.28797888831E+02  0.30786643828E+02  0.00000000000E+00 0.  1.
         11    1    1    2    0    0  0.15396847637E+01  0.52447402678E+02  0.51301893750E+02  0.73382456890E+02  0.00000000000E+00 0. -1.
</event>
<event>
 7    1  0.3265282E-009  0.9920502E+02  0.7561462E-02  0.1281977E+00
          3   -1    0    0  501    0  0.00000000000E+00  0.00000000000E+00  0.61675846417E+03  0.61675846417E+03  0.00000000000E+00 0. -1.
         -3   -1    0    0    0  501 -0.00000000000E+00 -0.00000000000E+00 -0.22673403842E+02  0.22673403842E+02  0.00000000000E+00 0.  1.
         25    2    1    2    0    0 -0.15177654890E+02  0.30431453340E+02  0.41946597550E+03  0.43904094199E+03  0.12509520206E+03 0.  0.
          5    1    3    3  502    0  0.52841629721E+02  0.12311478936E+02  0.12650112071E+03  0.13770917285E+03  0.41800000000E+01 0.  1.
         -5    1    3    3    0  502 -0.68019284612E+02  0.18119974404E+02  0.29296485479E+03  0.30133176914E+03  0.41800000000E+01 0.  1.
        -11    1    1    2    0    0  0.33716592419E+02  0.44163748293E+01  0.17216636789E+02  0.38114636995E+02  0.00000000000E+00 0.  1.
         11    1    1    2    0    0 -0.18538937528E+02 -0.34847828169E+02  0.15740244803E+03  0.16227628902E+03  0.00000000000E+00 0. -1.
</event>
<event>
 7    1  0.3265282E-009  0.9884559E+02  0.7561462E-02  0.1282742E+00
         -2   -1    0    0    0  501 -0.00000000000E+00  0.00000000000E+00  0.16428566906E+03  0.16428566906E+03  0.00000000000E+00 0.  1.
          2   -1    0    0  501    0  0.00000000000E+00 -0.00000000000E+00 -0.96040433089E+02  0.96040433089E+02  0.00000000000E+00 0. -1.
         25    2    1    2    0    0 -0.34658491659E+02  0.45524540938E+02  0.45776570610E+02  0.14497958830E+03  0.12509952731E+03 0.  0.
          5    1    3    3  502    0 -0.76527790082E+02  0.79569638304E+01  0.43591154939E+02  0.88529526810E+02  0.41800000000E+01 0.  1.
         -5    1    3    3    0  502  0.41869298423E+02  0.37567577108E+02  0.21854156711E+01  0.56450061487E+02  0.41800000000E+01 0.  1.
        -11    1    1    2    0    0  0.71253415334E+01 -0.33388744818E+02 -0.35984867451E+02  0.49603321037E+02  0.00000000000E+00 0. -1.
         11    1    1    2    0    0  0.27533150125E+02 -0.12135796121E+02  0.58453532812E+02  0.65743192815E+02  0.00000000000E+00 0.  1.
</event>
<event>
 7    1  0.3265282E-009  0.1056756E+03  0.7561462E-02  0.1268794E+00
          1   -1    0    0  501    0  0.00000000000E+00  0.00000000000E+00  0.25403808464E+03  0.25403808464E+03  0.00000000000E+00 0. -1.
         -1   -1    0    0    0  501 -0.00000000000E+00 -0.00000000000E+00 -0.78087159695E+02  0.78087159695E+02  0.00000000000E+00 0.  1.
         25    2    1    2    0    0  0.19023623279E+02  0.88131054985E+02  0.97155719973E+02  0.18224077636E+03  0.12507392034E+03 0.  0.
          5    1    3    3  502    0 -0.72183924925E+01  0.29155079612E+02 -0.28052558265E+02  0.41310316902E+02  0.41800000000E+01 0.  1.
         -5    1    3    3    0  502  0.26242015771E+02  0.58975975374E+02  0.12520827824E+03  0.14093045946E+03  0.41800000000E+01 0.  1.
        -11    1    1    2    0    0 -0.15817037144E+02 -0.10143221919E+03  0.86447055962E+02  0.13420792539E+03  0.00000000000E+00 0. -1.
         11    1    1    2    0    0 -0.32065861346E+01  0.13301164201E+02 -0.76518509946E+01  0.15676542584E+02  0.00000000000E+00 0.  1.
</event>
<event>
 7    1  0.3265282E-009  0.1088309E+03  0.7561462E-02  0.1262750E+00
         -2   -1    0    0    0  501 -0.00000000000E+00  0.00000000000E+00  0.56232508603E+02  0.56232508603E+02  0.00000000000E+00 0.  1.
          2   -1    0    0  501    0  0.00000000000E+00 -0.00000000000E+00 -0.45071649977E+03  0.45071649977E+03  0.00000000000E+00 0. -1.
         25    2    1    2    0    0 -0.43642485003E+02 -0.75915887208E+02 -0.33424887997E+03  0.36747612644E+03  0.12509396993E+03 0.  0.
          5    1    3    3  502    0 -0.27586600839E+02  0.11883367912E+02 -0.11250270498E+02  0.32346189344E+02  0.41800000000E+01 0. -1.
         -5    1    3    3    0  502 -0.16055884163E+02 -0.87799255120E+02 -0.32299860947E+03  0.33512993709E+03  0.41800000000E+01 0. -1.
        -11    1    1    2    0    0  0.15934416031E+02 -0.12587029511E+01  0.19421959546E+02  0.25153577479E+02  0.00000000000E+00 0.  1.
         11    1    1    2    0    0  0.27708068972E+02  0.77174590159E+02 -0.79657070744E+02  0.11431930446E+03  0.00000000000E+00 0. -1.
</event>
<event>
 7    1  0.3265282E-009  0.1290453E+03  0.7561462E-02  0.1228879E+00
         -2   -1    0    0    0  501 -0.00000000000E+00  0.00000000000E+00  0.37749549315E+02  0.37749549315E+02  0.00000000000E+00 0.  1.
          2   -1    0    0  501    0  0.00000000000E+00 -0.00000000000E+00 -0.44517661123E+03  0.44517661123E+03  0.00000000000E+00 0. -1.
         25    2    1    2    0    0  0.45205219915E+02  0.51958002149E+02 -0.24726042192E+03  0.28553429881E+03  0.12509585785E+03 0.  0.
          5    1    3    3  502    0  0.28663995873E+02 -0.39932586864E+02 -0.84053774721E+02  0.97461508289E+02  0.41800000000E+01 0.  1.
         -5    1    3    3    0  502  0.16541224042E+02  0.91890589013E+02 -0.16320664720E+03  0.18807279052E+03  0.41800000000E+01 0.  1.
        -11    1    1    2    0    0  0.20420914744E+01 -0.65980959298E+02 -0.88217575912E+02  0.11018165831E+03  0.00000000000E+00 0. -1.
         11    1    1    2    0    0 -0.47247311390E+02  0.14022957149E+02 -0.71949064078E+02  0.87210203431E+02  0.00000000000E+00 0.  1.
</event>
<event>
 7    1  0.3265282E-009  0.1095168E+03  0.7561462E-02  0.1261467E+00
          2   -1    0    0  501    0  0.00000000000E+00  0.00000000000E+00  0.13630260051E+03  0.13630260051E+03  0.00000000000E+00 0.  1.
         -2   -1    0    0    0  501 -0.00000000000E+00 -0.00000000000E+00 -0.11407162025E+03  0.11407162025E+03  0.00000000000E+00 0. -1.
         25    2    1    2    0    0  0.56163633877E+01  0.35275432884E+02 -0.35882328406E+02  0.13494722346E+03  0.12508921586E+03 0.  0.
          5    1    3    3  502    0 -0.26792393330E+02  0.72185440774E+02 -0.60973628880E+01  0.77351279461E+02  0.41800000000E+01 0.  1.
         -5    1    3    3    0  502  0.32408756718E+02 -0.36910007889E+02 -0.29784965518E+02  0.57595944001E+02  0.41800000000E+01 0.  1.
        -11    1    1    2    0    0  0.38692275416E+02 -0.27914282873E+02  0.84287133935E+01  0.48449381571E+02  0.00000000000E+00 0. -1.
         11    1    1    2    0    0 -0.44308638803E+02 -0.73611500109E+01  0.49684595270E+02  0.66977615733E+02  0.00000000000E+00 0.  1.
</event>
<event>
 7    1  0.3265282E-009  0.9697294E+02  0.7561462E-02  0.1286793E+00
          1   -1    0    0  501    0  0.00000000000E+00  0.00000000000E+00  0.40691745954E+03  0.40691745954E+03  0.00000000000E+00 0. -1.
         -1   -1    0    0    0  501 -0.00000000000E+00 -0.00000000000E+00 -0.53186289661E+02  0.53186289661E+02  0.00000000000E+00 0.  1.
         25    2    1    2    0    0  0.78187952070E+02 -0.52098244324E+02  0.23983328898E+03  0.28634868787E+03  0.12509189274E+03 0.  0.
          5    1    3    3  502    0  0.62975562486E+02 -0.39420075557E+02  0.38094883845E+02  0.83597586104E+02  0.41800000000E+01 0.  1.
         -5    1    3    3    0  502  0.15212389584E+02 -0.12678168767E+02  0.20173840513E+03  0.20275110176E+03  0.41800000000E+01 0.  1.
        -11    1    1    2    0    0 -0.28403285129E+02  0.17031552316E+01  0.96781162117E+02  0.10087735467E+03  0.00000000000E+00 0. -1.
         11    1    1    2    0    0 -0.49784666941E+02  0.50395089093E+02  0.17116718783E+02  0.72877706666E+02  0.00000000000E+00 0.  1.
</event>
<event>
 7    1  0.3265282E-009  0.6280235E+02  0.7561462E-02  0.1386434E+00
         -1   -1    0    0    0  501 -0.00000000000E+00  0.00000000000E+00  0.19546299967E+02  0.19546299967E+02  0.00000000000E+00 0.  1.
          1   -1    0    0  501    0  0.00000000000E+00 -0.00000000000E+00 -0.67536306534E+03  0.67536306534E+03  0.00000000000E+00 0. -1.
         25    2    1    2    0    0  0.18313457967E+02 -0.26435369191E+02 -0.44525411278E+03  0.46360884637E+03  0.12509087096E+03 0.  0.
          5    1    3    3  502    0  0.24129077188E+02 -0.33323265825E+01 -0.43751607626E+03  0.43821353944E+03  0.41800000000E+01 0. -1.
         -5    1    3    3    0  502 -0.58156192206E+01 -0.23103042609E+02 -0.77380365228E+01  0.25395306927E+02  0.41800000000E+01 0. -1.
        -11    1    1    2    0    0 -0.15770354650E+02 -0.22623754633E+02 -0.18876089701E+02  0.33419232814E+02  0.00000000000E+00 0.  1.
         11    1    1    2    0    0 -0.25431033172E+01  0.49059123824E+02 -0.19168656289E+03  0.19788128613E+03  0.00000000000E+00 0. -1.
</event>
<event>
 7    1  0.3265282E-009  0.1030424E+03  0.7561462E-02  0.1274025E+00
          2   -1    0    0  501    0  0.00000000000E+00  0.00000000000E+00  0.45379566485E+03  0.45379566485E+03  0.00000000000E+00 0. -1.
         -2   -1    0    0    0  501 -0.00000000000E+00 -0.00000000000E+00 -0.30460362510E+02  0.30460362510E+02  0.00000000000E+00 0.  1.
         25    2    1    2    0    0 -0.41410597487E+02 -0.19667909123E+00  0.27890158546E+03  0.30846127194E+03  0.12508951056E+03 0.  0.
          5    1    3    3  502    0 -0.65342853438E+02  0.39747646049E+02  0.22184808827E+03  0.23469897855E+03  0.41800000000E+01 0. -1.
         -5    1    3    3    0  502  0.23932255951E+02 -0.39944325140E+02  0.57053497183E+02  0.73762293393E+02  0.41800000000E+01 0. -1.
        -11    1    1    2    0    0  0.58545111119E+02 -0.14328712093E+02  0.48780910027E+02  0.77539791135E+02  0.00000000000E+00 0.  1.
         11    1    1    2    0    0 -0.17134513632E+02  0.14525391184E+02  0.95652806860E+02  0.98254964285E+02  0.00000000000E+00 0. -1.
</event>
<event>
 7    1  0.3265282E-009  0.1272087E+03  0.7561462E-02  0.1231657E+00
          2   -1    0    0  501    0  0.00000000000E+00  0.00000000000E+00  0.67395393579E+03  0.67395393579E+03  0.00000000000E+00 0. -1.
         -2   -1    0    0    0  501 -0.00000000000E+00 -0.00000000000E+00 -0.28419135206E+02  0.28419135206E+02  0.00000000000E+00 0.  1.
         25    2    1    2    0    0 -0.66301872671E+02  0.51256852447E+02  0.39164328404E+03  0.41958916101E+03  0.12508956338E+03 0.  0.
          5    1    3    3  502    0 -0.17235060232E+02 -0.30620938585E+02  0.32820018498E+02  0.48262979552E+02  0.41800000000E+01 0. -1.
         -5    1    3    3    0  502 -0.49066812439E+02  0.81877791032E+02  0.35882326554E+03  0.37132618146E+03  0.41800000000E+01 0. -1.
        -11    1    1    2    0    0  0.89305203493E+02 -0.42021685745E+02  0.18701306246E+03  0.21145951616E+03  0.00000000000E+00 0.  1.
         11    1    1    2    0    0 -0.23003330823E+02 -0.92351667021E+01  0.66878454092E+02  0.71324393826E+02  0.00000000000E+00 0. -1.
</event>
<event>
 7    1  0.3265282E-009  0.1781741E+03  0.7561462E-02  0.1169582E+00
         -1   -1    0    0    0  501 -0.00000000000E+00  0.00000000000E+00  0.21168339959E+02  0.21168339959E+02  0.00000000000E+00 0.  1.
          1   -1    0    0  501    0  0.00000000000E+00 -0.00000000000E+00 -0.17188794340E+04  0.17188794340E+04  0.00000000000E+00 0. -1.
         25    2    1    2    0    0  0.10093430692E+03  0.12243976138E+03 -0.83679595627E+03  0.86084473050E+03  0.12508776163E+03 0.  0.
          5    1    3    3  502    0  0.16807285903E+01 -0.12932918466E+02 -0.25328169678E+03  0.25365168155E+03  0.41800000000E+01 0. -1.
         -5    1    3    3    0  502  0.99253578326E+02  0.13537267985E+03 -0.58351425949E+03  0.60719304894E+03  0.41800000000E+01 0. -1.
        -11    1    1    2    0    0 -0.41677206388E+02 -0.34590434900E+01 -0.13906989618E+03  0.14522186659E+03  0.00000000000E+00 0.  1.
         11    1    1    2    0    0 -0.59257100528E+02 -0.11898071789E+03 -0.72184524161E+03  0.73398117689E+03  0.00000000000E+00 0. -1.
</event>
<event>
 7    1  0.3265282E-009  0.1145570E+03  0.7561462E-02  0.1252356E+00
         -1   -1    0    0    0  501 -0.00000000000E+00  0.00000000000E+00  0.62558463144E+02  0.62558463144E+02  0.00000000000E+00 0.  1.
          1   -1    0    0  501    0  0.00000000000E+00 -0.00000000000E+00 -0.31178886203E+03  0.31178886203E+03  0.00000000000E+00 0. -1.
         25    2    1    2    0    0 -0.41297586818E+02  0.65576966351E+02 -0.82209639780E+02  0.16855294225E+03  0.12508333333E+03 0.  0.
          5    1    3    3  502    0 -0.53322905013E+02  0.13305849854E+02  0.15287438648E+02  0.57197517602E+02  0.41800000000E+01 0.  1.
         -5    1    3    3    0  502  0.12025318196E+02  0.52271116497E+02 -0.97497078427E+02  0.11135542465E+03  0.41800000000E+01 0.  1.
        -11    1    1    2    0    0  0.64261597016E+02 -0.17008623928E+02 -0.94744913504E+02  0.11573869178E+03  0.00000000000E+00 0.  1.
         11    1    1    2    0    0 -0.22964010198E+02 -0.48568342423E+02 -0.72275845605E+02  0.90055691147E+02  0.00000000000E+00 0. -1.
</event>
<event>
 7    1  0.3265282E-009  0.1049153E+03  0.7561462E-02  0.1270287E+00
         -2   -1    0    0    0  501 -0.00000000000E+00  0.00000000000E+00  0.76324349436E+02  0.76324349436E+02  0.00000000000E+00 0.  1.
          2   -1    0    0  501    0  0.00000000000E+00 -0.00000000000E+00 -0.16499717465E+03  0.16499717465E+03  0.00000000000E+00 0. -1.
         25    2    1    2    0    0  0.15940875540E+01  0.25895725832E+02 -0.69220545836E+02  0.14531632656E+03  0.12510883689E+03 0.  0.
          5    1    3    3  502    0  0.43024028224E+02 -0.33762137514E+02 -0.33463667916E+02  0.64251368893E+02  0.41800000000E+01 0. -1.
         -5    1    3    3    0  502 -0.41429940670E+02  0.59657863347E+02 -0.35756877919E+02  0.81064957667E+02  0.41800000000E+01 0. -1.
        -11    1    1    2    0    0  0.34287528690E+02  0.52844932172E+01  0.14487911720E+02  0.37596011467E+02  0.00000000000E+00 0.  1.
         11    1    1    2    0    0 -0.35881616244E+02 -0.31180219049E+02 -0.33940191097E+02  0.58409186058E+02  0.00000000000E+00 0. -1.
</event>
<event>
 7    1  0.3265282E-009  0.1292605E+03  0.7561462E-02  0.1228557E+00
          1   -1    0    0  501    0  0.00000000000E+00  0.00000000000E+00  0.11150156492E+03  0.11150156492E+03  0.00000000000E+00 0. -1.
         -1   -1    0    0    0  501 -0.00000000000E+00 -0.00000000000E+00 -0.15772958523E+03  0.15772958523E+03  0.00000000000E+00 0.  1.
         25    2    1    2    0    0  0.66761485131E+02  0.36940019999E+02 -0.37103723030E+02  0.15114890144E+03  0.12509053989E+03 0.  0.
          5    1    3    3  502    0  0.97400715567E+02  0.40651991933E+01 -0.41019010222E+02  0.10584638320E+03  0.41800000000E+01 0. -1.
         -5    1    3    3    0  502 -0.30639230436E+02  0.32874820806E+02  0.39152871923E+01  0.45302518236E+02  0.41800000000E+01 0. -1.
        -11    1    1    2    0    0 -0.34224499066E+02 -0.64601138679E+02  0.45285899659E+01  0.73247058521E+02  0.00000000000E+00 0. -1.
         11    1    1    2    0    0 -0.32536986066E+02  0.27661118680E+02 -0.13652887254E+02  0.44835190189E+02  0.00000000000E+00 0.  1.
</event>
<event>
 7    1  0.3265282E-009  0.1179600E+03  0.7561462E-02  0.1246501E+00
          1   -1    0    0  501    0  0.00000000000E+00  0.00000000000E+00  0.61554022275E+02  0.61554022275E+02  0.00000000000E+00 0. -1.
         -1   -1    0    0    0  501 -0.00000000000E+00 -0.00000000000E+00 -0.35902046192E+03  0.35902046192E+03  0.00000000000E+00 0.  1.
         25    2    1    2    0    0 -0.46175506062E+02  0.85267824959E+02 -0.11931232869E+03  0.19820557808E+03  0.12508892865E+03 0.  0.
          5    1    3    3  502    0 -0.62822802502E+02  0.54340496811E+02 -0.13575013854E+03  0.15920165395E+03  0.41800000000E+01 0. -1.
         -5    1    3    3    0  502  0.16647296440E+02  0.30927328148E+02  0.16437809844E+02  0.39003924131E+02  0.41800000000E+01 0. -1.
        -11    1    1    2    0    0  0.45830565854E+02 -0.16649858553E+02 -0.12914980181E+03  0.13804828816E+03  0.00000000000E+00 0.  1.
         11    1    1    2    0    0  0.34494020776E+00 -0.68617966406E+02 -0.49004309140E+02  0.84320617951E+02  0.00000000000E+00 0. -1.
</event>
<event>
 7    1  0.3265282E-009  0.8782262E+02  0.7561462E-02  0.1308212E+00
          2   -1    0    0  501    0  0.00000000000E+00  0.00000000000E+00  0.70260438290E+02  0.70260438290E+02  0.00000000000E+00 0. -1.
         -2   -1    0    0    0  501 -0.00000000000E+00 -0.00000000000E+00 -0.27455347820E+03  0.27455347820E+03  0.00000000000E+00 0.  1.
         25    2    1    2    0    0  0.15955011858E+02  0.58042766307E+02 -0.37772812702E+02  0.14387091154E+03  0.12509407933E+03 0.  0.
          5    1    3    3  502    0  0.45001015235E+02  0.68516191411E+02  0.14175794555E+02  0.83294570105E+02  0.41800000000E+01 0. -1.
         -5    1    3    3    0  502 -0.29046003377E+02 -0.10473425104E+02 -0.51948607257E+02  0.60576341434E+02  0.41800000000E+01 0. -1.
        -11    1    1    2    0    0 -0.19379587657E+02 -0.46769261532E+02 -0.17765764474E+03  0.18472999479E+03  0.00000000000E+00 0.  1.
         11    1    1    2    0    0  0.34245757986E+01 -0.11273504775E+02  0.11137417528E+02  0.16213010162E+02  0.00000000000E+00 0. -1.
</event>
<event>
 7    1  0.3265282E-009  0.1108182E+03  0.7561462E-02  0.1259062E+00
          2   -1    0    0  501    0  0.00000000000E+00  0.00000000000E+00  0.24728699289E+03  0.24728699289E+03  0.00000000000E+00 0. -1.
         -2   -1    0    0    0  501 -0.00000000000E+00 -0.00000000000E+00 -0.66446991886E+02  0.66446991886E+02  0.00000000000E+00 0.  1.
         25    2    1    2    0    0  0.57101333069E+02  0.37093900957E+02  0.11541538897E+03  0.18331617811E+03  0.12509032504E+03 0.  0.
          5    1    3    3  502    0  0.34040303223E+02  0.76738607113E+02  0.35842216044E+02  0.91376654109E+02  0.41800000000E+01 0.  1.
         -5    1    3    3    0  502  0.23061029846E+02 -0.39644706156E+02  0.79573172928E+02  0.91939524002E+02  0.41800000000E+01 0.  1.
        -11    1    1    2    0    0  0.59368524682E+01  0.10824237262E+02 -0.13724512046E+02  0.18460026014E+02  0.00000000000E+00 0.  1.
         11    1    1    2    0    0 -0.63038185537E+02 -0.47918138219E+02  0.79149124074E+02  0.11195778065E+03  0.00000000000E+00 0. -1.
</event>
<event>
 7    1  0.3639773E-009  0.8768546E+02  0.7561462E-02  0.1308555E+00
         -2   -1    0    0    0  501 -0.00000000000E+00  0.00000000000E+00  0.21238830167E+02  0.21238830167E+02  0.00000000000E+00 0. -1.
          2   -1    0    0  501    0  0.00000000000E+00 -0.00000000000E+00 -0.73492046580E+03  0.73492046580E+03  0.00000000000E+00 0.  1.
         25    2    1    2    0    0  0.47810355580E+02  0.29938692214E+02 -0.47223283412E+03  0.49176594808E+03  0.12509093765E+03 0.  0.
          5    1    3    3  502    0  0.41969544455E+02  0.51907965322E+02 -0.46143069539E+03  0.46625276254E+03  0.41800000000E+01 0. -1.
         -5    1    3    3    0  502  0.58408111255E+01 -0.21969273108E+02 -0.10802138727E+02  0.25513185543E+02  0.41800000000E+01 0. -1.
        -11    1    1    2    0    0 -0.46534285902E+01 -0.40643883885E+02 -0.19815235511E+03  0.20233125199E+03  0.00000000000E+00 0.  1.
         11    1    1    2    0    0 -0.43156926990E+02  0.10705191671E+02 -0.43296446408E+02  0.62062095900E+02  0.00000000000E+00 0. -1.
</event>
<event>
 7    1  0.3265282E-009  0.1040635E+03  0.7561462E-02  0.1271976E+00
          1   -1    0    0  501    0  0.00000000000E+00  0.00000000000E+00  0.93089954872E+02  0.93089954872E+02  0.00000000000E+00 0. -1.
         -1   -1    0    0    0  501 -0.00000000000E+00 -0.00000000000E+00 -0.48501976021E+03  0.48501976021E+03  0.00000000000E+00 0.  1.
         25    2    1    2    0    0  0.22463806801E+02 -0.10012665187E+03 -0.40858126986E+03  0.43944538711E+03  0.12507447837E+03 0.  0.
          5    1    3    3  502    0  0.30167324262E+01 -0.10649633986E+02 -0.28669707101E+03  0.28694110599E+03  0.41800000000E+01 0. -1.
         -5    1    3    3    0  502  0.19447074375E+02 -0.89477017884E+02 -0.12188419884E+03  0.15250428112E+03  0.41800000000E+01 0. -1.
        -11    1    1    2    0    0 -0.18359803756E+02  0.36331382042E+02  0.51666391297E+02  0.65775889996E+02  0.00000000000E+00 0. -1.
         11    1    1    2    0    0 -0.41040030450E+01  0.63795269829E+02 -0.35014926774E+02  0.72888437976E+02  0.00000000000E+00 0.  1.
</event>
<event>
 7    1  0.3265282E-009  0.1458754E+03  0.7561462E-02  0.1205635E+00
          2   -1    0    0  501    0  0.00000000000E+00  0.00000000000E+00  0.31167478497E+03  0.31167478497E+03  0.00000000000E+00 0. -1.
         -2   -1    0    0    0  501 -0.00000000000E+00 -0.00000000000E+00 -0.76995513934E+02  0.76995513934E+02  0.00000000000E+00 0.  1.
         25    2    1    2    0    0  0.83212809636E+02 -0.67504920299E+02  0.10822655277E+03  0.19708030622E+03  0.12508546847E+03 0.  0.
          5    1    3    3  502    0  0.44536901317E+02  0.23755871210E+02  0.52596870360E+00  0.50652009229E+02  0.41800000000E+01 0.  1.
         -5    1    3    3    0  502  0.38675908319E+02 -0.91260791509E+02  0.10770058407E+03  0.14642829699E+03  0.41800000000E+01 0.  1.
        -11    1    1    2    0    0  0.16141230514E+02 -0.71155061998E+01  0.62675389584E+01  0.18720357785E+02  0.00000000000E+00 0.  1.
         11    1    1    2    0    0 -0.99354040150E+02  0.74620426499E+02  0.12018517931E+03  0.17286963490E+03  0.00000000000E+00 0. -1.
</event>
<event>
 7    1  0.3265282E-009  0.1047050E+03  0.7561462E-02  0.1270702E+00
          2   -1    0    0  501    0  0.00000000000E+00  0.00000000000E+00  0.60294321194E+03  0.60294321194E+03  0.00000000000E+00 0.  1.
         -2   -1    0    0    0  501 -0.00000000000E+00 -0.00000000000E+00 -0.18520659765E+02  0.18520659765E+02  0.00000000000E+00 0. -1.
         25    2    1    2    0    0  0.14207270868E+02  0.18116313958E+02  0.37368660976E+03  0.39473994129E+03  0.12509153273E+03 0.  0.
          5    1    3    3  502    0  0.59549595688E+01 -0.53990548858E+02  0.16319576239E+03  0.17204874359E+03  0.41800000000E+01 0.  1.
         -5    1    3    3    0  502  0.82523112987E+01  0.72106862816E+02  0.21049084737E+03  0.22269119770E+03  0.41800000000E+01 0.  1.
        -11    1    1    2    0    0  0.22780296768E+02 -0.34851528887E+02  0.12728840970E+03  0.13392501720E+03  0.00000000000E+00 0.  1.
         11    1    1    2    0    0 -0.36987567636E+02  0.16735214929E+02  0.83447532719E+02  0.92798913222E+02  0.00000000000E+00 0. -1.
</event>
<event>
 7    1  0.3265282E-009  0.1134539E+03  0.7561462E-02  0.1254304E+00
         -1   -1    0    0    0  501 -0.00000000000E+00  0.00000000000E+00  0.64517188028E+02  0.64517188028E+02  0.00000000000E+00 0.  1.
          1   -1    0    0  501    0  0.00000000000E+00 -0.00000000000E+00 -0.20633243736E+03  0.20633243736E+03  0.00000000000E+00 0. -1.
         25    2    1    2    0    0  0.18571107428E+02  0.33153836548E+02 -0.60280601970E+02  0.14396562534E+03  0.12509311490E+03 0.  0.
          5    1    3    3  502    0  0.55376852080E+02 -0.25677002127E+02 -0.29840658352E+02  0.68072325327E+02  0.41800000000E+01 0. -1.
         -5    1    3    3    0  502 -0.36805744653E+02  0.58830838675E+02 -0.30439943619E+02  0.75893300009E+02  0.41800000000E+01 0. -1.
        -11    1    1    2    0    0 -0.29816340643E+02  0.23799723441E+02 -0.41463957466E+02  0.56344483083E+02  0.00000000000E+00 0.  1.
         11    1    1    2    0    0  0.11245233215E+02 -0.56953559989E+02 -0.40070689893E+02  0.70539516967E+02  0.00000000000E+00 0. -1.
</event>
<event>
 7    1  0.3265282E-009  0.1263395E+03  0.7561462E-02  0.1232991E+00
          3   -1    0    0  501    0  0.00000000000E+00  0.00000000000E+00  0.41464621134E+03  0.41464621134E+03  0.00000000000E+00 0. -1.
         -3   -1    0    0    0  501 -0.00000000000E+00 -0.00000000000E+00 -0.58208579728E+02  0.58208579728E+02  0.00000000000E+00 0.  1.
         25    2    1    2    0    0 -0.10007332627E+03 -0.85348607985E+01  0.12708745586E+03  0.20463546635E+03  0.12504774356E+03 0.  0.
          5    1    3    3  502    0 -0.11221145509E+03  0.22541776745E+02  0.12699571604E+03  0.17101148103E+03  0.41800000000E+01 0. -1.
         -5    1    3    3    0  502  0.12138128819E+02 -0.31076637544E+02  0.91739820583E-01  0.33623985315E+02  0.41800000000E+01 0. -1.
        -11    1    1    2    0    0  0.52031950568E+02 -0.10088255775E+02  0.20404459765E+03  0.21081578359E+03  0.00000000000E+00 0. -1.
         11    1    1    2    0    0  0.48041375706E+02  0.18623116574E+02  0.25305578111E+02  0.57403541129E+02  0.00000000000E+00 0.  1.
</event>
<event>
 7    1  0.3265282E-009  0.7978812E+02  0.7561462E-02  0.1329654E+00
          2   -1    0    0  501    0  0.00000000000E+00  0.00000000000E+00  0.50826607226E+02  0.50826607226E+02  0.00000000000E+00 0. -1.
         -2   -1    0    0    0  501 -0.00000000000E+00 -0.00000000000E+00 -0.23799885405E+03  0.23799885405E+03  0.00000000000E+00 0.  1.
         25    2    1    2    0    0  0.10549210683E+02  0.14550282644E+02 -0.11248078682E+03  0.16918172296E+03  0.12509009317E+03 0.  0.
          5    1    3    3  502    0  0.39877583667E+02 -0.21809341709E+02  0.17712329287E+01  0.45677989568E+02  0.41800000000E+01 0.  1.
         -5    1    3    3    0  502 -0.29328372983E+02  0.36359624353E+02 -0.11425201975E+03  0.12350373339E+03  0.41800000000E+01 0.  1.
        -11    1    1    2    0    0 -0.65620614776E+01  0.25730749302E+02 -0.74579328095E+02  0.79165701473E+02  0.00000000000E+00 0.  1.
         11    1    1    2    0    0 -0.39871492058E+01 -0.40281031946E+02 -0.11213191161E+00  0.40478036847E+02  0.00000000000E+00 0. -1.
</event>
<event>
 7    1  0.3265282E-009  0.1080929E+03  0.7561462E-02  0.1264143E+00
          1   -1    0    0  501    0  0.00000000000E+00  0.00000000000E+00  0.15074776751E+03  0.15074776751E+03  0.00000000000E+00 0. -1.
         -1   -1    0    0    0  501 -0.00000000000E+00 -0.00000000000E+00 -0.13913386869E+03  0.13913386869E+03  0.00000000000E+00 0.  1.
         25    2    1    2    0    0  0.88181278218E+02  0.31498356614E+02 -0.17782627898E+02  0.15725909152E+03  0.12508443434E+03 0.  0.
          5    1    3    3  502    0  0.90686847543E+02  0.14565546381E+02 -0.61168022765E+02  0.11043214599E+03  0.41800000000E+01 0.  1.
         -5    1    3    3    0  502 -0.25055693246E+01  0.16932810233E+02  0.43385394868E+02  0.46826945532E+02  0.41800000000E+01 0.  1.
        -11    1    1    2    0    0 -0.74607268512E+02 -0.45283934170E+02 -0.10870346183E+02  0.87949096840E+02  0.00000000000E+00 0.  1.
         11    1    1    2    0    0 -0.13574009706E+02  0.13785577556E+02  0.40266872906E+02  0.44673447837E+02  0.00000000000E+00 0. -1.
</event>
<event>
 7    1  0.3265282E-009  0.1389668E+03  0.7561462E-02  0.1214726E+00
          1   -1    0    0  501    0  0.00000000000E+00  0.00000000000E+00  0.33066296066E+03  0.33066296066E+03  0.00000000000E+00 0. -1.
         -1   -1    0    0    0  501 -0.00000000000E+00 -0.00000000000E+00 -0.58762599685E+02  0.58762599685E+02  0.00000000000E+00 0.  1.
         25    2    1    2    0    0 -0.87234868417E+02  0.51972125891E+01  0.14842896540E+03  0.21287501944E+03  0.12509069848E+03 0.  0.
          5    1    3    3  502    0 -0.11503301024E+03 -0.17536318142E+02  0.11384217527E+03  0.16284234452E+03  0.41800000000E+01 0. -1.
         -5    1    3    3    0  502  0.27798141824E+02  0.22733530732E+02  0.34586790121E+02  0.50032674917E+02  0.41800000000E+01 0. -1.
        -11    1    1    2    0    0 -0.16287394317E+02 -0.13959892326E+02  0.13931235115E+02  0.25578059333E+02  0.00000000000E+00 0.  1.
         11    1    1    2    0    0  0.10352226273E+03  0.87626797365E+01  0.10954016047E+03  0.15097248157E+03  0.00000000000E+00 0. -1.
</event>
<event>
 7    1  0.3265282E-009  0.1275097E+03  0.7561462E-02  0.1231198E+00
          2   -1    0    0  501    0  0.00000000000E+00  0.00000000000E+00  0.73234257813E+03  0.73234257813E+03  0.00000000000E+00 0.  1.
         -2   -1    0    0    0  501 -0.00000000000E+00 -0.00000000000E+00 -0.23102780651E+02  0.23102780651E+02  0.00000000000E+00 0. -1.
         25    2    1    2    0    0 -0.29601169629E+02  0.62660315753E+02  0.32242930971E+03  0.35271792340E+03  0.12508688706E+03 0.  0.
          5    1    3    3  502    0 -0.73479572348E+02  0.65900686512E+02  0.22046288184E+03  0.24158539423E+03  0.41800000000E+01 0. -1.
         -5    1    3    3    0  502  0.43878402720E+02 -0.32403707588E+01  0.10196642787E+03  0.11113252917E+03  0.41800000000E+01 0. -1.
        -11    1    1    2    0    0 -0.11555638674E+02 -0.69375693631E+02  0.24965842443E+03  0.25937588273E+03  0.00000000000E+00 0. -1.
         11    1    1    2    0    0  0.41156808302E+02  0.67153778784E+01  0.13715206334E+03  0.14335155265E+03  0.00000000000E+00 0.  1.
</event>
<event>
 7    1  0.3265282E-009  0.1285182E+03  0.7561462E-02  0.1229671E+00
          3   -1    0    0  501    0  0.00000000000E+00  0.00000000000E+00  0.87417551214E+02  0.87417551214E+02  0.00000000000E+00 0. -1.
         -3   -1    0    0    0  501 -0.00000000000E+00 -0.00000000000E+00 -0.22407823515E+03  0.22407823515E+03  0.00000000000E+00 0.  1.
         25    2    1    2    0    0 -0.81505321556E+02 -0.46817970650E+00 -0.36240487546E+02  0.15363296754E+03  0.12508548734E+03 0.  0.
          5    1    3    3  502    0 -0.44322893488E+02  0.61631284972E+02 -0.26324310391E+02  0.80457292348E+02  0.41800000000E+01 0. -1.
         -5    1    3    3    0  502 -0.37182428068E+02 -0.62099464678E+02 -0.99161771546E+01  0.73175675192E+02  0.41800000000E+01 0. -1.
        -11    1    1    2    0    0  0.18071729959E+02  0.32694354692E+02 -0.72255310530E+02  0.81340876269E+02  0.00000000000E+00 0. -1.
         11    1    1    2    0    0  0.63433591596E+02 -0.32226174985E+02 -0.28164885861E+02  0.76521942556E+02  0.00000000000E+00 0.  1.
</event>
<event>
 7    1  0.3265282E-009  0.2015499E+03  0.7561462E-02  0.1148438E+00
          2   -1    0    0  501    0  0.00000000000E+00  0.00000000000E+00  0.19382405143E+03  0.19382405143E+03  0.00000000000E+00 0. -1.
         -2   -1    0    0    0  501 -0.00000000000E+00 -0.00000000000E+00 -0.24763277425E+03  0.24763277425E+03  0.00000000000E+00 0.  1.
         25    2    1    2    0    0  0.78431406047E+02  0.16754036167E+03  0.19012001762E+02  0.22412874197E+03  0.12510387093E+03 0.  0.
          5    1    3    3  502    0 -0.24452394149E+02  0.62877258375E+02  0.35558883992E+02  0.76376539796E+02  0.41800000000E+01 0.  1.
         -5    1    3    3    0  502  0.10288380020E+03  0.10466310330E+03 -0.16546882230E+02  0.14775220217E+03  0.41800000000E+01 0.  1.
        -11    1    1    2    0    0  0.15476412640E+01 -0.26492515576E+02  0.17437654844E+02  0.31754060866E+02  0.00000000000E+00 0.  1.
         11    1    1    2    0    0 -0.79979047311E+02 -0.14104784610E+03 -0.90258379427E+02  0.18557402284E+03  0.00000000000E+00 0. -1.
</event>
<event>
 7    1  0.3265282E-009  0.1066836E+03  0.7561462E-02  0.1266838E+00
          1   -1    0    0  501    0  0.00000000000E+00  0.00000000000E+00  0.28987867322E+02  0.28987867322E+02  0.00000000000E+00 0. -1.
         -1   -1    0    0    0  501 -0.00000000000E+00 -0.00000000000E+00 -0.63459438113E+03  0.63459438113E+03  0.00000000000E+00 0.  1.
         25    2    1    2    0    0 -0.34598651289E+02 -0.54300876029E+02 -0.45083037321E+03  0.47227113536E+03  0.12508536317E+03 0.  0.
          5    1    3    3  502    0  0.20010054405E+02 -0.43752950694E+02 -0.37521954030E+03  0.37831455007E+03  0.41800000000E+01 0.  1.
         -5    1    3    3    0  502 -0.54608705694E+02 -0.10547925335E+02 -0.75610832903E+02  0.93956585287E+02  0.41800000000E+01 0.  1.
        -11    1    1    2    0    0  0.43676554086E+02 -0.96314449583E+01 -0.86231024839E+02  0.97140083146E+02  0.00000000000E+00 0. -1.
         11    1    1    2    0    0 -0.90779027966E+01  0.63932320987E+02 -0.68545115762E+02  0.94171029944E+02  0.00000000000E+00 0.  1.
</event>
<event>
 7    1  0.3265282E-009  0.1225322E+03  0.7561462E-02  0.1238977E+00
          2   -1    0    0  501    0  0.00000000000E+00  0.00000000000E+00  0.20737808607E+03  0.20737808607E+03  0.00000000000E+00 0. -1.
         -2   -1    0    0    0  501 -0.00000000000E+00 -0.00000000000E+00 -0.10083533966E+03  0.10083533966E+03  0.00000000000E+00 0.  1.
         25    2    1    2    0    0 -0.69926766933E+02  0.57710180521E+02  0.95869303801E+02  0.18181977257E+03  0.12508912269E+03 0.  0.
          5    1    3    3  502    0  0.34361456793E+01  0.76061462497E+02  0.64375932771E+02  0.99794219744E+02  0.41800000000E+01 0.  1.
         -5    1    3    3    0  502 -0.73362912612E+02 -0.18351281975E+02  0.31493371030E+02  0.82025552823E+02  0.41800000000E+01 0.  1.
        -11    1    1    2    0    0  0.40692520141E+02 -0.46426237257E+02 -0.35028153049E+02  0.70980618532E+02  0.00000000000E+00 0.  1.
         11    1    1    2    0    0  0.29234246792E+02 -0.11283943265E+02  0.45701595654E+02  0.55413034626E+02  0.00000000000E+00 0. -1.
</event>
<event>
 7    1  0.3265282E-009  0.9633951E+02  0.7561462E-02  0.1288187E+00
         -3   -1    0    0    0  501 -0.00000000000E+00  0.00000000000E+00  0.35878939840E+02  0.35878939840E+02  0.00000000000E+00 0.  1.
          3   -1    0    0  501    0  0.00000000000E+00 -0.00000000000E+00 -0.49645318820E+03  0.49645318820E+03  0.00000000000E+00 0. -1.
         25    2    1    2    0    0 -0.78572503027E+02 -0.27808112775E+01 -0.22817650528E+03  0.27184632406E+03  0.12511808502E+03 0.  0.
          5    1    3    3  502    0 -0.71550919349E+02  0.10418254604E+01 -0.24362791945E+03  0.25395404111E+03  0.41800000000E+01 0.  1.
         -5    1    3    3    0  502 -0.70215836785E+01 -0.38226367379E+01  0.15451414174E+02  0.17892282944E+02  0.41800000000E+01 0.  1.
        -11    1    1    2    0    0  0.43666361133E+01  0.31947790920E+02 -0.10815753401E+03  0.11286177837E+03  0.00000000000E+00 0. -1.
         11    1    1    2    0    0  0.74205866914E+02 -0.29166979642E+02 -0.12424020908E+03  0.14762402561E+03  0.00000000000E+00 0.  1.
</event>
<event>
 7    1  0.3265282E-009  0.1413009E+03  0.7561462E-02  0.1211589E+00
          1   -1    0    0  501    0  0.00000000000E+00  0.00000000000E+00  0.21458921574E+03  0.21458921574E+03  0.00000000000E+00 0. -1.
         -1   -1    0    0    0  501 -0.00000000000E+00 -0.00000000000E+00 -0.10098963801E+03  0.10098963801E+03  0.00000000000E+00 0.  1.
         25    2    1    2    0    0 -0.56599849332E+02  0.79357199227E+02  0.28956696454E+02  0.16120522144E+03  0.12509006810E+03 0.  0.
          5    1    3    3  502    0  0.11791362329E+02  0.87577960709E+02  0.25673367139E+02  0.92116934425E+02  0.41800000000E+01 0.  1.
         -5    1    3    3    0  502 -0.68391211661E+02 -0.82207614827E+01  0.32833293154E+01  0.69088287019E+02  0.41800000000E+01 0.  1.
        -11    1    1    2    0    0  0.80603057829E+01 -0.76046206233E+02  0.32599812416E+02  0.83130871409E+02  0.00000000000E+00 0.  1.
         11    1    1    2    0    0  0.48539543549E+02 -0.33109929936E+01  0.52043068861E+02  0.71242760889E+02  0.00000000000E+00 0. -1.
</event>
<event>
 7    1  0.3265282E-009  0.1139486E+03  0.7561462E-02  0.1253428E+00
         -1   -1    0    0    0  501 -0.00000000000E+00  0.00000000000E+00  0.34914510024E+02  0.34914510024E+02  0.00000000000E+00 0.  1.
          1   -1    0    0  501    0  0.00000000000E+00 -0.00000000000E+00 -0.48856450022E+03  0.48856450022E+03  0.00000000000E+00 0. -1.
         25    2    1    2    0    0  0.26135936874E+02 -0.28906600733E+02 -0.13379965685E+03  0.18726545945E+03  0.12508926959E+03 0.  0.
          5    1    3    3  502    0  0.31486882619E+02  0.44584401563E+02 -0.39435596108E+02  0.67467260803E+02  0.41800000000E+01 0.  1.
         -5    1    3    3    0  502 -0.53509457451E+01 -0.73491002296E+02 -0.94364060745E+02  0.11979819865E+03  0.41800000000E+01 0.  1.
        -11    1    1    2    0    0 -0.60364212173E+02  0.23104306512E+02 -0.24988150090E+03  0.25810542727E+03  0.00000000000E+00 0.  1.
         11    1    1    2    0    0  0.34228275299E+02  0.58022942210E+01 -0.69968832440E+02  0.78108123529E+02  0.00000000000E+00 0. -1.
</event>
<event>
 7    1  0.3265282E-009  0.1106520E+03  0.7561462E-02  0.1259367E+00
          1   -1    0    0  501    0  0.00000000000E+00  0.00000000000E+00  0.72059131768E+03  0.72059131768E+03  0.00000000000E+00 0. -1.
         -1   -1    0    0    0  501 -0.00000000000E+00 -0.00000000000E+00 -0.43438656417E+02  0.43438656417E+02  0.00000000000E+00 0.  1.
         25    2    1    2    0    0 -0.54928788059E+02 -0.31777937202E+02  0.62657524609E+03  0.64208219171E+03  0.12508394323E+03 0.  0.
          5    1    3    3  502    0  0.23557559187E+02 -0.46571154220E+02  0.35938639524E+03  0.36318023691E+03  0.41800000000E+01 0.  1.
         -5    1    3    3    0  502 -0.78486347246E+02  0.14793217018E+02  0.26718885085E+03  0.27890195480E+03  0.41800000000E+01 0.  1.
        -11    1    1    2    0    0  0.49934203391E+02  0.49647095817E+02  0.66979788108E+02  0.97183078807E+02  0.00000000000E+00 0. -1.
         11    1    1    2    0    0  0.49945846676E+01 -0.17869158614E+02 -0.16402372932E+02  0.24764703580E+02  0.00000000000E+00 0.  1.
</event>
<event>
 7    1  0.3265282E-009  0.1052473E+03  0.7561462E-02  0.1269633E+00
         -2   -1    0    0    0  501 -0.00000000000E+00  0.00000000000E+00  0.86349624193E+02  0.86349624193E+02  0.00000000000E+00 0.  1.
          2   -1    0    0  501    0  0.00000000000E+00 -0.00000000000E+00 -0.27733346956E+03  0.27733346956E+03  0.00000000000E+00 0. -1.
         25    2    1    2    0    0  0.27562237276E+02  0.97246548955E+02 -0.13458836062E+03  0.20970237167E+03  0.12507793436E+03 0.  0.
          5    1    3    3  502    0  0.73360129986E+01  0.18514263311E+02 -0.12625091197E+03  0.12788025729E+03  0.41800000000E+01 0.  1.
         -5    1    3    3    0  502  0.20226224278E+02  0.78732285645E+02 -0.83374486492E+01  0.81822114379E+02  0.41800000000E+01 0.  1.
        -11    1    1    2    0    0  0.37860290535E+01 -0.59774253848E+02  0.20132773994E+02  0.63187214116E+02  0.00000000000E+00 0.  1.
         11    1    1    2    0    0 -0.31348266330E+02 -0.37472295107E+02 -0.76528258749E+02  0.90793507971E+02  0.00000000000E+00 0. -1.
</event>
<event>
 7    1  0.3265282E-009  0.1276391E+03  0.7561462E-02  0.1231002E+00
         -1   -1    0    0    0  501 -0.00000000000E+00  0.00000000000E+00  0.14032069272E+03  0.14032069272E+03  0.00000000000E+00 0.  1.
          1   -1    0    0  501    0  0.00000000000E+00 -0.00000000000E+00 -0.19726160862E+03  0.19726160862E+03  0.00000000000E+00 0. -1.
         25    2    1    2    0    0  0.43339668314E+02 -0.80678034288E+02 -0.11817835137E+03  0.19495288068E+03  0.12511287258E+03 0.  0.
          5    1    3    3  502    0  0.64991393226E+02 -0.16062944686E+02 -0.11143288753E+02  0.67996651900E+02  0.41800000000E+01 0.  1.
         -5    1    3    3    0  502 -0.21651724912E+02 -0.64615089602E+02 -0.10703506262E+03  0.12695622878E+03  0.41800000000E+01 0.  1.
        -11    1    1    2    0    0 -0.65634796979E+02  0.66884362197E+02  0.67726130915E+02  0.11562124930E+03  0.00000000000E+00 0.  1.
         11    1    1    2    0    0  0.22295128665E+02  0.13793672091E+02 -0.64886954383E+01  0.27008171364E+02  0.00000000000E+00 0. -1.
</event>
<event>
 7    1  0.3265282E-009  0.1284186E+03  0.7561462E-02  0.1229821E+00
          2   -1    0    0  501    0  0.00000000000E+00  0.00000000000E+00  0.74460041310E+03  0.74460041310E+03  0.00000000000E+00 0. -1.
         -2   -1    0    0    0  501 -0.00000000000E+00 -0.00000000000E+00 -0.39421316819E+02  0.39421316819E+02  0.00000000000E+00 0.  1.
         25    2    1    2    0    0 -0.96146084318E+02 -0.46516256963E+02  0.55034786604E+03  0.57440169456E+03  0.12508677534E+03 0.  0.
          5    1    3    3  502    0 -0.94517125913E+02 -0.20208609160E+02  0.53487404638E+03  0.54355275076E+03  0.41800000000E+01 0. -1.
         -5    1    3    3    0  502 -0.16289584048E+01 -0.26307647803E+02  0.15473819669E+02  0.30848943800E+02  0.41800000000E+01 0. -1.
        -11    1    1    2    0    0  0.40940870178E+02  0.63582356282E+02  0.12092307807E+03  0.14262279513E+03  0.00000000000E+00 0. -1.
         11    1    1    2    0    0  0.55205214140E+02 -0.17066099318E+02  0.33908152161E+02  0.66997240220E+02  0.00000000000E+00 0.  1.
</event>
<event>
 7    1  0.3265282E-009  0.9161734E+02  0.7561462E-02  0.1298982E+00
          1   -1    0    0  501    0  0.00000000000E+00  0.00000000000E+00  0.29381046368E+03  0.29381046368E+03  0.00000000000E+00 0. -1.
         -1   -1    0    0    0  501 -0.00000000000E+00 -0.00000000000E+00 -0.57190895533E+02  0.57190895533E+02  0.00000000000E+00 0.  1.
         25    2    1    2    0    0  0.17993043402E+02 -0.17123441281E+02  0.40221460032E+02  0.13372383846E+03  0.12508931718E+03 0.  0.
          5    1    3    3  502    0 -0.40396989273E+02 -0.26600178042E+01  0.58002349959E+02  0.70857162220E+02  0.41800000000E+01 0.  1.
         -5    1    3    3    0  502  0.58390032675E+02 -0.14463423477E+02 -0.17780889927E+02  0.62866676237E+02  0.41800000000E+01 0.  1.
        -11    1    1    2    0    0 -0.47873524181E+02  0.15678402626E+00  0.16090705712E+03  0.16787787206E+03  0.00000000000E+00 0. -1.
         11    1    1    2    0    0  0.29880480780E+02  0.16966657255E+02  0.35491051001E+02  0.49399648695E+02  0.00000000000E+00 0.  1.
</event>
<event>
 7    1  0.3265282E-009  0.1176671E+03  0.7561462E-02  0.1246996E+00
          2   -1    0    0  501    0  0.00000000000E+00  0.00000000000E+00  0.86390471326E+03  0.86390471326E+03  0.00000000000E+00 0. -1.
         -2   -1    0    0    0  501 -0.00000000000E+00 -0.00000000000E+00 -0.18919154395E+02  0.18919154395E+02  0.00000000000E+00 0.  1.
         25    2    1    2    0    0 -0.43066745282E+02 -0.49061082966E+02  0.48685813395E+03  0.50689222906E+03  0.12508858809E+03 0.  0.
          5    1    3    3  502    0 -0.75245190286E+02 -0.46463955793E+02  0.44574478443E+03  0.45445200307E+03  0.41800000000E+01 0.  1.
         -5    1    3    3    0  502  0.32178445004E+02 -0.25971271731E+01  0.41113349526E+02  0.52440225988E+02  0.41800000000E+01 0.  1.
        -11    1    1    2    0    0  0.57003567632E+02 -0.61227871628E+01  0.18643963122E+03  0.19505545707E+03  0.00000000000E+00 0.  1.
         11    1    1    2    0    0 -0.13936822350E+02  0.55183870129E+02  0.17168779370E+03  0.18087618153E+03  0.00000000000E+00 0. -1.
</event>
<event>
 7    1  0.3265282E-009  0.1936772E+03  0.7561462E-02  0.1155186E+00
         -1   -1    0    0    0  501 -0.00000000000E+00  0.00000000000E+00  0.87307740887E+02  0.87307740887E+02  0.00000000000E+00 0.  1.
          1   -1    0    0  501    0  0.00000000000E+00 -0.00000000000E+00 -0.65520117938E+03  0.65520117938E+03  0.00000000000E+00 0. -1.
         25    2    1    2    0    0  0.17101646697E+03 -0.80739590921E+01 -0.97117309119E+02  0.23321981322E+03  0.12509152151E+03 0.  0.
          5    1    3    3  502    0  0.10209007008E+03 -0.65211139708E+02 -0.43510090900E+02  0.12878460918E+03  0.41800000000E+01 0.  1.
         -5    1    3    3    0  502  0.68926396892E+02  0.57137180616E+02 -0.53607218220E+02  0.10443520404E+03  0.41800000000E+01 0.  1.
        -11    1    1    2    0    0 -0.11599993942E+03  0.25568454658E+02 -0.20160327026E+03  0.23399489395E+03  0.00000000000E+00 0.  1.
         11    1    1    2    0    0 -0.55016527553E+02 -0.17494495566E+02 -0.26917285912E+03  0.27529421310E+03  0.00000000000E+00 0. -1.
</event>
<event>
 7    1  0.3265282E-009  0.1552861E+03  0.7561462E-02  0.1194124E+00
         -2   -1    0    0    0  501 -0.00000000000E+00  0.00000000000E+00  0.12391194602E+03  0.12391194602E+03  0.00000000000E+00 0.  1.
          2   -1    0    0  501    0  0.00000000000E+00 -0.00000000000E+00 -0.28008473811E+03  0.28008473811E+03  0.00000000000E+00 0. -1.
         25    2    1    2    0    0  0.25258891546E+02 -0.13815736117E+03 -0.14208096017E+03  0.23571004293E+03  0.12508699791E+03 0.  0.
          5    1    3    3  502    0  0.21905072143E+02 -0.52199001687E+02 -0.13830708615E+03  0.14950214193E+03  0.41800000000E+01 0.  1.
         -5    1    3    3    0  502  0.33538194034E+01 -0.85958359480E+02 -0.37738740199E+01  0.86207900996E+02  0.41800000000E+01 0.  1.
        -11    1    1    2    0    0 -0.45614494095E+02  0.23649117356E+02 -0.52307098919E+01  0.51646133923E+02  0.00000000000E+00 0.  1.
         11    1    1    2    0    0  0.20355602549E+02  0.11450824381E+03 -0.88611220334E+01  0.11664050728E+03  0.00000000000E+00 0. -1.
</event>
<event>
 7    1  0.3265282E-009  0.1968466E+03  0.7561462E-02  0.1152427E+00
         -2   -1    0    0    0  501 -0.00000000000E+00  0.00000000000E+00  0.52825044544E+02  0.52825044544E+02  0.00000000000E+00 0.  1.
          2   -1    0    0  501    0  0.00000000000E+00 -0.00000000000E+00 -0.88943315102E+03  0.88943315102E+03  0.00000000000E+00 0. -1.
         25    2    1    2    0    0 -0.17149163043E+03  0.75765354339E+02 -0.47129382716E+03  0.52241128750E+03  0.12508362629E+03 0.  0.
          5    1    3    3  502    0 -0.41133740641E+02  0.50046818161E+02 -0.53954573730E+02  0.84411119253E+02  0.41800000000E+01 0.  1.
         -5    1    3    3    0  502 -0.13035788979E+03  0.25718536177E+02 -0.41733925343E+03  0.43800016825E+03  0.41800000000E+01 0.  1.
        -11    1    1    2    0    0  0.78359239212E+02 -0.43524131214E+01 -0.83603543557E+02  0.11466763434E+03  0.00000000000E+00 0.  1.
         11    1    1    2    0    0  0.93132391218E+02 -0.71412941217E+02 -0.28171073576E+03  0.30517927372E+03  0.00000000000E+00 0. -1.
</event>
<event>
 7    1  0.3265282E-009  0.2118356E+03  0.7561462E-02  0.1140121E+00
          2   -1    0    0  501    0  0.00000000000E+00  0.00000000000E+00  0.68840221057E+03  0.68840221057E+03  0.00000000000E+00 0. -1.
         -2   -1    0    0    0  501 -0.00000000000E+00 -0.00000000000E+00 -0.73578148763E+02  0.73578148763E+02  0.00000000000E+00 0.  1.
         25    2    1    2    0    0  0.11736924120E+03  0.15515064661E+03  0.37194968868E+03  0.43799718247E+03  0.12509076313E+03 0.  0.
          5    1    3    3  502    0  0.82473878835E+02  0.16571493740E+03  0.25298005800E+03  0.31349603397E+03  0.41800000000E+01 0.  1.
         -5    1    3    3    0  502  0.34895362363E+02 -0.10564290795E+02  0.11896963068E+03  0.12450114850E+03  0.41800000000E+01 0.  1.
        -11    1    1    2    0    0 -0.55872041391E+02 -0.11645275229E+03  0.98777130750E+02  0.16260335201E+03  0.00000000000E+00 0.  1.
         11    1    1    2    0    0 -0.61497199807E+02 -0.38697894318E+02  0.14409724238E+03  0.16137982485E+03  0.00000000000E+00 0. -1.
</event>
<event>
 7    1  0.3265282E-009  0.1185257E+03  0.7561462E-02  0.1245549E+00
         -2   -1    0    0    0  501 -0.00000000000E+00  0.00000000000E+00  0.38907922261E+02  0.38907922261E+02  0.00000000000E+00 0. -1.
          2   -1    0    0  501    0  0.00000000000E+00 -0.00000000000E+00 -0.45944316377E+03  0.45944316377E+03  0.00000000000E+00 0.  1.
         25    2    1    2    0    0  0.70123253634E+02  0.16763742202E+02 -0.27289237591E+03  0.30873391278E+03  0.12509231119E+03 0.  0.
          5    1    3    3  502    0 -0.17234091194E+02 -0.16969833911E+02 -0.51808562494E+01  0.25085909068E+02  0.41800000000E+01 0.  1.
         -5    1    3    3    0  502  0.87357344828E+02  0.33733576113E+02 -0.26771151966E+03  0.28364800372E+03  0.41800000000E+01 0.  1.
        -11    1    1    2    0    0 -0.91693643395E+01 -0.48975816410E+02 -0.56407619656E+02  0.75263054620E+02  0.00000000000E+00 0.  1.
         11    1    1    2    0    0 -0.60953889295E+02  0.32212074208E+02 -0.91235245940E+02  0.11435411863E+03  0.00000000000E+00 0. -1.
</event>
<event>
 7    1  0.3265282E-009  0.1691195E+03  0.7561462E-02  0.1178769E+00
         -3   -1    0    0    0  501 -0.00000000000E+00  0.00000000000E+00  0.81178868362E+02  0.81178868362E+02  0.00000000000E+00 0.  1.
          3   -1    0    0  501    0  0.00000000000E+00 -0.00000000000E+00 -0.37234988115E+03  0.37234988115E+03  0.00000000000E+00 0. -1.
         25    2    1    2    0    0  0.10020887246E+03 -0.89880721059E+02 -0.19881605568E+03  0.27073279785E+03  0.12509221276E+03 0.  0.
          5    1    3    3  502    0  0.36627631701E+02 -0.10818251482E+03 -0.14911106264E+03  0.18787395061E+03  0.41800000000E+01 0. -1.
         -5    1    3    3    0  502  0.63581240763E+02  0.18301793760E+02 -0.49704993040E+02  0.82858847234E+02  0.41800000000E+01 0. -1.
        -11    1    1    2    0    0 -0.85120471876E+02  0.21727900899E+02 -0.54634857868E+02  0.10345319765E+03  0.00000000000E+00 0. -1.
         11    1    1    2    0    0 -0.15088400587E+02  0.68152820160E+02 -0.37720099234E+02  0.79342754012E+02  0.00000000000E+00 0.  1.
</event>
<event>
 7    1  0.3265282E-009  0.1813859E+03  0.7561462E-02  0.1166468E+00
          2   -1    0    0  501    0  0.00000000000E+00  0.00000000000E+00  0.15225160866E+03  0.15225160866E+03  0.00000000000E+00 0. -1.
         -2   -1    0    0    0  501 -0.00000000000E+00 -0.00000000000E+00 -0.24569897729E+03  0.24569897729E+03  0.00000000000E+00 0.  1.
         25    2    1    2    0    0  0.14081835425E+03 -0.70589313971E+02 -0.79042979140E+02  0.21611681201E+03  0.12508406669E+03 0.  0.
          5    1    3    3  502    0  0.10336468292E+03  0.17650527225E+02 -0.35919930093E+02  0.11092119979E+03  0.41800000000E+01 0. -1.
         -5    1    3    3    0  502  0.37453671338E+02 -0.88239841195E+02 -0.43123049047E+02  0.10519561222E+03  0.41800000000E+01 0. -1.
        -11    1    1    2    0    0 -0.40043002950E+02  0.22319935033E+01  0.32216471024E+02  0.51442442453E+02  0.00000000000E+00 0. -1.
         11    1    1    2    0    0 -0.10077535130E+03  0.68357320467E+02 -0.46620860515E+02  0.13039133149E+03  0.00000000000E+00 0.  1.
</event>
<event>
 7    1  0.3265282E-009  0.1135764E+03  0.7561462E-02  0.1254087E+00
         -2   -1    0    0    0  501 -0.00000000000E+00  0.00000000000E+00  0.14146541679E+02  0.14146541679E+02  0.00000000000E+00 0.  1.
          2   -1    0    0  501    0  0.00000000000E+00 -0.00000000000E+00 -0.15759068031E+04  0.15759068031E+04  0.00000000000E+00 0. -1.
         25    2    1    2    0    0  0.21176901545E+02  0.88631418514E+02 -0.10989549187E+04  0.11097987417E+04  0.12508934480E+03 0.  0.
          5    1    3    3  502    0  0.24074697018E+02  0.24638307844E+02 -0.63557313144E+02  0.72412994028E+02  0.41800000000E+01 0. -1.
         -5    1    3    3    0  502 -0.28977954726E+01  0.63993110670E+02 -0.10353976056E+04  0.10373857477E+04  0.41800000000E+01 0. -1.
        -11    1    1    2    0    0 -0.28932142932E+02  0.90147127152E+01 -0.10560202884E+03  0.10986410895E+03  0.00000000000E+00 0.  1.
         11    1    1    2    0    0  0.77552413864E+01 -0.97646131229E+02 -0.35720331388E+03  0.37039049416E+03  0.00000000000E+00 0. -1.
</event>
<event>
 7    1  0.3265282E-009  0.3392195E+03  0.7561462E-02  0.1067129E+00
          2   -1    0    0  501    0  0.00000000000E+00  0.00000000000E+00  0.10106089426E+04  0.10106089426E+04  0.00000000000E+00 0. -1.
         -2   -1    0    0    0  501 -0.00000000000E+00 -0.00000000000E+00 -0.18004329939E+03  0.18004329939E+03  0.00000000000E+00 0.  1.
         25    2    1    2    0    0  0.18641824659E+03 -0.26613380994E+03  0.65411072063E+02  0.35426723659E+03  0.12509076354E+03 0.  0.
          5    1    3    3  502    0  0.19549656238E+03 -0.26719991760E+03  0.48564481488E+02  0.33465009059E+03  0.41800000000E+01 0.  1.
         -5    1    3    3    0  502 -0.90783157961E+01  0.10661076660E+01  0.16846590575E+02  0.19617146002E+02  0.41800000000E+01 0.  1.
        -11    1    1    2    0    0 -0.17797316383E+03  0.18870215391E+03  0.56918570175E+03  0.62550404716E+03  0.00000000000E+00 0. -1.
         11    1    1    2    0    0 -0.84450827595E+01  0.77431656031E+02  0.19596886937E+03  0.21088095822E+03  0.00000000000E+00 0.  1.
</event>
<event>
 7    1  0.3265282E-009  0.1433258E+03  0.7561462E-02  0.1208923E+00
         -2   -1    0    0    0  501 -0.00000000000E+00  0.00000000000E+00  0.19048946457E+02  0.19048946457E+02  0.00000000000E+00 0. -1.
          2   -1    0    0  501    0  0.00000000000E+00 -0.00000000000E+00 -0.12118115311E+04  0.12118115311E+04  0.00000000000E+00 0.  1.
         25    2    1    2    0    0 -0.90075427666E+02 -0.50381007590E+02 -0.55225017669E+03  0.57556823162E+03  0.12508678192E+03 0.  0.
          5    1    3    3  502    0 -0.67369344165E+02  0.24873663816E+02 -0.15898267453E+03  0.17450011715E+03  0.41800000000E+01 0.  1.
         -5    1    3    3    0  502 -0.22706083501E+02 -0.75254671406E+02 -0.39326750215E+03  0.40106811447E+03  0.41800000000E+01 0.  1.
        -11    1    1    2    0    0 -0.16686338179E+02  0.17749691041E+02 -0.74712437436E+02  0.78583927883E+02  0.00000000000E+00 0.  1.
         11    1    1    2    0    0  0.10676176584E+03  0.32631316549E+02 -0.56579997052E+03  0.57670831804E+03  0.00000000000E+00 0. -1.
</event>
<event>
 7    1  0.3265282E-009  0.1356407E+03  0.7561462E-02  0.1219318E+00
         -1   -1    0    0    0  501 -0.00000000000E+00  0.00000000000E+00  0.72877210591E+02  0.72877210591E+02  0.00000000000E+00 0.  1.
          1   -1    0    0  501    0  0.00000000000E+00 -0.00000000000E+00 -0.28867409733E+03  0.28867409733E+03  0.00000000000E+00 0. -1.
         25    2    1    2    0    0  0.86290417486E+02  0.32881736286E+02 -0.15669835525E+03  0.22074698345E+03  0.12509041303E+03 0.  0.
          5    1    3    3  502    0 -0.25713681566E+02 -0.48906712317E+01 -0.67770253564E+02  0.72769442439E+02  0.41800000000E+01 0.  1.
         -5    1    3    3    0  502  0.11200409905E+03  0.37772407518E+02 -0.88928101685E+02  0.14797754101E+03  0.41800000000E+01 0.  1.
        -11    1    1    2    0    0  0.12048451516E+02 -0.25113503983E+02 -0.50023474951E+01  0.28299765842E+02  0.00000000000E+00 0.  1.
         11    1    1    2    0    0 -0.98338869002E+02 -0.77682323031E+01 -0.54096183994E+02  0.11250455863E+03  0.00000000000E+00 0. -1.
</event>
<event>
 7    1  0.3265282E-009  0.1019697E+03  0.7561462E-02  0.1276208E+00
         -2   -1    0    0    0  501 -0.00000000000E+00  0.00000000000E+00  0.74908423871E+02  0.74908423871E+02  0.00000000000E+00 0.  1.
          2   -1    0    0  501    0  0.00000000000E+00 -0.00000000000E+00 -0.25773257267E+03  0.25773257267E+03  0.00000000000E+00 0. -1.
         25    2    1    2    0    0 -0.38795514920E+02  0.59842027410E+02 -0.64301213287E+02  0.15769461896E+03  0.12508711603E+03 0.  0.
          5    1    3    3  502    0 -0.46411811071E+02 -0.16068977048E+02  0.10905647575E+02  0.50484391442E+02  0.41800000000E+01 0. -1.
         -5    1    3    3    0  502  0.76162961502E+01  0.75911004457E+02 -0.75206860862E+02  0.10721022752E+03  0.41800000000E+01 0. -1.
        -11    1    1    2    0    0  0.32343588911E+02 -0.20323929802E+02  0.10693938062E+02  0.39667747321E+02  0.00000000000E+00 0. -1.
         11    1    1    2    0    0  0.64519260095E+01 -0.39518097608E+02 -0.12921687357E+03  0.13527863025E+03  0.00000000000E+00 0.  1.
</event>
<event>
 7    1  0.3265282E-009  0.1216490E+03  0.7561462E-02  0.1240401E+00
         -1   -1    0    0    0  501 -0.00000000000E+00  0.00000000000E+00  0.61024759374E+03  0.61024759374E+03  0.00000000000E+00 0.  1.
          1   -1    0    0  501    0  0.00000000000E+00 -0.00000000000E+00 -0.37879314572E+02  0.37879314572E+02  0.00000000000E+00 0. -1.
         25    2    1    2    0    0 -0.61238635085E+02 -0.89946105473E+02  0.38047866043E+03  0.41503368223E+03  0.12509386086E+03 0.  0.
          5    1    3    3  502    0 -0.30522974228E+02 -0.67218777187E+02  0.36688654849E+03  0.37426358068E+03  0.41800000000E+01 0.  1.
         -5    1    3    3    0  502 -0.30715660857E+02 -0.22727328287E+02  0.13592111938E+02  0.40770101544E+02  0.41800000000E+01 0.  1.
        -11    1    1    2    0    0  0.37879683426E+02 -0.11172086969E+00  0.40950948643E+02  0.55784075620E+02  0.00000000000E+00 0.  1.
         11    1    1    2    0    0  0.23358951659E+02  0.90057826343E+02  0.15093867010E+03  0.17730915047E+03  0.00000000000E+00 0. -1.
</event>
<event>
 7    1  0.3265282E-009  0.1275777E+03  0.7561462E-02  0.1231095E+00
         -1   -1    0    0    0  501 -0.00000000000E+00  0.00000000000E+00  0.18005073135E+03  0.18005073135E+03  0.00000000000E+00 0.  1.
          1   -1    0    0  501    0  0.00000000000E+00 -0.00000000000E+00 -0.12793214640E+03  0.12793214640E+03  0.00000000000E+00 0. -1.
         25    2    1    2    0    0 -0.70510662757E+02  0.80871458263E+01  0.10822321259E+03  0.17999678407E+03  0.12509765402E+03 0.  0.
          5    1    3    3  502    0 -0.62484065442E+02  0.60933381298E+02  0.83851440772E+02  0.12110190713E+03  0.41800000000E+01 0. -1.
         -5    1    3    3    0  502 -0.80265973147E+01 -0.52846235472E+02  0.24371771819E+02  0.58894876939E+02  0.41800000000E+01 0. -1.
        -11    1    1    2    0    0  0.36014804602E+02 -0.48896303514E+02 -0.37656184342E+02  0.71455600670E+02  0.00000000000E+00 0.  1.
         11    1    1    2    0    0  0.34495858155E+02  0.40809157688E+02 -0.18448443300E+02  0.56530493021E+02  0.00000000000E+00 0. -1.
</event>
<event>
 7    1  0.3265282E-009  0.2706256E+03  0.7561462E-02  0.1100922E+00
         -2   -1    0    0    0  501 -0.00000000000E+00  0.00000000000E+00  0.91515438557E+02  0.91515438557E+02  0.00000000000E+00 0.  1.
          2   -1    0    0  501    0  0.00000000000E+00 -0.00000000000E+00 -0.12379444498E+04  0.12379444498E+04  0.00000000000E+00 0. -1.
         25    2    1    2    0    0 -0.24742409766E+03  0.89131836316E+02 -0.93771757592E+03  0.98189961933E+03  0.12509772936E+03 0.  0.
          5    1    3    3  502    0 -0.10753847982E+03  0.32867753640E+02 -0.20534245440E+03  0.23415338957E+03  0.41800000000E+01 0. -1.
         -5    1    3    3    0  502 -0.13988561784E+03  0.56264082676E+02 -0.73237512153E+03  0.74774622975E+03  0.41800000000E+01 0. -1.
        -11    1    1    2    0    0  0.14883230599E+03 -0.99082440803E+02 -0.13660004529E+03  0.22500657269E+03  0.00000000000E+00 0.  1.
         11    1    1    2    0    0  0.98591791676E+02  0.99506044870E+01 -0.72111390047E+02  0.12255369635E+03  0.00000000000E+00 0. -1.
</event>
<event>
 7    1  0.3265282E-009  0.9455665E+02  0.7561462E-02  0.1292178E+00
         -2   -1    0    0    0  501 -0.00000000000E+00  0.00000000000E+00  0.24239622086E+03  0.24239622086E+03  0.00000000000E+00 0.  1.
          2   -1    0    0  501    0  0.00000000000E+00 -0.00000000000E+00 -0.67878360209E+02  0.67878360209E+02  0.00000000000E+00 0. -1.
         25    2    1    2    0    0  0.30406052376E+02 -0.46682633348E+02  0.52323125172E+02  0.14657989865E+03  0.12507662044E+03 0.  0.
          5    1    3    3  502    0 -0.18225918462E+02  0.33914012701E+02 -0.15278824288E+00  0.38727769178E+02  0.41800000000E+01 0.  1.
         -5    1    3    3    0  502  0.48631970838E+02 -0.80596646049E+02  0.52475913415E+02  0.10785212947E+03  0.41800000000E+01 0.  1.
        -11    1    1    2    0    0 -0.14909636650E+02  0.29287799416E+02 -0.59937197198E+01  0.33406543308E+02  0.00000000000E+00 0. -1.
         11    1    1    2    0    0 -0.15496415727E+02  0.17394833932E+02  0.12818845520E+03  0.13028813912E+03  0.00000000000E+00 0.  1.
</event>
<event>
 7    1  0.3265282E-009  0.7371971E+02  0.7561462E-02  0.1347882E+00
         -2   -1    0    0    0  501 -0.00000000000E+00  0.00000000000E+00  0.59307618207E+02  0.59307618207E+02  0.00000000000E+00 0.  1.
          2   -1    0    0  501    0  0.00000000000E+00 -0.00000000000E+00 -0.45276214468E+03  0.45276214468E+03  0.00000000000E+00 0. -1.
         25    2    1    2    0    0  0.88929431886E+01  0.22540000000E+02 -0.39719799752E+03  0.41713472078E+03  0.12509192624E+03 0.  0.
          5    1    3    3  502    0  0.94804643357E+01  0.59275206142E+02 -0.93472193425E+02  0.11116632858E+03  0.41800000000E+01 0.  1.
         -5    1    3    3    0  502 -0.58752114712E+00 -0.36735206141E+02 -0.30372580409E+03  0.30596839220E+03  0.41800000000E+01 0.  1.
        -11    1    1    2    0    0 -0.71144933813E+01  0.12938498747E+02  0.40927747647E+02  0.43509783880E+02  0.00000000000E+00 0.  1.
         11    1    1    2    0    0 -0.17784498073E+01 -0.35478498747E+02 -0.37184276599E+02  0.51425258223E+02  0.00000000000E+00 0. -1.
</event>
<event>
 7    1  0.3265282E-009  0.1385878E+03  0.7561462E-02  0.1215242E+00
          1   -1    0    0  501    0  0.00000000000E+00  0.00000000000E+00  0.12264105573E+03  0.12264105573E+03  0.00000000000E+00 0. -1.
         -1   -1    0    0    0  501 -0.00000000000E+00 -0.00000000000E+00 -0.20724155574E+03  0.20724155574E+03  0.00000000000E+00 0.  1.
         25    2    1    2    0    0 -0.88863111314E+02  0.59624770704E+02 -0.82628690786E+02  0.18419235725E+03  0.12509019984E+03 0.  0.
          5    1    3    3  502    0 -0.91633607432E+02  0.92906618163E+02 -0.60377916116E+02  0.14384478741E+03  0.41800000000E+01 0.  1.
         -5    1    3    3    0  502  0.27704961180E+01 -0.33281847459E+02 -0.22250774670E+02  0.40347569846E+02  0.41800000000E+01 0.  1.
        -11    1    1    2    0    0  0.36634697985E+02 -0.46330509846E+02 -0.46983306734E+02  0.75472169379E+02  0.00000000000E+00 0.  1.
         11    1    1    2    0    0  0.52228413329E+02 -0.13294260858E+02  0.45011497505E+02  0.70218084838E+02  0.00000000000E+00 0. -1.
</event>
<event>
 7    1  0.3265282E-009  0.1137257E+03  0.7561462E-02  0.1253822E+00
          1   -1    0    0  501    0  0.00000000000E+00  0.00000000000E+00  0.43392306452E+03  0.43392306452E+03  0.00000000000E+00 0. -1.
         -1   -1    0    0    0  501 -0.00000000000E+00 -0.00000000000E+00 -0.39879128236E+02  0.39879128236E+02  0.00000000000E+00 0.  1.
         25    2    1    2    0    0  0.39564591507E+02 -0.50690027508E+02  0.21383025422E+03  0.25593566859E+03  0.12507938699E+03 0.  0.
          5    1    3    3  502    0  0.17115489581E+02 -0.72508091879E+02  0.51749783211E+02  0.90806804998E+02  0.41800000000E+01 0.  1.
         -5    1    3    3    0  502  0.22449101925E+02  0.21818064371E+02  0.16208047101E+03  0.16512886360E+03  0.41800000000E+01 0.  1.
        -11    1    1    2    0    0 -0.51703731821E+02 -0.15484049722E+02  0.65421273731E+02  0.84811406878E+02  0.00000000000E+00 0.  1.
         11    1    1    2    0    0  0.12139140314E+02  0.66174077230E+02  0.11479240833E+03  0.13305511728E+03  0.00000000000E+00 0. -1.
</event>
<event>
 6    1  0.3265282E-009  0.2636481E+03  0.7561462E-02  0.1104971E+00
          2   -1    0    0  501    0  0.00000000000E+00  0.00000000000E+00  0.11687470678E+03  0.11687470678E+03  0.00000000000E+00 0. -1.
         -2   -1    0    0    0  501 -0.00000000000E+00 -0.00000000000E+00 -0.64616097609E+03  0.64616097609E+03  0.00000000000E+00 0.  1.
          5    1    1    2  502    0  0.15290725476E+03  0.19464091308E+01 -0.16968770774E+03  0.22846401823E+03  0.41800000000E+01 0. -1.
         -5    1    1    2    0  502  0.70774204313E+02  0.93921828792E+02 -0.19230576313E+03  0.22545349155E+03  0.41800000000E+01 0. -1.
        -11    1    1    2    0    0 -0.68322742876E+02 -0.72354906133E+02 -0.89258968052E+02  0.13368018931E+03  0.00000000000E+00 0.  1.
         11    1    1    2    0    0 -0.15535871620E+03 -0.23513331789E+02 -0.78033830393E+02  0.17543798379E+03  0.00000000000E+00 0. -1.
</event>
<event>
 7    1  0.3265282E-009  0.9232296E+02  0.7561462E-02  0.1297322E+00
         -2   -1    0    0    0  501 -0.00000000000E+00  0.00000000000E+00  0.25635566181E+03  0.25635566181E+03  0.00000000000E+00 0.  1.
          2   -1    0    0  501    0  0.00000000000E+00 -0.00000000000E+00 -0.50154183131E+02  0.50154183131E+02  0.00000000000E+00 0. -1.
         25    2    1    2    0    0  0.25580914286E+02  0.43152818884E+01  0.14288881533E+03  0.19167200182E+03  0.12509171796E+03 0.  0.
          5    1    3    3  502    0  0.71952676657E+02  0.24544631496E+02  0.74721841877E+02  0.10667920447E+03  0.41800000000E+01 0.  1.
         -5    1    3    3    0  502 -0.46371762371E+02 -0.20229349607E+02  0.68166973451E+02  0.84992797344E+02  0.41800000000E+01 0.  1.
        -11    1    1    2    0    0 -0.24817822793E+02  0.20942577303E+02 -0.12598298303E+02  0.34831494260E+02  0.00000000000E+00 0. -1.
         11    1    1    2    0    0 -0.76309149293E+00 -0.25257859192E+02  0.75910961658E+02  0.80006348869E+02  0.00000000000E+00 0.  1.
</event>
<event>
 7    1  0.3265282E-009  0.1079585E+03  0.7561462E-02  0.1264398E+00
          1   -1    0    0  501    0  0.00000000000E+00  0.00000000000E+00  0.26940497365E+03  0.26940497365E+03  0.00000000000E+00 0. -1.
         -1   -1    0    0    0  501 -0.00000000000E+00 -0.00000000000E+00 -0.51985532677E+02  0.51985532677E+02  0.00000000000E+00 0.  1.
         25    2    1    2    0    0 -0.80949805384E+01  0.39380154874E+02  0.15489515294E+03  0.20311702656E+03  0.12509073813E+03 0.  0.
          5    1    3    3  502    0  0.26250591537E+02  0.72334756518E+02  0.62986207137E+02  0.99529619943E+02  0.41800000000E+01 0. -1.
         -5    1    3    3    0  502 -0.34345572076E+02 -0.32954601644E+02  0.91908945808E+02  0.10358740662E+03  0.41800000000E+01 0. -1.
        -11    1    1    2    0    0  0.26787755972E+02  0.16963795186E+02 -0.47587880906E+00  0.31710892100E+02  0.00000000000E+00 0.  1.
         11    1    1    2    0    0 -0.18692775434E+02 -0.56343950060E+02  0.63000166841E+02  0.86562587668E+02  0.00000000000E+00 0. -1.
</event>
<event>
 7    1  0.3265282E-009  0.9732407E+02  0.7561462E-02  0.1286026E+00
         -2   -1    0    0    0  501 -0.00000000000E+00  0.00000000000E+00  0.15200014899E+02  0.15200014899E+02  0.00000000000E+00 0.  1.
          2   -1    0    0  501    0  0.00000000000E+00 -0.00000000000E+00 -0.79218718179E+03  0.79218718179E+03  0.00000000000E+00 0. -1.
         25    2    1    2    0    0  0.14215808676E+02 -0.13829019810E+02 -0.46820547996E+03  0.48503432644E+03  0.12509434581E+03 0.  0.
          5    1    3    3  502    0  0.58446712674E+02  0.80045116978E+01 -0.12508418390E+03  0.13836045639E+03  0.41800000000E+01 0. -1.
         -5    1    3    3    0  502 -0.44230903998E+02 -0.21833531507E+02 -0.34312129606E+03  0.34667387005E+03  0.41800000000E+01 0. -1.
        -11    1    1    2    0    0 -0.16508129123E+02  0.48513244818E+02 -0.23852388694E+03  0.24396659175E+03  0.00000000000E+00 0. -1.
         11    1    1    2    0    0  0.22923204479E+01 -0.34684225008E+02 -0.70257799995E+02  0.78386278503E+02  0.00000000000E+00 0.  1.
</event>
<event>
 7    1  0.3265282E-009  0.9841230E+02  0.7561462E-02  0.1283671E+00
          2   -1    0    0  501    0  0.00000000000E+00  0.00000000000E+00  0.50032565418E+02  0.50032565418E+02  0.00000000000E+00 0. -1.
         -2   -1    0    0    0  501 -0.00000000000E+00 -0.00000000000E+00 -0.28310086718E+03  0.28310086718E+03  0.00000000000E+00 0.  1.
         25    2    1    2    0    0 -0.86813311894E+01  0.86629769894E+01 -0.66515793272E+02  0.14220492340E+03  0.12508987490E+03 0.  0.
          5    1    3    3  502    0 -0.63930548745E+02 -0.12579025357E+02 -0.44023367434E+02  0.78745642559E+02  0.41800000000E+01 0.  1.
         -5    1    3    3    0  502  0.55249217556E+02  0.21242002347E+02 -0.22492425838E+02  0.63459280837E+02  0.41800000000E+01 0.  1.
        -11    1    1    2    0    0  0.22234981823E+02  0.26451507028E+02 -0.14163310660E+03  0.14578756300E+03  0.00000000000E+00 0. -1.
         11    1    1    2    0    0 -0.13553650634E+02 -0.35114484017E+02 -0.24919401890E+02  0.45140946200E+02  0.00000000000E+00 0.  1.
</event>
<event>
 7    1  0.3265282E-009  0.1102886E+03  0.7561462E-02  0.1260036E+00
          2   -1    0    0  501    0  0.00000000000E+00  0.00000000000E+00  0.14823037729E+04  0.14823037729E+04  0.00000000000E+00 0. -1.
         -2   -1    0    0    0  501 -0.00000000000E+00 -0.00000000000E+00 -0.11906946124E+02  0.11906946124E+02  0.00000000000E+00 0.  1.
         25    2    1    2    0    0 -0.71345161141E+01  0.54125795475E+02  0.11276983690E+04  0.11359274022E+04  0.12508776369E+03 0.  0.
          5    1    3    3  502    0 -0.74759387105E+01  0.84864345869E+02  0.48232881171E+03  0.48981261913E+03  0.41800000000E+01 0.  1.
         -5    1    3    3    0  502  0.34142259645E+00 -0.30738550394E+02  0.64536955727E+03  0.64611478307E+03  0.41800000000E+01 0.  1.
        -11    1    1    2    0    0  0.15144943447E+02  0.22550789768E+02  0.10085924351E+03  0.10445331221E+03  0.00000000000E+00 0.  1.
         11    1    1    2    0    0 -0.80104273326E+01 -0.76676585243E+02  0.24183921430E+03  0.25383000462E+03  0.00000000000E+00 0. -1.
</event>
<event>
 7    1  0.3265282E-009  0.9253543E+02  0.7561462E-02  0.1296825E+00
         -1   -1    0    0    0  501 -0.00000000000E+00  0.00000000000E+00  0.41299026785E+02  0.41299026785E+02  0.00000000000E+00 0.  1.
          1   -1    0    0  501    0  0.00000000000E+00 -0.00000000000E+00 -0.33263975924E+03  0.33263975924E+03  0.00000000000E+00 0. -1.
         25    2    1    2    0    0  0.26095175702E+02 -0.31734769007E+02 -0.19692062796E+03  0.23688008183E+03  0.12508551351E+03 0.  0.
          5    1    3    3  502    0 -0.10958843275E+02  0.44787420961E+02 -0.62669181350E+02  0.77916031812E+02  0.41800000000E+01 0.  1.
         -5    1    3    3    0  502  0.37054018977E+02 -0.76522189968E+02 -0.13425144661E+03  0.15896405001E+03  0.41800000000E+01 0.  1.
        -11    1    1    2    0    0 -0.41019311850E+00  0.27635961859E+02 -0.10529851159E+03  0.10886547290E+03  0.00000000000E+00 0. -1.
         11    1    1    2    0    0 -0.25684982584E+02  0.40988071474E+01  0.10878407093E+02  0.28193231302E+02  0.00000000000E+00 0.  1.
</event>
<event>
 7    1  0.3265282E-009  0.1790325E+03  0.7561462E-02  0.1168743E+00
         -1   -1    0    0    0  501 -0.00000000000E+00  0.00000000000E+00  0.84614058762E+02  0.84614058762E+02  0.00000000000E+00 0.  1.
          1   -1    0    0  501    0  0.00000000000E+00 -0.00000000000E+00 -0.48097915993E+03  0.48097915993E+03  0.00000000000E+00 0. -1.
         25    2    1    2    0    0 -0.15394123299E+03  0.41262467113E+02 -0.29037657114E+03  0.35407108072E+03  0.12508909918E+03 0.  0.
          5    1    3    3  502    0 -0.12637869924E+03  0.80003997560E+02 -0.25090390136E+03  0.29213431049E+03  0.41800000000E+01 0. -1.
         -5    1    3    3    0  502 -0.27562533742E+02 -0.38741530447E+02 -0.39472669776E+02  0.61936770233E+02  0.41800000000E+01 0. -1.
        -11    1    1    2    0    0  0.92385430953E+02 -0.35146704150E+02 -0.11199048419E+03  0.14937277936E+03  0.00000000000E+00 0.  1.
         11    1    1    2    0    0  0.61555802034E+02 -0.61157629629E+01  0.60019541650E+01  0.62149358601E+02  0.00000000000E+00 0. -1.
</event>
<event>
 7    1  0.3265282E-009  0.1372395E+03  0.7561462E-02  0.1217092E+00
          4   -1    0    0  501    0  0.00000000000E+00  0.00000000000E+00  0.52294775969E+02  0.52294775969E+02  0.00000000000E+00 0. -1.
         -4   -1    0    0    0  501 -0.00000000000E+00 -0.00000000000E+00 -0.47119560361E+03  0.47119560361E+03  0.00000000000E+00 0.  1.
         25    2    1    2    0    0  0.11178823425E+03  0.10847978649E+01 -0.21143124722E+03  0.26990454676E+03  0.12508999145E+03 0.  0.
          5    1    3    3  502    0  0.24055408066E+01 -0.27425886938E+02  0.24496743572E+01  0.27954234123E+02  0.41800000000E+01 0. -1.
         -5    1    3    3    0  502  0.10938269344E+03  0.28510684803E+02 -0.21388092157E+03  0.24195031264E+03  0.41800000000E+01 0. -1.
        -11    1    1    2    0    0 -0.11958175444E+03 -0.11916073411E+02 -0.20801242649E+03  0.24023105207E+03  0.00000000000E+00 0.  1.
         11    1    1    2    0    0  0.77935201920E+01  0.10831275546E+02  0.54284607234E+00  0.13354780747E+02  0.00000000000E+00 0. -1.
</event>
<event>
 7    1  0.3265282E-009  0.9308132E+02  0.7561462E-02  0.1295557E+00
         -2   -1    0    0    0  501 -0.00000000000E+00  0.00000000000E+00  0.22073096275E+02  0.22073096275E+02  0.00000000000E+00 0.  1.
          2   -1    0    0  501    0  0.00000000000E+00 -0.00000000000E+00 -0.62940369874E+03  0.62940369874E+03  0.00000000000E+00 0. -1.
         25    2    1    2    0    0 -0.24385643554E+02  0.28514417374E+02 -0.39568850711E+03  0.41668112735E+03  0.12508411418E+03 0.  0.
          5    1    3    3  502    0 -0.44060861758E+02 -0.22186324019E+02 -0.65967452031E+02  0.82478904210E+02  0.41800000000E+01 0. -1.
         -5    1    3    3    0  502  0.19675218203E+02  0.50700741393E+02 -0.32972105508E+03  0.33420222314E+03  0.41800000000E+01 0. -1.
        -11    1    1    2    0    0 -0.14511049611E+02 -0.39176764181E+02 -0.37812886674E+02  0.56348946850E+02  0.00000000000E+00 0.  1.
         11    1    1    2    0    0  0.38896693165E+02  0.10662346808E+02 -0.17382920867E+03  0.17844672081E+03  0.00000000000E+00 0. -1.
</event>
<event>
 7    1  0.3265282E-009  0.8092843E+02  0.7561462E-02  0.1326437E+00
         -1   -1    0    0    0  501 -0.00000000000E+00  0.00000000000E+00  0.24714213105E+02  0.24714213105E+02  0.00000000000E+00 0.  1.
          1   -1    0    0  501    0  0.00000000000E+00 -0.00000000000E+00 -0.52438339045E+03  0.52438339045E+03  0.00000000000E+00 0. -1.
         25    2    1    2    0    0 -0.21881373144E+02  0.17039203983E+02 -0.35737285745E+03  0.37964649435E+03  0.12508785898E+03 0.  0.
          5    1    3    3  502    0 -0.21019374645E+02 -0.38317901740E+02 -0.28534823161E+03  0.28870601203E+03  0.41800000000E+01 0.  1.
         -5    1    3    3    0  502 -0.86199849978E+00  0.55357105722E+02 -0.72024625843E+02  0.90940482313E+02  0.41800000000E+01 0.  1.
        -11    1    1    2    0    0  0.40080721377E+02 -0.45039173586E+01 -0.19714586167E+02  0.44893367054E+02  0.00000000000E+00 0.  1.
         11    1    1    2    0    0 -0.18199348233E+02 -0.12535286624E+02 -0.12258173373E+03  0.12455774216E+03  0.00000000000E+00 0. -1.
</event>
<event>
 7    1  0.3265282E-009  0.1612337E+03  0.7561462E-02  0.1187311E+00
          3   -1    0    0  501    0  0.00000000000E+00  0.00000000000E+00  0.60150365236E+03  0.60150365236E+03  0.00000000000E+00 0. -1.
         -3   -1    0    0    0  501 -0.00000000000E+00 -0.00000000000E+00 -0.69348262774E+02  0.69348262774E+02  0.00000000000E+00 0.  1.
         25    2    1    2    0    0 -0.12681419282E+03  0.76954439864E+02  0.13285234340E+03  0.23517609233E+03  0.12511684115E+03 0.  0.
          5    1    3    3  502    0 -0.77028758585E+02  0.33692964518E+02 -0.28599080974E+01  0.84227649745E+02  0.41800000000E+01 0.  1.
         -5    1    3    3    0  502 -0.49785434236E+02  0.43261475347E+02  0.13571225150E+03  0.15094844258E+03  0.41800000000E+01 0.  1.
        -11    1    1    2    0    0  0.83965322039E+02 -0.94040424420E+02  0.31989934748E+03  0.34384497852E+03  0.00000000000E+00 0. -1.
         11    1    1    2    0    0  0.42848870783E+02  0.17085984556E+02  0.79403698694E+02  0.91830844284E+02  0.00000000000E+00 0.  1.
</event>
<event>
 7    1  0.3265282E-009  0.1095645E+03  0.7561462E-02  0.1261378E+00
          1   -1    0    0  501    0  0.00000000000E+00  0.00000000000E+00  0.31316994934E+02  0.31316994934E+02  0.00000000000E+00 0. -1.
         -1   -1    0    0    0  501 -0.00000000000E+00 -0.00000000000E+00 -0.65870707640E+03  0.65870707640E+03  0.00000000000E+00 0.  1.
         25    2    1    2    0    0 -0.22447247462E+01 -0.59826237864E+02 -0.51353305898E+03  0.53192844780E+03  0.12508978134E+03 0.  0.
          5    1    3    3  502    0 -0.50185485652E+02 -0.54323914265E+02 -0.17622712276E+03  0.19116260572E+03  0.41800000000E+01 0.  1.
         -5    1    3    3    0  502  0.47940760906E+02 -0.55023235991E+01 -0.33730593622E+03  0.34076584208E+03  0.41800000000E+01 0.  1.
        -11    1    1    2    0    0  0.10346248148E+02  0.76966695825E+02 -0.11537465461E+03  0.13907633890E+03  0.00000000000E+00 0.  1.
         11    1    1    2    0    0 -0.81015234015E+01 -0.17140457962E+02  0.15176321159E+01  0.19019284629E+02  0.00000000000E+00 0. -1.
</event>
<event>
 7    1  0.3265282E-009  0.1671780E+03  0.7561462E-02  0.1180823E+00
         -2   -1    0    0    0  501 -0.00000000000E+00  0.00000000000E+00  0.30227582730E+02  0.30227582730E+02  0.00000000000E+00 0.  1.
          2   -1    0    0  501    0  0.00000000000E+00 -0.00000000000E+00 -0.95175098496E+03  0.95175098496E+03  0.00000000000E+00 0. -1.
         25    2    1    2    0    0  0.33446629715E+02 -0.12942037282E+03 -0.50043696179E+03  0.53287458419E+03  0.12509939971E+03 0.  0.
          5    1    3    3  502    0 -0.32548938803E+01  0.24357758426E+02 -0.68232489645E+02  0.72643236250E+02  0.41800000000E+01 0. -1.
         -5    1    3    3    0  502  0.36701523596E+02 -0.15377813125E+03 -0.43220447214E+03  0.46023134794E+03  0.41800000000E+01 0. -1.
        -11    1    1    2    0    0 -0.55885744967E+02  0.92666693328E+02 -0.24510551996E+03  0.26793105169E+03  0.00000000000E+00 0.  1.
         11    1    1    2    0    0  0.22439115252E+02  0.36753679491E+02 -0.17598092048E+03  0.18117293181E+03  0.00000000000E+00 0. -1.
</event>
<event>
 7    1  0.3265282E-009  0.2117748E+03  0.7561462E-02  0.1140168E+00
          2   -1    0    0  501    0  0.00000000000E+00  0.00000000000E+00  0.13493085577E+04  0.13493085577E+04  0.00000000000E+00 0. -1.
         -2   -1    0    0    0  501 -0.00000000000E+00 -0.00000000000E+00 -0.45674154515E+02  0.45674154515E+02  0.00000000000E+00 0.  1.
         25    2    1    2    0    0 -0.25899655941E+02  0.20577461159E+03  0.90148216965E+03  0.93345187214E+03  0.12509321507E+03 0.  0.
          5    1    3    3  502    0 -0.17684327987E+02  0.43646527657E+02  0.47086810962E+03  0.47323567479E+03  0.41800000000E+01 0.  1.
         -5    1    3    3    0  502 -0.82153279549E+01  0.16212808394E+03  0.43061406002E+03  0.46021619735E+03  0.41800000000E+01 0.  1.
        -11    1    1    2    0    0  0.23636938716E+02 -0.30474219475E+02  0.14685136990E+03  0.15183118180E+03  0.00000000000E+00 0.  1.
         11    1    1    2    0    0  0.22627172255E+01 -0.17530039212E+03  0.25530086367E+03  0.30969965831E+03  0.00000000000E+00 0. -1.
</event>
<event>
 7    1  0.3265282E-009  0.9807337E+02  0.7561462E-02  0.1284400E+00
         -2   -1    0    0    0  501 -0.00000000000E+00  0.00000000000E+00  0.43153958975E+02  0.43153958975E+02  0.00000000000E+00 0.  1.
          2   -1    0    0  501    0  0.00000000000E+00 -0.00000000000E+00 -0.36819104467E+03  0.36819104467E+03  0.00000000000E+00 0. -1.
         25    2    1    2    0    0 -0.56024474242E+02  0.11575368428E+02 -0.23228972624E+03  0.26996499982E+03  0.12509937386E+03 0.  0.
          5    1    3    3  502    0 -0.13477689339E+02  0.46800675981E+02 -0.24039200385E+02  0.54472992733E+02  0.41800000000E+01 0.  1.
         -5    1    3    3    0  502 -0.42546784902E+02 -0.35225307553E+02 -0.20825052586E+03  0.21549200708E+03  0.41800000000E+01 0.  1.
        -11    1    1    2    0    0 -0.89926705281E+01  0.18245271764E+02 -0.58770008893E+02  0.62190610306E+02  0.00000000000E+00 0. -1.
         11    1    1    2    0    0  0.65017144770E+02 -0.29820640192E+02 -0.33977350564E+02  0.79189393525E+02  0.00000000000E+00 0.  1.
</event>
<event>
 7    1  0.3265282E-009  0.1232391E+03  0.7561462E-02  0.1237847E+00
          1   -1    0    0  501    0  0.00000000000E+00  0.00000000000E+00  0.19602200610E+03  0.19602200610E+03  0.00000000000E+00 0. -1.
         -1   -1    0    0    0  501 -0.00000000000E+00 -0.00000000000E+00 -0.87393138054E+02  0.87393138054E+02  0.00000000000E+00 0.  1.
         25    2    1    2    0    0 -0.18693876077E+02 -0.57888432265E+02  0.10431414979E+03  0.17386521946E+03  0.12508853304E+03 0.  0.
          5    1    3    3  502    0  0.40734151730E+02  0.14593076935E+02  0.46524167221E+02  0.63672596517E+02  0.41800000000E+01 0. -1.
         -5    1    3    3    0  502 -0.59428027807E+02 -0.72481509200E+02  0.57789982568E+02  0.11019262294E+03  0.41800000000E+01 0. -1.
        -11    1    1    2    0    0  0.48101094978E+02  0.63075412758E+02 -0.36446890202E+00  0.79324371225E+02  0.00000000000E+00 0. -1.
         11    1    1    2    0    0 -0.29407218901E+02 -0.51869804932E+01  0.46791871572E+01  0.30225553471E+02  0.00000000000E+00 0.  1.
</event>
<event>
 7    1  0.3265282E-009  0.1148049E+03  0.7561462E-02  0.1251922E+00
         -1   -1    0    0    0  501 -0.00000000000E+00  0.00000000000E+00  0.46010252323E+02  0.46010252323E+02  0.00000000000E+00 0.  1.
          1   -1    0    0  501    0  0.00000000000E+00 -0.00000000000E+00 -0.51013418850E+03  0.51013418850E+03  0.00000000000E+00 0. -1.
         25    2    1    2    0    0 -0.12093135012E+02 -0.77307495871E+02 -0.11745791005E+03  0.18858810416E+03  0.12508564892E+03 0.  0.
          5    1    3    3  502    0  0.54497874940E+02 -0.36901923093E+02 -0.74658308705E+02  0.99614786853E+02  0.41800000000E+01 0. -1.
         -5    1    3    3    0  502 -0.66591009952E+02 -0.40405572778E+02 -0.42799601342E+02  0.88973317309E+02  0.41800000000E+01 0. -1.
        -11    1    1    2    0    0  0.22330371655E+02  0.68845172685E+02 -0.34680181622E+03  0.35427362735E+03  0.00000000000E+00 0. -1.
         11    1    1    2    0    0 -0.10237236643E+02  0.84623231854E+01  0.13579008950E+00  0.13282709315E+02  0.00000000000E+00 0.  1.
</event>
<event>
 6    1  0.3265282E-009  0.1169345E+03  0.7561462E-02  0.1248242E+00
         -2   -1    0    0    0  501 -0.00000000000E+00  0.00000000000E+00  0.41638662088E+02  0.41638662088E+02  0.00000000000E+00 0. -1.
          2   -1    0    0  501    0  0.00000000000E+00 -0.00000000000E+00 -0.44382537103E+03  0.44382537103E+03  0.00000000000E+00 0.  1.
          5    1    1    2  502    0  0.15248978702E+02  0.66617947888E+02 -0.17368333979E+03  0.18669187785E+03  0.41800000000E+01 0.  1.
         -5    1    1    2    0  502  0.54951131105E+02 -0.47929259430E+02 -0.11716501673E+03  0.13806503636E+03  0.41800000000E+01 0.  1.
        -11    1    1    2    0    0 -0.30488989590E+02 -0.37576583441E+02 -0.88625871111E+01  0.49194751342E+02  0.00000000000E+00 0. -1.
         11    1    1    2    0    0 -0.39711120217E+02  0.18887894982E+02 -0.10247576531E+03  0.11151236757E+03  0.00000000000E+00 0.  1.
</event>
<event>
 7    1  0.3265282E-009  0.1563545E+03  0.7561462E-02  0.1192875E+00
         -3   -1    0    0    0  501 -0.00000000000E+00  0.00000000000E+00  0.13665695407E+03  0.13665695407E+03  0.00000000000E+00 0.  1.
          3   -1    0    0  501    0  0.00000000000E+00 -0.00000000000E+00 -0.19601116455E+03  0.19601116455E+03  0.00000000000E+00 0. -1.
         25    2    1    2    0    0 -0.67929057313E+02 -0.98045025712E+02 -0.53627085875E+02  0.18097233020E+03  0.12509171061E+03 0.  0.
          5    1    3    3  502    0 -0.84787453465E+02 -0.28576649844E+02  0.30904867112E+01  0.89624554055E+02  0.41800000000E+01 0. -1.
         -5    1    3    3    0  502  0.16858396153E+02 -0.69468375868E+02 -0.56717572586E+02  0.91347776145E+02  0.41800000000E+01 0. -1.
        -11    1    1    2    0    0  0.87748695687E+02  0.53490576292E+02 -0.58208001031E+01  0.10293180782E+03  0.00000000000E+00 0.  1.
         11    1    1    2    0    0 -0.19819638375E+02  0.44554449420E+02  0.93675496705E-01  0.48763980595E+02  0.00000000000E+00 0. -1.
</event>
<event>
 7    1  0.3265282E-009  0.1609049E+03  0.7561462E-02  0.1187679E+00
          1   -1    0    0  501    0  0.00000000000E+00  0.00000000000E+00  0.96979614905E+03  0.96979614905E+03  0.00000000000E+00 0. -1.
         -1   -1    0    0    0  501 -0.00000000000E+00 -0.00000000000E+00 -0.40230519445E+02  0.40230519445E+02  0.00000000000E+00 0.  1.
         25    2    1    2    0    0 -0.94816896212E+02 -0.11864242937E+03  0.64365648428E+03  0.67305846141E+03  0.12509097834E+03 0.  0.
          5    1    3    3  502    0 -0.72371353028E+02 -0.12543549516E+03  0.35504892838E+03  0.38346954264E+03  0.41800000000E+01 0. -1.
         -5    1    3    3    0  502 -0.22445543184E+02  0.67930657981E+01  0.28860755591E+03  0.28958891878E+03  0.41800000000E+01 0. -1.
        -11    1    1    2    0    0  0.20931717402E+02  0.14665117828E+02  0.18980662396E+01  0.25628209648E+02  0.00000000000E+00 0.  1.
         11    1    1    2    0    0  0.73885178810E+02  0.10397731154E+03  0.28401107908E+03  0.31133999743E+03  0.00000000000E+00 0. -1.
</event>
<event>
 7    1  0.3265282E-009  0.1155415E+03  0.7561462E-02  0.1250639E+00
         -1   -1    0    0    0  501 -0.00000000000E+00  0.00000000000E+00  0.15734829760E+02  0.15734829760E+02  0.00000000000E+00 0.  1.
          1   -1    0    0  501    0  0.00000000000E+00 -0.00000000000E+00 -0.11991988508E+04  0.11991988508E+04  0.00000000000E+00 0. -1.
         25    2    1    2    0    0  0.11538180593E+02  0.43354952262E+02 -0.97543433926E+03  0.98444594026E+03  0.12509547387E+03 0.  0.
          5    1    3    3  502    0  0.29330121333E+02  0.83380937364E+02 -0.68679723593E+03  0.69247422509E+03  0.41800000000E+01 0.  1.
         -5    1    3    3    0  502 -0.17791940740E+02 -0.40025985102E+02 -0.28863710333E+03  0.29197171517E+03  0.41800000000E+01 0.  1.
        -11    1    1    2    0    0 -0.38446024309E+02  0.92175353330E+01 -0.70829856324E+02  0.81116757145E+02  0.00000000000E+00 0.  1.
         11    1    1    2    0    0  0.26907843716E+02 -0.52572487595E+02 -0.13719982549E+03  0.14937098319E+03  0.00000000000E+00 0. -1.
</event>
<event>
 7    1  0.3265282E-009  0.1088350E+03  0.7561462E-02  0.1262743E+00
         -1   -1    0    0    0  501 -0.00000000000E+00  0.00000000000E+00  0.39889513368E+02  0.39889513368E+02  0.00000000000E+00 0.  1.
          1   -1    0    0  501    0  0.00000000000E+00 -0.00000000000E+00 -0.47747538792E+03  0.47747538792E+03  0.00000000000E+00 0. -1.
         25    2    1    2    0    0  0.49253736760E+02  0.56784485141E+02 -0.31368742608E+03  0.34597714859E+03  0.12509987102E+03 0.  0.
          5    1    3    3  502    0  0.15826463668E+02 -0.18114286659E+02 -0.22016183113E+03  0.22151141871E+03  0.41800000000E+01 0.  1.
         -5    1    3    3    0  502  0.33427273092E+02  0.74898771801E+02 -0.93525594953E+02  0.12446572988E+03  0.41800000000E+01 0.  1.
        -11    1    1    2    0    0 -0.13517162841E+02  0.21316274987E+02 -0.67507821560E+01  0.26127960699E+02  0.00000000000E+00 0.  1.
         11    1    1    2    0    0 -0.35736573918E+02 -0.78100760128E+02 -0.11714766632E+03  0.14525979200E+03  0.00000000000E+00 0. -1.
</event>
<event>
 6    1  0.3265282E-009  0.1724687E+03  0.7561462E-02  0.1175298E+00
          1   -1    0    0  501    0  0.00000000000E+00  0.00000000000E+00  0.14056103659E+04  0.14056103659E+04  0.00000000000E+00 0. -1.
         -1   -1    0    0    0  501 -0.00000000000E+00 -0.00000000000E+00 -0.37005095488E+02  0.37005095488E+02  0.00000000000E+00 0.  1.
          5    1    1    2  502    0 -0.10553380867E+03 -0.87998614046E+02  0.10509068585E+04  0.10598602920E+04  0.41800000000E+01 0.  1.
         -5    1    1    2    0  502 -0.16522522303E+02 -0.23380577861E+02  0.33945141442E+02  0.44602580551E+02  0.41800000000E+01 0.  1.
        -11    1    1    2    0    0  0.93541631706E+02  0.40125358216E+02  0.12032985062E+03  0.15760505761E+03  0.00000000000E+00 0.  1.
         11    1    1    2    0    0  0.28514699263E+02  0.71253833691E+02  0.16342341987E+03  0.18054753128E+03  0.00000000000E+00 0. -1.
</event>
<event>
 7    1  0.3265282E-009  0.2660907E+03  0.7561462E-02  0.1103538E+00
         -4   -1    0    0    0  501 -0.00000000000E+00  0.00000000000E+00  0.20486795571E+04  0.20486795571E+04  0.00000000000E+00 0.  1.
          4   -1    0    0  501    0  0.00000000000E+00 -0.00000000000E+00 -0.36598778389E+02  0.36598778389E+02  0.00000000000E+00 0. -1.
         25    2    1    2    0    0  0.24074288528E+03 -0.66179106229E+02  0.11215380593E+04  0.11557820778E+04  0.12509109478E+03 0.  0.
          5    1    3    3  502    0 -0.75055265151E+01 -0.16653132810E+02  0.17392014442E+03  0.17492669549E+03  0.41800000000E+01 0.  1.
         -5    1    3    3    0  502  0.24824841180E+03 -0.49525973419E+02  0.94761791485E+03  0.98085538228E+03  0.41800000000E+01 0.  1.
        -11    1    1    2    0    0 -0.15957899475E+03  0.68392614230E+01  0.44638736471E+03  0.47410326980E+03  0.00000000000E+00 0.  1.
         11    1    1    2    0    0 -0.81163890531E+02  0.59339844806E+02  0.44415535473E+03  0.45539298792E+03  0.00000000000E+00 0. -1.
</event>
<event>
 7    1  0.3265282E-009  0.1372454E+03  0.7561462E-02  0.1217084E+00
          3   -1    0    0  501    0  0.00000000000E+00  0.00000000000E+00  0.76850776490E+02  0.76850776490E+02  0.00000000000E+00 0. -1.
         -3   -1    0    0    0  501 -0.00000000000E+00 -0.00000000000E+00 -0.28869560722E+03  0.28869560722E+03  0.00000000000E+00 0.  1.
         25    2    1    2    0    0  0.65071819280E+02  0.83888586354E+02 -0.12880132370E+03  0.20859566374E+03  0.12510289108E+03 0.  0.
          5    1    3    3  502    0  0.95246026340E+02  0.76265058565E+02 -0.66976891451E+02  0.13925351371E+03  0.41800000000E+01 0. -1.
         -5    1    3    3    0  502 -0.30174207060E+02  0.76235277895E+01 -0.61824432250E+02  0.69342150030E+02  0.41800000000E+01 0. -1.
        -11    1    1    2    0    0 -0.72776411989E+02 -0.55330975706E+02 -0.88077066442E+02  0.12694681031E+03  0.00000000000E+00 0.  1.
         11    1    1    2    0    0  0.77045927090E+01 -0.28557610648E+02  0.50335594139E+01  0.30003909664E+02  0.00000000000E+00 0. -1.
</event>
<event>
 7    1  0.3265282E-009  0.9614012E+02  0.7561462E-02  0.1288629E+00
         -1   -1    0    0    0  501 -0.00000000000E+00  0.00000000000E+00  0.41598534940E+02  0.41598534940E+02  0.00000000000E+00 0.  1.
          1   -1    0    0  501    0  0.00000000000E+00 -0.00000000000E+00 -0.34768112094E+03  0.34768112094E+03  0.00000000000E+00 0. -1.
         25    2    1    2    0    0 -0.10046792601E+02  0.32891082169E+02 -0.23757654979E+03  0.27068736645E+03  0.12508505914E+03 0.  0.
          5    1    3    3  502    0  0.39609526754E+02  0.22194820768E+01 -0.19312877901E+03  0.19720557393E+03  0.41800000000E+01 0.  1.
         -5    1    3    3    0  502 -0.49656319356E+02  0.30671600092E+02 -0.44447770780E+02  0.73481792517E+02  0.41800000000E+01 0.  1.
        -11    1    1    2    0    0 -0.24597519625E+02 -0.49635223458E+02 -0.25802541563E+02  0.61110265345E+02  0.00000000000E+00 0.  1.
         11    1    1    2    0    0  0.34644312227E+02  0.16744141289E+02 -0.42703494647E+02  0.57482024079E+02  0.00000000000E+00 0. -1.
</event>
<event>
 7    1  0.3265282E-009  0.8974087E+02  0.7561462E-02  0.1303480E+00
         -2   -1    0    0    0  501 -0.00000000000E+00  0.00000000000E+00  0.14665237185E+04  0.14665237185E+04  0.00000000000E+00 0.  1.
          2   -1    0    0  501    0  0.00000000000E+00 -0.00000000000E+00 -0.19747691944E+02  0.19747691944E+02  0.00000000000E+00 0. -1.
         25    2    1    2    0    0  0.71516478754E+01 -0.29909226790E+02  0.13212167062E+04  0.13274813585E+04  0.12508982606E+03 0.  0.
          5    1    3    3  502    0 -0.50128275248E+02  0.18575606774E+02  0.53591590152E+03  0.53859188914E+03  0.41800000000E+01 0. -1.
         -5    1    3    3    0  502  0.57279923123E+02 -0.48484833564E+02  0.78530080467E+03  0.78888946937E+03  0.41800000000E+01 0. -1.
        -11    1    1    2    0    0  0.15355791322E+02  0.30514025871E+01 -0.10130998377E+02  0.18648016329E+02  0.00000000000E+00 0. -1.
         11    1    1    2    0    0 -0.22507439198E+02  0.26857824202E+02  0.13569031870E+03  0.14014203555E+03  0.00000000000E+00 0.  1.
</event>
<event>
 7    1  0.3265282E-009  0.9156003E+02  0.7561462E-02  0.1299117E+00
          2   -1    0    0  501    0  0.00000000000E+00  0.00000000000E+00  0.71321974279E+03  0.71321974279E+03  0.00000000000E+00 0. -1.
         -2   -1    0    0    0  501 -0.00000000000E+00 -0.00000000000E+00 -0.21270615031E+02  0.21270615031E+02  0.00000000000E+00 0.  1.
         25    2    1    2    0    0 -0.55586025345E+02 -0.97941277053E+01  0.34503737597E+03  0.37133174779E+03  0.12510293741E+03 0.  0.
          5    1    3    3  502    0 -0.10887105710E+02 -0.25897112912E+02  0.31205243809E+03  0.31334228257E+03  0.41800000000E+01 0.  1.
         -5    1    3    3    0  502 -0.44698919635E+02  0.16102985207E+02  0.32984937876E+02  0.57989465214E+02  0.41800000000E+01 0.  1.
        -11    1    1    2    0    0  0.26768757172E+02 -0.40800392359E+02  0.14300392172E+03  0.15110049637E+03  0.00000000000E+00 0. -1.
         11    1    1    2    0    0  0.28817268173E+02  0.50594520064E+02  0.20390783007E+03  0.21205811366E+03  0.00000000000E+00 0.  1.
</event>
<event>
 7    1  0.3265282E-009  0.1394963E+03  0.7561462E-02  0.1214008E+00
          4   -1    0    0  501    0  0.00000000000E+00  0.00000000000E+00  0.48668853109E+03  0.48668853109E+03  0.00000000000E+00 0. -1.
         -4   -1    0    0    0  501 -0.00000000000E+00 -0.00000000000E+00 -0.50573120341E+02  0.50573120341E+02  0.00000000000E+00 0.  1.
         25    2    1    2    0    0  0.29235828736E+01  0.91434266069E+02  0.34241115450E+03  0.37584875301E+03  0.12509242211E+03 0.  0.
          5    1    3    3  502    0 -0.21002581670E+02 -0.26617694369E+02  0.85459124258E+02  0.92034474026E+02  0.41800000000E+01 0.  1.
         -5    1    3    3    0  502  0.23926164544E+02  0.11805196044E+03  0.25695203024E+03  0.28381427899E+03  0.41800000000E+01 0.  1.
        -11    1    1    2    0    0  0.39506721703E+02 -0.29834158177E+02  0.64044753391E+02  0.80948060451E+02  0.00000000000E+00 0. -1.
         11    1    1    2    0    0 -0.42430304577E+02 -0.61600107892E+02  0.29659502858E+02  0.80464837964E+02  0.00000000000E+00 0.  1.
</event>
<event>
 7    1  0.3265282E-009  0.7203059E+02  0.7561462E-02  0.1353321E+00
          1   -1    0    0  501    0  0.00000000000E+00  0.00000000000E+00  0.24607010998E+03  0.24607010998E+03  0.00000000000E+00 0. -1.
         -1   -1    0    0    0  501 -0.00000000000E+00 -0.00000000000E+00 -0.47794179612E+02  0.47794179612E+02  0.00000000000E+00 0.  1.
         25    2    1    2    0    0 -0.62207127557E+01  0.74714231087E+01  0.11923423223E+03  0.17308517898E+03  0.12508859906E+03 0.  0.
          5    1    3    3  502    0  0.39817391582E+02  0.18183859196E+02 -0.83406749065E+00  0.43980057710E+02  0.41800000000E+01 0.  1.
         -5    1    3    3    0  502 -0.46038104338E+02 -0.10712436087E+02  0.12006829973E+03  0.12910512127E+03  0.41800000000E+01 0.  1.
        -11    1    1    2    0    0 -0.22890229325E+02 -0.16528697810E+01 -0.11374570302E+02  0.25613969365E+02  0.00000000000E+00 0.  1.
         11    1    1    2    0    0  0.29110942080E+02 -0.58185533277E+01  0.90416268439E+02  0.95165141255E+02  0.00000000000E+00 0. -1.
</event>
<event>
 7    1  0.3265282E-009  0.7491243E+02  0.7561462E-02  0.1344142E+00
          3   -1    0    0  501    0  0.00000000000E+00  0.00000000000E+00  0.46758651901E+03  0.46758651901E+03  0.00000000000E+00 0. -1.
         -3   -1    0    0    0  501 -0.00000000000E+00 -0.00000000000E+00 -0.28783117282E+02  0.28783117282E+02  0.00000000000E+00 0.  1.
         25    2    1    2    0    0 -0.13089623461E+02  0.33430250782E+02  0.29062102647E+03  0.31843139770E+03  0.12509617943E+03 0.  0.
          5    1    3    3  502    0  0.15563904965E+02  0.87457334408E+01 -0.60670304996E+01  0.19313317950E+02  0.41800000000E+01 0.  1.
         -5    1    3    3    0  502 -0.28653528425E+02  0.24684517341E+02  0.29668805697E+03  0.29911807975E+03  0.41800000000E+01 0.  1.
        -11    1    1    2    0    0  0.44138814600E+01 -0.62728283253E+02  0.12376856120E+03  0.13882714652E+03  0.00000000000E+00 0. -1.
         11    1    1    2    0    0  0.86757420007E+01  0.29298032471E+02  0.24413814059E+02  0.39111092069E+02  0.00000000000E+00 0.  1.
</event>
<event>
 7    1  0.3296718E-009  0.1292573E+03  0.7561462E-02  0.1228562E+00
          1   -1    0    0  501    0  0.00000000000E+00  0.00000000000E+00  0.17271251885E+03  0.17271251885E+03  0.00000000000E+00 0. -1.
         -1   -1    0    0    0  501 -0.00000000000E+00 -0.00000000000E+00 -0.10044883160E+03  0.10044883160E+03  0.00000000000E+00 0.  1.
         25    2    1    2    0    0 -0.66527551936E+02  0.24533560515E+02  0.63320968428E+02  0.15711128495E+03  0.12508637039E+03 0.  0.
          5    1    3    3  502    0 -0.20227016009E+02 -0.50960666608E+02  0.27608069277E+02  0.61528851826E+02  0.41800000000E+01 0.  1.
         -5    1    3    3    0  502 -0.46300535926E+02  0.75494227122E+02  0.35712899150E+02  0.95582433122E+02  0.41800000000E+01 0.  1.
        -11    1    1    2    0    0 -0.89543420797E+01 -0.37259350996E+02  0.95828754662E+01  0.39500265580E+02  0.00000000000E+00 0.  1.
         11    1    1    2    0    0  0.75481894015E+02  0.12725790481E+02 -0.64015664693E+00  0.76549799922E+02  0.00000000000E+00 0. -1.
</event>
<event>
 7    1  0.3265282E-009  0.1160492E+03  0.7561462E-02  0.1249761E+00
          2   -1    0    0  501    0  0.00000000000E+00  0.00000000000E+00  0.21884289981E+03  0.21884289981E+03  0.00000000000E+00 0.  1.
         -2   -1    0    0    0  501 -0.00000000000E+00 -0.00000000000E+00 -0.10566966579E+03  0.10566966579E+03  0.00000000000E+00 0. -1.
         25    2    1    2    0    0 -0.19376637669E+02  0.80700329089E+02 -0.10622724050E+02  0.15048976852E+03  0.12508529475E+03 0.  0.
          5    1    3    3  502    0 -0.45661875618E+02  0.62848995226E+02 -0.55341389825E+02  0.95473268058E+02  0.41800000000E+01 0.  1.
         -5    1    3    3    0  502  0.26285237949E+02  0.17851333863E+02  0.44718665775E+02  0.55016500465E+02  0.41800000000E+01 0.  1.
        -11    1    1    2    0    0  0.35582704250E+02  0.41909750658E+01  0.33995028668E+02  0.49389827777E+02  0.00000000000E+00 0.  1.
         11    1    1    2    0    0 -0.16206066581E+02 -0.84891304154E+02  0.89800929402E+02  0.12463296930E+03  0.00000000000E+00 0. -1.
</event>
<event>
 7    1  0.3265282E-009  0.1014612E+03  0.7561462E-02  0.1277253E+00
          1   -1    0    0  501    0  0.00000000000E+00  0.00000000000E+00  0.10760086169E+03  0.10760086169E+03  0.00000000000E+00 0. -1.
         -1   -1    0    0    0  501 -0.00000000000E+00 -0.00000000000E+00 -0.13155415953E+03  0.13155415953E+03  0.00000000000E+00 0.  1.
         25    2    1    2    0    0 -0.20559951689E+02 -0.36162090883E+02 -0.28948209737E+01  0.13185646157E+03  0.12508932024E+03 0.  0.
          5    1    3    3  502    0  0.21276369334E+02 -0.51227577122E+02 -0.44178668604E+02  0.71036439307E+02  0.41800000000E+01 0.  1.
         -5    1    3    3    0  502 -0.41836321023E+02  0.15065486239E+02  0.41283847630E+02  0.60820022258E+02  0.41800000000E+01 0.  1.
        -11    1    1    2    0    0  0.56227612938E+02  0.71991559470E+01  0.16675508446E+00  0.56686860120E+02  0.00000000000E+00 0.  1.
         11    1    1    2    0    0 -0.35667661249E+02  0.28962934936E+02 -0.21225231952E+02  0.50611699542E+02  0.00000000000E+00 0. -1.
</event>
<event>
 7    1  0.3265282E-009  0.1085370E+03  0.7561462E-02  0.1263303E+00
         -2   -1    0    0    0  501 -0.00000000000E+00  0.00000000000E+00  0.23451701587E+02  0.23451701587E+02  0.00000000000E+00 0.  1.
          2   -1    0    0  501    0  0.00000000000E+00 -0.00000000000E+00 -0.75582552384E+03  0.75582552384E+03  0.00000000000E+00 0. -1.
         25    2    1    2    0    0  0.62716158939E+02  0.15653882830E+02 -0.52785174804E+03  0.54630961294E+03  0.12509342367E+03 0.  0.
          5    1    3    3  502    0  0.55801437142E+00 -0.29152790369E+02 -0.36604362660E+03  0.36722691287E+03  0.41800000000E+01 0.  1.
         -5    1    3    3    0  502  0.62158144568E+02  0.44806673199E+02 -0.16180812144E+03  0.17908270007E+03  0.41800000000E+01 0.  1.
        -11    1    1    2    0    0  0.96538642436E+01  0.25751812099E+02 -0.62431929504E+02  0.68220955306E+02  0.00000000000E+00 0.  1.
         11    1    1    2    0    0 -0.72370023183E+02 -0.41405694930E+02 -0.14209014471E+03  0.16474665718E+03  0.00000000000E+00 0. -1.
</event>
<event>
 7    1  0.3265282E-009  0.1178191E+03  0.7561462E-02  0.1246739E+00
          1   -1    0    0  501    0  0.00000000000E+00  0.00000000000E+00  0.54167059889E+02  0.54167059889E+02  0.00000000000E+00 0. -1.
         -1   -1    0    0    0  501 -0.00000000000E+00 -0.00000000000E+00 -0.30194261247E+03  0.30194261247E+03  0.00000000000E+00 0.  1.
         25    2    1    2    0    0  0.46326768623E+02 -0.19279784690E+02 -0.18732706351E+03  0.23076562656E+03  0.12507384254E+03 0.  0.
          5    1    3    3  502    0  0.13755865446E+02 -0.71348629119E+02 -0.11053647762E+03  0.13234665087E+03  0.41800000000E+01 0.  1.
         -5    1    3    3    0  502  0.32570903178E+02  0.52068844429E+02 -0.76790585889E+02  0.98418975687E+02  0.41800000000E+01 0.  1.
        -11    1    1    2    0    0 -0.55283181991E+02 -0.21670147622E+02 -0.58539209125E+02  0.83382639164E+02  0.00000000000E+00 0.  1.
         11    1    1    2    0    0  0.89564133680E+01  0.40949932313E+02 -0.19092799415E+01  0.41961406634E+02  0.00000000000E+00 0. -1.
</event>
<event>
 7    1  0.3265282E-009  0.1439252E+03  0.7561462E-02  0.1208143E+00
         -1   -1    0    0    0  501 -0.00000000000E+00  0.00000000000E+00  0.20316114151E+03  0.20316114151E+03  0.00000000000E+00 0.  1.
          1   -1    0    0  501    0  0.00000000000E+00 -0.00000000000E+00 -0.13479167159E+03  0.13479167159E+03  0.00000000000E+00 0. -1.
         25    2    1    2    0    0 -0.17033042529E+02 -0.99704718506E+02  0.11295171689E+03  0.19656470262E+03  0.12509371103E+03 0.  0.
          5    1    3    3  502    0  0.67288890792E+01  0.27389551696E+02  0.36436761474E+02  0.46266353617E+02  0.41800000000E+01 0. -1.
         -5    1    3    3    0  502 -0.23761931608E+02 -0.12709427020E+03  0.76514955411E+02  0.15029834900E+03  0.41800000000E+01 0. -1.
        -11    1    1    2    0    0  0.43462029630E+02  0.23696565915E+02 -0.22936153352E+00  0.49502806611E+02  0.00000000000E+00 0.  1.
         11    1    1    2    0    0 -0.26428987101E+02  0.76008152591E+02 -0.44352885432E+02  0.91885303861E+02  0.00000000000E+00 0. -1.
</event>
<event>
 7    1  0.3268003E-009  0.1788628E+03  0.7561462E-02  0.1168908E+00
          2   -1    0    0  501    0  0.00000000000E+00  0.00000000000E+00  0.12771788919E+04  0.12771788919E+04  0.00000000000E+00 0. -1.
         -2   -1    0    0    0  501 -0.00000000000E+00 -0.00000000000E+00 -0.29830394955E+02  0.29830394955E+02  0.00000000000E+00 0.  1.
         25    2    1    2    0    0 -0.10094039469E+03 -0.12605085460E+03  0.67423769961E+03  0.70450119777E+03  0.12509069053E+03 0.  0.
          5    1    3    3  502    0  0.17449549584E+02 -0.55219686088E+02  0.11961634858E+03  0.13296331735E+03  0.41800000000E+01 0.  1.
         -5    1    3    3    0  502 -0.11838994428E+03 -0.70831168510E+02  0.55462135103E+03  0.57153788042E+03  0.41800000000E+01 0.  1.
        -11    1    1    2    0    0  0.42895898041E+02  0.48054125907E+02  0.38905511819E+03  0.39435154630E+03  0.00000000000E+00 0. -1.
         11    1    1    2    0    0  0.58044496651E+02  0.77996728691E+02  0.18405567917E+03  0.20815654281E+03  0.00000000000E+00 0.  1.
</event>
<event>
 7    1  0.3265282E-009  0.1597627E+03  0.7561462E-02  0.1188965E+00
         -1   -1    0    0    0  501 -0.00000000000E+00  0.00000000000E+00  0.45319672979E+02  0.45319672979E+02  0.00000000000E+00 0.  1.
          1   -1    0    0  501    0  0.00000000000E+00 -0.00000000000E+00 -0.62466991992E+03  0.62466991992E+03  0.00000000000E+00 0. -1.
         25    2    1    2    0    0  0.51005581674E+02 -0.11827241086E+03 -0.31621396641E+03  0.36363310427E+03  0.12509128442E+03 0.  0.
          5    1    3    3  502    0  0.42235249425E+02  0.15464709333E+02 -0.70991198047E+02  0.84143901317E+02  0.41800000000E+01 0. -1.
         -5    1    3    3    0  502  0.87703322499E+01 -0.13373712020E+03 -0.24522276836E+03  0.27948920296E+03  0.41800000000E+01 0. -1.
        -11    1    1    2    0    0 -0.38009480493E+02  0.23677574418E+02 -0.15849101525E+03  0.16469593210E+03  0.00000000000E+00 0. -1.
         11    1    1    2    0    0 -0.12996101182E+02  0.94594836444E+02 -0.10464526529E+03  0.14166055653E+03  0.00000000000E+00 0.  1.
</event>
<event>
 7    1  0.3265282E-009  0.9024768E+02  0.7561462E-02  0.1302253E+00
          1   -1    0    0  501    0  0.00000000000E+00  0.00000000000E+00  0.29419578576E+03  0.29419578576E+03  0.00000000000E+00 0. -1.
         -1   -1    0    0    0  501 -0.00000000000E+00 -0.00000000000E+00 -0.46658476316E+02  0.46658476316E+02  0.00000000000E+00 0.  1.
         25    2    1    2    0    0 -0.27325451622E+02  0.12377560682E+02  0.18749185203E+03  0.22737501099E+03  0.12508523786E+03 0.  0.
          5    1    3    3  502    0  0.22851241681E+02 -0.34973617270E+02  0.20663033645E+02  0.46794941080E+02  0.41800000000E+01 0.  1.
         -5    1    3    3    0  502 -0.50176693303E+02  0.47351177951E+02  0.16682881839E+03  0.18058006991E+03  0.41800000000E+01 0.  1.
        -11    1    1    2    0    0  0.13200327048E+02 -0.37948402329E+02 -0.65956198425E+01  0.40716484065E+02  0.00000000000E+00 0.  1.
         11    1    1    2    0    0  0.14125124573E+02  0.25570841648E+02  0.66641077252E+02  0.72762767017E+02  0.00000000000E+00 0. -1.
</event>
<event>
 7    1  0.3265282E-009  0.1455474E+03  0.7561462E-02  0.1206054E+00
         -2   -1    0    0    0  501 -0.00000000000E+00  0.00000000000E+00  0.16251875394E+02  0.16251875394E+02  0.00000000000E+00 0.  1.
          2   -1    0    0  501    0  0.00000000000E+00 -0.00000000000E+00 -0.17335762212E+04  0.17335762212E+04  0.00000000000E+00 0. -1.
         25    2    1    2    0    0 -0.10262555848E+03  0.23910679111E+02 -0.12897635124E+04  0.13000930799E+04  0.12509345587E+03 0.  0.
          5    1    3    3  502    0 -0.13093427333E+03  0.18356016156E+02 -0.96504483522E+03  0.97406864935E+03  0.41800000000E+01 0.  1.
         -5    1    3    3    0  502  0.28308714852E+02  0.55546629553E+01 -0.32471867716E+03  0.32602443055E+03  0.41800000000E+01 0.  1.
        -11    1    1    2    0    0  0.67397833345E+02 -0.51579251394E+02 -0.19153244360E+03  0.20949358956E+03  0.00000000000E+00 0.  1.
         11    1    1    2    0    0  0.35227725137E+02  0.27668572283E+02 -0.23602838983E+03  0.24024142714E+03  0.00000000000E+00 0. -1.
</event>
<event>
 7    1  0.3265282E-009  0.7783057E+02  0.7561462E-02  0.1335323E+00
          3   -1    0    0  501    0  0.00000000000E+00  0.00000000000E+00  0.34145196188E+03  0.34145196188E+03  0.00000000000E+00 0. -1.
         -3   -1    0    0    0  501 -0.00000000000E+00 -0.00000000000E+00 -0.38208892297E+02  0.38208892297E+02  0.00000000000E+00 0.  1.
         25    2    1    2    0    0  0.68469618884E+01 -0.27028792736E+02  0.13208817421E+03  0.18404320791E+03  0.12508868889E+03 0.  0.
          5    1    3    3  502    0  0.12474834420E+02  0.26506837923E+02 -0.10637559756E+02  0.31446208484E+02  0.41800000000E+01 0. -1.
         -5    1    3    3    0  502 -0.56278725317E+01 -0.53535630658E+02  0.14272573396E+03  0.15259699943E+03  0.41800000000E+01 0. -1.
        -11    1    1    2    0    0 -0.13006252623E+02  0.48253590024E+02  0.44088370337E+02  0.66643498981E+02  0.00000000000E+00 0.  1.
         11    1    1    2    0    0  0.61592907343E+01 -0.21224797288E+02  0.12706652504E+03  0.12897414729E+03  0.00000000000E+00 0. -1.
</event>
<event>
 7    1  0.3265282E-009  0.1044902E+03  0.7561462E-02  0.1271127E+00
          3   -1    0    0  501    0  0.00000000000E+00  0.00000000000E+00  0.56737655005E+02  0.56737655005E+02  0.00000000000E+00 0. -1.
         -3   -1    0    0    0  501 -0.00000000000E+00 -0.00000000000E+00 -0.36376191303E+03  0.36376191303E+03  0.00000000000E+00 0.  1.
         25    2    1    2    0    0 -0.85375594766E+02 -0.37638276524E+02 -0.18774520216E+03  0.24411520633E+03  0.12505335256E+03 0.  0.
          5    1    3    3  502    0 -0.26399036375E+02 -0.28942048164E+02 -0.17951919990E+03  0.18379109556E+03  0.41800000000E+01 0.  1.
         -5    1    3    3    0  502 -0.58976558392E+02 -0.86962283601E+01 -0.82260022614E+01  0.60324110774E+02  0.41800000000E+01 0.  1.
        -11    1    1    2    0    0  0.61993591450E+02 -0.39437558364E+01 -0.18387954492E+02  0.64783296160E+02  0.00000000000E+00 0.  1.
         11    1    1    2    0    0  0.23382003316E+02  0.41582032361E+02 -0.10089110137E+03  0.11160106554E+03  0.00000000000E+00 0. -1.
</event>
<event>
 7    1  0.3265282E-009  0.2519758E+03  0.7561462E-02  0.1112062E+00
          1   -1    0    0  501    0  0.00000000000E+00  0.00000000000E+00  0.18576649815E+03  0.18576649815E+03  0.00000000000E+00 0. -1.
         -1   -1    0    0    0  501 -0.00000000000E+00 -0.00000000000E+00 -0.36140752195E+03  0.36140752195E+03  0.00000000000E+00 0.  1.
         25    2    1    2    0    0 -0.10743121475E+03 -0.20888501210E+03 -0.84878749320E+02  0.27932990553E+03  0.12508549018E+03 0.  0.
          5    1    3    3  502    0 -0.40329460915E+02 -0.94901072727E+01 -0.51573672634E+02  0.66286074425E+02  0.41800000000E+01 0. -1.
         -5    1    3    3    0  502 -0.67101753836E+02 -0.19939490482E+03 -0.33305076686E+02  0.21304383110E+03  0.41800000000E+01 0. -1.
        -11    1    1    2    0    0 -0.73061781262E+00  0.94343275223E+02 -0.37861452633E+02  0.10165961331E+03  0.00000000000E+00 0. -1.
         11    1    1    2    0    0  0.10816183256E+03  0.11454173687E+03 -0.52900821849E+02  0.16618450127E+03  0.00000000000E+00 0.  1.
</event>
<event>
 7    1  0.3265282E-009  0.1276414E+03  0.7561462E-02  0.1230998E+00
          2   -1    0    0  501    0  0.00000000000E+00  0.00000000000E+00  0.21494463670E+03  0.21494463670E+03  0.00000000000E+00 0.  1.
         -2   -1    0    0    0  501 -0.00000000000E+00 -0.00000000000E+00 -0.85236712451E+02  0.85236712451E+02  0.00000000000E+00 0. -1.
         25    2    1    2    0    0 -0.55783651191E+02  0.58734895391E+02  0.96726380338E+02  0.17766605651E+03  0.12509049247E+03 0.  0.
          5    1    3    3  502    0 -0.84478648188E+02  0.75280715680E+02  0.87291226223E+02  0.14297223062E+03  0.41800000000E+01 0.  1.
         -5    1    3    3    0  502  0.28694996997E+02 -0.16545820288E+02  0.94351541154E+01  0.34693825890E+02  0.41800000000E+01 0.  1.
        -11    1    1    2    0    0  0.43117282159E+02  0.52528690053E+01 -0.97741633155E+01  0.44522207066E+02  0.00000000000E+00 0. -1.
         11    1    1    2    0    0  0.12666369032E+02 -0.63987764396E+02  0.42755707224E+02  0.77993085573E+02  0.00000000000E+00 0.  1.
</event>
<event>
 7    1  0.3265282E-009  0.1562036E+03  0.7561462E-02  0.1193051E+00
          1   -1    0    0  501    0  0.00000000000E+00  0.00000000000E+00  0.24577442547E+02  0.24577442547E+02  0.00000000000E+00 0. -1.
         -1   -1    0    0    0  501 -0.00000000000E+00 -0.00000000000E+00 -0.10327776713E+04  0.10327776713E+04  0.00000000000E+00 0.  1.
         25    2    1    2    0    0 -0.10719591385E+03 -0.64746338547E+02 -0.48915066666E+03  0.52019324297E+03  0.12509829349E+03 0.  0.
          5    1    3    3  502    0 -0.91428823958E+02  0.15038900182E+02 -0.30613334275E+03  0.31987574824E+03  0.41800000000E+01 0. -1.
         -5    1    3    3    0  502 -0.15767089894E+02 -0.79785238729E+02 -0.18301732390E+03  0.20031749472E+03  0.41800000000E+01 0. -1.
        -11    1    1    2    0    0  0.25413961058E+02 -0.10110590089E+02 -0.95076529849E+02  0.98932502125E+02  0.00000000000E+00 0. -1.
         11    1    1    2    0    0  0.81781952794E+02  0.74856928636E+02 -0.42397303223E+03  0.43822936874E+03  0.00000000000E+00 0.  1.
</event>
<event>
 7    1  0.3265282E-009  0.1511838E+03  0.7561462E-02  0.1199026E+00
          3   -1    0    0  501    0  0.00000000000E+00  0.00000000000E+00  0.12496104063E+04  0.12496104063E+04  0.00000000000E+00 0. -1.
         -3   -1    0    0    0  501 -0.00000000000E+00 -0.00000000000E+00 -0.19858504872E+02  0.19858504872E+02  0.00000000000E+00 0.  1.
         25    2    1    2    0    0  0.11308488209E+03  0.18750294587E+02  0.68587650209E+03  0.70655100045E+03  0.12509187031E+03 0.  0.
          5    1    3    3  502    0 -0.26669623112E+01 -0.39307440353E+02  0.18434812176E+03  0.18855739166E+03  0.41800000000E+01 0.  1.
         -5    1    3    3    0  502  0.11575184440E+03  0.58057734940E+02  0.50152838033E+03  0.51799360879E+03  0.41800000000E+01 0.  1.
        -11    1    1    2    0    0 -0.53809580947E+02  0.25176198135E+02  0.13578690075E+03  0.14821401543E+03  0.00000000000E+00 0.  1.
         11    1    1    2    0    0 -0.59275301146E+02 -0.43926492721E+02  0.40808849858E+03  0.41470389528E+03  0.00000000000E+00 0. -1.
</event>
<event>
 7    1  0.3265282E-009  0.9754969E+02  0.7561462E-02  0.1285535E+00
         -2   -1    0    0    0  501 -0.00000000000E+00  0.00000000000E+00  0.98188125132E+02  0.98188125132E+02  0.00000000000E+00 0.  1.
          2   -1    0    0  501    0  0.00000000000E+00 -0.00000000000E+00 -0.12774353811E+03  0.12774353811E+03  0.00000000000E+00 0. -1.
         25    2    1    2    0    0  0.12856652583E+02  0.49128037850E+01 -0.42443662971E+02  0.13280675805E+03  0.12508693497E+03 0.  0.
          5    1    3    3  502    0  0.21229209203E+02 -0.55789524998E+02 -0.32068691934E+01  0.59924175696E+02  0.41800000000E+01 0. -1.
         -5    1    3    3    0  502 -0.83725566191E+01  0.60702328783E+02 -0.39236793778E+02  0.72882582349E+02  0.41800000000E+01 0. -1.
        -11    1    1    2    0    0  0.21370762673E+02 -0.25987740193E+02  0.33905269918E+02  0.47766509876E+02  0.00000000000E+00 0.  1.
         11    1    1    2    0    0 -0.34227415256E+02  0.21074936408E+02 -0.21017019928E+02  0.45358395324E+02  0.00000000000E+00 0. -1.
</event>
<event>
 7    1  0.3265282E-009  0.1230525E+03  0.7561462E-02  0.1238145E+00
          1   -1    0    0  501    0  0.00000000000E+00  0.00000000000E+00  0.66583603025E+03  0.66583603025E+03  0.00000000000E+00 0. -1.
         -1   -1    0    0    0  501 -0.00000000000E+00 -0.00000000000E+00 -0.23512126416E+02  0.23512126416E+02  0.00000000000E+00 0.  1.
         25    2    1    2    0    0  0.57848056458E+02  0.68647432207E+01  0.32123521699E+03  0.34962168895E+03  0.12509891453E+03 0.  0.
          5    1    3    3  502    0 -0.33583264822E+02  0.27108451010E+02  0.12089433648E+03  0.12843526301E+03  0.41800000000E+01 0. -1.
         -5    1    3    3    0  502  0.91431321280E+02 -0.20243707790E+02  0.20034088051E+03  0.22118642594E+03  0.41800000000E+01 0. -1.
        -11    1    1    2    0    0 -0.20327782305E+02  0.42434416982E+02  0.17096964164E+03  0.17732601851E+03  0.00000000000E+00 0. -1.
         11    1    1    2    0    0 -0.37520274153E+02 -0.49299160202E+02  0.15011904521E+03  0.16240044921E+03  0.00000000000E+00 0.  1.
</event>
<event>
 7    1  0.3265282E-009  0.8433541E+02  0.7561462E-02  0.1317180E+00
         -2   -1    0    0    0  501 -0.00000000000E+00  0.00000000000E+00  0.22889183099E+02  0.22889183099E+02  0.00000000000E+00 0.  1.
          2   -1    0    0  501    0  0.00000000000E+00 -0.00000000000E+00 -0.54170208475E+03  0.54170208475E+03  0.00000000000E+00 0. -1.
         25    2    1    2    0    0 -0.45576322986E+01 -0.21533121291E+02 -0.24351510992E+03  0.27463595376E+03  0.12506338797E+03 0.  0.
          5    1    3    3  502    0  0.17282528750E+02 -0.43214569767E+02 -0.23253598722E+02  0.52195661637E+02  0.41800000000E+01 0. -1.
         -5    1    3    3    0  502 -0.21840161049E+02  0.21681448476E+02 -0.22026151120E+03  0.22244029212E+03  0.41800000000E+01 0. -1.
        -11    1    1    2    0    0  0.38175131283E+02 -0.15199924385E+02 -0.13248258847E+03  0.13870837970E+03  0.00000000000E+00 0.  1.
         11    1    1    2    0    0 -0.33617498985E+02  0.36733045676E+02 -0.14281520326E+03  0.15124693440E+03  0.00000000000E+00 0. -1.
</event>
<event>
 7    1  0.3265282E-009  0.1066371E+03  0.7561462E-02  0.1266927E+00
         -2   -1    0    0    0  501 -0.00000000000E+00  0.00000000000E+00  0.59225435202E+02  0.59225435202E+02  0.00000000000E+00 0.  1.
          2   -1    0    0  501    0  0.00000000000E+00 -0.00000000000E+00 -0.25776373461E+03  0.25776373461E+03  0.00000000000E+00 0. -1.
         25    2    1    2    0    0 -0.87623982257E+01 -0.31966633439E+02 -0.46023084804E+02  0.13733983832E+03  0.12508181953E+03 0.  0.
          5    1    3    3  502    0 -0.34122034192E+02  0.35874036284E+02  0.30099313349E+01  0.49777422426E+02  0.41800000000E+01 0.  1.
         -5    1    3    3    0  502  0.25359635966E+02 -0.67840669723E+02 -0.49033016139E+02  0.87562415890E+02  0.41800000000E+01 0.  1.
        -11    1    1    2    0    0 -0.13924832386E+02  0.56168554420E+02 -0.11986905071E+03  0.13310671201E+03  0.00000000000E+00 0. -1.
         11    1    1    2    0    0  0.22687230611E+02 -0.24201920981E+02 -0.32646163888E+02  0.46542619486E+02  0.00000000000E+00 0.  1.
</event>
<event>
 7    1  0.3265282E-009  0.1374217E+03  0.7561462E-02  0.1216841E+00
         -2   -1    0    0    0  501 -0.00000000000E+00  0.00000000000E+00  0.39255353316E+02  0.39255353316E+02  0.00000000000E+00 0.  1.
          2   -1    0    0  501    0  0.00000000000E+00 -0.00000000000E+00 -0.53932589951E+03  0.53932589951E+03  0.00000000000E+00 0. -1.
         25    2    1    2    0    0 -0.62790566665E+02 -0.71734932881E+02 -0.26553896592E+03  0.30861901645E+03  0.12508476742E+03 0.  0.
          5    1    3    3  502    0 -0.51514438059E+02  0.22043123513E+02 -0.14443612554E+03  0.15498033225E+03  0.41800000000E+01 0.  1.
         -5    1    3    3    0  502 -0.11276128606E+02 -0.93778056394E+02 -0.12110284038E+03  0.15363868421E+03  0.41800000000E+01 0.  1.
        -11    1    1    2    0    0  0.74721384995E+02  0.29689410776E+02 -0.19540999241E+03  0.21130502034E+03  0.00000000000E+00 0. -1.
         11    1    1    2    0    0 -0.11930818330E+02  0.42045522105E+02 -0.39121587864E+02  0.58657216027E+02  0.00000000000E+00 0.  1.
</event>
<event>
 7    1  0.3265282E-009  0.1304361E+03  0.7561462E-02  0.1226810E+00
         -2   -1    0    0    0  501 -0.00000000000E+00  0.00000000000E+00  0.20902781894E+03  0.20902781894E+03  0.00000000000E+00 0.  1.
          2   -1    0    0  501    0  0.00000000000E+00 -0.00000000000E+00 -0.11458443169E+03  0.11458443169E+03  0.00000000000E+00 0. -1.
         25    2    1    2    0    0  0.47597386403E+02  0.92057765080E+02  0.92563147836E+02  0.18696558547E+03  0.12509216806E+03 0.  0.
          5    1    3    3  502    0 -0.15277813341E+02  0.39931373030E+02 -0.20360853774E+02  0.47539067081E+02  0.41800000000E+01 0. -1.
         -5    1    3    3    0  502  0.62875199743E+02  0.52126392049E+02  0.11292400161E+03  0.13942651839E+03  0.41800000000E+01 0. -1.
        -11    1    1    2    0    0  0.91138603920E+01 -0.76892135270E+02  0.68492742647E+01  0.77732718180E+02  0.00000000000E+00 0. -1.
         11    1    1    2    0    0 -0.56711246795E+02 -0.15165629809E+02 -0.49690348541E+01  0.58913946973E+02  0.00000000000E+00 0.  1.
</event>
<event>
 7    1  0.3265282E-009  0.2081838E+03  0.7561462E-02  0.1143012E+00
          1   -1    0    0  501    0  0.00000000000E+00  0.00000000000E+00  0.58929666258E+03  0.58929666258E+03  0.00000000000E+00 0. -1.
         -1   -1    0    0    0  501 -0.00000000000E+00 -0.00000000000E+00 -0.84007161777E+02  0.84007161777E+02  0.00000000000E+00 0.  1.
         25    2    1    2    0    0 -0.15383214877E+03 -0.11781787566E+03  0.25507001451E+03  0.34387966543E+03  0.12508848938E+03 0.  0.
          5    1    3    3  502    0 -0.75111855357E+02 -0.20822202391E+02  0.18452569878E+03  0.20035608511E+03  0.41800000000E+01 0. -1.
         -5    1    3    3    0  502 -0.78720293417E+02 -0.96995673269E+02  0.70544315722E+02  0.14352358032E+03  0.41800000000E+01 0. -1.
        -11    1    1    2    0    0  0.15507879210E+03  0.78193414826E+02  0.21509018409E+03  0.27645511241E+03  0.00000000000E+00 0. -1.
         11    1    1    2    0    0 -0.12466433301E+01  0.39624460833E+02  0.35129302208E+02  0.52969046523E+02  0.00000000000E+00 0.  1.
</event>
<event>
 7    1  0.3265282E-009  0.9310594E+02  0.7561462E-02  0.1295500E+00
         -1   -1    0    0    0  501 -0.00000000000E+00  0.00000000000E+00  0.14108445153E+03  0.14108445153E+03  0.00000000000E+00 0.  1.
          1   -1    0    0  501    0  0.00000000000E+00 -0.00000000000E+00 -0.11952346740E+03  0.11952346740E+03  0.00000000000E+00 0. -1.
         25    2    1    2    0    0  0.31609481535E+02  0.32173195793E+02  0.62131813376E+02  0.14677812791E+03  0.12509669359E+03 0.  0.
          5    1    3    3  502    0 -0.24343565941E+02 -0.10701141942E+02  0.70694790988E+02  0.75646212823E+02  0.41800000000E+01 0. -1.
         -5    1    3    3    0  502  0.55953047476E+02  0.42874337734E+02 -0.85629776125E+01  0.71131915084E+02  0.41800000000E+01 0. -1.
        -11    1    1    2    0    0 -0.37632266577E+02  0.15447133251E+02 -0.50466894767E+02  0.64820589945E+02  0.00000000000E+00 0. -1.
         11    1    1    2    0    0  0.60227850418E+01 -0.47620329043E+02  0.98960655238E+01  0.49009201082E+02  0.00000000000E+00 0.  1.
</event>
<event>
 7    1  0.3265282E-009  0.2377126E+03  0.7561462E-02  0.1121326E+00
         -1   -1    0    0    0  501 -0.00000000000E+00  0.00000000000E+00  0.48463458221E+02  0.48463458221E+02  0.00000000000E+00 0.  1.
          1   -1    0    0  501    0  0.00000000000E+00 -0.00000000000E+00 -0.13275325846E+04  0.13275325846E+04  0.00000000000E+00 0. -1.
         25    2    1    2    0    0  0.16011449121E+03 -0.16058070853E+03 -0.75210304784E+03  0.79544217870E+03  0.12508577390E+03 0.  0.
          5    1    3    3  502    0  0.23282723108E+02 -0.84040397324E+02 -0.40865532716E+03  0.41787740116E+03  0.41800000000E+01 0.  1.
         -5    1    3    3    0  502  0.13683176811E+03 -0.76540311206E+02 -0.34344772068E+03  0.37756477754E+03  0.41800000000E+01 0.  1.
        -11    1    1    2    0    0 -0.49863673879E+02  0.22832692165E+02 -0.21767063928E+03  0.22447321668E+03  0.00000000000E+00 0. -1.
         11    1    1    2    0    0 -0.11025081733E+03  0.13774801636E+03 -0.30929543927E+03  0.35608064745E+03  0.00000000000E+00 0.  1.
</event>
<event>
 7    1  0.3265282E-009  0.3989288E+03  0.7561462E-02  0.1044151E+00
          1   -1    0    0  501    0  0.00000000000E+00  0.00000000000E+00  0.23618123737E+04  0.23618123737E+04  0.00000000000E+00 0. -1.
         -1   -1    0    0    0  501 -0.00000000000E+00 -0.00000000000E+00 -0.10700593829E+03  0.10700593829E+03  0.00000000000E+00 0.  1.
         25    2    1    2    0    0  0.38763993540E+03  0.17776421531E+02  0.39803427948E+03  0.56978891579E+03  0.12508956884E+03 0.  0.
          5    1    3    3  502    0  0.23904017030E+03  0.57014846531E+02  0.18772346575E+03  0.30927086467E+03  0.41800000000E+01 0.  1.
         -5    1    3    3    0  502  0.14859976509E+03 -0.39238425000E+02  0.21031081373E+03  0.26051805111E+03  0.41800000000E+01 0.  1.
        -11    1    1    2    0    0 -0.14561486653E+03 -0.50448350722E+02  0.73411782035E+03  0.75011845705E+03  0.00000000000E+00 0.  1.
         11    1    1    2    0    0 -0.24202506887E+03  0.32671929191E+02  0.11226543356E+04  0.11489109392E+04  0.00000000000E+00 0. -1.
</event>
<event>
 6    1  0.3265282E-009  0.1416069E+03  0.7561462E-02  0.1211183E+00
          2   -1    0    0  501    0  0.00000000000E+00  0.00000000000E+00  0.61651123846E+02  0.61651123846E+02  0.00000000000E+00 0.  1.
         -2   -1    0    0    0  501 -0.00000000000E+00 -0.00000000000E+00 -0.42287907698E+03  0.42287907698E+03  0.00000000000E+00 0. -1.
          5    1    1    2  502    0  0.99748915809E+02 -0.53033730154E+02 -0.23078495840E+03  0.25698558746E+03  0.41800000000E+01 0. -1.
         -5    1    1    2    0  502 -0.77112508228E+02  0.25319120142E+02 -0.29045331067E+02  0.86304695276E+02  0.41800000000E+01 0. -1.
        -11    1    1    2    0    0 -0.23894922954E+02  0.55842101412E+02 -0.37420870687E+02  0.71341637184E+02  0.00000000000E+00 0.  1.
         11    1    1    2    0    0  0.12585153726E+01 -0.28127491400E+02 -0.63976792985E+02  0.69898280909E+02  0.00000000000E+00 0. -1.
</event>
<event>
 7    1  0.3265282E-009  0.1129228E+03  0.7561462E-02  0.1255251E+00
         -1   -1    0    0    0  501 -0.00000000000E+00  0.00000000000E+00  0.98182204944E+01  0.98182204944E+01  0.00000000000E+00 0.  1.
          1   -1    0    0  501    0  0.00000000000E+00 -0.00000000000E+00 -0.18838053791E+04  0.18838053791E+04  0.00000000000E+00 0. -1.
         25    2    1    2    0    0  0.36089208430E+02  0.15700997673E+02 -0.15451572643E+04  0.15507118596E+04  0.12508935973E+03 0.  0.
          5    1    3    3  502    0 -0.44932236019E+02 -0.58790460883E+01 -0.66715664440E+03  0.66870690858E+03  0.41800000000E+01 0. -1.
         -5    1    3    3    0  502  0.81021444449E+02  0.21580043762E+02 -0.87800061991E+03  0.88200495107E+03  0.41800000000E+01 0. -1.
        -11    1    1    2    0    0  0.29644508352E+01 -0.46534910300E+02 -0.18206051922E+03  0.18793700674E+03  0.00000000000E+00 0.  1.
         11    1    1    2    0    0 -0.39053659265E+02  0.30833912627E+02 -0.14676937506E+03  0.15497473319E+03  0.00000000000E+00 0. -1.
</event>
<event>
 7    1  0.3265282E-009  0.1075950E+03  0.7561462E-02  0.1265089E+00
         -1   -1    0    0    0  501 -0.00000000000E+00  0.00000000000E+00  0.31827253083E+02  0.31827253083E+02  0.00000000000E+00 0.  1.
          1   -1    0    0  501    0  0.00000000000E+00 -0.00000000000E+00 -0.57352784266E+03  0.57352784266E+03  0.00000000000E+00 0. -1.
         25    2    1    2    0    0  0.14441541675E+02  0.74312355266E+02 -0.24026190440E+03  0.28125643116E+03  0.12509401702E+03 0.  0.
          5    1    3    3  502    0  0.55110360842E+02  0.30303442785E+02 -0.46307325142E+02  0.78213114492E+02  0.41800000000E+01 0. -1.
         -5    1    3    3    0  502 -0.40668819168E+02  0.44008912480E+02 -0.19395457925E+03  0.20304331667E+03  0.41800000000E+01 0. -1.
        -11    1    1    2    0    0 -0.27464394399E+02 -0.14856508155E+02 -0.22222505984E+02  0.38325560223E+02  0.00000000000E+00 0.  1.
         11    1    1    2    0    0  0.13022852724E+02 -0.59455847111E+02 -0.27921617919E+03  0.28577310435E+03  0.00000000000E+00 0. -1.
</event>
<event>
 7    1  0.3265282E-009  0.1003736E+03  0.7561462E-02  0.1279512E+00
          2   -1    0    0  501    0  0.00000000000E+00  0.00000000000E+00  0.35790235379E+02  0.35790235379E+02  0.00000000000E+00 0. -1.
         -2   -1    0    0    0  501 -0.00000000000E+00 -0.00000000000E+00 -0.33899348346E+03  0.33899348346E+03  0.00000000000E+00 0.  1.
         25    2    1    2    0    0  0.20347983301E+02  0.97207721864E+01 -0.17991404332E+03  0.22028340256E+03  0.12508869102E+03 0.  0.
          5    1    3    3  502    0  0.39297131166E+02 -0.39861129745E+02 -0.35618570603E+02  0.66478035126E+02  0.41800000000E+01 0. -1.
         -5    1    3    3    0  502 -0.18949147865E+02  0.49581901931E+02 -0.14429547272E+03  0.15380536743E+03  0.41800000000E+01 0. -1.
        -11    1    1    2    0    0 -0.29610596693E+02  0.34918175549E+02 -0.76637801197E+02  0.89271602386E+02  0.00000000000E+00 0.  1.
         11    1    1    2    0    0  0.92626133928E+01 -0.44638947736E+02 -0.46651403563E+02  0.65228713893E+02  0.00000000000E+00 0. -1.
</event>
<event>
 7    1  0.3265282E-009  0.1490419E+03  0.7561462E-02  0.1201655E+00
         -1   -1    0    0    0  501 -0.00000000000E+00  0.00000000000E+00  0.17257538176E+03  0.17257538176E+03  0.00000000000E+00 0.  1.
          1   -1    0    0  501    0  0.00000000000E+00 -0.00000000000E+00 -0.24369787249E+03  0.24369787249E+03  0.00000000000E+00 0. -1.
         25    2    1    2    0    0  0.13890271804E+03 -0.98767277181E+01  0.68015474872E+02  0.19916075708E+03  0.12508951798E+03 0.  0.
          5    1    3    3  502    0  0.66811498218E+02  0.54820766183E+01  0.98554963305E+02  0.11926601633E+03  0.41800000000E+01 0.  1.
         -5    1    3    3    0  502  0.72091219823E+02 -0.15358804336E+02 -0.30539488433E+02  0.79894740753E+02  0.41800000000E+01 0.  1.
        -11    1    1    2    0    0 -0.12079872154E+03 -0.19717570500E+02 -0.73230345468E+02  0.14263168375E+03  0.00000000000E+00 0.  1.
         11    1    1    2    0    0 -0.18103996505E+02  0.29594298218E+02 -0.65907620130E+02  0.74480813419E+02  0.00000000000E+00 0. -1.
</event>
<event>
 7    1  0.3265282E-009  0.1249819E+03  0.7561462E-02  0.1235098E+00
          1   -1    0    0  501    0  0.00000000000E+00  0.00000000000E+00  0.16030089270E+03  0.16030089270E+03  0.00000000000E+00 0. -1.
         -1   -1    0    0    0  501 -0.00000000000E+00 -0.00000000000E+00 -0.14246691662E+03  0.14246691662E+03  0.00000000000E+00 0.  1.
         25    2    1    2    0    0  0.67342110131E+01 -0.73552747371E+02  0.84064955521E+02  0.16783889399E+03  0.12509045266E+03 0.  0.
          5    1    3    3  502    0  0.58746477918E+02 -0.42554096292E+02  0.78383242710E+02  0.10688032989E+03  0.41800000000E+01 0.  1.
         -5    1    3    3    0  502 -0.52012266905E+02 -0.30998651079E+02  0.56817128109E+01  0.60958564105E+02  0.41800000000E+01 0.  1.
        -11    1    1    2    0    0 -0.48204853287E+02  0.47261481723E+02 -0.29827794838E+02  0.73804152186E+02  0.00000000000E+00 0.  1.
         11    1    1    2    0    0  0.41470642273E+02  0.26291265648E+02 -0.36403184596E+02  0.61124763138E+02  0.00000000000E+00 0. -1.
</event>
<event>
 7    1  0.3265282E-009  0.1221205E+03  0.7561462E-02  0.1239639E+00
          2   -1    0    0  501    0  0.00000000000E+00  0.00000000000E+00  0.31220022000E+03  0.31220022000E+03  0.00000000000E+00 0. -1.
         -2   -1    0    0    0  501 -0.00000000000E+00 -0.00000000000E+00 -0.48867274458E+02  0.48867274458E+02  0.00000000000E+00 0.  1.
         25    2    1    2    0    0 -0.26466514362E+02 -0.48310537901E+02  0.17067465646E+03  0.21865752926E+03  0.12508753850E+03 0.  0.
          5    1    3    3  502    0 -0.33110632586E+02 -0.89058168903E+02  0.11542164282E+03  0.14955701077E+03  0.41800000000E+01 0.  1.
         -5    1    3    3    0  502  0.66441182239E+01  0.40747631003E+02  0.55253013641E+02  0.69100518491E+02  0.41800000000E+01 0.  1.
        -11    1    1    2    0    0 -0.23645383745E+02  0.52270597234E+02  0.42495870255E+02  0.71394807209E+02  0.00000000000E+00 0.  1.
         11    1    1    2    0    0  0.50111898108E+02 -0.39600593331E+01  0.50162418823E+02  0.71015157988E+02  0.00000000000E+00 0. -1.
</event>
<event>
 7    1  0.3265282E-009  0.8380885E+02  0.7561462E-02  0.1318577E+00
         -1   -1    0    0    0  501 -0.00000000000E+00  0.00000000000E+00  0.25491462245E+03  0.25491462245E+03  0.00000000000E+00 0.  1.
          1   -1    0    0  501    0  0.00000000000E+00 -0.00000000000E+00 -0.49662043747E+02  0.49662043747E+02  0.00000000000E+00 0. -1.
         25    2    1    2    0    0 -0.14359408805E+02 -0.15587370707E+02  0.14364693825E+03  0.19165502546E+03  0.12509215471E+03 0.  0.
          5    1    3    3  502    0 -0.27664358302E+02 -0.63447297726E+02  0.11463810938E+03  0.13397852377E+03  0.41800000000E+01 0.  1.
         -5    1    3    3    0  502  0.13304949497E+02  0.47859927018E+02  0.29008828864E+02  0.57676501691E+02  0.41800000000E+01 0.  1.
        -11    1    1    2    0    0  0.18410441949E+02 -0.11056210454E+02  0.78319063639E+02  0.81209974089E+02  0.00000000000E+00 0.  1.
         11    1    1    2    0    0 -0.40510331437E+01  0.26643581161E+02 -0.16713423186E+02  0.31711666642E+02  0.00000000000E+00 0. -1.
</event>
<event>
 7    1  0.3265282E-009  0.2167511E+03  0.7561462E-02  0.1136329E+00
          2   -1    0    0  501    0  0.00000000000E+00  0.00000000000E+00  0.12853707455E+04  0.12853707455E+04  0.00000000000E+00 0. -1.
         -2   -1    0    0    0  501 -0.00000000000E+00 -0.00000000000E+00 -0.38244652413E+02  0.38244652413E+02  0.00000000000E+00 0.  1.
         25    2    1    2    0    0 -0.11040720576E+03  0.15322475981E+03  0.55393391158E+03  0.59846499876E+03  0.12509995299E+03 0.  0.
          5    1    3    3  502    0 -0.12402296611E+03  0.80220279637E+02  0.30949982130E+03  0.34296443135E+03  0.41800000000E+01 0.  1.
         -5    1    3    3    0  502  0.13615760346E+02  0.73004480170E+02  0.24443409028E+03  0.25550056741E+03  0.41800000000E+01 0.  1.
        -11    1    1    2    0    0  0.12259607788E+03 -0.10437540247E+03  0.56270769028E+03  0.58528964424E+03  0.00000000000E+00 0.  1.
         11    1    1    2    0    0 -0.12188872118E+02 -0.48849357338E+02  0.13048449124E+03  0.13986075493E+03  0.00000000000E+00 0. -1.
</event>
<event>
 7    1  0.3265282E-009  0.1054463E+03  0.7561462E-02  0.1269243E+00
         -1   -1    0    0    0  501 -0.00000000000E+00  0.00000000000E+00  0.16712398379E+03  0.16712398379E+03  0.00000000000E+00 0.  1.
          1   -1    0    0  501    0  0.00000000000E+00 -0.00000000000E+00 -0.73377026578E+02  0.73377026578E+02  0.00000000000E+00 0. -1.
         25    2    1    2    0    0  0.12623838491E+02 -0.11224370716E+02  0.36662826225E+02  0.13144392035E+03  0.12509194049E+03 0.  0.
          5    1    3    3  502    0 -0.28305979445E+02  0.42894742372E+02 -0.48486218701E+01  0.51789660450E+02  0.41800000000E+01 0. -1.
         -5    1    3    3    0  502  0.40929817935E+02 -0.54119113089E+02  0.41511448095E+02  0.79654259903E+02  0.41800000000E+01 0. -1.
        -11    1    1    2    0    0  0.34902751155E+01  0.49601990654E+02  0.40949830658E+02  0.64416054895E+02  0.00000000000E+00 0. -1.
         11    1    1    2    0    0 -0.16114113606E+02 -0.38377619938E+02  0.16134300327E+02  0.44641035119E+02  0.00000000000E+00 0.  1.
</event>
<event>
 7    1  0.3265282E-009  0.1329214E+03  0.7561462E-02  0.1223184E+00
          2   -1    0    0  501    0  0.00000000000E+00  0.00000000000E+00  0.59069449999E+03  0.59069449999E+03  0.00000000000E+00 0.  1.
         -2   -1    0    0    0  501 -0.00000000000E+00 -0.00000000000E+00 -0.37597643673E+02  0.37597643673E+02  0.00000000000E+00 0. -1.
         25    2    1    2    0    0  0.76878422326E+02  0.65620538667E+02  0.27129217372E+03  0.31537976615E+03  0.12509439020E+03 0.  0.
          5    1    3    3  502    0  0.22842791268E+02 -0.37540295891E+02  0.80780777949E+02  0.92054730539E+02  0.41800000000E+01 0.  1.
         -5    1    3    3    0  502  0.54035631058E+02  0.10316083456E+03  0.19051139577E+03  0.22332503561E+03  0.41800000000E+01 0.  1.
        -11    1    1    2    0    0 -0.21106420067E+02 -0.36721424177E+02  0.22260087803E+03  0.22659456053E+03  0.00000000000E+00 0.  1.
         11    1    1    2    0    0 -0.55772002259E+02 -0.28899114491E+02  0.59203804569E+02  0.86317816990E+02  0.00000000000E+00 0. -1.
</event>
<event>
 7    1  0.3265282E-009  0.1050513E+03  0.7561462E-02  0.1270019E+00
          2   -1    0    0  501    0  0.00000000000E+00  0.00000000000E+00  0.49821391366E+03  0.49821391366E+03  0.00000000000E+00 0. -1.
         -2   -1    0    0    0  501 -0.00000000000E+00 -0.00000000000E+00 -0.50428340693E+02  0.50428340693E+02  0.00000000000E+00 0.  1.
         25    2    1    2    0    0  0.58849117714E+02 -0.91352235198E+01  0.69519747255E+02  0.15501421451E+03  0.12509892276E+03 0.  0.
          5    1    3    3  502    0 -0.25065012145E+02 -0.30874476445E+02 -0.54181089479E+01  0.40352403078E+02  0.41800000000E+01 0. -1.
         -5    1    3    3    0  502  0.83914129859E+02  0.21739252926E+02  0.74937856203E+02  0.11466181143E+03  0.41800000000E+01 0. -1.
        -11    1    1    2    0    0  0.68909288308E+01 -0.12372178803E+02  0.66779109755E+01  0.15657273182E+02  0.00000000000E+00 0.  1.
         11    1    1    2    0    0 -0.65740046545E+02  0.21507402323E+02  0.37158791474E+03  0.37797076667E+03  0.00000000000E+00 0. -1.
</event>
<event>
 7    1  0.3265282E-009  0.5396159E+02  0.7561462E-02  0.1425074E+00
          1   -1    0    0  501    0  0.00000000000E+00  0.00000000000E+00  0.74324908686E+02  0.74324908686E+02  0.00000000000E+00 0. -1.
         -1   -1    0    0    0  501 -0.00000000000E+00 -0.00000000000E+00 -0.15723951168E+03  0.15723951168E+03  0.00000000000E+00 0.  1.
         25    2    1    2    0    0 -0.16387975959E+01 -0.89082278719E+01 -0.53138008130E+02  0.13624150372E+03  0.12512416731E+03 0.  0.
          5    1    3    3  502    0  0.21782021098E+00  0.29759204455E+01 -0.93642131779E+02  0.93782859800E+02  0.41800000000E+01 0. -1.
         -5    1    3    3    0  502 -0.18566178069E+01 -0.11884148317E+02  0.40504123649E+02  0.42458643919E+02  0.41800000000E+01 0. -1.
        -11    1    1    2    0    0  0.91477942066E+01 -0.39765428719E+02 -0.18483752580E+02  0.44795318612E+02  0.00000000000E+00 0.  1.
         11    1    1    2    0    0 -0.75089966107E+01  0.48673656591E+02 -0.11292842279E+02  0.50527598031E+02  0.00000000000E+00 0. -1.
</event>
<event>
 7    1  0.3265282E-009  0.1319462E+03  0.7561462E-02  0.1224596E+00
          1   -1    0    0  501    0  0.00000000000E+00  0.00000000000E+00  0.30115418079E+03  0.30115418079E+03  0.00000000000E+00 0. -1.
         -1   -1    0    0    0  501 -0.00000000000E+00 -0.00000000000E+00 -0.87213370907E+02  0.87213370907E+02  0.00000000000E+00 0.  1.
         25    2    1    2    0    0 -0.60285587064E+01 -0.11717798831E+03  0.78070439759E+02  0.18843897516E+03  0.12508888572E+03 0.  0.
          5    1    3    3  502    0  0.49531305222E+01 -0.12292888129E+03  0.10285475967E+03  0.16041389386E+03  0.41800000000E+01 0.  1.
         -5    1    3    3    0  502 -0.10981689229E+02  0.57508929793E+01 -0.24784319908E+02  0.28025081297E+02  0.41800000000E+01 0.  1.
        -11    1    1    2    0    0 -0.11817615991E+02  0.10599144507E+03  0.14237105816E+03  0.17788580797E+03  0.00000000000E+00 0. -1.
         11    1    1    2    0    0  0.17846174698E+02  0.11186543242E+02 -0.65006880370E+01  0.22042768565E+02  0.00000000000E+00 0.  1.
</event>
<event>
 7    1  0.3265282E-009  0.2392656E+03  0.7561462E-02  0.1120283E+00
         -2   -1    0    0    0  501 -0.00000000000E+00  0.00000000000E+00  0.64288420535E+02  0.64288420535E+02  0.00000000000E+00 0.  1.
          2   -1    0    0  501    0  0.00000000000E+00 -0.00000000000E+00 -0.10186685607E+04  0.10186685607E+04  0.00000000000E+00 0. -1.
         25    2    1    2    0    0 -0.87305504138E+02  0.20391983806E+03 -0.35217809837E+03  0.43460515876E+03  0.12508668850E+03 0.  0.
          5    1    3    3  502    0  0.29828780963E+01 -0.73015300233E+01  0.47618309895E+01  0.10117180279E+02  0.41800000000E+01 0. -1.
         -5    1    3    3    0  502 -0.90288382235E+02  0.21122136808E+03 -0.35693992936E+03  0.42448797848E+03  0.41800000000E+01 0. -1.
        -11    1    1    2    0    0 -0.17658974293E+02 -0.54234307134E+02 -0.12821680412E+03  0.14033085300E+03  0.00000000000E+00 0.  1.
         11    1    1    2    0    0  0.10496447843E+03 -0.14968553093E+03 -0.47398523766E+03  0.50802096947E+03  0.00000000000E+00 0. -1.
</event>
<event>
 7    1  0.3265282E-009  0.9602297E+02  0.7561462E-02  0.1288889E+00
          4   -1    0    0  501    0  0.00000000000E+00  0.00000000000E+00  0.14075511710E+03  0.14075511710E+03  0.00000000000E+00 0. -1.
         -4   -1    0    0    0  501 -0.00000000000E+00 -0.00000000000E+00 -0.89496568709E+02  0.89496568709E+02  0.00000000000E+00 0.  1.
         25    2    1    2    0    0 -0.10259767664E+02  0.26082190536E+02  0.20539381107E+02  0.12982698070E+03  0.12509050821E+03 0.  0.
          5    1    3    3  502    0  0.24058713085E+02 -0.38513531502E+02  0.31945982874E+02  0.55678829064E+02  0.41800000000E+01 0. -1.
         -5    1    3    3    0  502 -0.34318480749E+02  0.64595722039E+02 -0.11406601767E+02  0.74148151632E+02  0.41800000000E+01 0. -1.
        -11    1    1    2    0    0 -0.21600964628E+02 -0.34061268599E+02 -0.15936474798E+02  0.43367533022E+02  0.00000000000E+00 0.  1.
         11    1    1    2    0    0  0.31860732292E+02  0.79790780625E+01  0.46655642086E+02  0.57057172094E+02  0.00000000000E+00 0. -1.
</event>
<event>
 7    1  0.3265282E-009  0.1428882E+03  0.7561462E-02  0.1209495E+00
         -1   -1    0    0    0  501 -0.00000000000E+00  0.00000000000E+00  0.60844765504E+03  0.60844765504E+03  0.00000000000E+00 0. -1.
          1   -1    0    0  501    0  0.00000000000E+00 -0.00000000000E+00 -0.38466216386E+02  0.38466216386E+02  0.00000000000E+00 0.  1.
         25    2    1    2    0    0 -0.62818122277E+02  0.90517643303E+02  0.30311117793E+03  0.34592298276E+03  0.12508702403E+03 0.  0.
          5    1    3    3  502    0 -0.39306898912E+02 -0.14199622265E+02  0.27709603804E+02  0.50318546457E+02  0.41800000000E+01 0. -1.
         -5    1    3    3    0  502 -0.23511223365E+02  0.10471726557E+03  0.27540157413E+03  0.29560443631E+03  0.41800000000E+01 0. -1.
        -11    1    1    2    0    0  0.82025342221E+02 -0.66365468186E+02  0.22901620915E+03  0.25215264462E+03  0.00000000000E+00 0. -1.
         11    1    1    2    0    0 -0.19207219943E+02 -0.24152175118E+02  0.37854051566E+02  0.48838244039E+02  0.00000000000E+00 0.  1.
</event>
<event>
 7    1  0.3265282E-009  0.1143394E+03  0.7561462E-02  0.1252739E+00
         -2   -1    0    0    0  501 -0.00000000000E+00  0.00000000000E+00  0.56851964327E+03  0.56851964327E+03  0.00000000000E+00 0.  1.
          2   -1    0    0  501    0  0.00000000000E+00 -0.00000000000E+00 -0.40788710139E+02  0.40788710139E+02  0.00000000000E+00 0. -1.
         25    2    1    2    0    0  0.30649972222E+02  0.60706559243E+02  0.44555605679E+03  0.46775242488E+03  0.12508966426E+03 0.  0.
          5    1    3    3  502    0 -0.47193984907E+02  0.14441301997E+02  0.19862646709E+03  0.20470898672E+03  0.41800000000E+01 0. -1.
         -5    1    3    3    0  502  0.77843957129E+02  0.46265257247E+02  0.24692958969E+03  0.26304343815E+03  0.41800000000E+01 0. -1.
        -11    1    1    2    0    0  0.16559768507E+02 -0.10644125664E+02 -0.13380569950E+02  0.23802583816E+02  0.00000000000E+00 0. -1.
         11    1    1    2    0    0 -0.47209740729E+02 -0.50062433579E+02  0.95555446291E+02  0.11775334471E+03  0.00000000000E+00 0.  1.
</event>
<event>
 7    1  0.3265282E-009  0.1264757E+03  0.7561462E-02  0.1232781E+00
          1   -1    0    0  501    0  0.00000000000E+00  0.00000000000E+00  0.82168228046E+02  0.82168228046E+02  0.00000000000E+00 0. -1.
         -1   -1    0    0    0  501 -0.00000000000E+00 -0.00000000000E+00 -0.21679124301E+03  0.21679124301E+03  0.00000000000E+00 0.  1.
         25    2    1    2    0    0 -0.72553027746E+02 -0.28727848622E+02 -0.64113536359E+02  0.16077346965E+03  0.12509329269E+03 0.  0.
          5    1    3    3  502    0 -0.75528499466E+02  0.31160254993E+02 -0.15049060990E+02  0.83183305774E+02  0.41800000000E+01 0. -1.
         -5    1    3    3    0  502  0.29754717198E+01 -0.59888103614E+02 -0.49064475368E+02  0.77590163872E+02  0.41800000000E+01 0. -1.
        -11    1    1    2    0    0 -0.17076192244E+02  0.57228251077E+00  0.48363343570E+01  0.17757082498E+02  0.00000000000E+00 0. -1.
         11    1    1    2    0    0  0.89629219990E+02  0.28155566111E+02 -0.75345812962E+02  0.12042891891E+03  0.00000000000E+00 0.  1.
</event>
<event>
 7    1  0.3265282E-009  0.9712970E+02  0.7561462E-02  0.1286450E+00
          2   -1    0    0  501    0  0.00000000000E+00  0.00000000000E+00  0.82485370926E+03  0.82485370926E+03  0.00000000000E+00 0. -1.
         -2   -1    0    0    0  501 -0.00000000000E+00 -0.00000000000E+00 -0.40374394945E+02  0.40374394945E+02  0.00000000000E+00 0.  1.
         25    2    1    2    0    0 -0.10710965329E+02  0.71003331451E+02  0.71736942636E+03  0.73172584806E+03  0.12509046721E+03 0.  0.
          5    1    3    3  502    0 -0.33505983625E+02  0.10211321289E+02  0.49993034788E+02  0.61185765897E+02  0.41800000000E+01 0.  1.
         -5    1    3    3    0  502  0.22795018295E+02  0.60792010162E+02  0.66737639157E+03  0.67054008216E+03  0.41800000000E+01 0.  1.
        -11    1    1    2    0    0  0.35644913954E+02 -0.33692295059E+02 -0.42208733578E+01  0.49229527816E+02  0.00000000000E+00 0.  1.
         11    1    1    2    0    0 -0.24933948624E+02 -0.37311036392E+02  0.71330761314E+02  0.84272728331E+02  0.00000000000E+00 0. -1.
</event>
<event>
 7    1  0.3265282E-009  0.1498402E+03  0.7561462E-02  0.1200670E+00
         -2   -1    0    0    0  501 -0.00000000000E+00  0.00000000000E+00  0.31765442650E+02  0.31765442650E+02  0.00000000000E+00 0.  1.
          2   -1    0    0  501    0  0.00000000000E+00 -0.00000000000E+00 -0.99144505492E+03  0.99144505492E+03  0.00000000000E+00 0. -1.
         25    2    1    2    0    0  0.64147438304E+02 -0.82720175914E+02 -0.23813839221E+03  0.28864344671E+03  0.12509046383E+03 0.  0.
          5    1    3    3  502    0 -0.37424409003E+02 -0.22651694513E+02 -0.80132488776E+02  0.91391322405E+02  0.41800000000E+01 0. -1.
         -5    1    3    3    0  502  0.10157184731E+03 -0.60068481402E+02 -0.15800590343E+03  0.19725212431E+03  0.41800000000E+01 0. -1.
        -11    1    1    2    0    0  0.15364405601E+02 -0.77530324866E+01 -0.97859028454E+02  0.99360776578E+02  0.00000000000E+00 0. -1.
         11    1    1    2    0    0 -0.79511843905E+02  0.90473208401E+02 -0.62368219160E+03  0.63520627428E+03  0.00000000000E+00 0.  1.
</event>
<event>
 7    1  0.3265282E-009  0.9144366E+02  0.7561462E-02  0.1299393E+00
          1   -1    0    0  501    0  0.00000000000E+00  0.00000000000E+00  0.15848850894E+03  0.15848850894E+03  0.00000000000E+00 0. -1.
         -1   -1    0    0    0  501 -0.00000000000E+00 -0.00000000000E+00 -0.11733231306E+03  0.11733231306E+03  0.00000000000E+00 0.  1.
         25    2    1    2    0    0  0.27643973490E+02  0.77040345966E+02  0.42562264205E+02  0.15545212893E+03  0.12511760019E+03 0.  0.
          5    1    3    3  502    0 -0.34045631494E+01  0.14161358417E+02  0.76108502342E+02  0.77602265760E+02  0.41800000000E+01 0.  1.
         -5    1    3    3    0  502  0.31048536639E+02  0.62878987549E+02 -0.33546238137E+02  0.77849863171E+02  0.41800000000E+01 0.  1.
        -11    1    1    2    0    0 -0.17280729649E+02 -0.83501402925E+02  0.27004394836E+02  0.89444649075E+02  0.00000000000E+00 0.  1.
         11    1    1    2    0    0 -0.10363243841E+02  0.64610569588E+01 -0.28410463156E+02  0.30924043990E+02  0.00000000000E+00 0. -1.
</event>
<event>
 7    1  0.3265282E-009  0.1757611E+03  0.7561462E-02  0.1171970E+00
          1   -1    0    0  501    0  0.00000000000E+00  0.00000000000E+00  0.18741902355E+04  0.18741902355E+04  0.00000000000E+00 0. -1.
         -1   -1    0    0    0  501 -0.00000000000E+00 -0.00000000000E+00 -0.22702076755E+02  0.22702076755E+02  0.00000000000E+00 0.  1.
         25    2    1    2    0    0  0.15321001588E+03  0.22913008956E+02  0.13407865893E+04  0.13554909373E+04  0.12509471611E+03 0.  0.
          5    1    3    3  502    0  0.65675570022E+02 -0.41257617379E+02  0.33650705555E+03  0.34535480643E+03  0.41800000000E+01 0. -1.
         -5    1    3    3    0  502  0.87534445862E+02  0.64170626335E+02  0.10042795338E+04  0.10101361309E+04  0.41800000000E+01 0. -1.
        -11    1    1    2    0    0 -0.50539777025E+02  0.19468176633E+02  0.28200242119E+03  0.28715613265E+03  0.00000000000E+00 0. -1.
         11    1    1    2    0    0 -0.10267023886E+03 -0.42381185589E+02  0.22869914821E+03  0.25424524230E+03  0.00000000000E+00 0.  1.
</event>
<event>
 7    1  0.3265282E-009  0.1419117E+03  0.7561462E-02  0.1210780E+00
          2   -1    0    0  501    0  0.00000000000E+00  0.00000000000E+00  0.46387925671E+03  0.46387925671E+03  0.00000000000E+00 0. -1.
         -2   -1    0    0    0  501 -0.00000000000E+00 -0.00000000000E+00 -0.51602836202E+02  0.51602836202E+02  0.00000000000E+00 0.  1.
         25    2    1    2    0    0 -0.91521387451E+02 -0.31787615660E+02  0.13646789836E+03  0.20894433569E+03  0.12509049230E+03 0.  0.
          5    1    3    3  502    0 -0.93488008525E+02  0.22517462929E+02  0.11598381666E+03  0.15072080813E+03  0.41800000000E+01 0.  1.
         -5    1    3    3    0  502  0.19666210742E+01 -0.54305078588E+02  0.20484081700E+02  0.58223527564E+02  0.41800000000E+01 0.  1.
        -11    1    1    2    0    0  0.88842760808E+01  0.48035849672E+02  0.11676364639E+03  0.12657062192E+03  0.00000000000E+00 0. -1.
         11    1    1    2    0    0  0.82637111370E+02 -0.16248234012E+02  0.15904487576E+03  0.17996713530E+03  0.00000000000E+00 0.  1.
</event>
<event>
 7    1  0.3265282E-009  0.1071983E+03  0.7561462E-02  0.1265848E+00
         -1   -1    0    0    0  501 -0.00000000000E+00  0.00000000000E+00  0.10456868993E+04  0.10456868993E+04  0.00000000000E+00 0.  1.
          1   -1    0    0  501    0  0.00000000000E+00 -0.00000000000E+00 -0.15470986522E+02  0.15470986522E+02  0.00000000000E+00 0. -1.
         25    2    1    2    0    0 -0.21852593114E+01  0.65418641576E+02  0.60075346651E+03  0.61711694273E+03  0.12507685418E+03 0.  0.
          5    1    3    3  502    0  0.33236581754E+02  0.70856499027E+02  0.54566461870E+03  0.55126460282E+03  0.41800000000E+01 0.  1.
         -5    1    3    3    0  502 -0.35421841065E+02 -0.54378574516E+01  0.55088847811E+02  0.65852339908E+02  0.41800000000E+01 0.  1.
        -11    1    1    2    0    0  0.84390143262E+01  0.16102662522E+02  0.22402549369E+02  0.28851116466E+02  0.00000000000E+00 0. -1.
         11    1    1    2    0    0 -0.62537550148E+01 -0.81521304098E+02  0.40705989687E+03  0.41518982660E+03  0.00000000000E+00 0.  1.
</event>
<event>
 7    1  0.3265282E-009  0.1219028E+03  0.7561462E-02  0.1239991E+00
          3   -1    0    0  501    0  0.00000000000E+00  0.00000000000E+00  0.12680873887E+03  0.12680873887E+03  0.00000000000E+00 0. -1.
         -3   -1    0    0    0  501 -0.00000000000E+00 -0.00000000000E+00 -0.18163940753E+03  0.18163940753E+03  0.00000000000E+00 0.  1.
         25    2    1    2    0    0  0.33821868483E+02  0.91357481369E+02 -0.72871387831E+02  0.17448389962E+03  0.12507711171E+03 0.  0.
          5    1    3    3  502    0 -0.23548292973E+02  0.65136372640E+02 -0.85401781385E+02  0.11003729280E+03  0.41800000000E+01 0. -1.
         -5    1    3    3    0  502  0.57370161456E+02  0.26221108728E+02  0.12530393554E+02  0.64446606823E+02  0.41800000000E+01 0. -1.
        -11    1    1    2    0    0 -0.16347317718E+02  0.17745318402E+01 -0.24973655678E+02  0.29900957138E+02  0.00000000000E+00 0.  1.
         11    1    1    2    0    0 -0.17474550765E+02 -0.93132013209E+02  0.43014374845E+02  0.10406328965E+03  0.00000000000E+00 0. -1.
</event>
<event>
 7    1  0.3265282E-009  0.1072861E+03  0.7561462E-02  0.1265680E+00
         -1   -1    0    0    0  501 -0.00000000000E+00  0.00000000000E+00  0.73027518184E+02  0.73027518184E+02  0.00000000000E+00 0.  1.
          1   -1    0    0  501    0  0.00000000000E+00 -0.00000000000E+00 -0.23314306167E+03  0.23314306167E+03  0.00000000000E+00 0. -1.
         25    2    1    2    0    0  0.58772383442E+02  0.24998217545E+02 -0.12381198953E+03  0.18723332982E+03  0.12509119517E+03 0.  0.
          5    1    3    3  502    0  0.86069808664E+02  0.52960519916E+02 -0.88306953106E+02  0.13426994824E+03  0.41800000000E+01 0. -1.
         -5    1    3    3    0  502 -0.27297425222E+02 -0.27962302371E+02 -0.35505036421E+02  0.52963381584E+02  0.41800000000E+01 0. -1.
        -11    1    1    2    0    0 -0.20764036737E+02  0.94659943206E+01  0.28353893657E+02  0.36396339866E+02  0.00000000000E+00 0.  1.
         11    1    1    2    0    0 -0.38008346705E+02 -0.34464211865E+02 -0.64657447617E+02  0.82540910166E+02  0.00000000000E+00 0. -1.
</event>
<event>
 7    1  0.3265282E-009  0.9429554E+02  0.7561462E-02  0.1292771E+00
          2   -1    0    0  501    0  0.00000000000E+00  0.00000000000E+00  0.11143415523E+03  0.11143415523E+03  0.00000000000E+00 0.  1.
         -2   -1    0    0    0  501 -0.00000000000E+00 -0.00000000000E+00 -0.11708307498E+03  0.11708307498E+03  0.00000000000E+00 0. -1.
         25    2    1    2    0    0 -0.11796682693E+02 -0.11196740306E+02  0.27683093020E+02  0.12914115237E+03  0.12508618981E+03 0.  0.
          5    1    3    3  502    0 -0.15638360808E+01 -0.66248823945E+02  0.30177504810E+02  0.72934946726E+02  0.41800000000E+01 0. -1.
         -5    1    3    3    0  502 -0.10232846612E+02  0.55052083640E+02 -0.24944117895E+01  0.56206205645E+02  0.41800000000E+01 0. -1.
        -11    1    1    2    0    0 -0.26644204665E+02  0.46421720601E+01 -0.50095431678E+02  0.56929919012E+02  0.00000000000E+00 0. -1.
         11    1    1    2    0    0  0.38440887358E+02  0.65545682454E+01  0.16763418904E+02  0.42446158827E+02  0.00000000000E+00 0.  1.
</event>
<event>
 7    1  0.3265282E-009  0.1176851E+03  0.7561462E-02  0.1246966E+00
          2   -1    0    0  501    0  0.00000000000E+00  0.00000000000E+00  0.11272296413E+03  0.11272296413E+03  0.00000000000E+00 0. -1.
         -2   -1    0    0    0  501 -0.00000000000E+00 -0.00000000000E+00 -0.18887057114E+03  0.18887057114E+03  0.00000000000E+00 0.  1.
         25    2    1    2    0    0 -0.81765287491E+02 -0.28057269263E+02 -0.84819888741E+02  0.17411343514E+03  0.12509317397E+03 0.  0.
          5    1    3    3  502    0  0.89550923126E+01  0.18774349383E+02  0.18973883832E+02  0.28463143550E+02  0.41800000000E+01 0.  1.
         -5    1    3    3    0  502 -0.90720379804E+02 -0.46831618646E+02 -0.10379377257E+03  0.14565029159E+03  0.41800000000E+01 0.  1.
        -11    1    1    2    0    0  0.54384447439E+02  0.52263546192E+02  0.34284080599E+02  0.82852547132E+02  0.00000000000E+00 0. -1.
         11    1    1    2    0    0  0.27380840052E+02 -0.24206276929E+02 -0.25611798864E+02  0.44627552989E+02  0.00000000000E+00 0.  1.
</event>
<event>
 7    1  0.3265282E-009  0.1969841E+03  0.7561462E-02  0.1152309E+00
         -1   -1    0    0    0  501 -0.00000000000E+00  0.00000000000E+00  0.16682065226E+03  0.16682065226E+03  0.00000000000E+00 0.  1.
          1   -1    0    0  501    0  0.00000000000E+00 -0.00000000000E+00 -0.24701179784E+03  0.24701179784E+03  0.00000000000E+00 0. -1.
         25    2    1    2    0    0  0.10128352398E+03  0.13389781578E+03 -0.76180815786E+02  0.22279510078E+03  0.12508862034E+03 0.  0.
          5    1    3    3  502    0 -0.28270029788E+02  0.34714213714E+02 -0.26476814514E+02  0.52180123848E+02  0.41800000000E+01 0. -1.
         -5    1    3    3    0  502  0.12955355376E+03  0.99183602070E+02 -0.49704001272E+02  0.17061497694E+03  0.41800000000E+01 0. -1.
        -11    1    1    2    0    0 -0.10089068192E+03 -0.72134956305E+02  0.18297431315E+02  0.12536816826E+03  0.00000000000E+00 0. -1.
         11    1    1    2    0    0 -0.39284205351E+00 -0.61762859479E+02 -0.22307761105E+02  0.65669181063E+02  0.00000000000E+00 0.  1.
</event>
<event>
 7    1  0.3265282E-009  0.1121664E+03  0.7561462E-02  0.1256610E+00
         -2   -1    0    0    0  501 -0.00000000000E+00  0.00000000000E+00  0.42782739439E+02  0.42782739439E+02  0.00000000000E+00 0.  1.
          2   -1    0    0  501    0  0.00000000000E+00 -0.00000000000E+00 -0.43277780669E+03  0.43277780669E+03  0.00000000000E+00 0. -1.
         25    2    1    2    0    0  0.23571466653E+02  0.65065625825E+02 -0.28901850373E+03  0.32244266082E+03  0.12509366217E+03 0.  0.
          5    1    3    3  502    0  0.18804243320E+02  0.93383287004E+02 -0.13241025284E+03  0.16316857943E+03  0.41800000000E+01 0.  1.
         -5    1    3    3    0  502  0.47672233335E+01 -0.28317661179E+02 -0.15660825090E+03  0.15927408139E+03  0.41800000000E+01 0.  1.
        -11    1    1    2    0    0 -0.33882429410E+02  0.20649530346E+00 -0.74660096482E+02  0.81988972854E+02  0.00000000000E+00 0. -1.
         11    1    1    2    0    0  0.10310962756E+02 -0.65272121129E+02 -0.26316467039E+02  0.71128912455E+02  0.00000000000E+00 0.  1.
</event>
<event>
 7    1  0.3265282E-009  0.9997206E+02  0.7561462E-02  0.1280355E+00
         -1   -1    0    0    0  501 -0.00000000000E+00  0.00000000000E+00  0.23069710868E+03  0.23069710868E+03  0.00000000000E+00 0.  1.
          1   -1    0    0  501    0  0.00000000000E+00 -0.00000000000E+00 -0.85015209910E+02  0.85015209910E+02  0.00000000000E+00 0. -1.
         25    2    1    2    0    0  0.49116870023E+02 -0.59962029711E+02  0.12579119577E+03  0.19359335066E+03  0.12508816314E+03 0.  0.
          5    1    3    3  502    0 -0.35012590173E+01 -0.36584102583E+02 -0.16151010573E+02  0.40360660538E+02  0.41800000000E+01 0.  1.
         -5    1    3    3    0  502  0.52618129041E+02 -0.23377927128E+02  0.14194220634E+03  0.15323269012E+03  0.41800000000E+01 0.  1.
        -11    1    1    2    0    0 -0.22484795195E+02  0.72416065474E+02  0.40738640735E+02  0.86077229293E+02  0.00000000000E+00 0.  1.
         11    1    1    2    0    0 -0.26632074829E+02 -0.12454035763E+02 -0.20847937733E+02  0.36041738640E+02  0.00000000000E+00 0. -1.
</event>
<event>
 7    1  0.3265282E-009  0.1187456E+03  0.7561462E-02  0.1245181E+00
         -1   -1    0    0    0  501 -0.00000000000E+00  0.00000000000E+00  0.31778532081E+03  0.31778532081E+03  0.00000000000E+00 0.  1.
          1   -1    0    0  501    0  0.00000000000E+00 -0.00000000000E+00 -0.66818652810E+02  0.66818652810E+02  0.00000000000E+00 0. -1.
         25    2    1    2    0    0  0.42896002468E+02  0.84508611665E+02  0.15364575029E+03  0.21962612201E+03  0.12508734714E+03 0.  0.
          5    1    3    3  502    0 -0.25915358292E+02  0.25715126404E+02 -0.48451850338E+01  0.37065101367E+02  0.41800000000E+01 0.  1.
         -5    1    3    3    0  502  0.68811360760E+02  0.58793485261E+02  0.15849093532E+03  0.18256102064E+03  0.41800000000E+01 0.  1.
        -11    1    1    2    0    0 -0.51869780405E+02 -0.42136597985E+02  0.10143583870E+03  0.12147096930E+03  0.00000000000E+00 0.  1.
         11    1    1    2    0    0  0.89737779363E+01 -0.42372013679E+02 -0.41149209910E+01  0.43506882311E+02  0.00000000000E+00 0. -1.
</event>
<event>
 7    1  0.3265282E-009  0.5544505E+03  0.7561462E-02  0.1000469E+00
         -2   -1    0    0    0  501 -0.00000000000E+00  0.00000000000E+00  0.35712959776E+03  0.35712959776E+03  0.00000000000E+00 0. -1.
          2   -1    0    0  501    0  0.00000000000E+00 -0.00000000000E+00 -0.88541782994E+03  0.88541782994E+03  0.00000000000E+00 0.  1.
         25    2    1    2    0    0 -0.23091535302E+03 -0.50026979218E+03 -0.23632212551E+03  0.61244487301E+03  0.12509520473E+03 0.  0.
          5    1    3    3  502    0 -0.13661953539E+03 -0.27558682947E+03 -0.64635705179E+02  0.31433778775E+03  0.41800000000E+01 0. -1.
         -5    1    3    3    0  502 -0.94295817625E+02 -0.22468296272E+03 -0.17168642033E+03  0.29810708526E+03  0.41800000000E+01 0. -1.
        -11    1    1    2    0    0  0.18910574164E+03  0.46799864571E+03 -0.25406648906E+03  0.56509600491E+03  0.00000000000E+00 0. -1.
         11    1    1    2    0    0  0.41809611382E+02  0.32271146476E+02 -0.37899617615E+02  0.65006549779E+02  0.00000000000E+00 0.  1.
</event>
<event>
 7    1  0.3265282E-009  0.1030269E+03  0.7561462E-02  0.1274057E+00
          2   -1    0    0  501    0  0.00000000000E+00  0.00000000000E+00  0.12434601293E+04  0.12434601293E+04  0.00000000000E+00 0.  1.
         -2   -1    0    0    0  501 -0.00000000000E+00 -0.00000000000E+00 -0.12547643395E+02  0.12547643395E+02  0.00000000000E+00 0. -1.
         25    2    1    2    0    0 -0.99378923407E+01  0.26706346398E+02  0.94694067235E+03  0.95559203103E+03  0.12508997630E+03 0.  0.
          5    1    3    3  502    0 -0.20286307269E+02  0.66599625633E+02  0.79663517453E+03  0.79968251081E+03  0.41800000000E+01 0. -1.
         -5    1    3    3    0  502  0.10348414928E+02 -0.39893279235E+02  0.15030549782E+03  0.15590952022E+03  0.41800000000E+01 0. -1.
        -11    1    1    2    0    0 -0.17029825926E+02 -0.53934904211E+02  0.20464225706E+03  0.21231448899E+03  0.00000000000E+00 0.  1.
         11    1    1    2    0    0  0.26967718267E+02  0.27228557813E+02  0.79329556536E+02  0.88101252711E+02  0.00000000000E+00 0. -1.
</event>
<event>
 7    1  0.3265282E-009  0.9784644E+02  0.7561462E-02  0.1284891E+00
         -1   -1    0    0    0  501 -0.00000000000E+00  0.00000000000E+00  0.27357985717E+02  0.27357985717E+02  0.00000000000E+00 0.  1.
          1   -1    0    0  501    0  0.00000000000E+00 -0.00000000000E+00 -0.56475593153E+03  0.56475593153E+03  0.00000000000E+00 0. -1.
         25    2    1    2    0    0  0.58570985758E+02 -0.13428123496E+02 -0.29875973645E+03  0.32941668300E+03  0.12508835296E+03 0.  0.
          5    1    3    3  502    0  0.34588114482E+02  0.33838615219E+02 -0.33791683948E+02  0.59167050352E+02  0.41800000000E+01 0. -1.
         -5    1    3    3    0  502  0.23982871276E+02 -0.47266738715E+02 -0.26496805250E+03  0.27024963265E+03  0.41800000000E+01 0. -1.
        -11    1    1    2    0    0 -0.99292230371E+01  0.38130664343E+02 -0.37875783366E+02  0.54654478306E+02  0.00000000000E+00 0. -1.
         11    1    1    2    0    0 -0.48641762721E+02 -0.24702540846E+02 -0.20076242600E+03  0.20804275594E+03  0.00000000000E+00 0.  1.
</event>
<event>
 7    1  0.3265282E-009  0.9851945E+02  0.7561462E-02  0.1283441E+00
         -4   -1    0    0    0  501 -0.00000000000E+00  0.00000000000E+00  0.52053502630E+03  0.52053502630E+03  0.00000000000E+00 0.  1.
          4   -1    0    0  501    0  0.00000000000E+00 -0.00000000000E+00 -0.24203597190E+02  0.24203597190E+02  0.00000000000E+00 0. -1.
         25    2    1    2    0    0 -0.24537851262E+02  0.17064940342E+02  0.28529724852E+03  0.31294598210E+03  0.12508936554E+03 0.  0.
          5    1    3    3  502    0  0.15842562663E+02  0.62712301128E+02  0.17860923772E+03  0.19000671489E+03  0.41800000000E+01 0.  1.
         -5    1    3    3    0  502 -0.40380413925E+02 -0.45647360786E+02  0.10668801080E+03  0.12293926722E+03  0.41800000000E+01 0.  1.
        -11    1    1    2    0    0  0.36654974302E+02  0.12862474130E+02  0.18839693506E+03  0.19236017135E+03  0.00000000000E+00 0.  1.
         11    1    1    2    0    0 -0.12117123040E+02 -0.29927414472E+02  0.22637245534E+02  0.39432470036E+02  0.00000000000E+00 0. -1.
</event>
<event>
 7    1  0.3265282E-009  0.1277178E+03  0.7561462E-02  0.1230882E+00
          2   -1    0    0  501    0  0.00000000000E+00  0.00000000000E+00  0.34893312969E+03  0.34893312969E+03  0.00000000000E+00 0. -1.
         -2   -1    0    0    0  501 -0.00000000000E+00 -0.00000000000E+00 -0.97363070022E+02  0.97363070022E+02  0.00000000000E+00 0.  1.
         25    2    1    2    0    0  0.81595360356E+02 -0.87037614023E+02  0.26939556665E+02  0.17494732650E+03  0.12508988068E+03 0.  0.
          5    1    3    3  502    0  0.49699852082E+02 -0.26901991764E+02 -0.47534478556E+02  0.73964799124E+02  0.41800000000E+01 0.  1.
         -5    1    3    3    0  502  0.31895508274E+02 -0.60135622258E+02  0.74474035221E+02  0.10098252737E+03  0.41800000000E+01 0.  1.
        -11    1    1    2    0    0 -0.68035009908E+01  0.43497502658E+02  0.18438449859E+02  0.47731507376E+02  0.00000000000E+00 0.  1.
         11    1    1    2    0    0 -0.74791859366E+02  0.43540111365E+02  0.20619205314E+03  0.22361736584E+03  0.00000000000E+00 0. -1.
</event>
<event>
 7    1  0.3265282E-009  0.1209332E+03  0.7561462E-02  0.1241565E+00
          2   -1    0    0  501    0  0.00000000000E+00  0.00000000000E+00  0.69265789186E+02  0.69265789186E+02  0.00000000000E+00 0. -1.
         -2   -1    0    0    0  501 -0.00000000000E+00 -0.00000000000E+00 -0.23420603748E+03  0.23420603748E+03  0.00000000000E+00 0.  1.
         25    2    1    2    0    0  0.61378397823E+02 -0.31210285106E+02 -0.93808153263E+02  0.17084899625E+03  0.12509204726E+03 0.  0.
          5    1    3    3  502    0  0.57436699516E+02  0.35357748129E+02 -0.18274021256E+02  0.70003978865E+02  0.41800000000E+01 0.  1.
         -5    1    3    3    0  502  0.39416983070E+01 -0.66568033235E+02 -0.75534132007E+02  0.10084501739E+03  0.41800000000E+01 0.  1.
        -11    1    1    2    0    0 -0.44290757177E+02  0.59650279990E+02 -0.30875679286E+02  0.80455793114E+02  0.00000000000E+00 0.  1.
         11    1    1    2    0    0 -0.17087640646E+02 -0.28439994884E+02 -0.40256415742E+02  0.52167037296E+02  0.00000000000E+00 0. -1.
</event>
<event>
 7    1  0.3265282E-009  0.1237956E+03  0.7561462E-02  0.1236964E+00
          1   -1    0    0  501    0  0.00000000000E+00  0.00000000000E+00  0.97927697645E+03  0.97927697645E+03  0.00000000000E+00 0. -1.
         -1   -1    0    0    0  501 -0.00000000000E+00 -0.00000000000E+00 -0.22274476606E+02  0.22274476606E+02  0.00000000000E+00 0.  1.
         25    2    1    2    0    0  0.71652096494E+02  0.60454298402E+02  0.39984858929E+03  0.42932026401E+03  0.12509296385E+03 0.  0.
          5    1    3    3  502    0  0.92154207902E+02  0.39874686725E+02  0.38193735774E+03  0.39493797781E+03  0.41800000000E+01 0. -1.
         -5    1    3    3    0  502 -0.20502111409E+02  0.20579611677E+02  0.17911231547E+02  0.34382286202E+02  0.41800000000E+01 0. -1.
        -11    1    1    2    0    0 -0.77829260049E+02 -0.24984694430E+02  0.48219385369E+03  0.48907314505E+03  0.00000000000E+00 0. -1.
         11    1    1    2    0    0  0.61771635549E+01 -0.35469603972E+02  0.74960056856E+02  0.83158043984E+02  0.00000000000E+00 0.  1.
</event>
<event>
 7    1  0.3265282E-009  0.1186670E+03  0.7561462E-02  0.1245312E+00
          3   -1    0    0  501    0  0.00000000000E+00  0.00000000000E+00  0.18682120672E+03  0.18682120672E+03  0.00000000000E+00 0. -1.
         -3   -1    0    0    0  501 -0.00000000000E+00 -0.00000000000E+00 -0.10125019622E+03  0.10125019622E+03  0.00000000000E+00 0.  1.
         25    2    1    2    0    0 -0.11278132724E+02 -0.79993995063E+02  0.65027576269E+02  0.16248853432E+03  0.12509077738E+03 0.  0.
          5    1    3    3  502    0  0.31881307727E+02  0.17224953864E+02 -0.22724596673E+01  0.36547958780E+02  0.41800000000E+01 0.  1.
         -5    1    3    3    0  502 -0.43159440451E+02 -0.97218948927E+02  0.67300035936E+02  0.12594057554E+03  0.41800000000E+01 0.  1.
        -11    1    1    2    0    0 -0.14324463824E+02  0.50159216595E+01 -0.28580749237E+02  0.32360608166E+02  0.00000000000E+00 0.  1.
         11    1    1    2    0    0  0.25602596548E+02  0.74978073404E+02  0.49124183472E+02  0.93222260448E+02  0.00000000000E+00 0. -1.
</event>
<event>
 7    1  0.3265282E-009  0.1005341E+03  0.7561462E-02  0.1279177E+00
          2   -1    0    0  501    0  0.00000000000E+00  0.00000000000E+00  0.67567551233E+02  0.67567551233E+02  0.00000000000E+00 0. -1.
         -2   -1    0    0    0  501 -0.00000000000E+00 -0.00000000000E+00 -0.23392799303E+03  0.23392799303E+03  0.00000000000E+00 0.  1.
         25    2    1    2    0    0  0.42388512209E+02  0.47170877030E+02 -0.84279128636E+02  0.16362094008E+03  0.12508782076E+03 0.  0.
          5    1    3    3  502    0  0.55540374794E+02  0.80204233694E+02 -0.82405865249E+02  0.12777187234E+03  0.41800000000E+01 0.  1.
         -5    1    3    3    0  502 -0.13151862585E+02 -0.33033356664E+02 -0.18732633866E+01  0.35849067737E+02  0.41800000000E+01 0.  1.
        -11    1    1    2    0    0 -0.26827516954E+02 -0.12455979713E+02  0.15318040818E+02  0.33309300068E+02  0.00000000000E+00 0. -1.
         11    1    1    2    0    0 -0.15560995255E+02 -0.34714897317E+02 -0.97399353981E+02  0.10456530412E+03  0.00000000000E+00 0.  1.
</event>
<event>
 7    1  0.3265282E-009  0.1103713E+03  0.7561462E-02  0.1259884E+00
         -1   -1    0    0    0  501 -0.00000000000E+00  0.00000000000E+00  0.25043029875E+03  0.25043029875E+03  0.00000000000E+00 0.  1.
          1   -1    0    0  501    0  0.00000000000E+00 -0.00000000000E+00 -0.56534110810E+02  0.56534110810E+02  0.00000000000E+00 0. -1.
         25    2    1    2    0    0  0.33850515033E+02  0.27881214474E+02  0.11528708529E+03  0.17567835012E+03  0.12509416923E+03 0.  0.
          5    1    3    3  502    0 -0.32400311555E+02 -0.26002869125E+02  0.62605191241E+02  0.75251656207E+02  0.41800000000E+01 0. -1.
         -5    1    3    3    0  502  0.66250826588E+02  0.53884083599E+02  0.52681894051E+02  0.10042669391E+03  0.41800000000E+01 0. -1.
        -11    1    1    2    0    0  0.75483912570E+01 -0.47203328484E+02  0.99682228228E+01  0.48831320858E+02  0.00000000000E+00 0. -1.
         11    1    1    2    0    0 -0.41398906290E+02  0.19322114010E+02  0.68640879823E+02  0.82454738583E+02  0.00000000000E+00 0.  1.
</event>
<event>
 7    1  0.3265282E-009  0.1149048E+03  0.7561462E-02  0.1251747E+00
         -2   -1    0    0    0  501 -0.00000000000E+00  0.00000000000E+00  0.26944054320E+02  0.26944054320E+02  0.00000000000E+00 0.  1.
          2   -1    0    0  501    0  0.00000000000E+00 -0.00000000000E+00 -0.55319100807E+03  0.55319100807E+03  0.00000000000E+00 0. -1.
         25    2    1    2    0    0 -0.21189261145E+01 -0.56668543439E+02 -0.30895460519E+03  0.33810732474E+03  0.12509117201E+03 0.  0.
          5    1    3    3  502    0  0.32493011626E+02  0.21117905978E+02 -0.17532042962E+03  0.17960091091E+03  0.41800000000E+01 0.  1.
         -5    1    3    3    0  502 -0.34611937741E+02 -0.77786449417E+02 -0.13363417557E+03  0.15850641384E+03  0.41800000000E+01 0.  1.
        -11    1    1    2    0    0  0.21492791853E+02 -0.18257129055E+02 -0.44308266466E+02  0.52521284640E+02  0.00000000000E+00 0.  1.
         11    1    1    2    0    0 -0.19373865739E+02  0.74925672493E+02 -0.17298408209E+03  0.18950645300E+03  0.00000000000E+00 0. -1.
</event>
<event>
 7    1  0.3265282E-009  0.9245687E+02  0.7561462E-02  0.1297009E+00
         -2   -1    0    0    0  501 -0.00000000000E+00  0.00000000000E+00  0.13788545126E+03  0.13788545126E+03  0.00000000000E+00 0. -1.
          2   -1    0    0  501    0  0.00000000000E+00 -0.00000000000E+00 -0.10982716564E+03  0.10982716564E+03  0.00000000000E+00 0.  1.
         25    2    1    2    0    0  0.53157692451E+02 -0.33773249434E+01 -0.83527962641E+01  0.13621666042E+03  0.12509221710E+03 0.  0.
          5    1    3    3  502    0  0.25801386353E+02  0.27701141118E+02 -0.59273441512E+02  0.70454794200E+02  0.41800000000E+01 0.  1.
         -5    1    3    3    0  502  0.27356306098E+02 -0.31078466062E+02  0.50920645248E+02  0.65761866219E+02  0.41800000000E+01 0.  1.
        -11    1    1    2    0    0 -0.46343156432E+02 -0.40052558789E+02  0.24301476067E+02  0.65897324321E+02  0.00000000000E+00 0.  1.
         11    1    1    2    0    0 -0.68145360186E+01  0.43429883733E+02  0.12109605822E+02  0.45598632165E+02  0.00000000000E+00 0. -1.
</event>
<event>
 7    1  0.3265282E-009  0.9963477E+02  0.7561462E-02  0.1281066E+00
          4   -1    0    0  501    0  0.00000000000E+00  0.00000000000E+00  0.14241474851E+03  0.14241474851E+03  0.00000000000E+00 0.  1.
         -4   -1    0    0    0  501 -0.00000000000E+00 -0.00000000000E+00 -0.14469350945E+03  0.14469350945E+03  0.00000000000E+00 0. -1.
         25    2    1    2    0    0 -0.42739024192E+01 -0.10698750673E+02  0.91996985347E+02  0.15570380638E+03  0.12508996963E+03 0.  0.
          5    1    3    3  502    0  0.37125079662E+02 -0.51759482453E+02  0.65698280158E+02  0.91602685438E+02  0.41800000000E+01 0.  1.
         -5    1    3    3    0  502 -0.41398982081E+02  0.41060731780E+02  0.26298705189E+02  0.64101120944E+02  0.41800000000E+01 0.  1.
        -11    1    1    2    0    0  0.13505791540E+02 -0.31240131125E+02 -0.78950630114E+01  0.34938291569E+02  0.00000000000E+00 0.  1.
         11    1    1    2    0    0 -0.92318891204E+01  0.41938881797E+02 -0.86380683274E+02  0.96466160005E+02  0.00000000000E+00 0. -1.
</event>
<event>
 7    1  0.3265282E-009  0.1430358E+03  0.7561462E-02  0.1209301E+00
         -2   -1    0    0    0  501 -0.00000000000E+00  0.00000000000E+00  0.16828136454E+03  0.16828136454E+03  0.00000000000E+00 0. -1.
          2   -1    0    0  501    0  0.00000000000E+00 -0.00000000000E+00 -0.27340609878E+03  0.27340609878E+03  0.00000000000E+00 0.  1.
         25    2    1    2    0    0  0.38385820864E+02  0.94484788081E+02  0.10395223389E+03  0.19197356742E+03  0.12508771816E+03 0.  0.
          5    1    3    3  502    0  0.37028833966E+02 -0.15653559151E+02  0.62047356646E+02  0.74050761817E+02  0.41800000000E+01 0. -1.
         -5    1    3    3    0  502  0.13569868981E+01  0.11013834723E+03  0.41904877246E+02  0.11792280560E+03  0.41800000000E+01 0. -1.
        -11    1    1    2    0    0  0.28553452054E+02 -0.39842261601E+02 -0.60827996711E+02  0.78120103799E+02  0.00000000000E+00 0.  1.
         11    1    1    2    0    0 -0.66939272918E+02 -0.54642526480E+02 -0.14824897143E+03  0.17159379210E+03  0.00000000000E+00 0. -1.
</event>
<event>
 7    1  0.3265282E-009  0.8214264E+02  0.7561462E-02  0.1323079E+00
          2   -1    0    0  501    0  0.00000000000E+00  0.00000000000E+00  0.15634779535E+03  0.15634779535E+03  0.00000000000E+00 0.  1.
         -2   -1    0    0    0  501 -0.00000000000E+00 -0.00000000000E+00 -0.80750767760E+02  0.80750767760E+02  0.00000000000E+00 0. -1.
         25    2    1    2    0    0  0.15893067843E+02  0.23148266569E+02  0.26239244990E+02  0.13085841592E+03  0.12508794981E+03 0.  0.
          5    1    3    3  502    0 -0.26730457309E+02  0.12081721768E+02 -0.40870753213E+02  0.50481444285E+02  0.41800000000E+01 0.  1.
         -5    1    3    3    0  502  0.42623525152E+02  0.11066544801E+02  0.67109998203E+02  0.80376971634E+02  0.41800000000E+01 0.  1.
        -11    1    1    2    0    0 -0.40882448059E+02  0.16061475946E+02  0.93668540000E+01  0.44911953005E+02  0.00000000000E+00 0.  1.
         11    1    1    2    0    0  0.24989380216E+02 -0.39209742515E+02  0.39990928597E+02  0.61328194182E+02  0.00000000000E+00 0. -1.
</event>
<event>
 7    1  0.3265282E-009  0.1032044E+03  0.7561462E-02  0.1273698E+00
          1   -1    0    0  501    0  0.00000000000E+00  0.00000000000E+00  0.24723765710E+03  0.24723765710E+03  0.00000000000E+00 0. -1.
         -1   -1    0    0    0  501 -0.00000000000E+00 -0.00000000000E+00 -0.55834505095E+02  0.55834505095E+02  0.00000000000E+00 0.  1.
         25    2    1    2    0    0  0.40134498494E+02  0.90009993608E+01  0.78333153796E+02  0.15321568454E+03  0.12508863676E+03 0.  0.
          5    1    3    3  502    0 -0.20613725485E+01  0.58644564325E+02  0.11801783333E+02  0.60001572242E+02  0.41800000000E+01 0. -1.
         -5    1    3    3    0  502  0.42195871043E+02 -0.49643564964E+02  0.66531370463E+02  0.93214112296E+02  0.41800000000E+01 0. -1.
        -11    1    1    2    0    0 -0.10981490590E+02 -0.38966873521E+02  0.96924538747E+02  0.10503988090E+03  0.00000000000E+00 0. -1.
         11    1    1    2    0    0 -0.29153007904E+02  0.29965874160E+02  0.16145459465E+02  0.44816596762E+02  0.00000000000E+00 0.  1.
</event>
<event>
 7    1  0.3265282E-009  0.9629648E+02  0.7561462E-02  0.1288283E+00
          4   -1    0    0  501    0  0.00000000000E+00  0.00000000000E+00  0.62524818027E+03  0.62524818027E+03  0.00000000000E+00 0. -1.
         -4   -1    0    0    0  501 -0.00000000000E+00 -0.00000000000E+00 -0.67575235819E+02  0.67575235819E+02  0.00000000000E+00 0.  1.
         25    2    1    2    0    0  0.52114183291E+02 -0.57671442903E+02  0.55012121767E+03  0.56949253053E+03  0.12508598950E+03 0.  0.
          5    1    3    3  502    0  0.56101195087E+02 -0.57234122470E+02  0.55569101652E+03  0.56145620230E+03  0.41800000000E+01 0.  1.
         -5    1    3    3    0  502 -0.39870117958E+01 -0.43732043279E+00 -0.55697988445E+01  0.80363282281E+01  0.41800000000E+01 0.  1.
        -11    1    1    2    0    0 -0.29323742825E+01  0.57288454616E+02  0.34809934098E+02  0.67099160674E+02  0.00000000000E+00 0. -1.
         11    1    1    2    0    0 -0.49181809008E+02  0.38298828639E+00 -0.27258207320E+02  0.56231724886E+02  0.00000000000E+00 0.  1.
</event>
<event>
 7    1  0.3265282E-009  0.1841075E+03  0.7561462E-02  0.1163886E+00
          1   -1    0    0  501    0  0.00000000000E+00  0.00000000000E+00  0.17972449428E+04  0.17972449428E+04  0.00000000000E+00 0. -1.
         -1   -1    0    0    0  501 -0.00000000000E+00 -0.00000000000E+00 -0.25593410198E+02  0.25593410198E+02  0.00000000000E+00 0.  1.
         25    2    1    2    0    0  0.38819825875E+02 -0.15879909264E+03  0.12851534978E+04  0.13015341573E+04  0.12509004408E+03 0.  0.
          5    1    3    3  502    0 -0.24807203258E+02 -0.58710164475E+02  0.20099614386E+03  0.21090093170E+03  0.41800000000E+01 0.  1.
         -5    1    3    3    0  502  0.63627029132E+02 -0.10008892816E+03  0.10841573539E+04  0.10906332256E+04  0.41800000000E+01 0.  1.
        -11    1    1    2    0    0 -0.57973152408E+02  0.54313468472E+02  0.17487276768E+03  0.19207114341E+03  0.00000000000E+00 0.  1.
         11    1    1    2    0    0  0.19153326534E+02  0.10448562417E+03  0.31162526715E+03  0.32923305226E+03  0.00000000000E+00 0. -1.
</event>
<event>
 7    1  0.3265282E-009  0.1180899E+03  0.7561462E-02  0.1246282E+00
         -1   -1    0    0    0  501 -0.00000000000E+00  0.00000000000E+00  0.42077501490E+02  0.42077501490E+02  0.00000000000E+00 0.  1.
          1   -1    0    0  501    0  0.00000000000E+00 -0.00000000000E+00 -0.53709972037E+03  0.53709972037E+03  0.00000000000E+00 0. -1.
         25    2    1    2    0    0  0.37855053340E+02  0.79984287274E+02 -0.36389060207E+03  0.39483523032E+03  0.12509195636E+03 0.  0.
          5    1    3    3  502    0  0.93625554944E+01 -0.30300319222E+02 -0.13990871507E+03  0.14351894559E+03  0.41800000000E+01 0. -1.
         -5    1    3    3    0  502  0.28492497845E+02  0.11028460650E+03 -0.22398188700E+03  0.25131628472E+03  0.41800000000E+01 0. -1.
        -11    1    1    2    0    0 -0.72145855227E+01 -0.35293749992E+02  0.63396731372E+01  0.36577185352E+02  0.00000000000E+00 0.  1.
         11    1    1    2    0    0 -0.30640467817E+02 -0.44690537282E+02 -0.13747128995E+03  0.14776480620E+03  0.00000000000E+00 0. -1.
</event>
<event>
 7    1  0.3265282E-009  0.2770701E+03  0.7561462E-02  0.1097300E+00
          2   -1    0    0  501    0  0.00000000000E+00  0.00000000000E+00  0.65465900151E+03  0.65465900151E+03  0.00000000000E+00 0. -1.
         -2   -1    0    0    0  501 -0.00000000000E+00 -0.00000000000E+00 -0.12660059440E+03  0.12660059440E+03  0.00000000000E+00 0.  1.
         25    2    1    2    0    0  0.13212278276E+02 -0.26220287004E+03  0.33286861931E+03  0.44201123687E+03  0.12508999337E+03 0.  0.
          5    1    3    3  502    0  0.50439831235E+02 -0.16583552128E+03  0.13872770035E+03  0.22205504709E+03  0.41800000000E+01 0. -1.
         -5    1    3    3    0  502 -0.37227552959E+02 -0.96367348759E+02  0.19414091896E+03  0.21995618978E+03  0.41800000000E+01 0. -1.
        -11    1    1    2    0    0  0.35831685878E+02  0.16048488589E+03  0.11099260004E+03  0.19839018518E+03  0.00000000000E+00 0. -1.
         11    1    1    2    0    0 -0.49043964154E+02  0.10171798415E+03  0.84197187760E+02  0.14085817387E+03  0.00000000000E+00 0.  1.
</event>
<event>
 7    1  0.3265282E-009  0.8703234E+02  0.7561462E-02  0.1310202E+00
         -1   -1    0    0    0  501 -0.00000000000E+00  0.00000000000E+00  0.34275660898E+02  0.34275660898E+02  0.00000000000E+00 0.  1.
          1   -1    0    0  501    0  0.00000000000E+00 -0.00000000000E+00 -0.36435776000E+03  0.36435776000E+03  0.00000000000E+00 0. -1.
         25    2    1    2    0    0  0.84352092384E+01 -0.16314402518E+02 -0.22495412407E+03  0.25804835337E+03  0.12508909727E+03 0.  0.
          5    1    3    3  502    0 -0.38742826443E+02  0.95955737885E+00 -0.19614967734E+03  0.19998523864E+03  0.41800000000E+01 0.  1.
         -5    1    3    3    0  502  0.47178035682E+02 -0.17273959897E+02 -0.28804446725E+02  0.58063114732E+02  0.41800000000E+01 0.  1.
        -11    1    1    2    0    0 -0.62641387032E+01  0.50263426243E+02 -0.31951481874E+02  0.59887800471E+02  0.00000000000E+00 0.  1.
         11    1    1    2    0    0 -0.21710705352E+01 -0.33949023725E+02 -0.73176493161E+02  0.80697267057E+02  0.00000000000E+00 0. -1.
</event>
<event>
 7    1  0.3265282E-009  0.1111388E+03  0.7561462E-02  0.1258475E+00
         -1   -1    0    0    0  501 -0.00000000000E+00  0.00000000000E+00  0.31291057851E+02  0.31291057851E+02  0.00000000000E+00 0.  1.
          1   -1    0    0  501    0  0.00000000000E+00 -0.00000000000E+00 -0.74607536028E+03  0.74607536028E+03  0.00000000000E+00 0. -1.
         25    2    1    2    0    0 -0.93512049775E+02  0.47151186286E+02 -0.46216629771E+03  0.49011536425E+03  0.12509055003E+03 0.  0.
          5    1    3    3  502    0 -0.84850458583E+02  0.44552132600E+02 -0.46855940053E+03  0.47827803323E+03  0.41800000000E+01 0. -1.
         -5    1    3    3    0  502 -0.86615911924E+01  0.25990536860E+01  0.63931028168E+01  0.11837331020E+02  0.41800000000E+01 0. -1.
        -11    1    1    2    0    0  0.79467137116E+02 -0.14411598118E+02 -0.90639307050E+02  0.12140100504E+03  0.00000000000E+00 0.  1.
         11    1    1    2    0    0  0.14044912659E+02 -0.32739588168E+02 -0.16197869766E+03  0.16585004884E+03  0.00000000000E+00 0. -1.
</event>
<event>
 7    1  0.3265282E-009  0.1341557E+03  0.7561462E-02  0.1221417E+00
         -1   -1    0    0    0  501 -0.00000000000E+00  0.00000000000E+00  0.10087206133E+03  0.10087206133E+03  0.00000000000E+00 0.  1.
          1   -1    0    0  501    0  0.00000000000E+00 -0.00000000000E+00 -0.19526966369E+03  0.19526966369E+03  0.00000000000E+00 0. -1.
         25    2    1    2    0    0  0.41958712373E+02  0.75173853647E+02 -0.76579942932E+02  0.17006272206E+03  0.12508077374E+03 0.  0.
          5    1    3    3  502    0  0.34365518619E+02 -0.29217103023E+02 -0.35469424403E+02  0.57534167644E+02  0.41800000000E+01 0. -1.
         -5    1    3    3    0  502  0.75931937543E+01  0.10439095667E+03 -0.41110518529E+02  0.11252855442E+03  0.41800000000E+01 0. -1.
        -11    1    1    2    0    0 -0.60630346590E+02 -0.78610656213E+02 -0.29771690461E+02  0.10364375404E+03  0.00000000000E+00 0. -1.
         11    1    1    2    0    0  0.18671634217E+02  0.34368025664E+01  0.11954031038E+02  0.22435248924E+02  0.00000000000E+00 0.  1.
</event>
<event>
 7    1  0.3265282E-009  0.6559716E+02  0.7561462E-02  0.1375739E+00
         -1   -1    0    0    0  501 -0.00000000000E+00  0.00000000000E+00  0.24464572511E+03  0.24464572511E+03  0.00000000000E+00 0.  1.
          1   -1    0    0  501    0  0.00000000000E+00 -0.00000000000E+00 -0.53497936636E+02  0.53497936636E+02  0.00000000000E+00 0. -1.
         25    2    1    2    0    0 -0.25166965502E+02  0.45429050059E+01  0.73386567068E+02  0.14726650197E+03  0.12509124764E+03 0.  0.
          5    1    3    3  502    0 -0.77453169836E+01  0.14601780893E+02  0.10673960179E+03  0.10809263125E+03  0.41800000000E+01 0.  1.
         -5    1    3    3    0  502 -0.17421648518E+02 -0.10058875887E+02 -0.33353034725E+02  0.39173870712E+02  0.41800000000E+01 0.  1.
        -11    1    1    2    0    0  0.52789849713E+02 -0.25786654917E+02  0.82696815379E+02  0.10144201831E+03  0.00000000000E+00 0.  1.
         11    1    1    2    0    0 -0.27622884211E+02  0.21243749911E+02  0.35064406030E+02  0.49435141475E+02  0.00000000000E+00 0. -1.
</event>
<event>
 7    1  0.3265282E-009  0.9543762E+02  0.7561462E-02  0.1290193E+00
         -2   -1    0    0    0  501 -0.00000000000E+00  0.00000000000E+00  0.22431385986E+03  0.22431385986E+03  0.00000000000E+00 0.  1.
          2   -1    0    0  501    0  0.00000000000E+00 -0.00000000000E+00 -0.61603645528E+02  0.61603645528E+02  0.00000000000E+00 0. -1.
         25    2    1    2    0    0  0.20142376576E+01 -0.10297897114E+02  0.14377564795E+03  0.19086416128E+03  0.12509031650E+03 0.  0.
          5    1    3    3  502    0 -0.12932450154E+02  0.48008041544E+02  0.21137988000E+02  0.54187703925E+02  0.41800000000E+01 0.  1.
         -5    1    3    3    0  502  0.14946687812E+02 -0.58305938659E+02  0.12263765995E+03  0.13667645736E+03  0.41800000000E+01 0.  1.
        -11    1    1    2    0    0  0.20701706306E+02  0.38932070315E+02 -0.13575925018E+02  0.46136455034E+02  0.00000000000E+00 0.  1.
         11    1    1    2    0    0 -0.22715943964E+02 -0.28634173201E+02  0.32510491404E+02  0.48916889071E+02  0.00000000000E+00 0. -1.
</event>
<event>
 7    1  0.3265282E-009  0.1103449E+03  0.7561462E-02  0.1259933E+00
          1   -1    0    0  501    0  0.00000000000E+00  0.00000000000E+00  0.27823481329E+02  0.27823481329E+02  0.00000000000E+00 0. -1.
         -1   -1    0    0    0  501 -0.00000000000E+00 -0.00000000000E+00 -0.51973801703E+03  0.51973801703E+03  0.00000000000E+00 0.  1.
         25    2    1    2    0    0 -0.41222259644E+02  0.27313083869E+02 -0.31732938388E+03  0.34466010870E+03  0.12508946162E+03 0.  0.
          5    1    3    3  502    0  0.23261351140E+02  0.45097748110E+02 -0.22427726029E+03  0.22998404124E+03  0.41800000000E+01 0.  1.
         -5    1    3    3    0  502 -0.64483610784E+02 -0.17784664241E+02 -0.93052123596E+02  0.11467606746E+03  0.41800000000E+01 0.  1.
        -11    1    1    2    0    0 -0.28717707431E+02 -0.12182647014E+02 -0.63756780123E+02  0.70979226680E+02  0.00000000000E+00 0.  1.
         11    1    1    2    0    0  0.69939967076E+02 -0.15130436854E+02 -0.11082837169E+03  0.13192216298E+03  0.00000000000E+00 0. -1.
</event>
<event>
 7    1  0.3265282E-009  0.1062422E+03  0.7561462E-02  0.1267691E+00
          1   -1    0    0  501    0  0.00000000000E+00  0.00000000000E+00  0.12836472273E+03  0.12836472273E+03  0.00000000000E+00 0. -1.
         -1   -1    0    0    0  501 -0.00000000000E+00 -0.00000000000E+00 -0.16395741073E+03  0.16395741073E+03  0.00000000000E+00 0.  1.
         25    2    1    2    0    0 -0.49797481258E+02  0.19206826864E+02  0.63539301462E+02  0.15012295792E+03  0.12510383018E+03 0.  0.
          5    1    3    3  502    0 -0.35396581731E+02 -0.50564582653E+02  0.44670271272E+02  0.76305966691E+02  0.41800000000E+01 0. -1.
         -5    1    3    3    0  502 -0.14400899527E+02  0.69771409518E+02  0.18869030190E+02  0.73816991225E+02  0.41800000000E+01 0. -1.
        -11    1    1    2    0    0  0.29573094630E+02  0.19611446884E+02 -0.18609710039E+01  0.35533645858E+02  0.00000000000E+00 0. -1.
         11    1    1    2    0    0  0.20224386627E+02 -0.38818273748E+02 -0.97271018456E+02  0.10666552968E+03  0.00000000000E+00 0.  1.
</event>
<event>
 7    1  0.3265282E-009  0.1048604E+03  0.7561462E-02  0.1270395E+00
         -1   -1    0    0    0  501 -0.00000000000E+00  0.00000000000E+00  0.72722883128E+03  0.72722883128E+03  0.00000000000E+00 0.  1.
          1   -1    0    0  501    0  0.00000000000E+00 -0.00000000000E+00 -0.18773204408E+02  0.18773204408E+02  0.00000000000E+00 0. -1.
         25    2    1    2    0    0 -0.38850549744E+02  0.11145521586E+02  0.45489958492E+03  0.47351342236E+03  0.12509093066E+03 0.  0.
          5    1    3    3  502    0 -0.23200953529E+02  0.64631600717E+02  0.32330924058E+03  0.33054782634E+03  0.41800000000E+01 0. -1.
         -5    1    3    3    0  502 -0.15649596215E+02 -0.53486079131E+02  0.13159034434E+03  0.14296559602E+03  0.41800000000E+01 0. -1.
        -11    1    1    2    0    0  0.14582883578E+02  0.32207887068E+02  0.18183210470E+03  0.18523747673E+03  0.00000000000E+00 0.  1.
         11    1    1    2    0    0  0.24267666166E+02 -0.43353408654E+02  0.71723937257E+02  0.87251136604E+02  0.00000000000E+00 0. -1.
</event>
<event>
 7    1  0.3265282E-009  0.1158441E+03  0.7561462E-02  0.1250115E+00
         -2   -1    0    0    0  501 -0.00000000000E+00  0.00000000000E+00  0.14995236956E+03  0.14995236956E+03  0.00000000000E+00 0.  1.
          2   -1    0    0  501    0  0.00000000000E+00 -0.00000000000E+00 -0.91668057224E+02  0.91668057224E+02  0.00000000000E+00 0. -1.
         25    2    1    2    0    0  0.35256845750E+02 -0.25146004144E+02  0.16010398943E+02  0.13333675864E+03  0.12508793560E+03 0.  0.
          5    1    3    3  502    0 -0.13690258355E+02 -0.66550444585E+02  0.63499040228E+01  0.68367964204E+02  0.41800000000E+01 0. -1.
         -5    1    3    3    0  502  0.48947104105E+02  0.41404440440E+02  0.96604949199E+01  0.64968794437E+02  0.41800000000E+01 0. -1.
        -11    1    1    2    0    0  0.13635688281E+02 -0.25535636912E+02  0.16324118574E+02  0.33233681629E+02  0.00000000000E+00 0. -1.
         11    1    1    2    0    0 -0.48892534032E+02  0.50681641056E+02  0.25949794815E+02  0.75049986510E+02  0.00000000000E+00 0.  1.
</event>
<event>
 7    1  0.3265282E-009  0.1141687E+03  0.7561462E-02  0.1253039E+00
          1   -1    0    0  501    0  0.00000000000E+00  0.00000000000E+00  0.21666323160E+03  0.21666323160E+03  0.00000000000E+00 0. -1.
         -1   -1    0    0    0  501 -0.00000000000E+00 -0.00000000000E+00 -0.76348654165E+02  0.76348654165E+02  0.00000000000E+00 0.  1.
         25    2    1    2    0    0  0.33850554990E+01 -0.53702388649E+02  0.28828615621E+02  0.13918930306E+03  0.12508864002E+03 0.  0.
          5    1    3    3  502    0 -0.20916340099E+02  0.30927442077E+02 -0.15355738180E+02  0.40586587090E+02  0.41800000000E+01 0.  1.
         -5    1    3    3    0  502  0.24301395598E+02 -0.84629830726E+02  0.44184353801E+02  0.98602715974E+02  0.41800000000E+01 0.  1.
        -11    1    1    2    0    0  0.36743865623E+02  0.50375553247E+02  0.85791167947E+02  0.10605627055E+03  0.00000000000E+00 0. -1.
         11    1    1    2    0    0 -0.40128921123E+02  0.33268354022E+01  0.25694793868E+02  0.47766312148E+02  0.00000000000E+00 0.  1.
</event>
<event>
 7    1  0.3265282E-009  0.1478622E+03  0.7561462E-02  0.1203125E+00
          2   -1    0    0  501    0  0.00000000000E+00  0.00000000000E+00  0.92623115206E+03  0.92623115206E+03  0.00000000000E+00 0. -1.
         -2   -1    0    0    0  501 -0.00000000000E+00 -0.00000000000E+00 -0.29484020142E+02  0.29484020142E+02  0.00000000000E+00 0.  1.
         25    2    1    2    0    0 -0.12460123009E+00  0.12103413761E+03  0.39363668460E+03  0.43040208706E+03  0.12508732585E+03 0.  0.
          5    1    3    3  502    0  0.39674896991E+02  0.58246968050E+02  0.74270014240E+02  0.10247104056E+03  0.41800000000E+01 0. -1.
         -5    1    3    3    0  502 -0.39799498221E+02  0.62787169556E+02  0.31936667036E+03  0.32793104650E+03  0.41800000000E+01 0. -1.
        -11    1    1    2    0    0 -0.13263964168E+02  0.11442502156E+02  0.72498610320E+02  0.74584932121E+02  0.00000000000E+00 0. -1.
         11    1    1    2    0    0  0.13388565398E+02 -0.13247663976E+03  0.43061183699E+03  0.45072815302E+03  0.00000000000E+00 0.  1.
</event>
<event>
 7    1  0.3265282E-009  0.1271053E+03  0.7561462E-02  0.1231815E+00
          4   -1    0    0  501    0  0.00000000000E+00  0.00000000000E+00  0.38190154772E+02  0.38190154772E+02  0.00000000000E+00 0. -1.
         -4   -1    0    0    0  501 -0.00000000000E+00 -0.00000000000E+00 -0.73439052613E+03  0.73439052613E+03  0.00000000000E+00 0.  1.
         25    2    1    2    0    0  0.79349703986E+02 -0.70388429906E+01 -0.14120972847E+03  0.20477607096E+03  0.12508849262E+03 0.  0.
          5    1    3    3  502    0  0.63894816614E+01  0.49194771476E+02 -0.22960229247E+02  0.54823312045E+02  0.41800000000E+01 0. -1.
         -5    1    3    3    0  502  0.72960222325E+02 -0.56233614466E+02 -0.11824949923E+03  0.14995275891E+03  0.41800000000E+01 0. -1.
        -11    1    1    2    0    0  0.84932379179E+01 -0.18818305996E+02 -0.43119790641E+02  0.47807740752E+02  0.00000000000E+00 0.  1.
         11    1    1    2    0    0 -0.87842941904E+02  0.25857148987E+02 -0.51187085224E+03  0.51999686919E+03  0.00000000000E+00 0. -1.
</event>
<event>
 7    1  0.3265282E-009  0.7701138E+02  0.7561462E-02  0.1337753E+00
          1   -1    0    0  501    0  0.00000000000E+00  0.00000000000E+00  0.50823841750E+02  0.50823841750E+02  0.00000000000E+00 0. -1.
         -1   -1    0    0    0  501 -0.00000000000E+00 -0.00000000000E+00 -0.28696154223E+03  0.28696154223E+03  0.00000000000E+00 0.  1.
         25    2    1    2    0    0  0.47963619895E+02  0.19510314153E+02 -0.15716759411E+03  0.20743758022E+03  0.12509011095E+03 0.  0.
          5    1    3    3  502    0  0.21967448263E+02 -0.48588701977E+01 -0.16831934793E+03  0.16986775059E+03  0.41800000000E+01 0.  1.
         -5    1    3    3    0  502  0.25996171632E+02  0.24369184351E+02  0.11151753820E+02  0.37569829633E+02  0.41800000000E+01 0.  1.
        -11    1    1    2    0    0 -0.47177257755E+02  0.23180623969E+02 -0.68573133905E+02  0.86402023532E+02  0.00000000000E+00 0.  1.
         11    1    1    2    0    0 -0.78636214021E+00 -0.42690938122E+02 -0.10396972465E+02  0.43945780225E+02  0.00000000000E+00 0. -1.
</event>
<event>
 7    1  0.3265282E-009  0.1166613E+03  0.7561462E-02  0.1248709E+00
         -1   -1    0    0    0  501 -0.00000000000E+00  0.00000000000E+00  0.26432800157E+02  0.26432800157E+02  0.00000000000E+00 0.  1.
          1   -1    0    0  501    0  0.00000000000E+00 -0.00000000000E+00 -0.54924586293E+03  0.54924586293E+03  0.00000000000E+00 0. -1.
         25    2    1    2    0    0  0.44277435029E+02  0.12920578935E+02 -0.23686186135E+03  0.27180534501E+03  0.12508865497E+03 0.  0.
          5    1    3    3  502    0  0.85803194818E+02 -0.50068090909E+01 -0.17549567830E+03  0.19545705892E+03  0.41800000000E+01 0. -1.
         -5    1    3    3    0  502 -0.41525759790E+02  0.17927388026E+02 -0.61366183046E+02  0.76348286091E+02  0.41800000000E+01 0. -1.
        -11    1    1    2    0    0 -0.67430005737E+02  0.11268603454E+02 -0.21057352424E+03  0.22139330660E+03  0.00000000000E+00 0. -1.
         11    1    1    2    0    0  0.23152570708E+02 -0.24189182389E+02 -0.75377677186E+02  0.82480011476E+02  0.00000000000E+00 0.  1.
</event>
<event>
 7    1  0.3265282E-009  0.2242935E+03  0.7561462E-02  0.1130722E+00
          1   -1    0    0  501    0  0.00000000000E+00  0.00000000000E+00  0.19277465033E+04  0.19277465033E+04  0.00000000000E+00 0. -1.
         -1   -1    0    0    0  501 -0.00000000000E+00 -0.00000000000E+00 -0.34616327496E+02  0.34616327496E+02  0.00000000000E+00 0.  1.
         25    2    1    2    0    0 -0.16108887730E+03 -0.13207176091E+03  0.13845800412E+04  0.14057392021E+04  0.12509291507E+03 0.  0.
          5    1    3    3  502    0 -0.88311330427E+02 -0.14137055232E+03  0.85748853031E+03  0.87354941254E+03  0.41800000000E+01 0. -1.
         -5    1    3    3    0  502 -0.72777546870E+02  0.92987914067E+01  0.52709151090E+03  0.53218978956E+03  0.41800000000E+01 0. -1.
        -11    1    1    2    0    0  0.49907815724E+02  0.38192414548E+02  0.67673179333E+02  0.92353179699E+02  0.00000000000E+00 0.  1.
         11    1    1    2    0    0  0.11118106157E+03  0.93879346366E+02  0.44087695525E+03  0.46427044898E+03  0.00000000000E+00 0. -1.
</event>
<event>
 7    1  0.3265282E-009  0.8108144E+02  0.7561462E-02  0.1326010E+00
         -2   -1    0    0    0  501 -0.00000000000E+00  0.00000000000E+00  0.49890917425E+02  0.49890917425E+02  0.00000000000E+00 0.  1.
          2   -1    0    0  501    0  0.00000000000E+00 -0.00000000000E+00 -0.32416835891E+03  0.32416835891E+03  0.00000000000E+00 0. -1.
         25    2    1    2    0    0 -0.47780602767E+02  0.37807797028E+01 -0.84005757407E+02  0.15812174496E+03  0.12509292009E+03 0.  0.
          5    1    3    3  502    0 -0.60296113046E+02 -0.63030910492E+01 -0.11093197450E+03  0.12648606868E+03  0.41800000000E+01 0.  1.
         -5    1    3    3    0  502  0.12515510280E+02  0.10083870752E+02  0.26926217088E+02  0.31635676278E+02  0.41800000000E+01 0.  1.
        -11    1    1    2    0    0 -0.17318527514E+02 -0.89290177101E+01 -0.59241572717E+01  0.20365519682E+02  0.00000000000E+00 0.  1.
         11    1    1    2    0    0  0.65099130281E+02  0.51482380074E+01 -0.18434752681E+03  0.19557201169E+03  0.00000000000E+00 0. -1.
</event>
<event>
 7    1  0.3265282E-009  0.1115045E+03  0.7561462E-02  0.1257809E+00
         -1   -1    0    0    0  501 -0.00000000000E+00  0.00000000000E+00  0.87761798993E+02  0.87761798993E+02  0.00000000000E+00 0.  1.
          1   -1    0    0  501    0  0.00000000000E+00 -0.00000000000E+00 -0.19378153404E+03  0.19378153404E+03  0.00000000000E+00 0. -1.
         25    2    1    2    0    0  0.66996073871E+02 -0.19669575887E+02 -0.37352160531E+02  0.14804863064E+03  0.12509135465E+03 0.  0.
          5    1    3    3  502    0  0.91846191171E+02  0.16130287748E+02 -0.47549944574E+01  0.93466525493E+02  0.41800000000E+01 0. -1.
         -5    1    3    3    0  502 -0.24850117300E+02 -0.35799863636E+02 -0.32597166073E+02  0.54582105146E+02  0.41800000000E+01 0. -1.
        -11    1    1    2    0    0 -0.30349088607E+02  0.34854346318E+02  0.82539823535E+01  0.46947000556E+02  0.00000000000E+00 0.  1.
         11    1    1    2    0    0 -0.36646985264E+02 -0.15184770431E+02 -0.76921556871E+02  0.86547701838E+02  0.00000000000E+00 0. -1.
</event>
<event>
 7    1  0.3265282E-009  0.2314088E+03  0.7561462E-02  0.1125652E+00
          1   -1    0    0  501    0  0.00000000000E+00  0.00000000000E+00  0.56003982571E+03  0.56003982571E+03  0.00000000000E+00 0. -1.
         -1   -1    0    0    0  501 -0.00000000000E+00 -0.00000000000E+00 -0.98714406933E+02  0.98714406933E+02  0.00000000000E+00 0.  1.
         25    2    1    2    0    0 -0.20813509891E+03 -0.16252891561E+01  0.22934241350E+03  0.33401979924E+03  0.12509365565E+03 0.  0.
          5    1    3    3  502    0 -0.17415874004E+03  0.49096339834E+02  0.16045016791E+03  0.24187485628E+03  0.41800000000E+01 0. -1.
         -5    1    3    3    0  502 -0.33976358876E+02 -0.50721628990E+02  0.68892245595E+02  0.92144942960E+02  0.41800000000E+01 0. -1.
        -11    1    1    2    0    0  0.50408319722E+01 -0.15997101108E+02  0.12107474759E+01  0.16816157120E+02  0.00000000000E+00 0.  1.
         11    1    1    2    0    0  0.20309426694E+03  0.17622390264E+02  0.23077225780E+03  0.30791827629E+03  0.00000000000E+00 0. -1.
</event>
<event>
 7    1  0.3265282E-009  0.1656513E+03  0.7561462E-02  0.1182460E+00
          2   -1    0    0  501    0  0.00000000000E+00  0.00000000000E+00  0.83864590149E+02  0.83864590149E+02  0.00000000000E+00 0. -1.
         -2   -1    0    0    0  501 -0.00000000000E+00 -0.00000000000E+00 -0.36125187676E+03  0.36125187676E+03  0.00000000000E+00 0.  1.
         25    2    1    2    0    0  0.10953749494E+03 -0.79858799925E+02 -0.12910788280E+03  0.22515567517E+03  0.12510132668E+03 0.  0.
          5    1    3    3  502    0  0.47688224939E+02 -0.98969948756E+02 -0.11435289566E+03  0.15862936267E+03  0.41800000000E+01 0.  1.
         -5    1    3    3    0  502  0.61849270006E+02  0.19111148831E+02 -0.14754987141E+02  0.66526312505E+02  0.41800000000E+01 0.  1.
        -11    1    1    2    0    0 -0.17895113399E+02 -0.15907779829E+02 -0.44235007832E+01  0.24348714582E+02  0.00000000000E+00 0. -1.
         11    1    1    2    0    0 -0.91642381546E+02  0.95766579753E+02 -0.14385590302E+03  0.19561207715E+03  0.00000000000E+00 0.  1.
</event>
<event>
 7    1  0.3265282E-009  0.9858394E+02  0.7561462E-02  0.1283302E+00
         -1   -1    0    0    0  501 -0.00000000000E+00  0.00000000000E+00  0.18299968810E+02  0.18299968810E+02  0.00000000000E+00 0.  1.
          1   -1    0    0  501    0  0.00000000000E+00 -0.00000000000E+00 -0.70190624950E+03  0.70190624950E+03  0.00000000000E+00 0. -1.
         25    2    1    2    0    0 -0.51529858040E+02 -0.41597044248E+02 -0.49078797219E+03  0.51078945025E+03  0.12508952189E+03 0.  0.
          5    1    3    3  502    0 -0.56010236007E+02  0.15602122881E+02 -0.99680994702E+02  0.11547443821E+03  0.41800000000E+01 0. -1.
         -5    1    3    3    0  502  0.44803779677E+01 -0.57199167129E+02 -0.39110697748E+03  0.39531501204E+03  0.41800000000E+01 0. -1.
        -11    1    1    2    0    0 -0.89945546044E+01  0.84537860749E+01 -0.36934622044E+02  0.38942711989E+02  0.00000000000E+00 0.  1.
         11    1    1    2    0    0  0.60524412644E+02  0.33143258173E+02 -0.15588368646E+03  0.17047405607E+03  0.00000000000E+00 0. -1.
</event>
<event>
 7    1  0.3265282E-009  0.1008282E+03  0.7561462E-02  0.1278564E+00
          2   -1    0    0  501    0  0.00000000000E+00  0.00000000000E+00  0.17604314482E+03  0.17604314482E+03  0.00000000000E+00 0. -1.
         -2   -1    0    0    0  501 -0.00000000000E+00 -0.00000000000E+00 -0.83465489729E+02  0.83465489729E+02  0.00000000000E+00 0.  1.
         25    2    1    2    0    0 -0.45594404118E+02 -0.20795505246E+02  0.71808462689E+02  0.15269331723E+03  0.12508993200E+03 0.  0.
          5    1    3    3  502    0  0.56495604471E+01 -0.47145147135E+02 -0.13610758790E+02  0.49571237492E+02  0.41800000000E+01 0. -1.
         -5    1    3    3    0  502 -0.51243964565E+02  0.26349641889E+02  0.85419221480E+02  0.10312207974E+03  0.41800000000E+01 0. -1.
        -11    1    1    2    0    0  0.66668806689E+02  0.83551661736E-01  0.33533979276E+02  0.74627505199E+02  0.00000000000E+00 0. -1.
         11    1    1    2    0    0 -0.21074402571E+02  0.20711953584E+02 -0.12764786873E+02  0.32187812117E+02  0.00000000000E+00 0.  1.
</event>
<event>
 7    1  0.3265282E-009  0.1148791E+03  0.7561462E-02  0.1251792E+00
         -1   -1    0    0    0  501 -0.00000000000E+00  0.00000000000E+00  0.42254081407E+02  0.42254081407E+02  0.00000000000E+00 0.  1.
          1   -1    0    0  501    0  0.00000000000E+00 -0.00000000000E+00 -0.48227391805E+03  0.48227391805E+03  0.00000000000E+00 0. -1.
         25    2    1    2    0    0  0.37743072242E+02  0.51341107781E+02 -0.36299680747E+03  0.38919207283E+03  0.12507333238E+03 0.  0.
          5    1    3    3  502    0  0.14601621100E+01 -0.29603927232E+02 -0.22887940962E+02  0.37680961007E+02  0.41800000000E+01 0.  1.
         -5    1    3    3    0  502  0.36282910132E+02  0.80945035013E+02 -0.34010886650E+03  0.35151111182E+03  0.41800000000E+01 0.  1.
        -11    1    1    2    0    0  0.10823499805E+02  0.21153909915E+02 -0.20372615460E+02  0.31299832481E+02  0.00000000000E+00 0.  1.
         11    1    1    2    0    0 -0.48566572047E+02 -0.72495017696E+02 -0.56650413723E+02  0.10403609415E+03  0.00000000000E+00 0. -1.
</event>
<event>
 7    1  0.3265282E-009  0.3149164E+03  0.7561462E-02  0.1078013E+00
          1   -1    0    0  501    0  0.00000000000E+00  0.00000000000E+00  0.16589361174E+04  0.16589361174E+04  0.00000000000E+00 0. -1.
         -1   -1    0    0    0  501 -0.00000000000E+00 -0.00000000000E+00 -0.65033512450E+02  0.65033512450E+02  0.00000000000E+00 0.  1.
         25    2    1    2    0    0  0.79676924122E+02 -0.29775561079E+03  0.88510371102E+03  0.94554900068E+03  0.12509003733E+03 0.  0.
          5    1    3    3  502    0  0.58361929994E+02 -0.27040653374E+03  0.85751612967E+03  0.90104228170E+03  0.41800000000E+01 0. -1.
         -5    1    3    3    0  502  0.21314994128E+02 -0.27349077047E+02  0.27587581344E+02  0.44506718981E+02  0.41800000000E+01 0. -1.
        -11    1    1    2    0    0 -0.51503097287E+02  0.61077526647E+02  0.23189354955E+03  0.24527056818E+03  0.00000000000E+00 0.  1.
         11    1    1    2    0    0 -0.28173826835E+02  0.23667808414E+03  0.47690534436E+03  0.53315006097E+03  0.00000000000E+00 0. -1.
</event>
<event>
 7    1  0.3265282E-009  0.1716226E+03  0.7561462E-02  0.1176166E+00
         -1   -1    0    0    0  501 -0.00000000000E+00  0.00000000000E+00  0.19877368342E+03  0.19877368342E+03  0.00000000000E+00 0.  1.
          1   -1    0    0  501    0  0.00000000000E+00 -0.00000000000E+00 -0.15807724005E+03  0.15807724005E+03  0.00000000000E+00 0. -1.
         25    2    1    2    0    0 -0.66345773889E+02 -0.12229605456E+03  0.40160034307E+02  0.19135891565E+03  0.12508924641E+03 0.  0.
          5    1    3    3  502    0 -0.83264154107E+02 -0.33103116955E+02  0.44990456128E+02  0.10035112981E+03  0.41800000000E+01 0. -1.
         -5    1    3    3    0  502  0.16918380218E+02 -0.89192937607E+02 -0.48304218208E+01  0.91007785838E+02  0.41800000000E+01 0. -1.
        -11    1    1    2    0    0  0.79712135793E+01  0.99781013857E+02 -0.14502045793E+02  0.10114395832E+03  0.00000000000E+00 0.  1.
         11    1    1    2    0    0  0.58374560310E+02  0.22515040705E+02  0.15038454857E+02  0.64348049495E+02  0.00000000000E+00 0. -1.
</event>
<event>
 7    1  0.3265282E-009  0.8861291E+02  0.7561462E-02  0.1306246E+00
         -1   -1    0    0    0  501 -0.00000000000E+00  0.00000000000E+00  0.14505465403E+03  0.14505465403E+03  0.00000000000E+00 0.  1.
          1   -1    0    0  501    0  0.00000000000E+00 -0.00000000000E+00 -0.10434427398E+03  0.10434427398E+03  0.00000000000E+00 0. -1.
         25    2    1    2    0    0  0.45780434078E+02  0.11368789816E+02 -0.11242003549E+02  0.13415519216E+03  0.12508451308E+03 0.  0.
          5    1    3    3  502    0 -0.17884072380E+02 -0.39169448001E+02  0.19100955861E+02  0.47290639839E+02  0.41800000000E+01 0. -1.
         -5    1    3    3    0  502  0.63664506458E+02  0.50538237817E+02 -0.30342959409E+02  0.86864552321E+02  0.41800000000E+01 0. -1.
        -11    1    1    2    0    0 -0.47615048940E+01 -0.10516196673E+02  0.69622160250E+02  0.70572710867E+02  0.00000000000E+00 0.  1.
         11    1    1    2    0    0 -0.41018929184E+02 -0.85259314391E+00 -0.17669776644E+02  0.44671024984E+02  0.00000000000E+00 0. -1.
</event>
<event>
 7    1  0.3265282E-009  0.8812780E+02  0.7561462E-02  0.1307450E+00
         -1   -1    0    0    0  501 -0.00000000000E+00  0.00000000000E+00  0.22677286107E+03  0.22677286107E+03  0.00000000000E+00 0. -1.
          1   -1    0    0  501    0  0.00000000000E+00 -0.00000000000E+00 -0.89432522336E+02  0.89432522336E+02  0.00000000000E+00 0.  1.
         25    2    1    2    0    0  0.43397439887E+02  0.46138625171E+02  0.25741711937E+00  0.14021617900E+03  0.12509356525E+03 0.  0.
          5    1    3    3  502    0  0.15644008108E+02 -0.10441049129E+02  0.53970236688E+02  0.57306276661E+02  0.41800000000E+01 0.  1.
         -5    1    3    3    0  502  0.27753431779E+02  0.56579674300E+02 -0.53712819569E+02  0.82909902336E+02  0.41800000000E+01 0.  1.
        -11    1    1    2    0    0  0.39803076322E+01 -0.46281231328E+02  0.21725462272E+02  0.51281487235E+02  0.00000000000E+00 0.  1.
         11    1    1    2    0    0 -0.47377747519E+02  0.14260615772E+00  0.11535745934E+03  0.12470771717E+03  0.00000000000E+00 0. -1.
</event>
<event>
 7    1  0.3265282E-009  0.1470516E+03  0.7561462E-02  0.1204143E+00
         -2   -1    0    0    0  501 -0.00000000000E+00  0.00000000000E+00  0.13415270063E+02  0.13415270063E+02  0.00000000000E+00 0.  1.
          2   -1    0    0  501    0  0.00000000000E+00 -0.00000000000E+00 -0.16747175647E+04  0.16747175647E+04  0.00000000000E+00 0. -1.
         25    2    1    2    0    0 -0.10132993346E+03  0.18167753680E+01 -0.10134612320E+04  0.10261694901E+04  0.12509635302E+03 0.  0.
          5    1    3    3  502    0 -0.12955277085E+03 -0.29534762785E+01 -0.74991160993E+03  0.76103714664E+03  0.41800000000E+01 0. -1.
         -5    1    3    3    0  502  0.28222837386E+02  0.47702516464E+01 -0.26354962210E+03  0.26513234348E+03  0.41800000000E+01 0. -1.
        -11    1    1    2    0    0  0.58925370543E+02 -0.45646714243E+02 -0.38379997821E+03  0.39097090057E+03  0.00000000000E+00 0.  1.
         11    1    1    2    0    0  0.42404562919E+02  0.43829938875E+02 -0.26404108445E+03  0.27099244413E+03  0.00000000000E+00 0. -1.
</event>
<event>
 7    1  0.3265282E-009  0.1119444E+03  0.7561462E-02  0.1257011E+00
          2   -1    0    0  501    0  0.00000000000E+00  0.00000000000E+00  0.33122165917E+03  0.33122165917E+03  0.00000000000E+00 0. -1.
         -2   -1    0    0    0  501 -0.00000000000E+00 -0.00000000000E+00 -0.48699117977E+02  0.48699117977E+02  0.00000000000E+00 0.  1.
         25    2    1    2    0    0  0.23020800297E+02  0.45265136689E+02  0.22027019520E+03  0.25834934896E+03  0.12508611982E+03 0.  0.
          5    1    3    3  502    0  0.53732907338E+02  0.64057345192E+02  0.89075493017E+02  0.12223945623E+03  0.41800000000E+01 0.  1.
         -5    1    3    3    0  502 -0.30712107041E+02 -0.18792208503E+02  0.13119470218E+03  0.13610989273E+03  0.41800000000E+01 0.  1.
        -11    1    1    2    0    0 -0.24138144958E+02 -0.72632066554E+02  0.50926193209E+02  0.91932280994E+02  0.00000000000E+00 0. -1.
         11    1    1    2    0    0  0.11173446611E+01  0.27366929865E+02  0.11326152793E+02  0.29639147194E+02  0.00000000000E+00 0.  1.
</event>
<event>
 7    1  0.3265282E-009  0.9337667E+02  0.7561462E-02  0.1294875E+00
         -1   -1    0    0    0  501 -0.00000000000E+00  0.00000000000E+00  0.36844529244E+02  0.36844529244E+02  0.00000000000E+00 0.  1.
          1   -1    0    0  501    0  0.00000000000E+00 -0.00000000000E+00 -0.62956579123E+03  0.62956579123E+03  0.00000000000E+00 0. -1.
         25    2    1    2    0    0 -0.66049031232E+02  0.12705901686E+02 -0.50750381275E+03  0.52700162208E+03  0.12508667097E+03 0.  0.
          5    1    3    3  502    0  0.61353317451E+01  0.81643512529E+01  0.29577987955E+01  0.11424530656E+02  0.41800000000E+01 0. -1.
         -5    1    3    3    0  502 -0.72184362977E+02  0.45415504330E+01 -0.51046161155E+03  0.51557709142E+03  0.41800000000E+01 0. -1.
        -11    1    1    2    0    0  0.63849577459E+02  0.22723766779E+02 -0.77735825023E+02  0.10313096824E+03  0.00000000000E+00 0. -1.
         11    1    1    2    0    0  0.21994537734E+01 -0.35429668465E+02 -0.74816242161E+01  0.36277730157E+02  0.00000000000E+00 0.  1.
</event>
<event>
 7    1  0.3265282E-009  0.1247945E+03  0.7561462E-02  0.1235391E+00
         -1   -1    0    0    0  501 -0.00000000000E+00  0.00000000000E+00  0.86512170550E+02  0.86512170550E+02  0.00000000000E+00 0.  1.
          1   -1    0    0  501    0  0.00000000000E+00 -0.00000000000E+00 -0.55856646775E+03  0.55856646775E+03  0.00000000000E+00 0. -1.
         25    2    1    2    0    0  0.59802211332E+02  0.91808873168E+02 -0.47232124683E+03  0.50074016771E+03  0.12509269237E+03 0.  0.
          5    1    3    3  502    0 -0.12994453711E+02  0.20173963532E+02 -0.85146965765E+01  0.25803431742E+02  0.41800000000E+01 0.  1.
         -5    1    3    3    0  502  0.72796665043E+02  0.71634909636E+02 -0.46380655025E+03  0.47493673597E+03  0.41800000000E+01 0.  1.
        -11    1    1    2    0    0 -0.68449285449E+02 -0.63335063947E+02  0.34087146881E+02  0.99290324736E+02  0.00000000000E+00 0.  1.
         11    1    1    2    0    0  0.86470741174E+01 -0.28473809222E+02 -0.33820197260E+02  0.45048145857E+02  0.00000000000E+00 0. -1.
</event>
<event>
 7    1  0.3265282E-009  0.1204217E+03  0.7561462E-02  0.1242403E+00
         -2   -1    0    0    0  501 -0.00000000000E+00  0.00000000000E+00  0.13985222769E+02  0.13985222769E+02  0.00000000000E+00 0.  1.
          2   -1    0    0  501    0  0.00000000000E+00 -0.00000000000E+00 -0.10867474074E+04  0.10867474074E+04  0.00000000000E+00 0. -1.
         25    2    1    2    0    0 -0.21098653298E+02  0.51411056043E+02 -0.51257749957E+03  0.53054103684E+03  0.12509935592E+03 0.  0.
          5    1    3    3  502    0 -0.58322484714E+02 -0.13203984460E+02 -0.27681865120E+03  0.28323470034E+03  0.41800000000E+01 0.  1.
         -5    1    3    3    0  502  0.37223831416E+02  0.64615040503E+02 -0.23575884837E+03  0.24730633649E+03  0.41800000000E+01 0.  1.
        -11    1    1    2    0    0  0.22660061223E+02 -0.77158385898E+02 -0.41101172947E+03  0.41880489091E+03  0.00000000000E+00 0.  1.
         11    1    1    2    0    0 -0.15614079257E+01  0.25747329854E+02 -0.14917295559E+03  0.15138670242E+03  0.00000000000E+00 0. -1.
</event>
<event>
 7    1  0.3265282E-009  0.1435025E+03  0.7561462E-02  0.1208692E+00
          1   -1    0    0  501    0  0.00000000000E+00  0.00000000000E+00  0.13753529870E+04  0.13753529870E+04  0.00000000000E+00 0. -1.
         -1   -1    0    0    0  501 -0.00000000000E+00 -0.00000000000E+00 -0.23681413729E+02  0.23681413729E+02  0.00000000000E+00 0.  1.
         25    2    1    2    0    0 -0.10717683899E+03 -0.18783978429E+02  0.10606452625E+04  0.10735249776E+04  0.12509113407E+03 0.  0.
          5    1    3    3  502    0 -0.12435815854E+03 -0.44936224878E+02  0.91363127795E+03  0.92315968302E+03  0.41800000000E+01 0. -1.
         -5    1    3    3    0  502  0.17181319553E+02  0.26152246449E+02  0.14701398459E+03  0.15036529454E+03  0.41800000000E+01 0. -1.
        -11    1    1    2    0    0  0.96477162214E+02 -0.54705593875E+01  0.28102687278E+03  0.29717650155E+03  0.00000000000E+00 0. -1.
         11    1    1    2    0    0  0.10699676778E+02  0.24254537817E+02  0.99994379350E+01  0.28332921609E+02  0.00000000000E+00 0.  1.
</event>
<event>
 7    1  0.3265282E-009  0.1219802E+03  0.7561462E-02  0.1239866E+00
          2   -1    0    0  501    0  0.00000000000E+00  0.00000000000E+00  0.71362488212E+03  0.71362488212E+03  0.00000000000E+00 0.  1.
         -2   -1    0    0    0  501 -0.00000000000E+00 -0.00000000000E+00 -0.28110687643E+02  0.28110687643E+02  0.00000000000E+00 0. -1.
         25    2    1    2    0    0 -0.54349447442E+02 -0.20155902257E+02  0.54376725242E+03  0.56097328055E+03  0.12509226136E+03 0.  0.
          5    1    3    3  502    0 -0.19338379002E+02  0.50193020547E+02  0.30021240764E+03  0.30502176040E+03  0.41800000000E+01 0.  1.
         -5    1    3    3    0  502 -0.35011068440E+02 -0.70348922803E+02  0.24355484478E+03  0.25595152015E+03  0.41800000000E+01 0.  1.
        -11    1    1    2    0    0  0.40283016290E+02  0.58186198776E+02  0.10054881296E+03  0.12295697995E+03  0.00000000000E+00 0.  1.
         11    1    1    2    0    0  0.14066431152E+02 -0.38030296519E+02  0.41198129094E+02  0.57805309268E+02  0.00000000000E+00 0. -1.
</event>
<event>
 7    1  0.3265282E-009  0.1174688E+03  0.7561462E-02  0.1247332E+00
          1   -1    0    0  501    0  0.00000000000E+00  0.00000000000E+00  0.22806298565E+03  0.22806298565E+03  0.00000000000E+00 0. -1.
         -1   -1    0    0    0  501 -0.00000000000E+00 -0.00000000000E+00 -0.61072319783E+02  0.61072319783E+02  0.00000000000E+00 0.  1.
         25    2    1    2    0    0  0.20823364724E+02 -0.40763326957E+02  0.89492720973E+02  0.16047302659E+03  0.12508950321E+03 0.  0.
          5    1    3    3  502    0 -0.52452782254E+02 -0.10940686027E+02  0.31533850184E+02  0.62312511459E+02  0.41800000000E+01 0.  1.
         -5    1    3    3    0  502  0.73276146978E+02 -0.29822640931E+02  0.57958870788E+02  0.98160515132E+02  0.41800000000E+01 0.  1.
        -11    1    1    2    0    0 -0.20704699829E+02 -0.27101546023E+02  0.18855354228E+02  0.38970537268E+02  0.00000000000E+00 0. -1.
         11    1    1    2    0    0 -0.11866489439E+00  0.67864872981E+02  0.58642590662E+02  0.89691741568E+02  0.00000000000E+00 0.  1.
</event>
<event>
 7    1  0.3265282E-009  0.1590049E+03  0.7561462E-02  0.1189825E+00
          1   -1    0    0  501    0  0.00000000000E+00  0.00000000000E+00  0.41218918166E+02  0.41218918166E+02  0.00000000000E+00 0. -1.
         -1   -1    0    0    0  501 -0.00000000000E+00 -0.00000000000E+00 -0.13113732312E+04  0.13113732312E+04  0.00000000000E+00 0.  1.
         25    2    1    2    0    0  0.11604798818E+03 -0.43239083582E+02 -0.11313675138E+04  0.11449792911E+04  0.12509345249E+03 0.  0.
          5    1    3    3  502    0  0.11461690837E+02  0.40288062500E+02 -0.27775965702E+03  0.28093130442E+03  0.41800000000E+01 0.  1.
         -5    1    3    3    0  502  0.10458629734E+03 -0.83527146083E+02 -0.85360785680E+03  0.86404798670E+03  0.41800000000E+01 0.  1.
        -11    1    1    2    0    0 -0.52719998838E+02 -0.16196724990E+02 -0.16395601612E+02  0.57537361168E+02  0.00000000000E+00 0. -1.
         11    1    1    2    0    0 -0.63327989343E+02  0.59435808572E+02 -0.12239119764E+03  0.15007549711E+03  0.00000000000E+00 0.  1.
</event>
<event>
 6    1  0.3265282E-009  0.8279167E+02  0.7561462E-02  0.1321311E+00
         -2   -1    0    0    0  501 -0.00000000000E+00  0.00000000000E+00  0.18323198395E+02  0.18323198395E+02  0.00000000000E+00 0.  1.
          2   -1    0    0  501    0  0.00000000000E+00 -0.00000000000E+00 -0.86569065358E+03  0.86569065358E+03  0.00000000000E+00 0. -1.
          5    1    1    2  502    0 -0.61366331022E+01  0.12754349749E+01  0.40359631570E+01  0.85467185990E+01  0.41800000000E+01 0. -1.
         -5    1    1    2    0  502  0.16413895322E+02 -0.56256676593E+02 -0.60172302379E+03  0.60458440220E+03  0.41800000000E+01 0. -1.
        -11    1    1    2    0    0 -0.17904724100E+02  0.75402524400E+02 -0.22490088916E+03  0.23787923360E+03  0.00000000000E+00 0.  1.
         11    1    1    2    0    0  0.76274618804E+01 -0.20421282783E+02 -0.24779505389E+02  0.33003497581E+02  0.00000000000E+00 0. -1.
</event>
<event>
 7    1  0.3265282E-009  0.7920421E+02  0.7561462E-02  0.1331325E+00
         -1   -1    0    0    0  501 -0.00000000000E+00  0.00000000000E+00  0.26446625080E+03  0.26446625080E+03  0.00000000000E+00 0.  1.
          1   -1    0    0  501    0  0.00000000000E+00 -0.00000000000E+00 -0.51334620704E+02  0.51334620704E+02  0.00000000000E+00 0. -1.
         25    2    1    2    0    0 -0.20930437014E+02 -0.29716577331E+02  0.92812709089E+02  0.15993893125E+03  0.12508039255E+03 0.  0.
          5    1    3    3  502    0 -0.60785378228E+02 -0.17978068605E+02  0.99097801602E+02  0.11771117126E+03  0.41800000000E+01 0.  1.
         -5    1    3    3    0  502  0.39854941214E+02 -0.11738508727E+02 -0.62850925132E+01  0.42227759995E+02  0.41800000000E+01 0.  1.
        -11    1    1    2    0    0 -0.33994204452E+01  0.28566495794E+02 -0.41200804520E+01  0.29061586403E+02  0.00000000000E+00 0. -1.
         11    1    1    2    0    0  0.24329857459E+02  0.11500815371E+01  0.12443900146E+03  0.12680035384E+03  0.00000000000E+00 0.  1.
</event>
<event>
 7    1  0.3265282E-009  0.1585786E+03  0.7561462E-02  0.1190311E+00
          1   -1    0    0  501    0  0.00000000000E+00  0.00000000000E+00  0.44953509505E+03  0.44953509505E+03  0.00000000000E+00 0. -1.
         -1   -1    0    0    0  501 -0.00000000000E+00 -0.00000000000E+00 -0.83770971031E+02  0.83770971031E+02  0.00000000000E+00 0.  1.
         25    2    1    2    0    0 -0.47568026547E+02 -0.14654566222E+03  0.13436002465E+03  0.23966586278E+03  0.12509500907E+03 0.  0.
          5    1    3    3  502    0 -0.33580959506E+02 -0.61530486268E+02  0.13636434398E+03  0.15338314213E+03  0.41800000000E+01 0. -1.
         -5    1    3    3    0  502 -0.13987067041E+02 -0.85015175949E+02 -0.20043193309E+01  0.86282720646E+02  0.41800000000E+01 0. -1.
        -11    1    1    2    0    0  0.16050044415E+02  0.11488782775E+03  0.21809633648E+03  0.24702799210E+03  0.00000000000E+00 0. -1.
         11    1    1    2    0    0  0.31517982132E+02  0.31657834465E+02  0.13307762891E+02  0.46612211209E+02  0.00000000000E+00 0.  1.
</event>
<event>
 7    1  0.3265282E-009  0.1111432E+03  0.7561462E-02  0.1258467E+00
         -1   -1    0    0    0  501 -0.00000000000E+00  0.00000000000E+00  0.43251617350E+03  0.43251617350E+03  0.00000000000E+00 0.  1.
          1   -1    0    0  501    0  0.00000000000E+00 -0.00000000000E+00 -0.67830163282E+02  0.67830163282E+02  0.00000000000E+00 0. -1.
         25    2    1    2    0    0 -0.26931989836E+02 -0.47738962846E+02  0.33855054257E+03  0.36505792844E+03  0.12508589288E+03 0.  0.
          5    1    3    3  502    0  0.18220780250E+01 -0.87315515122E+02  0.22079960785E+03  0.23748106951E+03  0.41800000000E+01 0.  1.
         -5    1    3    3    0  502 -0.28754067861E+02  0.39576552276E+02  0.11775093472E+03  0.12757685894E+03  0.41800000000E+01 0.  1.
        -11    1    1    2    0    0 -0.10017610311E+02 -0.11925818534E+02  0.56657298042E+02  0.58759059604E+02  0.00000000000E+00 0.  1.
         11    1    1    2    0    0  0.36949600147E+02  0.59664781380E+02 -0.30521830386E+02  0.76529348738E+02  0.00000000000E+00 0. -1.
</event>
<event>
 7    1  0.3265282E-009  0.7776526E+02  0.7561462E-02  0.1335516E+00
         -1   -1    0    0    0  501 -0.00000000000E+00  0.00000000000E+00  0.13139378718E+03  0.13139378718E+03  0.00000000000E+00 0.  1.
          1   -1    0    0  501    0  0.00000000000E+00 -0.00000000000E+00 -0.18509698073E+03  0.18509698073E+03  0.00000000000E+00 0. -1.
         25    2    1    2    0    0 -0.31449583558E+02  0.65728323658E+02  0.58053863352E+02  0.15596903522E+03  0.12508716985E+03 0.  0.
          5    1    3    3  502    0 -0.39852259681E+02  0.47953082684E+02  0.95115495530E+02  0.11380742784E+03  0.41800000000E+01 0. -1.
         -5    1    3    3    0  502  0.84026761233E+01  0.17775240974E+02 -0.37061632178E+02  0.42161607386E+02  0.41800000000E+01 0. -1.
        -11    1    1    2    0    0  0.18044125384E+02 -0.41397063580E+02  0.21080206537E+00  0.45159182582E+02  0.00000000000E+00 0.  1.
         11    1    1    2    0    0  0.13405458174E+02 -0.24331260078E+02 -0.11196785896E+03  0.11536255010E+03  0.00000000000E+00 0. -1.
</event>
<event>
 7    1  0.3265282E-009  0.9792718E+02  0.7561462E-02  0.1284716E+00
         -1   -1    0    0    0  501 -0.00000000000E+00  0.00000000000E+00  0.34195829083E+03  0.34195829083E+03  0.00000000000E+00 0.  1.
          1   -1    0    0  501    0  0.00000000000E+00 -0.00000000000E+00 -0.60165141379E+02  0.60165141379E+02  0.00000000000E+00 0. -1.
         25    2    1    2    0    0  0.68410659774E+02 -0.38979408564E+02  0.22265556386E+03  0.26725178816E+03  0.12509438634E+03 0.  0.
          5    1    3    3  502    0 -0.15278645944E+02 -0.17105009617E+02 -0.48576994446E+01  0.23813609969E+02  0.41800000000E+01 0. -1.
         -5    1    3    3    0  502  0.83689305718E+02 -0.21874398948E+02  0.22751326331E+03  0.24343817819E+03  0.41800000000E+01 0. -1.
        -11    1    1    2    0    0 -0.13923295639E+02  0.26660353329E+02 -0.21359571826E+02  0.36889888990E+02  0.00000000000E+00 0. -1.
         11    1    1    2    0    0 -0.54487364136E+02  0.12319055235E+02  0.80497157418E+02  0.97981755061E+02  0.00000000000E+00 0.  1.
</event>
<event>
 7    1  0.3265282E-009  0.1311906E+03  0.7561462E-02  0.1225700E+00
         -1   -1    0    0    0  501 -0.00000000000E+00  0.00000000000E+00  0.40716224494E+03  0.40716224494E+03  0.00000000000E+00 0.  1.
          1   -1    0    0  501    0  0.00000000000E+00 -0.00000000000E+00 -0.52371049823E+02  0.52371049823E+02  0.00000000000E+00 0. -1.
         25    2    1    2    0    0  0.27803444082E+02 -0.70664896959E+02  0.29259973929E+03  0.32715321427E+03  0.12509220203E+03 0.  0.
          5    1    3    3  502    0 -0.28833703002E+02 -0.83198803176E+02  0.17934501630E+03  0.19983876138E+03  0.41800000000E+01 0.  1.
         -5    1    3    3    0  502  0.56637147085E+02  0.12533906217E+02  0.11325472298E+03  0.12731445288E+03  0.41800000000E+01 0.  1.
        -11    1    1    2    0    0 -0.42191136627E+02 -0.17626377699E+01  0.15337799973E+02  0.44927129997E+02  0.00000000000E+00 0. -1.
         11    1    1    2    0    0  0.14387692545E+02  0.72427534729E+02  0.46853655858E+02  0.87452950499E+02  0.00000000000E+00 0.  1.
</event>
<event>
 7    1  0.3265282E-009  0.1307336E+03  0.7561462E-02  0.1226371E+00
          2   -1    0    0  501    0  0.00000000000E+00  0.00000000000E+00  0.11606763467E+04  0.11606763467E+04  0.00000000000E+00 0. -1.
         -2   -1    0    0    0  501 -0.00000000000E+00 -0.00000000000E+00 -0.24596052281E+02  0.24596052281E+02  0.00000000000E+00 0.  1.
         25    2    1    2    0    0 -0.95928871886E+02  0.29717272602E+01  0.90969442469E+03  0.92325787568E+03  0.12509987639E+03 0.  0.
          5    1    3    3  502    0  0.41667111577E+01 -0.43893885607E+02  0.34525953508E+03  0.34808857154E+03  0.41800000000E+01 0.  1.
         -5    1    3    3    0  502 -0.10009558304E+03  0.46865612867E+02  0.56443488961E+03  0.57516930414E+03  0.41800000000E+01 0.  1.
        -11    1    1    2    0    0  0.82494671765E+02 -0.20001366814E+02  0.22476922023E+03  0.24026366331E+03  0.00000000000E+00 0. -1.
         11    1    1    2    0    0  0.13434200121E+02  0.17029639554E+02  0.16166495383E+01  0.21750860028E+02  0.00000000000E+00 0.  1.
</event>
<event>
 7    1  0.3265282E-009  0.1937875E+03  0.7561462E-02  0.1155089E+00
          2   -1    0    0  501    0  0.00000000000E+00  0.00000000000E+00  0.72898268365E+03  0.72898268365E+03  0.00000000000E+00 0.  1.
         -2   -1    0    0    0  501 -0.00000000000E+00 -0.00000000000E+00 -0.52050669299E+02  0.52050669299E+02  0.00000000000E+00 0. -1.
         25    2    1    2    0    0 -0.93283815801E+02 -0.13060737301E+03  0.31567526342E+03  0.37557707446E+03  0.12508841173E+03 0.  0.
          5    1    3    3  502    0 -0.56690331857E+02 -0.15102986859E+03  0.25048783632E+03  0.29796886327E+03  0.41800000000E+01 0. -1.
         -5    1    3    3    0  502 -0.36593483944E+02  0.20422495578E+02  0.65187427101E+02  0.77608211194E+02  0.41800000000E+01 0. -1.
        -11    1    1    2    0    0  0.98808416981E+02  0.65052647957E+02  0.23262372907E+03  0.26097653075E+03  0.00000000000E+00 0. -1.
         11    1    1    2    0    0 -0.55246011798E+01  0.65554725056E+02  0.12863302185E+03  0.14447974774E+03  0.00000000000E+00 0.  1.
</event>
<event>
 7    1  0.3265282E-009  0.8998342E+02  0.7561462E-02  0.1302892E+00
          1   -1    0    0  501    0  0.00000000000E+00  0.00000000000E+00  0.54546092888E+03  0.54546092888E+03  0.00000000000E+00 0. -1.
         -1   -1    0    0    0  501 -0.00000000000E+00 -0.00000000000E+00 -0.27751440326E+02  0.27751440326E+02  0.00000000000E+00 0.  1.
         25    2    1    2    0    0 -0.52799999853E+02  0.61126303497E+01  0.36052651397E+03  0.38529536856E+03  0.12509176441E+03 0.  0.
          5    1    3    3  502    0 -0.30919696136E+02  0.49775482766E+02  0.30759180210E+03  0.31315142569E+03  0.41800000000E+01 0.  1.
         -5    1    3    3    0  502 -0.21880303717E+02 -0.43662852417E+02  0.52934711874E+02  0.72143942872E+02  0.41800000000E+01 0.  1.
        -11    1    1    2    0    0  0.37378467978E+02  0.19611740322E+02  0.18603046363E+02  0.46128554723E+02  0.00000000000E+00 0.  1.
         11    1    1    2    0    0  0.15421531875E+02 -0.25724370671E+02  0.13857992821E+03  0.14178844592E+03  0.00000000000E+00 0. -1.
</event>
<event>
 7    1  0.3265282E-009  0.1235410E+03  0.7561462E-02  0.1237367E+00
          2   -1    0    0  501    0  0.00000000000E+00  0.00000000000E+00  0.41364508942E+03  0.41364508942E+03  0.00000000000E+00 0. -1.
         -2   -1    0    0    0  501 -0.00000000000E+00 -0.00000000000E+00 -0.44600260897E+02  0.44600260897E+02  0.00000000000E+00 0.  1.
         25    2    1    2    0    0  0.75354849460E+02 -0.27089000466E+02  0.17011524185E+03  0.22582939455E+03  0.12509017808E+03 0.  0.
          5    1    3    3  502    0 -0.27912451795E+02 -0.26372071146E+02  0.19789528299E+02  0.43401485367E+02  0.41800000000E+01 0.  1.
         -5    1    3    3    0  502  0.10326730126E+03 -0.71692932032E+00  0.15032571355E+03  0.18242790919E+03  0.41800000000E+01 0.  1.
        -11    1    1    2    0    0 -0.38350754866E+01 -0.19415556859E+02  0.47938129086E+01  0.20363012899E+02  0.00000000000E+00 0.  1.
         11    1    1    2    0    0 -0.71519773973E+02  0.46504557325E+02  0.19413577376E+03  0.21205294286E+03  0.00000000000E+00 0. -1.
</event>
<event>
 7    1  0.3265282E-009  0.1005863E+03  0.7561462E-02  0.1279068E+00
         -3   -1    0    0    0  501 -0.00000000000E+00  0.00000000000E+00  0.21860222288E+02  0.21860222288E+02  0.00000000000E+00 0.  1.
          3   -1    0    0  501    0  0.00000000000E+00 -0.00000000000E+00 -0.56802490754E+03  0.56802490754E+03  0.00000000000E+00 0. -1.
         25    2    1    2    0    0  0.10396046107E+01 -0.16564234097E+02 -0.38820118113E+03  0.40819336201E+03  0.12508480772E+03 0.  0.
          5    1    3    3  502    0  0.52635869308E+02  0.11123405521E+02 -0.27942060419E+03  0.28458322391E+03  0.41800000000E+01 0. -1.
         -5    1    3    3    0  502 -0.51596264698E+02 -0.27687639618E+02 -0.10878057695E+03  0.12361013809E+03  0.41800000000E+01 0. -1.
        -11    1    1    2    0    0  0.11204715189E+02  0.50866116751E+02 -0.77592412077E+02  0.93453142739E+02  0.00000000000E+00 0.  1.
         11    1    1    2    0    0 -0.12244319799E+02 -0.34301882654E+02 -0.80371092042E+02  0.88238625086E+02  0.00000000000E+00 0. -1.
</event>
<event>
 6    1  0.3265282E-009  0.1595897E+03  0.7561462E-02  0.1189161E+00
          1   -1    0    0  501    0  0.00000000000E+00  0.00000000000E+00  0.92472561929E+02  0.92472561929E+02  0.00000000000E+00 0. -1.
         -1   -1    0    0    0  501 -0.00000000000E+00 -0.00000000000E+00 -0.38897000136E+03  0.38897000136E+03  0.00000000000E+00 0.  1.
          5    1    1    2  502    0  0.58574523969E+02  0.62174412877E+02 -0.50982442622E+02  0.99565628258E+02  0.41800000000E+01 0. -1.
         -5    1    1    2    0  502 -0.20883443189E+02  0.69245898524E+02 -0.19867548566E+03  0.21147229999E+03  0.41800000000E+01 0. -1.
        -11    1    1    2    0    0 -0.53247671921E+02 -0.35408796248E+02 -0.38435467741E+01  0.64061456965E+02  0.00000000000E+00 0. -1.
         11    1    1    2    0    0  0.15556591141E+02 -0.96011515153E+02 -0.42995964375E+02  0.10634317807E+03  0.00000000000E+00 0.  1.
</event>
<event>
 7    1  0.3265282E-009  0.1505521E+03  0.7561462E-02  0.1199796E+00
          2   -1    0    0  501    0  0.00000000000E+00  0.00000000000E+00  0.51118053679E+03  0.51118053679E+03  0.00000000000E+00 0. -1.
         -2   -1    0    0    0  501 -0.00000000000E+00 -0.00000000000E+00 -0.58518962566E+02  0.58518962566E+02  0.00000000000E+00 0.  1.
         25    2    1    2    0    0 -0.11273761592E+03 -0.71648248228E+02  0.27837638782E+03  0.33314443323E+03  0.12509419882E+03 0.  0.
          5    1    3    3  502    0 -0.74967194217E+02 -0.88232604813E+02  0.11006936185E+03  0.15980553676E+03  0.41800000000E+01 0. -1.
         -5    1    3    3    0  502 -0.37770421707E+02  0.16584356585E+02  0.16830702597E+03  0.17333889647E+03  0.41800000000E+01 0. -1.
        -11    1    1    2    0    0 -0.42029651857E+01  0.11582445733E+02 -0.57765874035E+01  0.13608340367E+02  0.00000000000E+00 0.  1.
         11    1    1    2    0    0  0.11694058111E+03  0.60065802495E+02  0.18006177380E+03  0.22294672576E+03  0.00000000000E+00 0. -1.
</event>
<event>
 7    1  0.3265282E-009  0.6729014E+02  0.7561462E-02  0.1369558E+00
         -2   -1    0    0    0  501 -0.00000000000E+00  0.00000000000E+00  0.27927810041E+02  0.27927810041E+02  0.00000000000E+00 0.  1.
          2   -1    0    0  501    0  0.00000000000E+00 -0.00000000000E+00 -0.58613477303E+03  0.58613477303E+03  0.00000000000E+00 0. -1.
         25    2    1    2    0    0 -0.13459377431E+02 -0.37473518496E+02 -0.43911895481E+03  0.45831794105E+03  0.12507781253E+03 0.  0.
          5    1    3    3  502    0 -0.57043487872E+01 -0.26910055136E+02 -0.44312014189E+03  0.44399281887E+03  0.41800000000E+01 0. -1.
         -5    1    3    3    0  502 -0.77550286442E+01 -0.10563463360E+02  0.40011870780E+01  0.14325122180E+02  0.41800000000E+01 0. -1.
        -11    1    1    2    0    0  0.11240797341E+02 -0.26606246495E+02 -0.67601265114E+02  0.73513120750E+02  0.00000000000E+00 0. -1.
         11    1    1    2    0    0  0.22185800901E+01  0.64079764992E+02 -0.51486743069E+02  0.82231521273E+02  0.00000000000E+00 0.  1.
</event>
<event>
 7    1  0.3265282E-009  0.1182470E+03  0.7561462E-02  0.1246017E+00
          1   -1    0    0  501    0  0.00000000000E+00  0.00000000000E+00  0.89295044561E+02  0.89295044561E+02  0.00000000000E+00 0. -1.
         -1   -1    0    0    0  501 -0.00000000000E+00 -0.00000000000E+00 -0.19789991374E+03  0.19789991374E+03  0.00000000000E+00 0.  1.
         25    2    1    2    0    0  0.32722314271E+02 -0.36736499939E+02  0.31237309154E+01  0.13445166533E+03  0.12508865791E+03 0.  0.
          5    1    3    3  502    0  0.18776125821E+02  0.45220634096E+02 -0.10095959178E+02  0.50168211455E+02  0.41800000000E+01 0. -1.
         -5    1    3    3    0  502  0.13946188450E+02 -0.81957134036E+02  0.13219690093E+02  0.84283453879E+02  0.41800000000E+01 0. -1.
        -11    1    1    2    0    0  0.30839488682E+02  0.28731965761E+00 -0.35002269703E+02  0.46650996764E+02  0.00000000000E+00 0. -1.
         11    1    1    2    0    0 -0.63561802952E+02  0.36449180282E+02 -0.76726330387E+02  0.10609229620E+03  0.00000000000E+00 0.  1.
</event>
<event>
 6    1  0.3265282E-009  0.1624287E+03  0.7561462E-02  0.1185982E+00
          2   -1    0    0  501    0  0.00000000000E+00  0.00000000000E+00  0.15664198757E+04  0.15664198757E+04  0.00000000000E+00 0. -1.
         -2   -1    0    0    0  501 -0.00000000000E+00 -0.00000000000E+00 -0.24219234095E+02  0.24219234095E+02  0.00000000000E+00 0.  1.
          5    1    1    2  502    0 -0.79277241469E+01  0.65808968044E+01  0.47684103095E+01  0.12098229200E+02  0.41800000000E+01 0.  1.
         -5    1    1    2    0  502 -0.50705245175E+02 -0.15017229485E+03  0.96691546776E+03  0.97982944139E+03  0.41800000000E+01 0.  1.
        -11    1    1    2    0    0  0.21708290434E+02  0.46919387978E+02  0.66767214146E+02  0.84442523213E+02  0.00000000000E+00 0.  1.
         11    1    1    2    0    0  0.36924678888E+02  0.96672010065E+02  0.50374954940E+03  0.51426891599E+03  0.00000000000E+00 0. -1.
</event>
<event>
 7    1  0.3265282E-009  0.9063203E+02  0.7561462E-02  0.1301328E+00
         -2   -1    0    0    0  501 -0.00000000000E+00  0.00000000000E+00  0.37474680734E+02  0.37474680734E+02  0.00000000000E+00 0.  1.
          2   -1    0    0  501    0  0.00000000000E+00 -0.00000000000E+00 -0.42569998285E+03  0.42569998285E+03  0.00000000000E+00 0. -1.
         25    2    1    2    0    0  0.25375179085E+02  0.46093109268E+02 -0.15062262797E+03  0.20273682220E+03  0.12508624457E+03 0.  0.
          5    1    3    3  502    0 -0.89348052843E+00 -0.13262414426E+02  0.17558863526E+02  0.22415977163E+02  0.41800000000E+01 0. -1.
         -5    1    3    3    0  502  0.26268659614E+02  0.59355523694E+02 -0.16818149150E+03  0.18032084503E+03  0.41800000000E+01 0. -1.
        -11    1    1    2    0    0 -0.37601166572E+02 -0.67711235103E+02 -0.14297641834E+03  0.16260662744E+03  0.00000000000E+00 0.  1.
         11    1    1    2    0    0  0.12225987487E+02  0.21618125834E+02 -0.94626255803E+02  0.97831213945E+02  0.00000000000E+00 0. -1.
</event>
<event>
 7    1  0.3265282E-009  0.1051630E+03  0.7561462E-02  0.1269799E+00
         -2   -1    0    0    0  501 -0.00000000000E+00  0.00000000000E+00  0.36531371421E+02  0.36531371421E+02  0.00000000000E+00 0.  1.
          2   -1    0    0  501    0  0.00000000000E+00 -0.00000000000E+00 -0.42832396248E+03  0.42832396248E+03  0.00000000000E+00 0. -1.
         25    2    1    2    0    0  0.47030280612E+02  0.13548150536E+02 -0.28856683550E+03  0.31829745157E+03  0.12508816669E+03 0.  0.
          5    1    3    3  502    0 -0.67087157193E+01  0.58163208219E+02 -0.87157886566E+02  0.10508061309E+03  0.41800000000E+01 0.  1.
         -5    1    3    3    0  502  0.53738996331E+02 -0.44615057684E+02 -0.20140894894E+03  0.21321683848E+03  0.41800000000E+01 0.  1.
        -11    1    1    2    0    0 -0.26100302224E+02 -0.40101585584E+02 -0.12087892769E+02  0.49350583524E+02  0.00000000000E+00 0.  1.
         11    1    1    2    0    0 -0.20929978388E+02  0.26553435048E+02 -0.91137862784E+02  0.97207298806E+02  0.00000000000E+00 0. -1.
</event>
<event>
 7    1  0.3265282E-009  0.1216195E+03  0.7561462E-02  0.1240449E+00
          2   -1    0    0  501    0  0.00000000000E+00  0.00000000000E+00  0.24823940953E+03  0.24823940953E+03  0.00000000000E+00 0. -1.
         -2   -1    0    0    0  501 -0.00000000000E+00 -0.00000000000E+00 -0.78439581194E+02  0.78439581194E+02  0.00000000000E+00 0.  1.
         25    2    1    2    0    0  0.15704214437E+02 -0.74032569420E+02  0.13037633827E+03  0.19588943070E+03  0.12508891155E+03 0.  0.
          5    1    3    3  502    0  0.33728812952E+02  0.25619508726E+02  0.55172616236E+02  0.69681288972E+02  0.41800000000E+01 0.  1.
         -5    1    3    3    0  502 -0.18024598515E+02 -0.99652078147E+02  0.75203722035E+02  0.12620814173E+03  0.41800000000E+01 0.  1.
        -11    1    1    2    0    0 -0.33892586347E+01 -0.11970997031E+02  0.42067305135E+02  0.43868553718E+02  0.00000000000E+00 0. -1.
         11    1    1    2    0    0 -0.12314955803E+02  0.86003566451E+02 -0.26438150709E+01  0.86921006304E+02  0.00000000000E+00 0.  1.
</event>
<event>
 7    1  0.3265282E-009  0.1059443E+03  0.7561462E-02  0.1268270E+00
          2   -1    0    0  501    0  0.00000000000E+00  0.00000000000E+00  0.37436259091E+02  0.37436259091E+02  0.00000000000E+00 0. -1.
         -2   -1    0    0    0  501 -0.00000000000E+00 -0.00000000000E+00 -0.31684930069E+03  0.31684930069E+03  0.00000000000E+00 0.  1.
         25    2    1    2    0    0 -0.44776313631E+01 -0.33639454890E+01 -0.17611498217E+03  0.21609308894E+03  0.12509344839E+03 0.  0.
          5    1    3    3  502    0  0.58112417898E+02  0.98021892859E+01 -0.10400155349E+03  0.11961158622E+03  0.41800000000E+01 0.  1.
         -5    1    3    3    0  502 -0.62590049261E+02 -0.13166134775E+02 -0.72113428679E+02  0.96481502721E+02  0.41800000000E+01 0.  1.
        -11    1    1    2    0    0  0.41050649812E+02 -0.19637828700E+02 -0.35140769792E+02  0.57494989935E+02  0.00000000000E+00 0. -1.
         11    1    1    2    0    0 -0.36573018449E+02  0.23001774189E+02 -0.68157289633E+02  0.80697480905E+02  0.00000000000E+00 0.  1.
</event>
<event>
 7    1  0.3265282E-009  0.1215158E+03  0.7561462E-02  0.1240617E+00
         -2   -1    0    0    0  501 -0.00000000000E+00  0.00000000000E+00  0.75790842526E+02  0.75790842526E+02  0.00000000000E+00 0. -1.
          2   -1    0    0  501    0  0.00000000000E+00 -0.00000000000E+00 -0.27390458704E+03  0.27390458704E+03  0.00000000000E+00 0.  1.
         25    2    1    2    0    0  0.74092973984E+02  0.40070921222E+02 -0.57479972519E+02  0.16138857018E+03  0.12508747269E+03 0.  0.
          5    1    3    3  502    0  0.25685400861E+02  0.70807448237E+02 -0.69589837709E+02  0.10263358347E+03  0.41800000000E+01 0. -1.
         -5    1    3    3    0  502  0.48407573123E+02 -0.30736527016E+02  0.12109865190E+02  0.58754986712E+02  0.41800000000E+01 0. -1.
        -11    1    1    2    0    0 -0.26072072756E+01 -0.38509046523E+02 -0.97353401031E+02  0.10472549301E+03  0.00000000000E+00 0.  1.
         11    1    1    2    0    0 -0.71485766708E+02 -0.15618746989E+01 -0.43280370966E+02  0.83581366377E+02  0.00000000000E+00 0. -1.
</event>
<event>
 7    1  0.3265282E-009  0.1520627E+03  0.7561462E-02  0.1197961E+00
         -1   -1    0    0    0  501 -0.00000000000E+00  0.00000000000E+00  0.82035885186E+02  0.82035885186E+02  0.00000000000E+00 0.  1.
          1   -1    0    0  501    0  0.00000000000E+00 -0.00000000000E+00 -0.30685273124E+03  0.30685273124E+03  0.00000000000E+00 0. -1.
         25    2    1    2    0    0 -0.65670985085E+02 -0.83694683744E+02 -0.17472462485E+03  0.23977690275E+03  0.12508713041E+03 0.  0.
          5    1    3    3  502    0  0.37600347080E+02 -0.20772416236E+02 -0.48449901487E+02  0.64885628077E+02  0.41800000000E+01 0. -1.
         -5    1    3    3    0  502 -0.10327133216E+03 -0.62922267507E+02 -0.12627472336E+03  0.17489127467E+03  0.41800000000E+01 0. -1.
        -11    1    1    2    0    0  0.87492988995E+02  0.52972687078E+02 -0.42011176950E+02  0.11057155009E+03  0.00000000000E+00 0. -1.
         11    1    1    2    0    0 -0.21822003911E+02  0.30721996665E+02 -0.80810442597E+01  0.38540163597E+02  0.00000000000E+00 0.  1.
</event>
<event>
 7    1  0.3265282E-009  0.6251979E+02  0.7561462E-02  0.1387552E+00
          3   -1    0    0  501    0  0.00000000000E+00  0.00000000000E+00  0.13387628296E+03  0.13387628296E+03  0.00000000000E+00 0. -1.
         -3   -1    0    0    0  501 -0.00000000000E+00 -0.00000000000E+00 -0.95578084050E+02  0.95578084050E+02  0.00000000000E+00 0.  1.
         25    2    1    2    0    0  0.27755969854E+02 -0.19674516318E+02  0.31517013061E+02  0.13340976501E+03  0.12508941935E+03 0.  0.
          5    1    3    3  502    0  0.19768727331E+02 -0.49975742652E+01  0.79630564294E+02  0.82305999165E+02  0.41800000000E+01 0. -1.
         -5    1    3    3    0  502  0.79872425232E+01 -0.14676942053E+02 -0.48113551232E+02  0.51103765843E+02  0.41800000000E+01 0. -1.
        -11    1    1    2    0    0  0.16348061697E+02 -0.21265843281E+02 -0.16532796280E+02  0.31509182226E+02  0.00000000000E+00 0.  1.
         11    1    1    2    0    0 -0.44104031551E+02  0.40940359599E+02  0.23313982129E+02  0.64535419777E+02  0.00000000000E+00 0. -1.
</event>
<event>
 7    1  0.3265282E-009  0.1050758E+03  0.7561462E-02  0.1269970E+00
         -2   -1    0    0    0  501 -0.00000000000E+00  0.00000000000E+00  0.12809634921E+03  0.12809634921E+03  0.00000000000E+00 0. -1.
          2   -1    0    0  501    0  0.00000000000E+00 -0.00000000000E+00 -0.20893160002E+03  0.20893160002E+03  0.00000000000E+00 0.  1.
         25    2    1    2    0    0  0.62459783781E+01  0.79546007556E+02 -0.13826845706E+03  0.20279710619E+03  0.12506766368E+03 0.  0.
          5    1    3    3  502    0 -0.26564902759E+02  0.38279148172E+02  0.78202824505E+01  0.47430121874E+02  0.41800000000E+01 0.  1.
         -5    1    3    3    0  502  0.32810881137E+02  0.41266859385E+02 -0.14608873951E+03  0.15536698432E+03  0.41800000000E+01 0.  1.
        -11    1    1    2    0    0  0.33596310277E+02 -0.52499274366E+02  0.42322288312E+01  0.62472374968E+02  0.00000000000E+00 0.  1.
         11    1    1    2    0    0 -0.39842288655E+02 -0.27046733190E+02  0.53200977419E+02  0.71758468071E+02  0.00000000000E+00 0. -1.
</event>
<event>
 7    1  0.3265282E-009  0.1413961E+03  0.7561462E-02  0.1211463E+00
         -1   -1    0    0    0  501 -0.00000000000E+00  0.00000000000E+00  0.67296809661E+02  0.67296809661E+02  0.00000000000E+00 0.  1.
          1   -1    0    0  501    0  0.00000000000E+00 -0.00000000000E+00 -0.45456581276E+03  0.45456581276E+03  0.00000000000E+00 0. -1.
         25    2    1    2    0    0  0.88097387668E+01 -0.13183834188E+03 -0.21282689667E+03  0.28000382802E+03  0.12509154998E+03 0.  0.
          5    1    3    3  502    0 -0.13339430726E+02 -0.55541544004E+01 -0.12176067438E+03  0.12268627987E+03  0.41800000000E+01 0. -1.
         -5    1    3    3    0  502  0.22149169493E+02 -0.12628418747E+03 -0.91066222291E+02  0.15731754816E+03  0.41800000000E+01 0. -1.
        -11    1    1    2    0    0 -0.20627128254E+02  0.27048353242E+02  0.43410335291E+01  0.34291929155E+02  0.00000000000E+00 0.  1.
         11    1    1    2    0    0  0.11817389487E+02  0.10478998863E+03 -0.17878313996E+03  0.20756686524E+03  0.00000000000E+00 0. -1.
</event>
<event>
 7    1  0.4037276E-009  0.1056594E+03  0.7561462E-02  0.1268826E+00
         -3   -1    0    0    0  501 -0.00000000000E+00  0.00000000000E+00  0.32802240083E+03  0.32802240083E+03  0.00000000000E+00 0.  1.
          3   -1    0    0  501    0  0.00000000000E+00 -0.00000000000E+00 -0.56070921354E+02  0.56070921354E+02  0.00000000000E+00 0. -1.
         25    2    1    2    0    0 -0.35387839953E+02  0.30763942640E+02  0.55342467785E+02  0.14455084496E+03  0.12503375006E+03 0.  0.
          5    1    3    3  502    0  0.29430205890E+02  0.55507002411E+02  0.35429237608E+02  0.72248651287E+02  0.41800000000E+01 0.  1.
         -5    1    3    3    0  502 -0.64818045842E+02 -0.24743059772E+02  0.19913230177E+02  0.72302193672E+02  0.41800000000E+01 0.  1.
        -11    1    1    2    0    0  0.53485000009E+02 -0.28514229566E+02  0.21232889764E+03  0.22081047821E+03  0.00000000000E+00 0.  1.
         11    1    1    2    0    0 -0.18097160056E+02 -0.22497130741E+01  0.42801140575E+01  0.18731999022E+02  0.00000000000E+00 0. -1.
</event>
<event>
 7    1  0.3265282E-009  0.1005794E+03  0.7561462E-02  0.1279082E+00
         -2   -1    0    0    0  501 -0.00000000000E+00  0.00000000000E+00  0.27011125163E+02  0.27011125163E+02  0.00000000000E+00 0.  1.
          2   -1    0    0  501    0  0.00000000000E+00 -0.00000000000E+00 -0.69319352708E+03  0.69319352708E+03  0.00000000000E+00 0. -1.
         25    2    1    2    0    0  0.14892389960E+02 -0.38290740728E+02 -0.56256085754E+03  0.57776259768E+03  0.12508771619E+03 0.  0.
          5    1    3    3  502    0 -0.20000987453E+02  0.27661085235E+02 -0.36372383013E+03  0.36534596226E+03  0.41800000000E+01 0. -1.
         -5    1    3    3    0  502  0.34893377414E+02 -0.65951825963E+02 -0.19883702741E+03  0.21241663543E+03  0.41800000000E+01 0. -1.
        -11    1    1    2    0    0 -0.29301250238E+02 -0.17694062602E+02 -0.63292942783E+02  0.71955817854E+02  0.00000000000E+00 0. -1.
         11    1    1    2    0    0  0.14408860278E+02  0.55984803329E+02 -0.40328601591E+02  0.70486236703E+02  0.00000000000E+00 0.  1.
</event>
<event>
 7    1  0.3818674E-009  0.8732539E+02  0.7561462E-02  0.1309461E+00
         -1   -1    0    0    0  501 -0.00000000000E+00  0.00000000000E+00  0.11493055013E+03  0.11493055013E+03  0.00000000000E+00 0.  1.
          1   -1    0    0  501    0  0.00000000000E+00 -0.00000000000E+00 -0.11768068022E+03  0.11768068022E+03  0.00000000000E+00 0. -1.
         25    2    1    2    0    0  0.16728980003E+02  0.38194941744E+02 -0.54022253646E+01  0.13196693515E+03  0.12508947033E+03 0.  0.
          5    1    3    3  502    0 -0.19432850157E+01  0.70884758329E+02  0.32736212162E+02  0.78214815136E+02  0.41800000000E+01 0.  1.
         -5    1    3    3    0  502  0.18672265018E+02 -0.32689816584E+02 -0.38138437527E+02  0.53752120016E+02  0.41800000000E+01 0.  1.
        -11    1    1    2    0    0 -0.31122300137E+02 -0.77656703640E+01  0.39402159461E+02  0.50807808182E+02  0.00000000000E+00 0.  1.
         11    1    1    2    0    0  0.14393320135E+02 -0.30429271381E+02 -0.36750064183E+02  0.49836487022E+02  0.00000000000E+00 0. -1.
</event>
<event>
 7    1  0.3265282E-009  0.9495310E+02  0.7561462E-02  0.1291282E+00
         -2   -1    0    0    0  501 -0.00000000000E+00  0.00000000000E+00  0.69509824755E+02  0.69509824755E+02  0.00000000000E+00 0.  1.
          2   -1    0    0  501    0  0.00000000000E+00 -0.00000000000E+00 -0.26864573031E+03  0.26864573031E+03  0.00000000000E+00 0. -1.
         25    2    1    2    0    0  0.58986062984E+02 -0.77263206485E+01 -0.18170610085E+03  0.22848212300E+03  0.12509165354E+03 0.  0.
          5    1    3    3  502    0 -0.32443564503E+01  0.14498165533E+02  0.14639939063E+02  0.21272584901E+02  0.41800000000E+01 0.  1.
         -5    1    3    3    0  502  0.62230419435E+02 -0.22224486181E+02 -0.19634603991E+03  0.20720953810E+03  0.41800000000E+01 0.  1.
        -11    1    1    2    0    0  0.72026359583E+01  0.35688340993E+02 -0.68307130423E+01  0.37043140906E+02  0.00000000000E+00 0. -1.
         11    1    1    2    0    0 -0.66188698943E+02 -0.27962020344E+02 -0.10599091658E+02  0.72630291156E+02  0.00000000000E+00 0.  1.
</event>
<event>
 7    1  0.3265282E-009  0.3168934E+03  0.7561462E-02  0.1077088E+00
         -2   -1    0    0    0  501 -0.00000000000E+00  0.00000000000E+00  0.74391881308E+03  0.74391881308E+03  0.00000000000E+00 0. -1.
          2   -1    0    0  501    0  0.00000000000E+00 -0.00000000000E+00 -0.15657816883E+03  0.15657816883E+03  0.00000000000E+00 0.  1.
         25    2    1    2    0    0 -0.20459602297E+03  0.22255789945E+03  0.14412782886E+03  0.35750918426E+03  0.12509370309E+03 0.  0.
          5    1    3    3  502    0 -0.11171094023E+03  0.37880102050E+02  0.31972817341E+02  0.12228642503E+03  0.41800000000E+01 0. -1.
         -5    1    3    3    0  502 -0.92885082740E+02  0.18467779740E+03  0.11215501152E+03  0.23522275922E+03  0.41800000000E+01 0. -1.
        -11    1    1    2    0    0  0.18033838014E+03 -0.15705468303E+03  0.30002165925E+03  0.38366795649E+03  0.00000000000E+00 0.  1.
         11    1    1    2    0    0  0.24257642828E+02 -0.65503216413E+02  0.14319115614E+03  0.15931984118E+03  0.00000000000E+00 0. -1.
</event>
<event>
 7    1  0.3265282E-009  0.1578325E+03  0.7561462E-02  0.1191166E+00
         -1   -1    0    0    0  501 -0.00000000000E+00  0.00000000000E+00  0.72466976388E+02  0.72466976388E+02  0.00000000000E+00 0.  1.
          1   -1    0    0  501    0  0.00000000000E+00 -0.00000000000E+00 -0.38092004957E+03  0.38092004957E+03  0.00000000000E+00 0. -1.
         25    2    1    2    0    0  0.72503610120E+01 -0.12531796320E+03 -0.17646437553E+03  0.25009133274E+03  0.12509532063E+03 0.  0.
          5    1    3    3  502    0  0.48808798203E+02 -0.29232196645E+02 -0.11563681047E+03  0.12894248501E+03  0.41800000000E+01 0.  1.
         -5    1    3    3    0  502 -0.41558437191E+02 -0.96085766554E+02 -0.60827565052E+02  0.12114884773E+03  0.41800000000E+01 0.  1.
        -11    1    1    2    0    0 -0.33994338962E+02  0.12229624326E+03 -0.11622262761E+03  0.17210370526E+03  0.00000000000E+00 0. -1.
         11    1    1    2    0    0  0.26743977950E+02  0.30217199357E+01 -0.15766070047E+02  0.31191987956E+02  0.00000000000E+00 0.  1.
</event>
<event>
 6    1  0.3265282E-009  0.1258161E+03  0.7561462E-02  0.1233799E+00
         -2   -1    0    0    0  501 -0.00000000000E+00  0.00000000000E+00  0.20808603907E+02  0.20808603907E+02  0.00000000000E+00 0. -1.
          2   -1    0    0  501    0  0.00000000000E+00 -0.00000000000E+00 -0.83887620302E+03  0.83887620302E+03  0.00000000000E+00 0.  1.
          5    1    1    2  502    0  0.94802652624E+02  0.37284660198E+02 -0.32676733074E+03  0.34230403105E+03  0.41800000000E+01 0. -1.
         -5    1    1    2    0  502 -0.22026811108E+02 -0.28363209950E+02 -0.52831295813E+02  0.64017734289E+02  0.41800000000E+01 0. -1.
        -11    1    1    2    0    0 -0.83870099564E+02 -0.30511519115E+02 -0.30865047437E+03  0.32129466496E+03  0.00000000000E+00 0. -1.
         11    1    1    2    0    0  0.11094258048E+02  0.21590068867E+02 -0.12981849818E+03  0.13206837663E+03  0.00000000000E+00 0.  1.
</event>
<event>
 7    1  0.3265282E-009  0.1728020E+03  0.7561462E-02  0.1174957E+00
          2   -1    0    0  501    0  0.00000000000E+00  0.00000000000E+00  0.14654828624E+03  0.14654828624E+03  0.00000000000E+00 0. -1.
         -2   -1    0    0    0  501 -0.00000000000E+00 -0.00000000000E+00 -0.26968991186E+03  0.26968991186E+03  0.00000000000E+00 0.  1.
         25    2    1    2    0    0 -0.10020609505E+03 -0.10143524457E+03  0.25365691709E+02  0.19136704588E+03  0.12509019788E+03 0.  0.
          5    1    3    3  502    0  0.10258469485E+01 -0.76620846210E+02  0.39144060412E+02  0.86148338936E+02  0.41800000000E+01 0.  1.
         -5    1    3    3    0  502 -0.10123194200E+03 -0.24814398361E+02 -0.13778368702E+02  0.10521870694E+03  0.41800000000E+01 0.  1.
        -11    1    1    2    0    0  0.85105260474E+02  0.11579864804E+03 -0.10959750077E+03  0.18073141515E+03  0.00000000000E+00 0. -1.
         11    1    1    2    0    0  0.15100834573E+02 -0.14363403465E+02 -0.38909816564E+02  0.44139737074E+02  0.00000000000E+00 0.  1.
</event>
<event>
 7    1  0.3265282E-009  0.9981329E+02  0.7561462E-02  0.1280689E+00
          1   -1    0    0  501    0  0.00000000000E+00  0.00000000000E+00  0.69906216808E+03  0.69906216808E+03  0.00000000000E+00 0. -1.
         -1   -1    0    0    0  501 -0.00000000000E+00 -0.00000000000E+00 -0.21826654035E+02  0.21826654035E+02  0.00000000000E+00 0.  1.
         25    2    1    2    0    0 -0.31563743455E+02  0.26961154419E+02  0.25856190094E+03  0.29021638080E+03  0.12509243508E+03 0.  0.
          5    1    3    3  502    0  0.34100319335E+02  0.67862519272E+01  0.18953637633E+03  0.19274437825E+03  0.41800000000E+01 0.  1.
         -5    1    3    3    0  502 -0.65664062790E+02  0.20174902491E+02  0.69025524611E+02  0.97472002546E+02  0.41800000000E+01 0.  1.
        -11    1    1    2    0    0  0.42322081576E+02  0.20567859816E+02  0.13805451770E+03  0.14585350631E+03  0.00000000000E+00 0. -1.
         11    1    1    2    0    0 -0.10758338121E+02 -0.47529014234E+02  0.28061909540E+03  0.28481893501E+03  0.00000000000E+00 0.  1.
</event>
<event>
 7    1  0.3265282E-009  0.1048546E+03  0.7561462E-02  0.1270406E+00
          2   -1    0    0  501    0  0.00000000000E+00  0.00000000000E+00  0.26125641533E+02  0.26125641533E+02  0.00000000000E+00 0. -1.
         -2   -1    0    0    0  501 -0.00000000000E+00 -0.00000000000E+00 -0.47235562378E+03  0.47235562378E+03  0.00000000000E+00 0.  1.
         25    2    1    2    0    0 -0.67531418023E+01 -0.86481857137E+01 -0.20980282468E+03  0.24451136927E+03  0.12509271929E+03 0.  0.
          5    1    3    3  502    0  0.21576669137E+02 -0.57766485568E+02 -0.68842432123E+02  0.92516335674E+02  0.41800000000E+01 0. -1.
         -5    1    3    3    0  502 -0.28329810940E+02  0.49118299854E+02 -0.14096039255E+03  0.15199503359E+03  0.41800000000E+01 0. -1.
        -11    1    1    2    0    0  0.39811490957E+02  0.31577879103E+02 -0.10737393503E+03  0.11879090531E+03  0.00000000000E+00 0. -1.
         11    1    1    2    0    0 -0.33058349155E+02 -0.22929693390E+02 -0.12905322254E+03  0.13517899073E+03  0.00000000000E+00 0.  1.
</event>
<event>
 7    1  0.3265282E-009  0.9533883E+02  0.7561462E-02  0.1290415E+00
         -1   -1    0    0    0  501 -0.00000000000E+00  0.00000000000E+00  0.20832376909E+02  0.20832376909E+02  0.00000000000E+00 0.  1.
          1   -1    0    0  501    0  0.00000000000E+00 -0.00000000000E+00 -0.59895378395E+03  0.59895378395E+03  0.00000000000E+00 0. -1.
         25    2    1    2    0    0  0.10244238884E+02  0.11887744910E+02 -0.38515403766E+03  0.40526221514E+03  0.12509023698E+03 0.  0.
          5    1    3    3  502    0 -0.50672520525E+02 -0.56698641652E+01 -0.25909393636E+03  0.26409655802E+03  0.41800000000E+01 0. -1.
         -5    1    3    3    0  502  0.60916759408E+02  0.17557609075E+02 -0.12606010129E+03  0.14116565712E+03  0.41800000000E+01 0. -1.
        -11    1    1    2    0    0 -0.38551174078E+02 -0.23763149215E+02 -0.17068934151E+03  0.17659482322E+03  0.00000000000E+00 0. -1.
         11    1    1    2    0    0  0.28306935194E+02  0.11875404305E+02 -0.22278027876E+02  0.37929122499E+02  0.00000000000E+00 0.  1.
</event>
<event>
 7    1  0.3265282E-009  0.1329689E+03  0.7561462E-02  0.1223116E+00
         -1   -1    0    0    0  501 -0.00000000000E+00  0.00000000000E+00  0.89207141478E+03  0.89207141478E+03  0.00000000000E+00 0.  1.
          1   -1    0    0  501    0  0.00000000000E+00 -0.00000000000E+00 -0.25248081853E+02  0.25248081853E+02  0.00000000000E+00 0. -1.
         25    2    1    2    0    0 -0.20386501907E+02 -0.99537502518E+02  0.41710685942E+03  0.44715638054E+03  0.12508945845E+03 0.  0.
          5    1    3    3  502    0  0.28497295849E+02 -0.14201559279E+02  0.25849966762E+03  0.26048671889E+03  0.41800000000E+01 0.  1.
         -5    1    3    3    0  502 -0.48883797756E+02 -0.85335943239E+02  0.15860719180E+03  0.18666966166E+03  0.41800000000E+01 0.  1.
        -11    1    1    2    0    0  0.50270183110E+02  0.91572424379E+02  0.31225527198E+03  0.32926578185E+03  0.00000000000E+00 0.  1.
         11    1    1    2    0    0 -0.29883681203E+02  0.79650781387E+01  0.13746120152E+03  0.14089733424E+03  0.00000000000E+00 0. -1.
</event>
<event>
 7    1  0.3265282E-009  0.2770044E+03  0.7561462E-02  0.1097336E+00
         -1   -1    0    0    0  501 -0.00000000000E+00  0.00000000000E+00  0.14554803008E+03  0.14554803008E+03  0.00000000000E+00 0.  1.
          1   -1    0    0  501    0  0.00000000000E+00 -0.00000000000E+00 -0.54334459873E+03  0.54334459873E+03  0.00000000000E+00 0. -1.
         25    2    1    2    0    0 -0.21354100397E+03 -0.14201594855E+03 -0.16019727064E+03  0.32722939242E+03  0.12509044617E+03 0.  0.
          5    1    3    3  502    0  0.12904033902E+02  0.50771781748E+01 -0.13976407662E+02  0.20127200508E+02  0.41800000000E+01 0.  1.
         -5    1    3    3    0  502 -0.22644503787E+03 -0.14709312672E+03 -0.14622086298E+03  0.30710219191E+03  0.41800000000E+01 0.  1.
        -11    1    1    2    0    0  0.11368419411E+03  0.26420282743E+02 -0.13065561218E+03  0.17519422457E+03  0.00000000000E+00 0.  1.
         11    1    1    2    0    0  0.99856809865E+02  0.11559566580E+03 -0.10694368583E+03  0.18646901181E+03  0.00000000000E+00 0. -1.
</event>
<event>
 7    1  0.3265282E-009  0.1547150E+03  0.7561462E-02  0.1194796E+00
          1   -1    0    0  501    0  0.00000000000E+00  0.00000000000E+00  0.14932360032E+03  0.14932360032E+03  0.00000000000E+00 0. -1.
         -1   -1    0    0    0  501 -0.00000000000E+00 -0.00000000000E+00 -0.21263198231E+03  0.21263198231E+03  0.00000000000E+00 0.  1.
         25    2    1    2    0    0 -0.12002477595E+03 -0.54868467853E+02  0.16479426399E+02  0.18258118058E+03  0.12509124830E+03 0.  0.
          5    1    3    3  502    0 -0.12157265325E+03 -0.64851119312E+02 -0.24637259609E+02  0.14003586917E+03  0.41800000000E+01 0.  1.
         -5    1    3    3    0  502  0.15478772999E+01  0.99826514593E+01  0.41116686008E+02  0.42545311405E+02  0.41800000000E+01 0.  1.
        -11    1    1    2    0    0  0.28263774865E+02  0.62474325400E+02 -0.33283900472E+02  0.76221390268E+02  0.00000000000E+00 0.  1.
         11    1    1    2    0    0  0.91761001085E+02 -0.76058575474E+01 -0.46503907915E+02  0.10315301179E+03  0.00000000000E+00 0. -1.
</event>
<event>
 7    1  0.3265282E-009  0.8522026E+02  0.7561462E-02  0.1314858E+00
         -3   -1    0    0    0  501 -0.00000000000E+00  0.00000000000E+00  0.34615690066E+03  0.34615690066E+03  0.00000000000E+00 0.  1.
          3   -1    0    0  501    0  0.00000000000E+00 -0.00000000000E+00 -0.41683603129E+02  0.41683603129E+02  0.00000000000E+00 0. -1.
         25    2    1    2    0    0 -0.18741639082E+02  0.57788374009E+02  0.18946143488E+03  0.23501952708E+03  0.12509115714E+03 0.  0.
          5    1    3    3  502    0  0.11069011162E+02 -0.13282882476E+02 -0.10515811588E+02  0.20664284849E+02  0.41800000000E+01 0. -1.
         -5    1    3    3    0  502 -0.29810650244E+02  0.71071256485E+02  0.19997724647E+03  0.21435524223E+03  0.41800000000E+01 0. -1.
        -11    1    1    2    0    0  0.31780304929E+02 -0.25831798019E+02  0.11070689211E+03  0.11803933892E+03  0.00000000000E+00 0.  1.
         11    1    1    2    0    0 -0.13038665847E+02 -0.31956575990E+02  0.43049705317E+01  0.34781637790E+02  0.00000000000E+00 0. -1.
</event>
<event>
 7    1  0.3265282E-009  0.1777644E+03  0.7561462E-02  0.1169984E+00
          2   -1    0    0  501    0  0.00000000000E+00  0.00000000000E+00  0.11575772462E+04  0.11575772462E+04  0.00000000000E+00 0. -1.
         -2   -1    0    0    0  501 -0.00000000000E+00 -0.00000000000E+00 -0.30078413955E+02  0.30078413955E+02  0.00000000000E+00 0.  1.
         25    2    1    2    0    0 -0.14782527562E+03 -0.27908482299E+02  0.62895376601E+03  0.65868282534E+03  0.12509607956E+03 0.  0.
          5    1    3    3  502    0 -0.13317713828E+02  0.39591413401E+02  0.94008239564E+02  0.10295563619E+03  0.41800000000E+01 0.  1.
         -5    1    3    3    0  502 -0.13450756179E+03 -0.67499895701E+02  0.53494552645E+03  0.55572718915E+03  0.41800000000E+01 0.  1.
        -11    1    1    2    0    0  0.11703655966E+03  0.47712723985E+02  0.45426476468E+03  0.47151939171E+03  0.00000000000E+00 0. -1.
         11    1    1    2    0    0  0.30788715952E+02 -0.19804241686E+02  0.44280301539E+02  0.57453443092E+02  0.00000000000E+00 0.  1.
</event>
<event>
 7    1  0.3265282E-009  0.1180145E+03  0.7561462E-02  0.1246409E+00
          3   -1    0    0  501    0  0.00000000000E+00  0.00000000000E+00  0.11745046813E+03  0.11745046813E+03  0.00000000000E+00 0. -1.
         -3   -1    0    0    0  501 -0.00000000000E+00 -0.00000000000E+00 -0.23671206423E+03  0.23671206423E+03  0.00000000000E+00 0.  1.
         25    2    1    2    0    0 -0.10592382375E+03 -0.16067963957E+02 -0.13411201904E+03  0.21239524560E+03  0.12509065032E+03 0.  0.
          5    1    3    3  502    0  0.50144213005E+01 -0.52343913697E+01  0.20272095050E+02  0.21931108310E+02  0.41800000000E+01 0.  1.
         -5    1    3    3    0  502 -0.11093824505E+03 -0.10833572587E+02 -0.15438411409E+03  0.19046413729E+03  0.41800000000E+01 0.  1.
        -11    1    1    2    0    0  0.79322346818E+02 -0.86648786107E+01  0.47555227633E+02  0.92890335888E+02  0.00000000000E+00 0. -1.
         11    1    1    2    0    0  0.26601476933E+02  0.24732842568E+02 -0.32704804688E+02  0.48876950868E+02  0.00000000000E+00 0.  1.
</event>
<event>
 7    1  0.3265282E-009  0.6013223E+02  0.7561462E-02  0.1397278E+00
          3   -1    0    0  501    0  0.00000000000E+00  0.00000000000E+00  0.52889819592E+02  0.52889819592E+02  0.00000000000E+00 0. -1.
         -3   -1    0    0    0  501 -0.00000000000E+00 -0.00000000000E+00 -0.25776557470E+03  0.25776557470E+03  0.00000000000E+00 0.  1.
         25    2    1    2    0    0 -0.85450190632E+01  0.87877873070E+01 -0.60049012459E+02  0.13929777880E+03  0.12509094581E+03 0.  0.
          5    1    3    3  502    0  0.18553314967E+02  0.26359794268E+02 -0.89605451304E+02  0.95318799581E+02  0.41800000000E+01 0.  1.
         -5    1    3    3    0  502 -0.27098334030E+02 -0.17572006961E+02  0.29556438846E+02  0.43978979218E+02  0.41800000000E+01 0.  1.
        -11    1    1    2    0    0  0.12590890395E+02  0.21349678169E+02 -0.13797998014E+03  0.14018849524E+03  0.00000000000E+00 0.  1.
         11    1    1    2    0    0 -0.40458713314E+01 -0.30137465476E+02 -0.68467625054E+01  0.31169120247E+02  0.00000000000E+00 0. -1.
</event>
<event>
 7    1  0.3265282E-009  0.1049491E+03  0.7561462E-02  0.1270220E+00
         -1   -1    0    0    0  501 -0.00000000000E+00  0.00000000000E+00  0.20160890173E+02  0.20160890173E+02  0.00000000000E+00 0.  1.
          1   -1    0    0  501    0  0.00000000000E+00 -0.00000000000E+00 -0.88399005272E+03  0.88399005272E+03  0.00000000000E+00 0. -1.
         25    2    1    2    0    0 -0.22003104780E+02 -0.73680614869E+02 -0.47409403043E+03  0.49630998113E+03  0.12508188538E+03 0.  0.
          5    1    3    3  502    0  0.12021052387E+02  0.40695686919E+01  0.12599698993E+01  0.13421140562E+02  0.41800000000E+01 0. -1.
         -5    1    3    3    0  502 -0.34024157167E+02 -0.77750183561E+02 -0.47535400033E+03  0.48288884057E+03  0.41800000000E+01 0. -1.
        -11    1    1    2    0    0  0.48962405959E+02  0.68359321474E+02 -0.34693040050E+03  0.35697481259E+03  0.00000000000E+00 0. -1.
         11    1    1    2    0    0 -0.26959301179E+02  0.53212933948E+01 -0.42804731615E+02  0.50866149177E+02  0.00000000000E+00 0.  1.
</event>
<event>
 7    1  0.3265282E-009  0.1180818E+03  0.7561462E-02  0.1246295E+00
         -1   -1    0    0    0  501 -0.00000000000E+00  0.00000000000E+00  0.24769103192E+02  0.24769103192E+02  0.00000000000E+00 0.  1.
          1   -1    0    0  501    0  0.00000000000E+00 -0.00000000000E+00 -0.10091491659E+04  0.10091491659E+04  0.00000000000E+00 0. -1.
         25    2    1    2    0    0 -0.55252456195E+02 -0.57257680705E+02 -0.80531759361E+03  0.81885408322E+03  0.12511717352E+03 0.  0.
          5    1    3    3  502    0 -0.74967827426E+02 -0.61063093535E+02 -0.78129866258E+03  0.78726993407E+03  0.41800000000E+01 0.  1.
         -5    1    3    3    0  502  0.19715371231E+02  0.38054128300E+01 -0.24018931032E+02  0.31584149149E+02  0.41800000000E+01 0.  1.
        -11    1    1    2    0    0  0.77818530191E+02  0.29790812537E+02 -0.11905791597E+03  0.14532034788E+03  0.00000000000E+00 0. -1.
         11    1    1    2    0    0 -0.22566073996E+02  0.27466868168E+02 -0.60004553137E+02  0.69743838005E+02  0.00000000000E+00 0.  1.
</event>
<event>
 7    1  0.3265282E-009  0.5363708E+02  0.7561462E-02  0.1426656E+00
         -1   -1    0    0    0  501 -0.00000000000E+00  0.00000000000E+00  0.46604626513E+02  0.46604626513E+02  0.00000000000E+00 0.  1.
          1   -1    0    0  501    0  0.00000000000E+00 -0.00000000000E+00 -0.25313436523E+03  0.25313436523E+03  0.00000000000E+00 0. -1.
         25    2    1    2    0    0  0.21727678889E+02  0.26413170441E+01 -0.76732749224E+02  0.14836581555E+03  0.12508170064E+03 0.  0.
          5    1    3    3  502    0 -0.22933051238E+02  0.12059015751E+02 -0.95349275882E+02  0.98895406927E+02  0.41800000000E+01 0.  1.
         -5    1    3    3    0  502  0.44660730127E+02 -0.94176987068E+01  0.18616526658E+02  0.49470408622E+02  0.41800000000E+01 0.  1.
        -11    1    1    2    0    0 -0.43279101833E+00 -0.11947524798E+02  0.61567127281E+01  0.13447519045E+02  0.00000000000E+00 0.  1.
         11    1    1    2    0    0 -0.21294887870E+02  0.93062077536E+01 -0.13595370222E+03  0.13792565715E+03  0.00000000000E+00 0. -1.
</event>
<event>
 7    1  0.3265282E-009  0.1506231E+03  0.7561462E-02  0.1199709E+00
         -2   -1    0    0    0  501 -0.00000000000E+00  0.00000000000E+00  0.28149268471E+03  0.28149268471E+03  0.00000000000E+00 0. -1.
          2   -1    0    0  501    0  0.00000000000E+00 -0.00000000000E+00 -0.10523382308E+03  0.10523382308E+03  0.00000000000E+00 0.  1.
         25    2    1    2    0    0 -0.67943994112E+02  0.84280992988E+02  0.58663659316E+01  0.16553550259E+03  0.12509163142E+03 0.  0.
          5    1    3    3  502    0  0.10419662373E+01  0.90713129727E+02  0.23726064401E+02  0.93863497327E+02  0.41800000000E+01 0.  1.
         -5    1    3    3    0  502 -0.68985960350E+02 -0.64321367385E+01 -0.17859698470E+02  0.71672005259E+02  0.41800000000E+01 0.  1.
        -11    1    1    2    0    0  0.12221996202E+02 -0.84417409050E+02  0.10129562129E+03  0.13242537156E+03  0.00000000000E+00 0.  1.
         11    1    1    2    0    0  0.55721997910E+02  0.13641606231E+00  0.69096874414E+02  0.88765633633E+02  0.00000000000E+00 0. -1.
</event>
<event>
 7    1  0.3265282E-009  0.2375878E+03  0.7561462E-02  0.1121410E+00
         -2   -1    0    0    0  501 -0.00000000000E+00  0.00000000000E+00  0.61800951780E+02  0.61800951780E+02  0.00000000000E+00 0.  1.
          2   -1    0    0  501    0  0.00000000000E+00 -0.00000000000E+00 -0.10087781073E+04  0.10087781073E+04  0.00000000000E+00 0. -1.
         25    2    1    2    0    0  0.21403509389E+03 -0.23481375884E+02 -0.61871638494E+03  0.66694782255E+03  0.12508811524E+03 0.  0.
          5    1    3    3  502    0  0.15628639981E+03  0.33204928629E+02 -0.32373736717E+03  0.36104204928E+03  0.41800000000E+01 0.  1.
         -5    1    3    3    0  502  0.57748694075E+02 -0.56686304513E+02 -0.29497901778E+03  0.30590577326E+03  0.41800000000E+01 0.  1.
        -11    1    1    2    0    0 -0.19701590219E+03  0.49580695513E+02 -0.27463606768E+03  0.34161159342E+03  0.00000000000E+00 0.  1.
         11    1    1    2    0    0 -0.17019191696E+02 -0.26099319629E+02 -0.53624702843E+02  0.62019643067E+02  0.00000000000E+00 0. -1.
</event>
<event>
 7    1  0.3265282E-009  0.1019237E+03  0.7561462E-02  0.1276302E+00
          1   -1    0    0  501    0  0.00000000000E+00  0.00000000000E+00  0.33397110725E+03  0.33397110725E+03  0.00000000000E+00 0. -1.
         -1   -1    0    0    0  501 -0.00000000000E+00 -0.00000000000E+00 -0.56483579018E+02  0.56483579018E+02  0.00000000000E+00 0.  1.
         25    2    1    2    0    0 -0.36453703017E+02  0.10826584849E+02  0.48399594911E+02  0.13941483851E+03  0.12509152252E+03 0.  0.
          5    1    3    3  502    0  0.39702259250E+02 -0.22698100077E+02  0.72452500573E+01  0.46491280742E+02  0.41800000000E+01 0. -1.
         -5    1    3    3    0  502 -0.76155962267E+02  0.33524684926E+02  0.41154344854E+02  0.92923557769E+02  0.41800000000E+01 0. -1.
        -11    1    1    2    0    0  0.30413292903E+02 -0.36916454335E+02  0.21600061350E+03  0.22123304007E+03  0.00000000000E+00 0. -1.
         11    1    1    2    0    0  0.60404101135E+01  0.26089869486E+02  0.13087319815E+02  0.29806807680E+02  0.00000000000E+00 0.  1.
</event>
<event>
 7    1  0.3278186E-009  0.1111438E+03  0.7561462E-02  0.1258466E+00
          1   -1    0    0  501    0  0.00000000000E+00  0.00000000000E+00  0.37975837774E+02  0.37975837774E+02  0.00000000000E+00 0. -1.
         -1   -1    0    0    0  501 -0.00000000000E+00 -0.00000000000E+00 -0.54233506063E+03  0.54233506063E+03  0.00000000000E+00 0.  1.
         25    2    1    2    0    0  0.61957314870E+02  0.57374436320E+02 -0.35776824424E+03  0.38829961377E+03  0.12509172101E+03 0.  0.
          5    1    3    3  502    0 -0.28319801580E+02  0.24052364528E+02 -0.19990028986E+03  0.20336697295E+03  0.41800000000E+01 0.  1.
         -5    1    3    3    0  502  0.90277116450E+02  0.33322071792E+02 -0.15786795438E+03  0.18493264082E+03  0.41800000000E+01 0.  1.
        -11    1    1    2    0    0 -0.41215715955E+02 -0.53402610189E+02 -0.15518374893E+03  0.16921161293E+03  0.00000000000E+00 0.  1.
         11    1    1    2    0    0 -0.20741598914E+02 -0.39718261313E+01  0.85927703088E+01  0.22799671706E+02  0.00000000000E+00 0. -1.
</event>
<event>
 7    1  0.3265282E-009  0.9612554E+02  0.7561462E-02  0.1288661E+00
         -2   -1    0    0    0  501 -0.00000000000E+00  0.00000000000E+00  0.10051445769E+03  0.10051445769E+03  0.00000000000E+00 0.  1.
          2   -1    0    0  501    0  0.00000000000E+00 -0.00000000000E+00 -0.13977300174E+03  0.13977300174E+03  0.00000000000E+00 0. -1.
         25    2    1    2    0    0  0.14673511058E+02 -0.37493203023E+02 -0.13835936716E+02  0.13213077025E+03  0.12508419206E+03 0.  0.
          5    1    3    3  502    0  0.68837973827E+01 -0.83833356663E+02 -0.81178705512E+01  0.84609636438E+02  0.41800000000E+01 0. -1.
         -5    1    3    3    0  502  0.77897136756E+01  0.46340153641E+02 -0.57180661652E+01  0.47521133817E+02  0.41800000000E+01 0. -1.
        -11    1    1    2    0    0 -0.14043407608E+02  0.48162437307E+02  0.25393560345E+02  0.56228734394E+02  0.00000000000E+00 0.  1.
         11    1    1    2    0    0 -0.63010345030E+00 -0.10669234285E+02 -0.50816167673E+02  0.51927954779E+02  0.00000000000E+00 0. -1.
</event>
<event>
 7    1  0.3265282E-009  0.1024886E+03  0.7561462E-02  0.1275148E+00
         -1   -1    0    0    0  501 -0.00000000000E+00  0.00000000000E+00  0.53060194919E+03  0.53060194919E+03  0.00000000000E+00 0.  1.
          1   -1    0    0  501    0  0.00000000000E+00 -0.00000000000E+00 -0.34346017398E+02  0.34346017398E+02  0.00000000000E+00 0. -1.
         25    2    1    2    0    0  0.75937271744E+02 -0.53772104868E+01  0.33202446850E+03  0.36288382286E+03  0.12509611335E+03 0.  0.
          5    1    3    3  502    0  0.40761547175E+02  0.30364621654E+02  0.29754205881E+03  0.30188120700E+03  0.41800000000E+01 0. -1.
         -5    1    3    3    0  502  0.35175724569E+02 -0.35741832141E+02  0.34482409688E+02  0.61002615859E+02  0.41800000000E+01 0. -1.
        -11    1    1    2    0    0 -0.55129989451E+02  0.36572399905E+02  0.14616679554E+03  0.16044185330E+03  0.00000000000E+00 0.  1.
         11    1    1    2    0    0 -0.20807282293E+02 -0.31195189418E+02  0.18064667741E+02  0.41622290421E+02  0.00000000000E+00 0. -1.
</event>
<event>
 7    1  0.3265282E-009  0.1052214E+03  0.7561462E-02  0.1269684E+00
         -2   -1    0    0    0  501 -0.00000000000E+00  0.00000000000E+00  0.13685429829E+02  0.13685429829E+02  0.00000000000E+00 0.  1.
          2   -1    0    0  501    0  0.00000000000E+00 -0.00000000000E+00 -0.83619025908E+03  0.83619025908E+03  0.00000000000E+00 0. -1.
         25    2    1    2    0    0  0.21640879568E+02 -0.41009734325E+02 -0.50645755681E+03  0.52373336190E+03  0.12508897446E+03 0.  0.
          5    1    3    3  502    0  0.28048773712E+02 -0.84550897462E+02 -0.33445706730E+03  0.34614244212E+03  0.41800000000E+01 0. -1.
         -5    1    3    3    0  502 -0.64078941441E+01  0.43541163136E+02 -0.17200048951E+03  0.17759091977E+03  0.41800000000E+01 0. -1.
        -11    1    1    2    0    0 -0.37798214412E+02  0.57022910427E+01 -0.10958920417E+03  0.11606470095E+03  0.00000000000E+00 0.  1.
         11    1    1    2    0    0  0.16157334844E+02  0.35307443282E+02 -0.20645806827E+03  0.21007762607E+03  0.00000000000E+00 0. -1.
</event>
<event>
 7    1  0.3265282E-009  0.8005622E+02  0.7561462E-02  0.1328892E+00
         -2   -1    0    0    0  501 -0.00000000000E+00  0.00000000000E+00  0.17221093688E+03  0.17221093688E+03  0.00000000000E+00 0.  1.
          2   -1    0    0  501    0  0.00000000000E+00 -0.00000000000E+00 -0.95903139523E+02  0.95903139523E+02  0.00000000000E+00 0. -1.
         25    2    1    2    0    0 -0.39613579496E+02 -0.11655500968E+02 -0.16936894392E+02  0.13280437536E+03  0.12508020363E+03 0.  0.
          5    1    3    3  502    0 -0.24883224034E+02 -0.36741151520E+02 -0.63596710473E+02  0.77660163767E+02  0.41800000000E+01 0. -1.
         -5    1    3    3    0  502 -0.14730355461E+02  0.25085650552E+02  0.46659816081E+02  0.55144211594E+02  0.41800000000E+01 0. -1.
        -11    1    1    2    0    0  0.56903277452E+02 -0.10689937635E+02  0.89800068721E+02  0.10684713423E+03  0.00000000000E+00 0.  1.
         11    1    1    2    0    0 -0.17289697956E+02  0.22345438602E+02  0.34446230302E+01  0.28462566812E+02  0.00000000000E+00 0. -1.
</event>
<event>
 7    1  0.3265282E-009  0.1229810E+03  0.7561462E-02  0.1238259E+00
         -2   -1    0    0    0  501 -0.00000000000E+00  0.00000000000E+00  0.19122547056E+03  0.19122547056E+03  0.00000000000E+00 0.  1.
          2   -1    0    0  501    0  0.00000000000E+00 -0.00000000000E+00 -0.95505790786E+02  0.95505790786E+02  0.00000000000E+00 0. -1.
         25    2    1    2    0    0  0.50466672767E+02  0.62640909119E+02  0.43639062541E+02  0.15500291505E+03  0.12510302689E+03 0.  0.
          5    1    3    3  502    0  0.17422371799E+02 -0.33922305028E+02 -0.99783737393E+01  0.39639653883E+02  0.41800000000E+01 0.  1.
         -5    1    3    3    0  502  0.33044300968E+02  0.96563214147E+02  0.53617436280E+02  0.11536326116E+03  0.41800000000E+01 0.  1.
        -11    1    1    2    0    0 -0.47853972633E+02 -0.54062486607E+01  0.56529283117E+02  0.74261632564E+02  0.00000000000E+00 0.  1.
         11    1    1    2    0    0 -0.26127001340E+01 -0.57234660458E+02 -0.44486658811E+01  0.57466713738E+02  0.00000000000E+00 0. -1.
</event>
<event>
 7    1  0.3265282E-009  0.1039837E+03  0.7561462E-02  0.1272135E+00
          1   -1    0    0  501    0  0.00000000000E+00  0.00000000000E+00  0.28025063091E+02  0.28025063091E+02  0.00000000000E+00 0. -1.
         -1   -1    0    0    0  501 -0.00000000000E+00 -0.00000000000E+00 -0.46469168338E+03  0.46469168338E+03  0.00000000000E+00 0.  1.
         25    2    1    2    0    0 -0.14243691071E+02  0.21735467199E+02 -0.29792266063E+03  0.32416123411E+03  0.12508909112E+03 0.  0.
          5    1    3    3  502    0 -0.15867495548E+02  0.68746455284E+02 -0.11282689519E+03  0.13313614539E+03  0.41800000000E+01 0.  1.
         -5    1    3    3    0  502  0.16238044773E+01 -0.47010988086E+02 -0.18509576543E+03  0.19102508873E+03  0.41800000000E+01 0.  1.
        -11    1    1    2    0    0 -0.23231598393E+02 -0.41602541593E+02 -0.44461355998E+02  0.65171242186E+02  0.00000000000E+00 0. -1.
         11    1    1    2    0    0  0.37475289465E+02  0.19867074394E+02 -0.94282603665E+02  0.10338427017E+03  0.00000000000E+00 0.  1.
</event>
<event>
 7    1  0.3265282E-009  0.9684499E+02  0.7561462E-02  0.1287074E+00
         -2   -1    0    0    0  501 -0.00000000000E+00  0.00000000000E+00  0.40702490787E+03  0.40702490787E+03  0.00000000000E+00 0. -1.
          2   -1    0    0  501    0  0.00000000000E+00 -0.00000000000E+00 -0.36924485219E+02  0.36924485219E+02  0.00000000000E+00 0.  1.
         25    2    1    2    0    0  0.58681195002E+02 -0.11085161365E+02  0.20287160006E+03  0.24570783316E+03  0.12509632174E+03 0.  0.
          5    1    3    3  502    0  0.51560042439E+02 -0.53388907073E+02  0.18438838685E+03  0.19880986641E+03  0.41800000000E+01 0.  1.
         -5    1    3    3    0  502  0.71211525634E+01  0.42303745708E+02  0.18483213210E+02  0.46897966751E+02  0.41800000000E+01 0.  1.
        -11    1    1    2    0    0 -0.25145646710E+02 -0.18746893781E+02  0.14462514239E+03  0.14798709872E+03  0.00000000000E+00 0. -1.
         11    1    1    2    0    0 -0.33535548293E+02  0.29832055146E+02  0.22603680199E+02  0.50254461215E+02  0.00000000000E+00 0.  1.
</event>
<event>
 7    1  0.3265282E-009  0.2082194E+03  0.7561462E-02  0.1142984E+00
          2   -1    0    0  501    0  0.00000000000E+00  0.00000000000E+00  0.12643781405E+03  0.12643781405E+03  0.00000000000E+00 0. -1.
         -2   -1    0    0    0  501 -0.00000000000E+00 -0.00000000000E+00 -0.44100604322E+03  0.44100604322E+03  0.00000000000E+00 0.  1.
         25    2    1    2    0    0  0.42087901476E+02 -0.19825273020E+03 -0.23324011416E+03  0.33335247568E+03  0.12508951079E+03 0.  0.
          5    1    3    3  502    0  0.47122019810E+01 -0.46378914065E+02 -0.14790297973E+03  0.15513211250E+03  0.41800000000E+01 0. -1.
         -5    1    3    3    0  502  0.37375699496E+02 -0.15187381613E+03 -0.85337134428E+02  0.17822036318E+03  0.41800000000E+01 0. -1.
        -11    1    1    2    0    0 -0.54396178120E+02  0.19162006628E+03 -0.58997484480E+02  0.20774478855E+03  0.00000000000E+00 0.  1.
         11    1    1    2    0    0  0.12308276643E+02  0.66326639226E+01 -0.22330630532E+02  0.26346593036E+02  0.00000000000E+00 0. -1.
</event>
<event>
 7    1  0.3265282E-009  0.8541068E+02  0.7561462E-02  0.1314362E+00
         -1   -1    0    0    0  501 -0.00000000000E+00  0.00000000000E+00  0.10978108117E+03  0.10978108117E+03  0.00000000000E+00 0.  1.
          1   -1    0    0  501    0  0.00000000000E+00 -0.00000000000E+00 -0.20497721585E+03  0.20497721585E+03  0.00000000000E+00 0. -1.
         25    2    1    2    0    0  0.60565708186E+02  0.55264811030E+02  0.12135970037E+02  0.15005569201E+03  0.12508806734E+03 0.  0.
          5    1    3    3  502    0  0.96019358448E+01  0.86311094446E+00  0.60298862712E+02  0.61207576139E+02  0.41800000000E+01 0.  1.
         -5    1    3    3    0  502  0.50963772341E+02  0.54401700086E+02 -0.48162892675E+02  0.88848115873E+02  0.41800000000E+01 0.  1.
        -11    1    1    2    0    0 -0.34468517055E+02 -0.46986191344E+02 -0.46787536260E+01  0.58460855112E+02  0.00000000000E+00 0.  1.
         11    1    1    2    0    0 -0.26097191131E+02 -0.82786196862E+01 -0.10265335109E+03  0.10624174989E+03  0.00000000000E+00 0. -1.
</event>
<event>
 7    1  0.3265282E-009  0.1294498E+03  0.7561462E-02  0.1228274E+00
         -1   -1    0    0    0  501 -0.00000000000E+00  0.00000000000E+00  0.16673650423E+02  0.16673650423E+02  0.00000000000E+00 0.  1.
          1   -1    0    0  501    0  0.00000000000E+00 -0.00000000000E+00 -0.11125251036E+04  0.11125251036E+04  0.00000000000E+00 0. -1.
         25    2    1    2    0    0 -0.76631830088E+02 -0.13065043598E+02 -0.64916778167E+03  0.66566442121E+03  0.12508868919E+03 0.  0.
          5    1    3    3  502    0  0.28855921143E+02 -0.34539542952E+01 -0.57365004804E+02  0.64442301025E+02  0.41800000000E+01 0.  1.
         -5    1    3    3    0  502 -0.10548775123E+03 -0.96110893024E+01 -0.59180277687E+03  0.60122212019E+03  0.41800000000E+01 0.  1.
        -11    1    1    2    0    0 -0.22987996261E+02 -0.49354225435E+00 -0.70988671473E+02  0.74619588806E+02  0.00000000000E+00 0. -1.
         11    1    1    2    0    0  0.99619826349E+02  0.13558585852E+02 -0.37569500000E+03  0.38891474397E+03  0.00000000000E+00 0.  1.
</event>
<event>
 7    1  0.3265282E-009  0.1200197E+03  0.7561462E-02  0.1243065E+00
          1   -1    0    0  501    0  0.00000000000E+00  0.00000000000E+00  0.47215290117E+03  0.47215290117E+03  0.00000000000E+00 0. -1.
         -1   -1    0    0    0  501 -0.00000000000E+00 -0.00000000000E+00 -0.64826632625E+02  0.64826632625E+02  0.00000000000E+00 0.  1.
         25    2    1    2    0    0  0.97464115185E+02 -0.23403948660E+02  0.35771835939E+03  0.39199169386E+03  0.12509222537E+03 0.  0.
          5    1    3    3  502    0  0.62014385114E+02 -0.19412718702E+01  0.34178675044E+03  0.34739776579E+03  0.41800000000E+01 0. -1.
         -5    1    3    3    0  502  0.35449730070E+02 -0.21462676790E+02  0.15931608951E+02  0.44593928071E+02  0.41800000000E+01 0. -1.
        -11    1    1    2    0    0 -0.11137072357E+03  0.28756726000E+01  0.41818296382E+02  0.11899780450E+03  0.00000000000E+00 0.  1.
         11    1    1    2    0    0  0.13906608390E+02  0.20528276060E+02  0.77896127667E+01  0.25990035436E+02  0.00000000000E+00 0. -1.
</event>
<event>
 7    1  0.3265282E-009  0.1139912E+03  0.7561462E-02  0.1253352E+00
         -1   -1    0    0    0  501 -0.00000000000E+00  0.00000000000E+00  0.77115566933E+02  0.77115566933E+02  0.00000000000E+00 0.  1.
          1   -1    0    0  501    0  0.00000000000E+00 -0.00000000000E+00 -0.42504636890E+03  0.42504636890E+03  0.00000000000E+00 0. -1.
         25    2    1    2    0    0 -0.58541351927E+02  0.82054973764E+02 -0.41020221759E+02  0.16580378715E+03  0.12509248033E+03 0.  0.
          5    1    3    3  502    0  0.12964107646E+02  0.26683338443E+02 -0.65492858465E+02  0.72019827460E+02  0.41800000000E+01 0. -1.
         -5    1    3    3    0  502 -0.71505459574E+02  0.55371635322E+02  0.24472636706E+02  0.93783959686E+02  0.41800000000E+01 0. -1.
        -11    1    1    2    0    0  0.53418921924E+02 -0.44328525065E+02 -0.78471801129E+02  0.10476842524E+03  0.00000000000E+00 0.  1.
         11    1    1    2    0    0  0.51224300038E+01 -0.37726448699E+02 -0.22843877908E+03  0.23158972345E+03  0.00000000000E+00 0. -1.
</event>
<event>
 7    1  0.3265282E-009  0.1446379E+03  0.7561462E-02  0.1207221E+00
          2   -1    0    0  501    0  0.00000000000E+00  0.00000000000E+00  0.20391069724E+03  0.20391069724E+03  0.00000000000E+00 0.  1.
         -2   -1    0    0    0  501 -0.00000000000E+00 -0.00000000000E+00 -0.12591028612E+03  0.12591028612E+03  0.00000000000E+00 0. -1.
         25    2    1    2    0    0  0.96767995130E+02  0.83289490444E+01 -0.18583033879E+02  0.15945517949E+03  0.12508880384E+03 0.  0.
          5    1    3    3  502    0  0.64197732275E+02 -0.56259194296E+02 -0.16033680711E+02  0.86953994096E+02  0.41800000000E+01 0. -1.
         -5    1    3    3    0  502  0.32570262855E+02  0.64588143341E+02 -0.25493531678E+01  0.72501185398E+02  0.41800000000E+01 0. -1.
        -11    1    1    2    0    0 -0.68554140576E+02  0.37047284951E+02  0.26648318854E+02  0.82354747344E+02  0.00000000000E+00 0. -1.
         11    1    1    2    0    0 -0.28213854554E+02 -0.45376233996E+02  0.69935126142E+02  0.88011056515E+02  0.00000000000E+00 0.  1.
</event>
<event>
 7    1  0.3265282E-009  0.2157515E+03  0.7561462E-02  0.1137091E+00
         -3   -1    0    0    0  501 -0.00000000000E+00  0.00000000000E+00  0.49464735552E+03  0.49464735552E+03  0.00000000000E+00 0.  1.
          3   -1    0    0  501    0  0.00000000000E+00 -0.00000000000E+00 -0.10658140645E+03  0.10658140645E+03  0.00000000000E+00 0. -1.
         25    2    1    2    0    0  0.18625077740E+03  0.62834990502E+02  0.26460345784E+03  0.35256141995E+03  0.12508787641E+03 0.  0.
          5    1    3    3  502    0 -0.68466689087E+01  0.16253212987E+02 -0.39034549999E+01  0.18540581666E+02  0.41800000000E+01 0. -1.
         -5    1    3    3    0  502  0.19309744630E+03  0.46581777514E+02  0.26850691284E+03  0.33402083828E+03  0.41800000000E+01 0. -1.
        -11    1    1    2    0    0 -0.76211013450E+02  0.17817275127E+02  0.57557600681E+02  0.97151692009E+02  0.00000000000E+00 0.  1.
         11    1    1    2    0    0 -0.11003976395E+03 -0.80652265629E+02  0.65904890552E+02  0.15151565001E+03  0.00000000000E+00 0. -1.
</event>
<event>
 7    1  0.3265282E-009  0.1202433E+03  0.7561462E-02  0.1242696E+00
         -2   -1    0    0    0  501 -0.00000000000E+00  0.00000000000E+00  0.34404506441E+02  0.34404506441E+02  0.00000000000E+00 0. -1.
          2   -1    0    0  501    0  0.00000000000E+00 -0.00000000000E+00 -0.45154271037E+03  0.45154271037E+03  0.00000000000E+00 0.  1.
         25    2    1    2    0    0  0.53407314230E+02 -0.35746475492E+02 -0.19123848235E+03  0.23738145620E+03  0.12509055476E+03 0.  0.
          5    1    3    3  502    0  0.22694740174E+01 -0.75362000056E+02 -0.11058802747E+03  0.13390954329E+03  0.41800000000E+01 0.  1.
         -5    1    3    3    0  502  0.51137840212E+02  0.39615524563E+02 -0.80650454877E+02  0.10347191290E+03  0.41800000000E+01 0.  1.
        -11    1    1    2    0    0 -0.44414233144E+02 -0.16317854288E+02 -0.13934156979E+03  0.14715627593E+03  0.00000000000E+00 0. -1.
         11    1    1    2    0    0 -0.89930810853E+01  0.52064329781E+02 -0.86558151793E+02  0.10140948469E+03  0.00000000000E+00 0.  1.
</event>
<event>
 7    1  0.3265282E-009  0.1180583E+03  0.7561462E-02  0.1246335E+00
          2   -1    0    0  501    0  0.00000000000E+00  0.00000000000E+00  0.17324300515E+03  0.17324300515E+03  0.00000000000E+00 0. -1.
         -2   -1    0    0    0  501 -0.00000000000E+00 -0.00000000000E+00 -0.92171475299E+02  0.92171475299E+02  0.00000000000E+00 0.  1.
         25    2    1    2    0    0  0.38025325134E+02  0.50431519404E+02  0.33082352809E+02  0.14398709695E+03  0.12509427853E+03 0.  0.
          5    1    3    3  502    0  0.34922323286E+02 -0.34087752804E+02  0.33440867392E+02  0.59306893080E+02  0.41800000000E+01 0.  1.
         -5    1    3    3    0  502  0.31030018477E+01  0.84519272208E+02 -0.35851458329E+00  0.84680203871E+02  0.41800000000E+01 0.  1.
        -11    1    1    2    0    0 -0.37959679655E+02  0.12164640493E+02  0.42998367307E+02  0.58632545134E+02  0.00000000000E+00 0.  1.
         11    1    1    2    0    0 -0.65645478810E-01 -0.62596159897E+02  0.49908097345E+01  0.62794838363E+02  0.00000000000E+00 0. -1.
</event>
<event>
 7    1  0.3265282E-009  0.6173454E+02  0.7561462E-02  0.1390694E+00
          2   -1    0    0  501    0  0.00000000000E+00  0.00000000000E+00  0.61391817142E+03  0.61391817142E+03  0.00000000000E+00 0.  1.
         -2   -1    0    0    0  501 -0.00000000000E+00 -0.00000000000E+00 -0.51351188346E+02  0.51351188346E+02  0.00000000000E+00 0. -1.
         25    2    1    2    0    0  0.11218794904E+02  0.17172870306E+02  0.55705268270E+03  0.57129404221E+03  0.12509365505E+03 0.  0.
          5    1    3    3  502    0  0.25644768515E+01  0.21787306013E+02  0.55983135921E+03  0.56027661597E+03  0.41800000000E+01 0.  1.
         -5    1    3    3    0  502  0.86543180521E+01 -0.46144357079E+01 -0.27786765141E+01  0.11017426243E+02  0.41800000000E+01 0.  1.
        -11    1    1    2    0    0  0.17752925372E+01  0.35844738332E+02  0.14400449078E+02  0.38670012455E+02  0.00000000000E+00 0. -1.
         11    1    1    2    0    0 -0.12994087441E+02 -0.53017608637E+02 -0.88861486957E+01  0.55305305104E+02  0.00000000000E+00 0.  1.
</event>
<event>
 7    1  0.3265282E-009  0.1287960E+03  0.7561462E-02  0.1229253E+00
          1   -1    0    0  501    0  0.00000000000E+00  0.00000000000E+00  0.11276632229E+03  0.11276632229E+03  0.00000000000E+00 0. -1.
         -1   -1    0    0    0  501 -0.00000000000E+00 -0.00000000000E+00 -0.53047365303E+03  0.53047365303E+03  0.00000000000E+00 0.  1.
         25    2    1    2    0    0 -0.10994084583E+03 -0.29954296338E+02  0.30295027348E+02  0.17190404541E+03  0.12509581406E+03 0.  0.
          5    1    3    3  502    0 -0.84441411542E+02  0.20404360318E+02 -0.27295964216E+02  0.91154988704E+02  0.41800000000E+01 0. -1.
         -5    1    3    3    0  502 -0.25499434285E+02 -0.50358656657E+02  0.57590991564E+02  0.80749056703E+02  0.41800000000E+01 0. -1.
        -11    1    1    2    0    0  0.65177384284E+02  0.19792860015E+02 -0.39665958136E+03  0.40246574042E+03  0.00000000000E+00 0.  1.
         11    1    1    2    0    0  0.44763461543E+02  0.10161436323E+02 -0.51342776725E+02  0.68870189482E+02  0.00000000000E+00 0. -1.
</event>
<event>
 7    1  0.3265282E-009  0.9527560E+02  0.7561462E-02  0.1290557E+00
          2   -1    0    0  501    0  0.00000000000E+00  0.00000000000E+00  0.19316221527E+04  0.19316221527E+04  0.00000000000E+00 0. -1.
         -2   -1    0    0    0  501 -0.00000000000E+00 -0.00000000000E+00 -0.68569651984E+01  0.68569651984E+01  0.00000000000E+00 0.  1.
         25    2    1    2    0    0 -0.69007816865E+01  0.22433668442E+02  0.14671645997E+04  0.14726743965E+04  0.12508806990E+03 0.  0.
          5    1    3    3  502    0  0.28459429146E+02  0.51353357406E+02  0.12113812052E+04  0.12128103739E+04  0.41800000000E+01 0. -1.
         -5    1    3    3    0  502 -0.35360210832E+02 -0.28919688964E+02  0.25578339449E+03  0.25986402255E+03  0.41800000000E+01 0. -1.
        -11    1    1    2    0    0 -0.32941777798E+02  0.10019916537E+02  0.14674928819E+03  0.15073457810E+03  0.00000000000E+00 0.  1.
         11    1    1    2    0    0  0.39842559484E+02 -0.32453584979E+02  0.31085129959E+03  0.31507014327E+03  0.00000000000E+00 0. -1.
</event>
<event>
 7    1  0.3265282E-009  0.1192003E+03  0.7561462E-02  0.1244422E+00
          2   -1    0    0  501    0  0.00000000000E+00  0.00000000000E+00  0.38417044985E+03  0.38417044985E+03  0.00000000000E+00 0. -1.
         -2   -1    0    0    0  501 -0.00000000000E+00 -0.00000000000E+00 -0.10417150642E+03  0.10417150642E+03  0.00000000000E+00 0.  1.
         25    2    1    2    0    0  0.84308361384E+02 -0.34686468461E+02  0.31775648899E+03  0.35345066309E+03  0.12508850487E+03 0.  0.
          5    1    3    3  502    0  0.19908548460E+02 -0.56004647063E+02  0.51818548290E+02  0.78965214755E+02  0.41800000000E+01 0.  1.
         -5    1    3    3    0  502  0.64399812923E+02  0.21318178601E+02  0.26593794070E+03  0.27448544834E+03  0.41800000000E+01 0.  1.
        -11    1    1    2    0    0 -0.25854265350E+02 -0.18523637208E+02  0.19481779203E+02  0.37297558809E+02  0.00000000000E+00 0. -1.
         11    1    1    2    0    0 -0.58454096034E+02  0.53210105669E+02 -0.57239324761E+02  0.97593734366E+02  0.00000000000E+00 0.  1.
</event>
<event>
 7    1  0.3265282E-009  0.1487517E+03  0.7561462E-02  0.1202015E+00
         -2   -1    0    0    0  501 -0.00000000000E+00  0.00000000000E+00  0.16579215276E+02  0.16579215276E+02  0.00000000000E+00 0.  1.
          2   -1    0    0  501    0  0.00000000000E+00 -0.00000000000E+00 -0.14835009158E+04  0.14835009158E+04  0.00000000000E+00 0. -1.
         25    2    1    2    0    0  0.12465980040E+03  0.20329248651E+02 -0.79628318456E+03  0.81588459286E+03  0.12508962650E+03 0.  0.
          5    1    3    3  502    0 -0.12965118980E+02 -0.14758549377E+02 -0.27343394540E+02  0.33927020424E+02  0.41800000000E+01 0. -1.
         -5    1    3    3    0  502  0.13762491938E+03  0.35087798028E+02 -0.76893979003E+03  0.78195757244E+03  0.41800000000E+01 0. -1.
        -11    1    1    2    0    0 -0.43196383806E+02 -0.31002752139E+02 -0.28169525226E+03  0.28666934500E+03  0.00000000000E+00 0.  1.
         11    1    1    2    0    0 -0.81463416596E+02  0.10673503488E+02 -0.38894326374E+03  0.39752619326E+03  0.00000000000E+00 0. -1.
</event>
<event>
 7    1  0.3265282E-009  0.4953232E+02  0.7561462E-02  0.1447881E+00
         -4   -1    0    0    0  501 -0.00000000000E+00  0.00000000000E+00  0.69464247798E+02  0.69464247798E+02  0.00000000000E+00 0.  1.
          4   -1    0    0  501    0  0.00000000000E+00 -0.00000000000E+00 -0.15699153122E+03  0.15699153122E+03  0.00000000000E+00 0. -1.
         25    2    1    2    0    0 -0.29601274260E+02 -0.17384926155E+02 -0.41943198862E+02  0.13632089400E+03  0.12508270510E+03 0.  0.
          5    1    3    3  502    0 -0.18544108084E+02 -0.33671183751E+02 -0.82463400087E+02  0.91078632586E+02  0.41800000000E+01 0.  1.
         -5    1    3    3    0  502 -0.11057166176E+02  0.16286257596E+02  0.40520201226E+02  0.45242261412E+02  0.41800000000E+01 0.  1.
        -11    1    1    2    0    0  0.13805205126E+02 -0.33518198424E+01 -0.59091654167E+02  0.60775340205E+02  0.00000000000E+00 0. -1.
         11    1    1    2    0    0  0.15796069134E+02  0.20736745998E+02  0.13507569611E+02  0.29359544810E+02  0.00000000000E+00 0.  1.
</event>
<event>
 7    1  0.3265282E-009  0.1273511E+03  0.7561462E-02  0.1231440E+00
          2   -1    0    0  501    0  0.00000000000E+00  0.00000000000E+00  0.17569753915E+03  0.17569753915E+03  0.00000000000E+00 0. -1.
         -2   -1    0    0    0  501 -0.00000000000E+00 -0.00000000000E+00 -0.21640733297E+03  0.21640733297E+03  0.00000000000E+00 0.  1.
         25    2    1    2    0    0 -0.72596300450E+02  0.14808161971E+02  0.12290124690E+03  0.19037161958E+03  0.12508849888E+03 0.  0.
          5    1    3    3  502    0 -0.43181087694E+02 -0.50148286044E+02  0.89844381053E+02  0.11166441749E+03  0.41800000000E+01 0. -1.
         -5    1    3    3    0  502 -0.29415212756E+02  0.64956448016E+02  0.33056865849E+02  0.78707202085E+02  0.41800000000E+01 0. -1.
        -11    1    1    2    0    0  0.79996231461E+02  0.19110870173E+02 -0.10216109584E+03  0.13115453446E+03  0.00000000000E+00 0. -1.
         11    1    1    2    0    0 -0.73999310113E+01 -0.33919032145E+02 -0.61449944882E+02  0.70578718086E+02  0.00000000000E+00 0.  1.
</event>
<event>
 7    1  0.3265282E-009  0.1381688E+03  0.7561462E-02  0.1215814E+00
         -2   -1    0    0    0  501 -0.00000000000E+00  0.00000000000E+00  0.98501191032E+02  0.98501191032E+02  0.00000000000E+00 0. -1.
          2   -1    0    0  501    0  0.00000000000E+00 -0.00000000000E+00 -0.31532498080E+03  0.31532498080E+03  0.00000000000E+00 0.  1.
         25    2    1    2    0    0 -0.13445559349E+03  0.10213024937E+02 -0.13526354850E+03  0.22831114625E+03  0.12508852645E+03 0.  0.
          5    1    3    3  502    0 -0.13073628797E+03  0.49964315016E+01 -0.15750085036E+03  0.20479485244E+03  0.41800000000E+01 0. -1.
         -5    1    3    3    0  502 -0.37193055185E+01  0.52165934358E+01  0.22237301861E+02  0.23516293812E+02  0.41800000000E+01 0. -1.
        -11    1    1    2    0    0  0.84952845359E+02 -0.20125061617E+02 -0.99098472339E+02  0.13207009979E+03  0.00000000000E+00 0.  1.
         11    1    1    2    0    0  0.49502748133E+02  0.99120366795E+01  0.17538231066E+02  0.53444925791E+02  0.00000000000E+00 0. -1.
</event>
<event>
 7    1  0.3265282E-009  0.9076429E+02  0.7561462E-02  0.1301011E+00
         -1   -1    0    0    0  501 -0.00000000000E+00  0.00000000000E+00  0.13481691148E+02  0.13481691148E+02  0.00000000000E+00 0.  1.
          1   -1    0    0  501    0  0.00000000000E+00 -0.00000000000E+00 -0.10256799210E+04  0.10256799210E+04  0.00000000000E+00 0. -1.
         25    2    1    2    0    0 -0.31143179975E+02  0.21261127606E+02 -0.67564978383E+03  0.68816436110E+03  0.12508246994E+03 0.  0.
          5    1    3    3  502    0  0.14276590796E+02  0.31774145748E+02 -0.51811569969E+02  0.62572586373E+02  0.41800000000E+01 0.  1.
         -5    1    3    3    0  502 -0.45419770771E+02 -0.10513018142E+02 -0.62383821386E+03  0.62559177473E+03  0.41800000000E+01 0.  1.
        -11    1    1    2    0    0  0.42371969175E+02  0.26896393079E+02 -0.17407602866E+03  0.18116639724E+03  0.00000000000E+00 0. -1.
         11    1    1    2    0    0 -0.11228789200E+02 -0.48157520686E+02 -0.16247241736E+03  0.16983085382E+03  0.00000000000E+00 0.  1.
</event>
<event>
 7    1  0.3265282E-009  0.1912142E+03  0.7561462E-02  0.1157371E+00
         -2   -1    0    0    0  501 -0.00000000000E+00  0.00000000000E+00  0.11358314515E+03  0.11358314515E+03  0.00000000000E+00 0.  1.
          2   -1    0    0  501    0  0.00000000000E+00 -0.00000000000E+00 -0.35324029037E+03  0.35324029037E+03  0.00000000000E+00 0. -1.
         25    2    1    2    0    0 -0.16224716634E+03  0.33441703876E+02 -0.93587697557E+02  0.22770314050E+03  0.12509025747E+03 0.  0.
          5    1    3    3  502    0 -0.15582219245E+03  0.63225751217E+02 -0.10081588354E+03  0.19611059647E+03  0.41800000000E+01 0. -1.
         -5    1    3    3    0  502 -0.64249738979E+01 -0.29784047341E+02  0.72281859790E+01  0.31592544028E+02  0.41800000000E+01 0. -1.
        -11    1    1    2    0    0  0.29771928475E+02  0.24800383450E+02 -0.89630796438E+01  0.39771390987E+02  0.00000000000E+00 0. -1.
         11    1    1    2    0    0  0.13247523787E+03 -0.58242087325E+02 -0.13710636803E+03  0.19934890403E+03  0.00000000000E+00 0.  1.
</event>
<event>
 7    1  0.3265282E-009  0.1004536E+03  0.7561462E-02  0.1279345E+00
          2   -1    0    0  501    0  0.00000000000E+00  0.00000000000E+00  0.66398572119E+02  0.66398572119E+02  0.00000000000E+00 0. -1.
         -2   -1    0    0    0  501 -0.00000000000E+00 -0.00000000000E+00 -0.17967910023E+03  0.17967910023E+03  0.00000000000E+00 0.  1.
         25    2    1    2    0    0 -0.21488091980E+02  0.15023969664E+02 -0.68075017591E+02  0.14480608141E+03  0.12508851039E+03 0.  0.
          5    1    3    3  502    0  0.42360269335E+02  0.33339890334E+02 -0.70821380849E+01  0.54530448242E+02  0.41800000000E+01 0.  1.
         -5    1    3    3    0  502 -0.63848361315E+02 -0.18315920670E+02 -0.60992879506E+02  0.90275633163E+02  0.41800000000E+01 0.  1.
        -11    1    1    2    0    0  0.49331384066E+02 -0.15605834502E+01 -0.36781917490E+01  0.49492928476E+02  0.00000000000E+00 0. -1.
         11    1    1    2    0    0 -0.27843292086E+02 -0.13463386214E+02 -0.41527318767E+02  0.51778662464E+02  0.00000000000E+00 0.  1.
</event>
<event>
 7    1  0.3265282E-009  0.1269127E+03  0.7561462E-02  0.1232110E+00
         -1   -1    0    0    0  501 -0.00000000000E+00  0.00000000000E+00  0.10157139331E+03  0.10157139331E+03  0.00000000000E+00 0.  1.
          1   -1    0    0  501    0  0.00000000000E+00 -0.00000000000E+00 -0.23723245183E+03  0.23723245183E+03  0.00000000000E+00 0. -1.
         25    2    1    2    0    0 -0.38408023356E+02 -0.88682319881E+02 -0.12841738802E+03  0.20366295724E+03  0.12509134458E+03 0.  0.
          5    1    3    3  502    0 -0.72727596853E+01  0.20464497337E+02 -0.74920522566E+02  0.78116872609E+02  0.41800000000E+01 0. -1.
         -5    1    3    3    0  502 -0.31135263671E+02 -0.10914681722E+03 -0.53496865452E+02  0.12554608463E+03  0.41800000000E+01 0. -1.
        -11    1    1    2    0    0 -0.48385257157E+00  0.77722593168E+02 -0.35889705229E+02  0.85610201165E+02  0.00000000000E+00 0. -1.
         11    1    1    2    0    0  0.38891875927E+02  0.10959726713E+02  0.28646034726E+02  0.49530686734E+02  0.00000000000E+00 0.  1.
</event>
<event>
 7    1  0.3265282E-009  0.8979408E+02  0.7561462E-02  0.1303351E+00
         -2   -1    0    0    0  501 -0.00000000000E+00  0.00000000000E+00  0.36038253476E+02  0.36038253476E+02  0.00000000000E+00 0.  1.
          2   -1    0    0  501    0  0.00000000000E+00 -0.00000000000E+00 -0.38989838265E+03  0.38989838265E+03  0.00000000000E+00 0. -1.
         25    2    1    2    0    0  0.41792890333E+01  0.56019425752E+02 -0.25937023968E+03  0.29338470938E+03  0.12508406752E+03 0.  0.
          5    1    3    3  502    0  0.15190239025E+02  0.71621899540E+02 -0.26340590651E+03  0.27342381725E+03  0.41800000000E+01 0.  1.
         -5    1    3    3    0  502 -0.11010949991E+02 -0.15602473788E+02  0.40356668263E+01  0.19960892133E+02  0.41800000000E+01 0.  1.
        -11    1    1    2    0    0  0.16020072215E+02 -0.63252668522E+02 -0.89087176672E+02  0.11042675326E+03  0.00000000000E+00 0. -1.
         11    1    1    2    0    0 -0.20199361249E+02  0.72332427695E+01 -0.54027128210E+01  0.22125173483E+02  0.00000000000E+00 0.  1.
</event>
<event>
 7    1  0.3265282E-009  0.1846077E+03  0.7561462E-02  0.1163417E+00
         -1   -1    0    0    0  501 -0.00000000000E+00  0.00000000000E+00  0.41032215685E+03  0.41032215685E+03  0.00000000000E+00 0.  1.
          1   -1    0    0  501    0  0.00000000000E+00 -0.00000000000E+00 -0.11467724679E+03  0.11467724679E+03  0.00000000000E+00 0. -1.
         25    2    1    2    0    0  0.10426458370E+03  0.13317166390E+03  0.25192681763E+03  0.32820739796E+03  0.12508868514E+03 0.  0.
          5    1    3    3  502    0  0.77234289446E+02  0.28823092268E+02  0.18147578759E+03  0.19936609540E+03  0.41800000000E+01 0.  1.
         -5    1    3    3    0  502  0.27030294255E+02  0.10434857164E+03  0.70451030044E+02  0.12884130256E+03  0.41800000000E+01 0.  1.
        -11    1    1    2    0    0 -0.21774207085E+02 -0.74379027743E+02  0.54759218352E+02  0.94894298336E+02  0.00000000000E+00 0.  1.
         11    1    1    2    0    0 -0.82490376616E+02 -0.58792636160E+02 -0.11041125930E+02  0.10189770735E+03  0.00000000000E+00 0. -1.
</event>
<event>
 7    1  0.3265282E-009  0.1063180E+03  0.7561462E-02  0.1267544E+00
         -2   -1    0    0    0  501 -0.00000000000E+00  0.00000000000E+00  0.12958252867E+03  0.12958252867E+03  0.00000000000E+00 0.  1.
          2   -1    0    0  501    0  0.00000000000E+00 -0.00000000000E+00 -0.10032843452E+03  0.10032843452E+03  0.00000000000E+00 0. -1.
         25    2    1    2    0    0 -0.10197661682E+02 -0.34746789243E+02  0.83266181795E+01  0.13049132359E+03  0.12508925332E+03 0.  0.
          5    1    3    3  502    0  0.33088099091E+02  0.27302336933E+02 -0.22582210326E+02  0.48658694256E+02  0.41800000000E+01 0. -1.
         -5    1    3    3    0  502 -0.43285760773E+02 -0.62049126176E+02  0.30908828506E+02  0.81832629339E+02  0.41800000000E+01 0. -1.
        -11    1    1    2    0    0  0.48593075906E+02  0.17179239815E+02 -0.15943845770E+01  0.51565059574E+02  0.00000000000E+00 0.  1.
         11    1    1    2    0    0 -0.38395414224E+02  0.17567549428E+02  0.22521860555E+02  0.47854580023E+02  0.00000000000E+00 0. -1.
</event>
<event>
 7    1  0.3265282E-009  0.1436148E+03  0.7561462E-02  0.1208546E+00
          2   -1    0    0  501    0  0.00000000000E+00  0.00000000000E+00  0.91066948372E+03  0.91066948372E+03  0.00000000000E+00 0. -1.
         -2   -1    0    0    0  501 -0.00000000000E+00 -0.00000000000E+00 -0.35663417817E+02  0.35663417817E+02  0.00000000000E+00 0.  1.
         25    2    1    2    0    0 -0.96041173679E+02  0.61174784965E+02  0.67574334168E+03  0.69659342464E+03  0.12508826515E+03 0.  0.
          5    1    3    3  502    0  0.14376136734E+02  0.15894205717E+02  0.18584869847E+02  0.28673487231E+02  0.41800000000E+01 0.  1.
         -5    1    3    3    0  502 -0.11041731041E+03  0.45280579248E+02  0.65715847183E+03  0.66791993741E+03  0.41800000000E+01 0.  1.
        -11    1    1    2    0    0  0.10163629550E+03 -0.78084850390E+02  0.19120965427E+03  0.23019190322E+03  0.00000000000E+00 0. -1.
         11    1    1    2    0    0 -0.55951218197E+01  0.16910065425E+02  0.80530699646E+01  0.19547573678E+02  0.00000000000E+00 0.  1.
</event>
<event>
 7    1  0.3265282E-009  0.6358132E+02  0.7561462E-02  0.1383389E+00
         -2   -1    0    0    0  501 -0.00000000000E+00  0.00000000000E+00  0.98578546997E+02  0.98578546997E+02  0.00000000000E+00 0.  1.
          2   -1    0    0  501    0  0.00000000000E+00 -0.00000000000E+00 -0.12621320712E+03  0.12621320712E+03  0.00000000000E+00 0. -1.
         25    2    1    2    0    0  0.25503476417E+02  0.48510567488E+01 -0.56062991755E+01  0.12787953257E+03  0.12509110360E+03 0.  0.
          5    1    3    3  502    0 -0.18225541694E+02 -0.66055605149E+01  0.51348805198E+02  0.55045217730E+02  0.41800000000E+01 0. -1.
         -5    1    3    3    0  502  0.43729018110E+02  0.11456617264E+02 -0.56955104373E+02  0.72834314840E+02  0.41800000000E+01 0. -1.
        -11    1    1    2    0    0 -0.19820283162E+02 -0.30107436977E+02 -0.48142079251E+02  0.60141177080E+02  0.00000000000E+00 0. -1.
         11    1    1    2    0    0 -0.56831932549E+01  0.25256380228E+02  0.26113718302E+02  0.36771044469E+02  0.00000000000E+00 0.  1.
</event>
<event>
 7    1  0.3265282E-009  0.2103543E+03  0.7561462E-02  0.1141286E+00
         -2   -1    0    0    0  501 -0.00000000000E+00  0.00000000000E+00  0.60596605080E+02  0.60596605080E+02  0.00000000000E+00 0. -1.
          2   -1    0    0  501    0  0.00000000000E+00 -0.00000000000E+00 -0.88165037072E+03  0.88165037072E+03  0.00000000000E+00 0.  1.
         25    2    1    2    0    0  0.13570196869E+03 -0.14980571939E+03 -0.36332362288E+03  0.43417589298E+03  0.12509145947E+03 0.  0.
          5    1    3    3  502    0  0.10028762150E+03 -0.14983841246E+03 -0.21025665367E+03  0.27700990900E+03  0.41800000000E+01 0. -1.
         -5    1    3    3    0  502  0.35414347195E+02  0.32693065971E-01 -0.15306696921E+03  0.15716598398E+03  0.41800000000E+01 0. -1.
        -11    1    1    2    0    0 -0.19395284121E+02  0.41333049322E+02 -0.20060625344E+03  0.20573640157E+03  0.00000000000E+00 0.  1.
         11    1    1    2    0    0 -0.11630668457E+03  0.10847267007E+03 -0.25712388932E+03  0.30233468125E+03  0.00000000000E+00 0. -1.
</event>
<event>
 7    1  0.3265282E-009  0.1054591E+03  0.7561462E-02  0.1269218E+00
         -2   -1    0    0    0  501 -0.00000000000E+00  0.00000000000E+00  0.99161763446E+02  0.99161763446E+02  0.00000000000E+00 0.  1.
          2   -1    0    0  501    0  0.00000000000E+00 -0.00000000000E+00 -0.15827798802E+03  0.15827798802E+03  0.00000000000E+00 0. -1.
         25    2    1    2    0    0  0.40476502636E+02  0.44152297842E+02 -0.50308510542E+02  0.14753211793E+03  0.12508799670E+03 0.  0.
          5    1    3    3  502    0  0.23933213292E+02 -0.31150263859E+02  0.18945483911E+02  0.43812571228E+02  0.41800000000E+01 0. -1.
         -5    1    3    3    0  502  0.16543289344E+02  0.75302561701E+02 -0.69253994453E+02  0.10371954670E+03  0.41800000000E+01 0. -1.
        -11    1    1    2    0    0  0.20729984180E+02 -0.18686788159E+02  0.23199505416E+02  0.36292497122E+02  0.00000000000E+00 0.  1.
         11    1    1    2    0    0 -0.61206486816E+02 -0.25465509683E+02 -0.32007219445E+02  0.73615136408E+02  0.00000000000E+00 0. -1.
</event>
<event>
 7    1  0.3265282E-009  0.1587209E+03  0.7561462E-02  0.1190148E+00
         -2   -1    0    0    0  501 -0.00000000000E+00  0.00000000000E+00  0.10304457115E+03  0.10304457115E+03  0.00000000000E+00 0.  1.
          2   -1    0    0  501    0  0.00000000000E+00 -0.00000000000E+00 -0.38478051934E+03  0.38478051934E+03  0.00000000000E+00 0. -1.
         25    2    1    2    0    0  0.10526869687E+03 -0.46106044501E+02 -0.97541609414E+00  0.16987009507E+03  0.12509049477E+03 0.  0.
          5    1    3    3  502    0  0.30190575594E+02  0.42920082488E+02  0.67998800362E+01  0.53078386411E+02  0.41800000000E+01 0. -1.
         -5    1    3    3    0  502  0.75078121281E+02 -0.89026126989E+02 -0.77752961303E+01  0.11679170866E+03  0.41800000000E+01 0. -1.
        -11    1    1    2    0    0  0.16614832139E+02 -0.29651478475E+01 -0.21808114028E+02  0.27576050954E+02  0.00000000000E+00 0.  1.
         11    1    1    2    0    0 -0.12188352901E+03  0.49071192349E+02 -0.25895241807E+03  0.29037894446E+03  0.00000000000E+00 0. -1.
</event>
<event>
 7    1  0.3265282E-009  0.1147942E+03  0.7561462E-02  0.1251941E+00
          2   -1    0    0  501    0  0.00000000000E+00  0.00000000000E+00  0.13491409066E+03  0.13491409066E+03  0.00000000000E+00 0. -1.
         -2   -1    0    0    0  501 -0.00000000000E+00 -0.00000000000E+00 -0.11314279533E+03  0.11314279533E+03  0.00000000000E+00 0.  1.
         25    2    1    2    0    0 -0.42681584190E+02 -0.12114353111E+02 -0.31101084584E+02  0.13631806874E+03  0.12508742232E+03 0.  0.
          5    1    3    3  502    0 -0.22608107473E+02 -0.68632335038E+02 -0.20886121389E+02  0.75334098541E+02  0.41800000000E+01 0.  1.
         -5    1    3    3    0  502 -0.20073476718E+02  0.56517981928E+02 -0.10214963195E+02  0.60983970204E+02  0.41800000000E+01 0.  1.
        -11    1    1    2    0    0  0.87404673382E+01 -0.36646540510E+02  0.11675418886E+02  0.39442110831E+02  0.00000000000E+00 0. -1.
         11    1    1    2    0    0  0.33941116852E+02  0.48760893621E+02  0.41196961032E+02  0.72296706413E+02  0.00000000000E+00 0.  1.
</event>
<event>
 7    1  0.3265282E-009  0.1115065E+03  0.7561462E-02  0.1257805E+00
          2   -1    0    0  501    0  0.00000000000E+00  0.00000000000E+00  0.13093049131E+03  0.13093049131E+03  0.00000000000E+00 0. -1.
         -2   -1    0    0    0  501 -0.00000000000E+00 -0.00000000000E+00 -0.97789712559E+02  0.97789712559E+02  0.00000000000E+00 0.  1.
         25    2    1    2    0    0 -0.27745334060E+01  0.27455126047E+02  0.16972091027E+01  0.12810650474E+03  0.12508762552E+03 0.  0.
          5    1    3    3  502    0  0.60703140255E+02  0.14147995802E+02  0.71914005952E+01  0.62882634046E+02  0.41800000000E+01 0. -1.
         -5    1    3    3    0  502 -0.63477673661E+02  0.13307130244E+02 -0.54941914925E+01  0.65223870698E+02  0.41800000000E+01 0. -1.
        -11    1    1    2    0    0 -0.42456409824E+02 -0.27005935183E+02  0.17667498110E+02  0.53329239257E+02  0.00000000000E+00 0. -1.
         11    1    1    2    0    0  0.45230943230E+02 -0.44919086337E+00  0.13776071538E+02  0.47284459867E+02  0.00000000000E+00 0.  1.
</event>
<event>
 7    1  0.3265282E-009  0.1590655E+03  0.7561462E-02  0.1189756E+00
          2   -1    0    0  501    0  0.00000000000E+00  0.00000000000E+00  0.13615542290E+03  0.13615542290E+03  0.00000000000E+00 0.  1.
         -2   -1    0    0    0  501 -0.00000000000E+00 -0.00000000000E+00 -0.29307645759E+03  0.29307645759E+03  0.00000000000E+00 0. -1.
         25    2    1    2    0    0  0.76737322368E+02 -0.10773198155E+03  0.28257969061E+02  0.18421622414E+03  0.12506921255E+03 0.  0.
          5    1    3    3  502    0  0.85566285201E+02 -0.36521843009E+02 -0.23009505374E+02  0.95928848202E+02  0.41800000000E+01 0.  1.
         -5    1    3    3    0  502 -0.88289628327E+01 -0.71210138539E+02  0.51267474434E+02  0.88287375939E+02  0.41800000000E+01 0.  1.
        -11    1    1    2    0    0 -0.76273701459E+02  0.41386892557E+02 -0.14011690434E+03  0.16481292210E+03  0.00000000000E+00 0. -1.
         11    1    1    2    0    0 -0.46362090918E+00  0.66345088990E+02 -0.45062099415E+02  0.80202734250E+02  0.00000000000E+00 0.  1.
</event>
<event>
 7    1  0.3265282E-009  0.1226174E+03  0.7561462E-02  0.1238841E+00
         -2   -1    0    0    0  501 -0.00000000000E+00  0.00000000000E+00  0.47138075452E+02  0.47138075452E+02  0.00000000000E+00 0.  1.
          2   -1    0    0  501    0  0.00000000000E+00 -0.00000000000E+00 -0.39704929610E+03  0.39704929610E+03  0.00000000000E+00 0. -1.
         25    2    1    2    0    0 -0.43668454136E+02  0.68183069265E+02 -0.22561988766E+03  0.27038235680E+03  0.12508565201E+03 0.  0.
          5    1    3    3  502    0  0.22132920901E+02 -0.78723843880E+01 -0.59145698646E+00  0.23867610792E+02  0.41800000000E+01 0. -1.
         -5    1    3    3    0  502 -0.65801375037E+02  0.76055453653E+02 -0.22502843068E+03  0.24651474601E+03  0.41800000000E+01 0. -1.
        -11    1    1    2    0    0 -0.26533435287E+02 -0.32538269958E+02 -0.34144425008E+02  0.54116577490E+02  0.00000000000E+00 0.  1.
         11    1    1    2    0    0  0.70201889423E+02 -0.35644799307E+02 -0.90146907977E+02  0.11968843726E+03  0.00000000000E+00 0. -1.
</event>
<event>
 7    1  0.3265282E-009  0.9730655E+02  0.7561462E-02  0.1286064E+00
         -3   -1    0    0    0  501 -0.00000000000E+00  0.00000000000E+00  0.23757284699E+02  0.23757284699E+02  0.00000000000E+00 0.  1.
          3   -1    0    0  501    0  0.00000000000E+00 -0.00000000000E+00 -0.56701482579E+03  0.56701482579E+03  0.00000000000E+00 0. -1.
         25    2    1    2    0    0  0.10794008443E+02  0.34887687606E+02 -0.36465307267E+03  0.38723845894E+03  0.12509236311E+03 0.  0.
          5    1    3    3  502    0  0.66130726366E+02  0.15406836143E+02 -0.15060840218E+03  0.16526042109E+03  0.41800000000E+01 0. -1.
         -5    1    3    3    0  502 -0.55336717923E+02  0.19480851463E+02 -0.21404467049E+03  0.22197803785E+03  0.41800000000E+01 0. -1.
        -11    1    1    2    0    0  0.20091984592E+02 -0.30570809860E+02 -0.16585575707E+03  0.16984226333E+03  0.00000000000E+00 0. -1.
         11    1    1    2    0    0 -0.30885993035E+02 -0.43168777463E+01 -0.12748711355E+02  0.33691388224E+02  0.00000000000E+00 0.  1.
</event>
<event>
 7    1  0.3265282E-009  0.9742102E+02  0.7561462E-02  0.1285815E+00
          2   -1    0    0  501    0  0.00000000000E+00  0.00000000000E+00  0.17007702662E+03  0.17007702662E+03  0.00000000000E+00 0. -1.
         -2   -1    0    0    0  501 -0.00000000000E+00 -0.00000000000E+00 -0.68706852272E+02  0.68706852272E+02  0.00000000000E+00 0.  1.
         25    2    1    2    0    0  0.77828118106E+01 -0.39167551782E+01  0.68788091498E+02  0.14302126820E+03  0.12508944198E+03 0.  0.
          5    1    3    3  502    0 -0.36760858761E+02  0.35734113248E+02  0.65317592866E+02  0.83139328384E+02  0.41800000000E+01 0. -1.
         -5    1    3    3    0  502  0.44543670571E+02 -0.39650868426E+02  0.34704986323E+01  0.59881939812E+02  0.41800000000E+01 0. -1.
        -11    1    1    2    0    0  0.55473350971E+01  0.42470169580E+02  0.34391505480E+02  0.54929626615E+02  0.00000000000E+00 0. -1.
         11    1    1    2    0    0 -0.13330146908E+02 -0.38553414402E+02 -0.18094226299E+01  0.40832984080E+02  0.00000000000E+00 0.  1.
</event>
<event>
 7    1  0.3265282E-009  0.7447927E+02  0.7561462E-02  0.1345491E+00
          2   -1    0    0  501    0  0.00000000000E+00  0.00000000000E+00  0.34588828172E+03  0.34588828172E+03  0.00000000000E+00 0.  1.
         -2   -1    0    0    0  501 -0.00000000000E+00 -0.00000000000E+00 -0.37349101054E+02  0.37349101054E+02  0.00000000000E+00 0. -1.
         25    2    1    2    0    0  0.92907294642E+01 -0.10925713569E+02  0.27027579572E+03  0.29816274517E+03  0.12508528284E+03 0.  0.
          5    1    3    3  502    0  0.38443010388E+02 -0.53508694109E+02  0.20174679203E+03  0.21227408199E+03  0.41800000000E+01 0.  1.
         -5    1    3    3    0  502 -0.29152280924E+02  0.42582980540E+02  0.68529003697E+02  0.85888663178E+02  0.41800000000E+01 0.  1.
        -11    1    1    2    0    0  0.93028078668E+01  0.81443514445E+01  0.57122499697E+02  0.58445296357E+02  0.00000000000E+00 0.  1.
         11    1    1    2    0    0 -0.18593537331E+02  0.27813621247E+01 -0.18859114755E+02  0.26629341244E+02  0.00000000000E+00 0. -1.
</event>
<event>
 7    1  0.3265282E-009  0.1153078E+03  0.7561462E-02  0.1251045E+00
         -2   -1    0    0    0  501 -0.00000000000E+00  0.00000000000E+00  0.10156771906E+03  0.10156771906E+03  0.00000000000E+00 0.  1.
          2   -1    0    0  501    0  0.00000000000E+00 -0.00000000000E+00 -0.24083047489E+03  0.24083047489E+03  0.00000000000E+00 0. -1.
         25    2    1    2    0    0  0.10472509769E+03 -0.59985342411E+01 -0.11857612398E+03  0.20176968840E+03  0.12508949387E+03 0.  0.
          5    1    3    3  502    0  0.15338177961E+02 -0.12510826703E+02 -0.10976857271E+03  0.11161716912E+03  0.41800000000E+01 0.  1.
         -5    1    3    3    0  502  0.89386919734E+02  0.65122924622E+01 -0.88075512747E+01  0.90152519277E+02  0.41800000000E+01 0.  1.
        -11    1    1    2    0    0 -0.76842387265E+02 -0.23222489684E+02 -0.46427510899E+02  0.92733760174E+02  0.00000000000E+00 0. -1.
         11    1    1    2    0    0 -0.27882710429E+02  0.29221023926E+02  0.25740879050E+02  0.47894745374E+02  0.00000000000E+00 0.  1.
</event>
<event>
 7    1  0.3265282E-009  0.9650702E+02  0.7561462E-02  0.1287818E+00
          2   -1    0    0  501    0  0.00000000000E+00  0.00000000000E+00  0.58876713943E+03  0.58876713943E+03  0.00000000000E+00 0. -1.
         -2   -1    0    0    0  501 -0.00000000000E+00 -0.00000000000E+00 -0.20512685737E+02  0.20512685737E+02  0.00000000000E+00 0.  1.
         25    2    1    2    0    0  0.66698254827E+01  0.86981954360E+01  0.38924517616E+03  0.40899653488E+03  0.12508482405E+03 0.  0.
          5    1    3    3  502    0 -0.52608669594E+02  0.31899098482E+02  0.19964670069E+03  0.20895334909E+03  0.41800000000E+01 0.  1.
         -5    1    3    3    0  502  0.59278495077E+02 -0.23200903046E+02  0.18959847546E+03  0.20004318578E+03  0.41800000000E+01 0.  1.
        -11    1    1    2    0    0 -0.18034998862E+02  0.25660460079E+02  0.15179925697E+03  0.15500559607E+03  0.00000000000E+00 0. -1.
         11    1    1    2    0    0  0.11365173379E+02 -0.34358655515E+02  0.27210020565E+02  0.45277694220E+02  0.00000000000E+00 0.  1.
</event>
<event>
 7    1  0.3265282E-009  0.1138890E+03  0.7561462E-02  0.1253533E+00
          2   -1    0    0  501    0  0.00000000000E+00  0.00000000000E+00  0.96465883151E+03  0.96465883151E+03  0.00000000000E+00 0. -1.
         -2   -1    0    0    0  501 -0.00000000000E+00 -0.00000000000E+00 -0.18376586903E+02  0.18376586903E+02  0.00000000000E+00 0.  1.
         25    2    1    2    0    0 -0.64555807378E+02 -0.34623357513E+02  0.37614325463E+03  0.40310972272E+03  0.12508985329E+03 0.  0.
          5    1    3    3  502    0 -0.79703208060E+02  0.59722121855E+01  0.33043403915E+03  0.33998881646E+03  0.41800000000E+01 0. -1.
         -5    1    3    3    0  502  0.15147400682E+02 -0.40595569699E+02  0.45709215479E+02  0.63120906254E+02  0.41800000000E+01 0. -1.
        -11    1    1    2    0    0  0.80155403106E+02  0.37257341145E+02  0.51625215303E+03  0.52376453071E+03  0.00000000000E+00 0. -1.
         11    1    1    2    0    0 -0.15599595728E+02 -0.26339836315E+01  0.53886836954E+02  0.56161164995E+02  0.00000000000E+00 0.  1.
</event>
<event>
 7    1  0.3265282E-009  0.9664726E+02  0.7561462E-02  0.1287509E+00
         -2   -1    0    0    0  501 -0.00000000000E+00  0.00000000000E+00  0.27661118391E+02  0.27661118391E+02  0.00000000000E+00 0.  1.
          2   -1    0    0  501    0  0.00000000000E+00 -0.00000000000E+00 -0.57520872351E+03  0.57520872351E+03  0.00000000000E+00 0. -1.
         25    2    1    2    0    0 -0.42606120900E+02 -0.74170147229E+01 -0.21172333121E+03  0.24968797154E+03  0.12508805102E+03 0.  0.
          5    1    3    3  502    0 -0.18325561785E+02  0.39345832764E+02 -0.15196161083E+02  0.46177012488E+02  0.41800000000E+01 0.  1.
         -5    1    3    3    0  502 -0.24280559115E+02 -0.46762847487E+02 -0.19652717012E+03  0.20351095905E+03  0.41800000000E+01 0.  1.
        -11    1    1    2    0    0  0.27171965956E+02  0.47032567538E+02 -0.10237112551E+03  0.11588884968E+03  0.00000000000E+00 0. -1.
         11    1    1    2    0    0  0.15434154944E+02 -0.39615552815E+02 -0.23345314841E+03  0.23729302069E+03  0.00000000000E+00 0.  1.
</event>
<event>
 7    1  0.3265282E-009  0.2633963E+03  0.7561462E-02  0.1105120E+00
          1   -1    0    0  501    0  0.00000000000E+00  0.00000000000E+00  0.34252474111E+03  0.34252474111E+03  0.00000000000E+00 0. -1.
         -1   -1    0    0    0  501 -0.00000000000E+00 -0.00000000000E+00 -0.21875876794E+03  0.21875876794E+03  0.00000000000E+00 0.  1.
         25    2    1    2    0    0 -0.20578619453E+03  0.14304811148E+03  0.78187062860E+02  0.29081077735E+03  0.12508785460E+03 0.  0.
          5    1    3    3  502    0 -0.40141674171E+02  0.83503270759E+02  0.66942504408E+02  0.11438059944E+03  0.41800000000E+01 0.  1.
         -5    1    3    3    0  502 -0.16564452036E+03  0.59544840717E+02  0.11244558452E+02  0.17643017791E+03  0.41800000000E+01 0.  1.
        -11    1    1    2    0    0  0.18083833390E+03 -0.96041567128E+02  0.63401838610E+02  0.21435083103E+03  0.00000000000E+00 0.  1.
         11    1    1    2    0    0  0.24947860635E+02 -0.47006544348E+02 -0.17822928299E+02  0.56121900671E+02  0.00000000000E+00 0. -1.
</event>
<event>
 7    1  0.3265282E-009  0.1057691E+03  0.7561462E-02  0.1268612E+00
         -1   -1    0    0    0  501 -0.00000000000E+00  0.00000000000E+00  0.19604769423E+03  0.19604769423E+03  0.00000000000E+00 0.  1.
          1   -1    0    0  501    0  0.00000000000E+00 -0.00000000000E+00 -0.82068207425E+02  0.82068207425E+02  0.00000000000E+00 0. -1.
         25    2    1    2    0    0 -0.42957359219E+02  0.48949285583E+02  0.78916444411E+02  0.16160392438E+03  0.12508659364E+03 0.  0.
          5    1    3    3  502    0  0.32531400547E+02 -0.17508316967E+02  0.68507037675E+01  0.37805260569E+02  0.41800000000E+01 0.  1.
         -5    1    3    3    0  502 -0.75488759766E+02  0.66457602550E+02  0.72065740644E+02  0.12379866381E+03  0.41800000000E+01 0.  1.
        -11    1    1    2    0    0  0.47870927353E+02 -0.36147602744E+02 -0.17262073885E+02  0.62419981293E+02  0.00000000000E+00 0. -1.
         11    1    1    2    0    0 -0.49135681342E+01 -0.12801682839E+02  0.52325116280E+02  0.54091995980E+02  0.00000000000E+00 0.  1.
</event>
<event>
 7    1  0.3265282E-009  0.1241765E+03  0.7561462E-02  0.1236362E+00
          2   -1    0    0  501    0  0.00000000000E+00  0.00000000000E+00  0.20573026169E+03  0.20573026169E+03  0.00000000000E+00 0. -1.
         -2   -1    0    0    0  501 -0.00000000000E+00 -0.00000000000E+00 -0.86181786407E+02  0.86181786407E+02  0.00000000000E+00 0.  1.
         25    2    1    2    0    0  0.54574331411E+02  0.36990488195E+02  0.77768858159E+02  0.16137599621E+03  0.12509021940E+03 0.  0.
          5    1    3    3  502    0  0.11470970920E+02 -0.37172268720E+02 -0.80727703161E+01  0.39950003207E+02  0.41800000000E+01 0.  1.
         -5    1    3    3    0  502  0.43103360490E+02  0.74162756915E+02  0.85841628475E+02  0.12142599301E+03  0.41800000000E+01 0.  1.
        -11    1    1    2    0    0  0.19667651954E+02 -0.44572107162E+02  0.11916238307E+02  0.50154620980E+02  0.00000000000E+00 0.  1.
         11    1    1    2    0    0 -0.74241983364E+02  0.75816189673E+01  0.29863378823E+02  0.80381430907E+02  0.00000000000E+00 0. -1.
</event>
<event>
 7    1  0.3265282E-009  0.2499461E+03  0.7561462E-02  0.1113339E+00
          2   -1    0    0  501    0  0.00000000000E+00  0.00000000000E+00  0.20513436438E+04  0.20513436438E+04  0.00000000000E+00 0.  1.
         -2   -1    0    0    0  501 -0.00000000000E+00 -0.00000000000E+00 -0.34957149416E+02  0.34957149416E+02  0.00000000000E+00 0. -1.
         25    2    1    2    0    0 -0.21456024775E+03  0.70025343593E+02  0.14061093894E+04  0.14295910405E+04  0.12508908553E+03 0.  0.
          5    1    3    3  502    0 -0.15912934738E+03  0.10597490427E+03  0.99990896906E+03  0.10180315557E+04  0.41800000000E+01 0. -1.
         -5    1    3    3    0  502 -0.55430900366E+02 -0.35949560676E+02  0.40620042038E+03  0.41155948482E+03  0.41800000000E+01 0. -1.
        -11    1    1    2    0    0  0.10299035272E+03  0.12413783841E+02  0.26995634415E+03  0.28920156039E+03  0.00000000000E+00 0.  1.
         11    1    1    2    0    0  0.11156989503E+03 -0.82439127434E+02  0.34032076076E+03  0.36750819231E+03  0.00000000000E+00 0. -1.
</event>
<event>
 7    1  0.3265282E-009  0.5968173E+02  0.7561462E-02  0.1399172E+00
         -1   -1    0    0    0  501 -0.00000000000E+00  0.00000000000E+00  0.20868520785E+02  0.20868520785E+02  0.00000000000E+00 0.  1.
          1   -1    0    0  501    0  0.00000000000E+00 -0.00000000000E+00 -0.58446814504E+03  0.58446814504E+03  0.00000000000E+00 0. -1.
         25    2    1    2    0    0 -0.46547467379E+01 -0.14779208631E+01 -0.40506305825E+03  0.42397470151E+03  0.12511840570E+03 0.  0.
          5    1    3    3  502    0 -0.34127822680E+02 -0.42778661837E+01 -0.38801030437E+03  0.38955420305E+03  0.41800000000E+01 0. -1.
         -5    1    3    3    0  502  0.29473075942E+02  0.27999453206E+01 -0.17052753886E+02  0.34420498462E+02  0.41800000000E+01 0. -1.
        -11    1    1    2    0    0 -0.19299182955E+02  0.17455736325E+02 -0.67706024665E+01  0.26888701179E+02  0.00000000000E+00 0.  1.
         11    1    1    2    0    0  0.23953929693E+02 -0.15977815462E+02 -0.15176596353E+03  0.15447326313E+03  0.00000000000E+00 0. -1.
</event>
<event>
 7    1  0.3265282E-009  0.9820192E+02  0.7561462E-02  0.1284123E+00
         -2   -1    0    0    0  501 -0.00000000000E+00  0.00000000000E+00  0.37656248794E+02  0.37656248794E+02  0.00000000000E+00 0.  1.
          2   -1    0    0  501    0  0.00000000000E+00 -0.00000000000E+00 -0.40462084768E+03  0.40462084768E+03  0.00000000000E+00 0. -1.
         25    2    1    2    0    0  0.11752056791E+02 -0.54506523293E+02 -0.24807348186E+03  0.28336931259E+03  0.12509453622E+03 0.  0.
          5    1    3    3  502    0 -0.16008112556E+02  0.15630259570E+02 -0.18075131969E+03  0.18217869429E+03  0.41800000000E+01 0. -1.
         -5    1    3    3    0  502  0.27760169348E+02 -0.70136782863E+02 -0.67322162170E+02  0.10119061830E+03  0.41800000000E+01 0. -1.
        -11    1    1    2    0    0 -0.45105861989E+02  0.17775609062E+02 -0.29729545756E+02  0.56871407176E+02  0.00000000000E+00 0.  1.
         11    1    1    2    0    0  0.33353805198E+02  0.36730914232E+02 -0.89161571264E+02  0.10203637671E+03  0.00000000000E+00 0. -1.
</event>
<event>
 7    1  0.3265282E-009  0.1215037E+03  0.7561462E-02  0.1240637E+00
         -2   -1    0    0    0  501 -0.00000000000E+00  0.00000000000E+00  0.49049423589E+02  0.49049423589E+02  0.00000000000E+00 0. -1.
          2   -1    0    0  501    0  0.00000000000E+00 -0.00000000000E+00 -0.35403440182E+03  0.35403440182E+03  0.00000000000E+00 0.  1.
         25    2    1    2    0    0 -0.55363694454E+02  0.50037798059E+02 -0.21506589663E+03  0.25975509347E+03  0.12510175375E+03 0.  0.
          5    1    3    3  502    0  0.25550832678E+02  0.44558303790E+02 -0.13993898157E+03  0.14912638415E+03  0.41800000000E+01 0.  1.
         -5    1    3    3    0  502 -0.80914527132E+02  0.54794942686E+01 -0.75126915062E+02  0.11062870932E+03  0.41800000000E+01 0.  1.
        -11    1    1    2    0    0  0.35672162315E+02 -0.72253325451E+02 -0.55329239009E+02  0.97746462300E+02  0.00000000000E+00 0. -1.
         11    1    1    2    0    0  0.19691532139E+02  0.22215527392E+02 -0.34589842596E+02  0.45582269647E+02  0.00000000000E+00 0.  1.
</event>
<event>
 7    1  0.3265282E-009  0.1268425E+03  0.7561462E-02  0.1232218E+00
         -2   -1    0    0    0  501 -0.00000000000E+00  0.00000000000E+00  0.68717371904E+02  0.68717371904E+02  0.00000000000E+00 0. -1.
          2   -1    0    0  501    0  0.00000000000E+00 -0.00000000000E+00 -0.25931333840E+03  0.25931333840E+03  0.00000000000E+00 0.  1.
         25    2    1    2    0    0  0.27073640126E+01 -0.77367783455E+02 -0.10863569128E+03  0.18286707330E+03  0.12508217036E+03 0.  0.
          5    1    3    3  502    0 -0.48905683758E+01 -0.10558153632E+03 -0.49525919092E+02  0.11679754935E+03  0.41800000000E+01 0. -1.
         -5    1    3    3    0  502  0.75979323884E+01  0.28213752869E+02 -0.59109772186E+02  0.66069523953E+02  0.41800000000E+01 0. -1.
        -11    1    1    2    0    0 -0.14963425580E+02  0.95412066061E+02 -0.74958513747E+02  0.12225442830E+03  0.00000000000E+00 0.  1.
         11    1    1    2    0    0  0.12256061567E+02 -0.18044282605E+02 -0.70017614737E+01  0.22909208708E+02  0.00000000000E+00 0. -1.
</event>
<event>
 7    1  0.3265282E-009  0.1258065E+03  0.7561462E-02  0.1233814E+00
         -1   -1    0    0    0  501 -0.00000000000E+00  0.00000000000E+00  0.89636384173E+02  0.89636384173E+02  0.00000000000E+00 0.  1.
          1   -1    0    0  501    0  0.00000000000E+00 -0.00000000000E+00 -0.18616981390E+03  0.18616981390E+03  0.00000000000E+00 0. -1.
         25    2    1    2    0    0  0.15365295519E+02  0.62242163195E+02 -0.76663873915E+02  0.16010966698E+03  0.12509027425E+03 0.  0.
          5    1    3    3  502    0 -0.50749827473E+02  0.47885254052E+02 -0.55009892316E+02  0.88950003917E+02  0.41800000000E+01 0. -1.
         -5    1    3    3    0  502  0.66115122992E+02  0.14356909143E+02 -0.21653981599E+02  0.71159663065E+02  0.41800000000E+01 0. -1.
        -11    1    1    2    0    0  0.39883034596E+02 -0.30515568593E+02 -0.10453068182E+02  0.51294473480E+02  0.00000000000E+00 0.  1.
         11    1    1    2    0    0 -0.55248330115E+02 -0.31726594602E+02 -0.94164876308E+01  0.64402057614E+02  0.00000000000E+00 0. -1.
</event>
<event>
 7    1  0.3265282E-009  0.1155974E+03  0.7561462E-02  0.1250542E+00
          1   -1    0    0  501    0  0.00000000000E+00  0.00000000000E+00  0.67801727535E+03  0.67801727535E+03  0.00000000000E+00 0. -1.
         -1   -1    0    0    0  501 -0.00000000000E+00 -0.00000000000E+00 -0.24781185600E+02  0.24781185600E+02  0.00000000000E+00 0.  1.
         25    2    1    2    0    0 -0.62193985091E+02  0.20864384118E+02  0.29212797478E+03  0.32447790823E+03  0.12507495745E+03 0.  0.
          5    1    3    3  502    0 -0.87389215676E+02  0.28242698824E+02  0.28100330828E+03  0.29566003571E+03  0.41800000000E+01 0.  1.
         -5    1    3    3    0  502  0.25195230585E+02 -0.73783147056E+01  0.11124666497E+02  0.28817872524E+02  0.41800000000E+01 0.  1.
        -11    1    1    2    0    0  0.47502563608E+02 -0.56686439351E+02  0.22794896712E+03  0.23964677666E+03  0.00000000000E+00 0. -1.
         11    1    1    2    0    0  0.14691421483E+02  0.35822055233E+02  0.13315914785E+03  0.13867377605E+03  0.00000000000E+00 0.  1.
</event>
<event>
 7    1  0.3659469E-009  0.9866590E+02  0.7561462E-02  0.1283127E+00
          2   -1    0    0  501    0  0.00000000000E+00  0.00000000000E+00  0.36580352239E+03  0.36580352239E+03  0.00000000000E+00 0. -1.
         -2   -1    0    0    0  501 -0.00000000000E+00 -0.00000000000E+00 -0.45767561971E+02  0.45767561971E+02  0.00000000000E+00 0.  1.
         25    2    1    2    0    0 -0.51026071115E+02  0.42910295225E+02  0.21042366475E+03  0.25371387404E+03  0.12509059847E+03 0.  0.
          5    1    3    3  502    0 -0.32846566288E+02 -0.26786091131E+02  0.16030213970E+03  0.16586331718E+03  0.41800000000E+01 0.  1.
         -5    1    3    3    0  502 -0.18179504827E+02  0.69696386356E+02  0.50121525050E+02  0.87850556858E+02  0.41800000000E+01 0.  1.
        -11    1    1    2    0    0  0.21959010672E+02 -0.48275158959E+02  0.10022373474E+02  0.53973485085E+02  0.00000000000E+00 0.  1.
         11    1    1    2    0    0  0.29067060443E+02  0.53648637339E+01  0.99589922200E+02  0.10388372524E+03  0.00000000000E+00 0. -1.
</event>
<event>
 7    1  0.3265282E-009  0.7761757E+02  0.7561462E-02  0.1335952E+00
         -4   -1    0    0    0  501 -0.00000000000E+00  0.00000000000E+00  0.74174842609E+02  0.74174842609E+02  0.00000000000E+00 0.  1.
          4   -1    0    0  501    0  0.00000000000E+00 -0.00000000000E+00 -0.25930706511E+03  0.25930706511E+03  0.00000000000E+00 0. -1.
         25    2    1    2    0    0  0.58402542917E+02  0.85509156538E+01 -0.17785433989E+03  0.22529216817E+03  0.12506166337E+03 0.  0.
          5    1    3    3  502    0  0.19553867171E+02  0.15568439034E+02 -0.18345847731E+03  0.18520047330E+03  0.41800000000E+01 0. -1.
         -5    1    3    3    0  502  0.38848675746E+02 -0.70175233800E+01  0.56041374178E+01  0.40091694873E+02  0.41800000000E+01 0. -1.
        -11    1    1    2    0    0 -0.96351880651E+01  0.27766447713E+02 -0.31186605318E+02  0.42853434156E+02  0.00000000000E+00 0. -1.
         11    1    1    2    0    0 -0.48767354852E+02 -0.36317363366E+02  0.23908722702E+02  0.65336305393E+02  0.00000000000E+00 0.  1.
</event>
<event>
 7    1  0.3265282E-009  0.1244222E+03  0.7561462E-02  0.1235975E+00
         -1   -1    0    0    0  501 -0.00000000000E+00  0.00000000000E+00  0.31262562095E+03  0.31262562095E+03  0.00000000000E+00 0. -1.
          1   -1    0    0  501    0  0.00000000000E+00 -0.00000000000E+00 -0.59797223952E+02  0.59797223952E+02  0.00000000000E+00 0.  1.
         25    2    1    2    0    0 -0.56418047702E+02  0.45231628289E+02  0.84611397229E+02  0.16743818297E+03  0.12509020854E+03 0.  0.
          5    1    3    3  502    0 -0.32310457932E+02 -0.39317231832E+02  0.53824184890E+02  0.74191142933E+02  0.41800000000E+01 0. -1.
         -5    1    3    3    0  502 -0.24107589769E+02  0.84548860121E+02  0.30787212339E+02  0.93247040038E+02  0.41800000000E+01 0. -1.
        -11    1    1    2    0    0  0.60892488532E+02  0.33433849893E+01  0.56721621544E+02  0.83285147136E+02  0.00000000000E+00 0. -1.
         11    1    1    2    0    0 -0.44744408306E+01 -0.48575013278E+02  0.11149537823E+03  0.12169951480E+03  0.00000000000E+00 0.  1.
</event>
<event>
 7    1  0.3265282E-009  0.8656258E+02  0.7561462E-02  0.1311396E+00
         -3   -1    0    0    0  501 -0.00000000000E+00  0.00000000000E+00  0.11922722379E+03  0.11922722379E+03  0.00000000000E+00 0.  1.
          3   -1    0    0  501    0  0.00000000000E+00 -0.00000000000E+00 -0.13431430247E+03  0.13431430247E+03  0.00000000000E+00 0. -1.
         25    2    1    2    0    0 -0.44523493224E+02 -0.17710827166E+02  0.42663623029E+02  0.14063077880E+03  0.12514318347E+03 0.  0.
          5    1    3    3  502    0 -0.30663064205E+02  0.41561978241E+02  0.57941138274E+02  0.77732036164E+02  0.41800000000E+01 0.  1.
         -5    1    3    3    0  502 -0.13860429019E+02 -0.59272805406E+02 -0.15277515244E+02  0.62898742637E+02  0.41800000000E+01 0.  1.
        -11    1    1    2    0    0  0.27795209536E+01 -0.98736948348E+01 -0.61862788722E+02  0.62707417543E+02  0.00000000000E+00 0. -1.
         11    1    1    2    0    0  0.41743972270E+02  0.27584522000E+02  0.41120870190E+01  0.50203329915E+02  0.00000000000E+00 0.  1.
</event>
<event>
 6    1  0.3265282E-009  0.1520144E+03  0.7561462E-02  0.1198019E+00
         -1   -1    0    0    0  501 -0.00000000000E+00  0.00000000000E+00  0.21882817153E+03  0.21882817153E+03  0.00000000000E+00 0.  1.
          1   -1    0    0  501    0  0.00000000000E+00 -0.00000000000E+00 -0.14037957624E+03  0.14037957624E+03  0.00000000000E+00 0. -1.
          5    1    1    2  502    0 -0.11745402232E+03  0.70026091724E+02  0.26908924150E+02  0.13942977975E+03  0.41800000000E+01 0.  1.
         -5    1    1    2    0  502  0.36591325953E+01 -0.68794557684E+01  0.60404088747E+02  0.61047870564E+02  0.41800000000E+01 0.  1.
        -11    1    1    2    0    0 -0.11421788214E+02  0.83853898790E+01 -0.24460905415E+01  0.14378990519E+02  0.00000000000E+00 0.  1.
         11    1    1    2    0    0  0.12521667794E+03 -0.71532025835E+02 -0.64183270682E+01  0.14435110694E+03  0.00000000000E+00 0. -1.
</event>
<event>
 7    1  0.3265282E-009  0.1427624E+03  0.7561462E-02  0.1209660E+00
         -1   -1    0    0    0  501 -0.00000000000E+00  0.00000000000E+00  0.25576027272E+02  0.25576027272E+02  0.00000000000E+00 0.  1.
          1   -1    0    0  501    0  0.00000000000E+00 -0.00000000000E+00 -0.90241684181E+03  0.90241684181E+03  0.00000000000E+00 0. -1.
         25    2    1    2    0    0 -0.43132458799E+02  0.89573396363E+02 -0.36603911770E+03  0.39939373516E+03  0.12508763993E+03 0.  0.
          5    1    3    3  502    0  0.35462375151E+02  0.54439097362E+02 -0.22380268163E+03  0.23308004651E+03  0.41800000000E+01 0.  1.
         -5    1    3    3    0  502 -0.78594833950E+02  0.35134299000E+02 -0.14223643606E+03  0.16631368865E+03  0.41800000000E+01 0.  1.
        -11    1    1    2    0    0  0.50634633263E+02 -0.67699734161E+01 -0.15454949001E+03  0.16277359580E+03  0.00000000000E+00 0.  1.
         11    1    1    2    0    0 -0.75021744634E+01 -0.82803422947E+02 -0.35625220683E+03  0.36582553812E+03  0.00000000000E+00 0. -1.
</event>
<event>
 7    1  0.3265282E-009  0.1443057E+03  0.7561462E-02  0.1207650E+00
         -2   -1    0    0    0  501 -0.00000000000E+00  0.00000000000E+00  0.43346992300E+02  0.43346992300E+02  0.00000000000E+00 0.  1.
          2   -1    0    0  501    0  0.00000000000E+00 -0.00000000000E+00 -0.59769651093E+03  0.59769651093E+03  0.00000000000E+00 0. -1.
         25    2    1    2    0    0  0.56024145216E+02 -0.84171845764E+02 -0.17748540015E+03  0.23952333641E+03  0.12508699753E+03 0.  0.
          5    1    3    3  502    0  0.32627392009E+02  0.23260941888E+02 -0.14384897646E+02  0.42778684028E+02  0.41800000000E+01 0. -1.
         -5    1    3    3    0  502  0.23396753207E+02 -0.10743278765E+03 -0.16310050251E+03  0.19674465238E+03  0.41800000000E+01 0. -1.
        -11    1    1    2    0    0 -0.82084080144E+02  0.53198828815E+02 -0.25550375235E+03  0.27358742490E+03  0.00000000000E+00 0.  1.
         11    1    1    2    0    0  0.26059934928E+02  0.30973016949E+02 -0.12136036613E+03  0.12793274192E+03  0.00000000000E+00 0. -1.
</event>
<event>
 7    1  0.3265282E-009  0.9740345E+02  0.7561462E-02  0.1285853E+00
          2   -1    0    0  501    0  0.00000000000E+00  0.00000000000E+00  0.28934812162E+03  0.28934812162E+03  0.00000000000E+00 0. -1.
         -2   -1    0    0    0  501 -0.00000000000E+00 -0.00000000000E+00 -0.56408747137E+02  0.56408747137E+02  0.00000000000E+00 0.  1.
         25    2    1    2    0    0  0.65913398131E+01  0.42913681399E+02  0.61972707114E+02  0.14619604792E+03  0.12509051998E+03 0.  0.
          5    1    3    3  502    0  0.41004503729E+02  0.41527621059E+02  0.85984406887E+02  0.10400338102E+03  0.41800000000E+01 0.  1.
         -5    1    3    3    0  502 -0.34413163916E+02  0.13860603401E+01 -0.24011699773E+02  0.42192666898E+02  0.41800000000E+01 0.  1.
        -11    1    1    2    0    0  0.42735897396E+02 -0.21274732099E+02  0.96410626543E+02  0.10758243380E+03  0.00000000000E+00 0. -1.
         11    1    1    2    0    0 -0.49327237209E+02 -0.21638949301E+02  0.74556040824E+02  0.91978387031E+02  0.00000000000E+00 0.  1.
</event>
<event>
 7    1  0.3265282E-009  0.1804543E+03  0.7561462E-02  0.1167364E+00
          2   -1    0    0  501    0  0.00000000000E+00  0.00000000000E+00  0.54394841729E+03  0.54394841729E+03  0.00000000000E+00 0.  1.
         -2   -1    0    0    0  501 -0.00000000000E+00 -0.00000000000E+00 -0.62771949732E+02  0.62771949732E+02  0.00000000000E+00 0. -1.
         25    2    1    2    0    0 -0.12334339315E+02 -0.14665044827E+03  0.20089111130E+03  0.27868151055E+03  0.12509059045E+03 0.  0.
          5    1    3    3  502    0  0.53508442644E+02 -0.43021262272E+02  0.55834842956E+02  0.88594494917E+02  0.41800000000E+01 0.  1.
         -5    1    3    3    0  502 -0.65842781959E+02 -0.10362918600E+03  0.14505626835E+03  0.19008701564E+03  0.41800000000E+01 0.  1.
        -11    1    1    2    0    0  0.28639229498E+02  0.80924962114E+01  0.65161526245E+02  0.71636013735E+02  0.00000000000E+00 0.  1.
         11    1    1    2    0    0 -0.16304890182E+02  0.13855795206E+03  0.21512383001E+03  0.25640284273E+03  0.00000000000E+00 0. -1.
</event>
<event>
 7    1  0.3265282E-009  0.1299357E+03  0.7561462E-02  0.1227551E+00
          1   -1    0    0  501    0  0.00000000000E+00  0.00000000000E+00  0.14100115420E+04  0.14100115420E+04  0.00000000000E+00 0. -1.
         -1   -1    0    0    0  501 -0.00000000000E+00 -0.00000000000E+00 -0.12217604852E+02  0.12217604852E+02  0.00000000000E+00 0.  1.
         25    2    1    2    0    0 -0.32513605802E+02  0.66393964522E+02  0.77607884771E+03  0.78956381145E+03  0.12508933366E+03 0.  0.
          5    1    3    3  502    0 -0.93882780223E+01  0.10205964043E+03  0.54283347894E+03  0.55244001324E+03  0.41800000000E+01 0. -1.
         -5    1    3    3    0  502 -0.23125327780E+02 -0.35665675912E+02  0.23324536878E+03  0.23712379821E+03  0.41800000000E+01 0. -1.
        -11    1    1    2    0    0  0.46914246655E+01  0.21699737263E+02  0.75636700253E+02  0.78827650528E+02  0.00000000000E+00 0.  1.
         11    1    1    2    0    0  0.27822181137E+02 -0.88093701784E+02  0.54607838918E+03  0.55383768487E+03  0.00000000000E+00 0. -1.
</event>
<event>
 7    1  0.3265282E-009  0.6301730E+02  0.7561462E-02  0.1385589E+00
          1   -1    0    0  501    0  0.00000000000E+00  0.00000000000E+00  0.49119408708E+03  0.49119408708E+03  0.00000000000E+00 0. -1.
         -1   -1    0    0    0  501 -0.00000000000E+00 -0.00000000000E+00 -0.24535763428E+02  0.24535763428E+02  0.00000000000E+00 0.  1.
         25    2    1    2    0    0  0.11639734599E+02 -0.26335752134E+02  0.29007277396E+03  0.31720460648E+03  0.12508993930E+03 0.  0.
          5    1    3    3  502    0 -0.61111174320E+00  0.18802973619E+01 -0.12352819184E+02  0.13189902104E+02  0.41800000000E+01 0.  1.
         -5    1    3    3    0  502  0.12250846342E+02 -0.28216049496E+02  0.30242559315E+03  0.30401470438E+03  0.41800000000E+01 0.  1.
        -11    1    1    2    0    0 -0.33559572872E+02 -0.20028885492E+02  0.85109497512E+02  0.93653765285E+02  0.00000000000E+00 0. -1.
         11    1    1    2    0    0  0.21919838273E+02  0.46364637626E+02  0.91476052173E+02  0.10487147874E+03  0.00000000000E+00 0.  1.
</event>
<event>
 7    1  0.3265282E-009  0.2815946E+03  0.7561462E-02  0.1094821E+00
         -2   -1    0    0    0  501 -0.00000000000E+00  0.00000000000E+00  0.32760423928E+03  0.32760423928E+03  0.00000000000E+00 0.  1.
          2   -1    0    0  501    0  0.00000000000E+00 -0.00000000000E+00 -0.29519762957E+03  0.29519762957E+03  0.00000000000E+00 0. -1.
         25    2    1    2    0    0 -0.10906287450E+03  0.25173081240E+03 -0.78527538076E+02  0.31157293934E+03  0.12509200529E+03 0.  0.
          5    1    3    3  502    0 -0.82281023843E+02  0.80169118299E+02  0.12224234071E+02  0.11560345459E+03  0.41800000000E+01 0.  1.
         -5    1    3    3    0  502 -0.26781850659E+02  0.17156169410E+03 -0.90751772147E+02  0.19596948475E+03  0.41800000000E+01 0.  1.
        -11    1    1    2    0    0  0.45074354351E+02 -0.91218197000E+02  0.92398276539E+02  0.13744052674E+03  0.00000000000E+00 0.  1.
         11    1    1    2    0    0  0.63988520151E+02 -0.16051261540E+03  0.18535871248E+02  0.17378840277E+03  0.00000000000E+00 0. -1.
</event>
<event>
 7    1  0.3265282E-009  0.1022233E+03  0.7561462E-02  0.1275689E+00
         -2   -1    0    0    0  501 -0.00000000000E+00  0.00000000000E+00  0.50724858306E+02  0.50724858306E+02  0.00000000000E+00 0. -1.
          2   -1    0    0  501    0  0.00000000000E+00 -0.00000000000E+00 -0.24980491792E+03  0.24980491792E+03  0.00000000000E+00 0.  1.
         25    2    1    2    0    0 -0.23121827126E+02 -0.20707500535E+00 -0.14058537518E+03  0.18959643177E+03  0.12509155629E+03 0.  0.
          5    1    3    3  502    0 -0.42472744524E+02  0.53326488762E+02 -0.60437452042E+02  0.91202008971E+02  0.41800000000E+01 0.  1.
         -5    1    3    3    0  502  0.19350917398E+02 -0.53533563767E+02 -0.80147923138E+02  0.98394422795E+02  0.41800000000E+01 0.  1.
        -11    1    1    2    0    0  0.47963291036E+02  0.14877928473E+02 -0.64217279804E+02  0.81521095847E+02  0.00000000000E+00 0.  1.
         11    1    1    2    0    0 -0.24841463909E+02 -0.14670853467E+02  0.57225953721E+01  0.29412248612E+02  0.00000000000E+00 0. -1.
</event>
<event>
 7    1  0.3265282E-009  0.1431846E+03  0.7561462E-02  0.1209107E+00
          2   -1    0    0  501    0  0.00000000000E+00  0.00000000000E+00  0.34436123682E+04  0.34436123682E+04  0.00000000000E+00 0.  1.
         -2   -1    0    0    0  501 -0.00000000000E+00 -0.00000000000E+00 -0.12732945549E+02  0.12732945549E+02  0.00000000000E+00 0. -1.
         25    2    1    2    0    0 -0.47704902090E+01  0.11088951888E+03  0.29653304887E+04  0.29700424442E+04  0.12509184708E+03 0.  0.
          5    1    3    3  502    0 -0.44389912843E+02  0.96887400709E+02  0.13670318472E+04  0.13711860474E+04  0.41800000000E+01 0. -1.
         -5    1    3    3    0  502  0.39619422634E+02  0.14002118167E+02  0.15982986415E+04  0.15988563968E+04  0.41800000000E+01 0. -1.
        -11    1    1    2    0    0  0.24462918621E+02 -0.11482754781E+03  0.42687421193E+03  0.44272496308E+03  0.00000000000E+00 0.  1.
         11    1    1    2    0    0 -0.19692428413E+02  0.39380289296E+01  0.38674722065E+02  0.43577906506E+02  0.00000000000E+00 0. -1.
</event>
<event>
 7    1  0.3265282E-009  0.1163394E+03  0.7561462E-02  0.1249261E+00
         -2   -1    0    0    0  501 -0.00000000000E+00  0.00000000000E+00  0.20885520811E+02  0.20885520811E+02  0.00000000000E+00 0.  1.
          2   -1    0    0  501    0  0.00000000000E+00 -0.00000000000E+00 -0.77753299514E+03  0.77753299514E+03  0.00000000000E+00 0. -1.
         25    2    1    2    0    0  0.19997417154E+02  0.41270558501E+02 -0.26864822746E+03  0.29987072669E+03  0.12508967551E+03 0.  0.
          5    1    3    3  502    0  0.44264940494E+02 -0.31444489327E+02 -0.13769637199E+03  0.14807398193E+03  0.41800000000E+01 0.  1.
         -5    1    3    3    0  502 -0.24267523339E+02  0.72715047828E+02 -0.13095185547E+03  0.15179674476E+03  0.41800000000E+01 0.  1.
        -11    1    1    2    0    0  0.33251364119E+02  0.12987455252E+01 -0.13641734779E+03  0.14041735196E+03  0.00000000000E+00 0. -1.
         11    1    1    2    0    0 -0.53248781273E+02 -0.42569304026E+02 -0.35158189908E+03  0.35813043729E+03  0.00000000000E+00 0.  1.
</event>
<event>
 7    1  0.3265282E-009  0.1293884E+03  0.7561462E-02  0.1228366E+00
          1   -1    0    0  501    0  0.00000000000E+00  0.00000000000E+00  0.44051726440E+03  0.44051726440E+03  0.00000000000E+00 0. -1.
         -1   -1    0    0    0  501 -0.00000000000E+00 -0.00000000000E+00 -0.39438661999E+02  0.39438661999E+02  0.00000000000E+00 0.  1.
         25    2    1    2    0    0 -0.60382482266E+02 -0.36804763958E+02  0.17687338358E+03  0.22788477345E+03  0.12508653539E+03 0.  0.
          5    1    3    3  502    0  0.58311211251E+01 -0.69359116214E+02  0.82566481766E+02  0.10807120471E+03  0.41800000000E+01 0. -1.
         -5    1    3    3    0  502 -0.66213603391E+02  0.32554352256E+02  0.94306901812E+02  0.11981356874E+03  0.41800000000E+01 0. -1.
        -11    1    1    2    0    0  0.66441277062E+01 -0.29248525536E+02  0.61969447868E+02  0.68846446154E+02  0.00000000000E+00 0. -1.
         11    1    1    2    0    0  0.53738354560E+02  0.66053289495E+02  0.16223577095E+03  0.18322470679E+03  0.00000000000E+00 0.  1.
</event>
<event>
 7    1  0.3265282E-009  0.1782958E+03  0.7561462E-02  0.1169463E+00
         -2   -1    0    0    0  501 -0.00000000000E+00  0.00000000000E+00  0.60337255470E+02  0.60337255470E+02  0.00000000000E+00 0.  1.
          2   -1    0    0  501    0  0.00000000000E+00 -0.00000000000E+00 -0.79001283515E+03  0.79001283515E+03  0.00000000000E+00 0. -1.
         25    2    1    2    0    0 -0.15205362531E+03 -0.56239286031E+02 -0.56936919529E+03  0.60507187147E+03  0.12509007492E+03 0.  0.
          5    1    3    3  502    0 -0.67877488117E+01 -0.37319596177E+02 -0.25953814250E+03  0.26232869764E+03  0.41800000000E+01 0. -1.
         -5    1    3    3    0  502 -0.14526587650E+03 -0.18919689854E+02 -0.30983105278E+03  0.34274317383E+03  0.41800000000E+01 0. -1.
        -11    1    1    2    0    0  0.53388350433E+02  0.49789169806E+02 -0.23918825526E+02  0.76820489496E+02  0.00000000000E+00 0.  1.
         11    1    1    2    0    0  0.98665274875E+02  0.64501162253E+01 -0.13638755887E+03  0.16845772965E+03  0.00000000000E+00 0. -1.
</event>
<event>
 7    1  0.3265282E-009  0.1277115E+03  0.7561462E-02  0.1230891E+00
         -1   -1    0    0    0  501 -0.00000000000E+00  0.00000000000E+00  0.37980415294E+03  0.37980415294E+03  0.00000000000E+00 0.  1.
          1   -1    0    0  501    0  0.00000000000E+00 -0.00000000000E+00 -0.59899539304E+02  0.59899539304E+02  0.00000000000E+00 0. -1.
         25    2    1    2    0    0 -0.84901096916E+02  0.23990247395E+01  0.83621045453E+02  0.17278437260E+03  0.12509200052E+03 0.  0.
          5    1    3    3  502    0  0.11123411964E+02  0.35358698629E+02  0.56351558268E+02  0.67579126819E+02  0.41800000000E+01 0. -1.
         -5    1    3    3    0  502 -0.96024508881E+02 -0.32959673889E+02  0.27269487185E+02  0.10520524578E+03  0.41800000000E+01 0. -1.
        -11    1    1    2    0    0  0.89939952031E+02 -0.25004546999E+02  0.21885899932E+03  0.23793630224E+03  0.00000000000E+00 0.  1.
         11    1    1    2    0    0 -0.50388551148E+01  0.22605522260E+02  0.17424568865E+02  0.28983017400E+02  0.00000000000E+00 0. -1.
</event>
<event>
 7    1  0.3265282E-009  0.9269243E+02  0.7561462E-02  0.1296460E+00
         -2   -1    0    0    0  501 -0.00000000000E+00  0.00000000000E+00  0.23087452012E+03  0.23087452012E+03  0.00000000000E+00 0.  1.
          2   -1    0    0  501    0  0.00000000000E+00 -0.00000000000E+00 -0.65273998312E+02  0.65273998312E+02  0.00000000000E+00 0. -1.
         25    2    1    2    0    0  0.22126704113E+02 -0.37522532030E+01  0.15326323766E+03  0.19910195097E+03  0.12509315098E+03 0.  0.
          5    1    3    3  502    0  0.13216064269E+01  0.44098380613E+02  0.84441632226E+01  0.45113081348E+02  0.41800000000E+01 0.  1.
         -5    1    3    3    0  502  0.20805097686E+02 -0.47850633816E+02  0.14481907444E+03  0.15398886962E+03  0.41800000000E+01 0.  1.
        -11    1    1    2    0    0  0.22084587246E+02 -0.26990758701E+02 -0.13402914274E+02  0.37361319036E+02  0.00000000000E+00 0. -1.
         11    1    1    2    0    0 -0.44211291359E+02  0.30743011904E+02  0.25740198419E+02  0.59685248422E+02  0.00000000000E+00 0.  1.
</event>
<event>
 7    1  0.3265282E-009  0.1019563E+03  0.7561462E-02  0.1276235E+00
          2   -1    0    0  501    0  0.00000000000E+00  0.00000000000E+00  0.78910927238E+03  0.78910927238E+03  0.00000000000E+00 0. -1.
         -2   -1    0    0    0  501 -0.00000000000E+00 -0.00000000000E+00 -0.17587797709E+02  0.17587797709E+02  0.00000000000E+00 0.  1.
         25    2    1    2    0    0 -0.11107603936E+02  0.35283999279E+02  0.33807750979E+03  0.36237017155E+03  0.12508956443E+03 0.  0.
          5    1    3    3  502    0  0.44615977174E+02  0.15196446335E+02  0.26003563295E+03  0.26430573245E+03  0.41800000000E+01 0.  1.
         -5    1    3    3    0  502 -0.55723581110E+02  0.20087552944E+02  0.78041876839E+02  0.98064439098E+02  0.41800000000E+01 0.  1.
        -11    1    1    2    0    0 -0.18796156486E+02 -0.57154357313E+02  0.24537756876E+03  0.25264613061E+03  0.00000000000E+00 0. -1.
         11    1    1    2    0    0  0.29903760422E+02  0.21870358035E+02  0.18806639611E+03  0.19168076793E+03  0.00000000000E+00 0.  1.
</event>
<event>
 7    1  0.3265282E-009  0.1702562E+03  0.7561462E-02  0.1177581E+00
         -1   -1    0    0    0  501 -0.00000000000E+00  0.00000000000E+00  0.69291583376E+03  0.69291583376E+03  0.00000000000E+00 0.  1.
          1   -1    0    0  501    0  0.00000000000E+00 -0.00000000000E+00 -0.57908164526E+02  0.57908164526E+02  0.00000000000E+00 0. -1.
         25    2    1    2    0    0  0.55438009930E+02 -0.15114844582E+03  0.24341516104E+03  0.31751773912E+03  0.12508936171E+03 0.  0.
          5    1    3    3  502    0  0.24935547220E+02 -0.11432219211E+03  0.24275144667E+03  0.26951267574E+03  0.41800000000E+01 0. -1.
         -5    1    3    3    0  502  0.30502462709E+02 -0.36826253704E+02  0.66371437197E+00  0.48005063379E+02  0.41800000000E+01 0. -1.
        -11    1    1    2    0    0 -0.32604907051E+02  0.12512022701E+02  0.14830135547E+03  0.15235787708E+03  0.00000000000E+00 0.  1.
         11    1    1    2    0    0 -0.22833102878E+02  0.13863642311E+03  0.24329115272E+03  0.28094838208E+03  0.00000000000E+00 0. -1.
</event>
<event>
 7    1  0.3265282E-009  0.1049515E+03  0.7561462E-02  0.1270215E+00
         -2   -1    0    0    0  501 -0.00000000000E+00  0.00000000000E+00  0.30913483394E+02  0.30913483394E+02  0.00000000000E+00 0. -1.
          2   -1    0    0  501    0  0.00000000000E+00 -0.00000000000E+00 -0.39200856524E+03  0.39200856524E+03  0.00000000000E+00 0.  1.
         25    2    1    2    0    0  0.59590984008E+01 -0.15894332392E+01 -0.17140297436E+03  0.21228193168E+03  0.12508637713E+03 0.  0.
          5    1    3    3  502    0 -0.57274081200E+02 -0.23935604088E+00 -0.10970404752E+03  0.12382579744E+03  0.41800000000E+01 0.  1.
         -5    1    3    3    0  502  0.63233179601E+02 -0.13500771984E+01 -0.61698926836E+02  0.88456134234E+02  0.41800000000E+01 0.  1.
        -11    1    1    2    0    0  0.18554424486E+02  0.39674177031E+02 -0.11770942809E+03  0.12559385515E+03  0.00000000000E+00 0. -1.
         11    1    1    2    0    0 -0.24513522886E+02 -0.38084743792E+02 -0.71982679396E+02  0.85046261805E+02  0.00000000000E+00 0.  1.
</event>
<event>
 7    1  0.3265282E-009  0.1040356E+03  0.7561462E-02  0.1272031E+00
         -1   -1    0    0    0  501 -0.00000000000E+00  0.00000000000E+00  0.17257327006E+02  0.17257327006E+02  0.00000000000E+00 0.  1.
          1   -1    0    0  501    0  0.00000000000E+00 -0.00000000000E+00 -0.94922661556E+03  0.94922661556E+03  0.00000000000E+00 0. -1.
         25    2    1    2    0    0 -0.48684145279E+02  0.42648730841E+02 -0.59966869551E+03  0.61598503659E+03  0.12508381462E+03 0.  0.
          5    1    3    3  502    0 -0.65720472963E+02  0.19666143850E+02 -0.14569282899E+03  0.16108944906E+03  0.41800000000E+01 0. -1.
         -5    1    3    3    0  502  0.17036327684E+02  0.22982586990E+02 -0.45397586652E+03  0.45489558753E+03  0.41800000000E+01 0. -1.
        -11    1    1    2    0    0 -0.13454835779E+02 -0.46271150041E+02 -0.12171333868E+03  0.13090526629E+03  0.00000000000E+00 0.  1.
         11    1    1    2    0    0  0.62138981059E+02  0.36224192008E+01 -0.21058725437E+03  0.21959363968E+03  0.00000000000E+00 0. -1.
</event>
<event>
 7    1  0.3265282E-009  0.1218801E+03  0.7561462E-02  0.1240027E+00
         -1   -1    0    0    0  501 -0.00000000000E+00  0.00000000000E+00  0.11493325068E+02  0.11493325068E+02  0.00000000000E+00 0.  1.
          1   -1    0    0  501    0  0.00000000000E+00 -0.00000000000E+00 -0.19801572128E+04  0.19801572128E+04  0.00000000000E+00 0. -1.
         25    2    1    2    0    0 -0.75167962877E+02 -0.74537036615E+00 -0.15812532028E+04  0.15879734562E+04  0.12508888027E+03 0.  0.
          5    1    3    3  502    0  0.34509150352E+02  0.76338280388E+01 -0.42955329407E+03  0.43102512877E+03  0.41800000000E+01 0.  1.
         -5    1    3    3    0  502 -0.10967711323E+03 -0.83791984049E+01 -0.11516999087E+04  0.11569483274E+04  0.41800000000E+01 0.  1.
        -11    1    1    2    0    0  0.30306062899E+02 -0.30832514263E+02 -0.75701876560E+02  0.87177264806E+02  0.00000000000E+00 0.  1.
         11    1    1    2    0    0  0.44861899978E+02  0.31577884629E+02 -0.31170880844E+03  0.31649981695E+03  0.00000000000E+00 0. -1.
</event>
<event>
 7    1  0.3265282E-009  0.7348726E+02  0.7561462E-02  0.1348621E+00
         -1   -1    0    0    0  501 -0.00000000000E+00  0.00000000000E+00  0.83030416016E+02  0.83030416016E+02  0.00000000000E+00 0.  1.
          1   -1    0    0  501    0  0.00000000000E+00 -0.00000000000E+00 -0.15321684961E+03  0.15321684961E+03  0.00000000000E+00 0. -1.
         25    2    1    2    0    0 -0.24571960993E+02  0.19822859029E+02 -0.31654420597E+02  0.13283501252E+03  0.12508561549E+03 0.  0.
          5    1    3    3  502    0 -0.17209189925E+02  0.39784652313E+02  0.39288895173E+02  0.58652062722E+02  0.41800000000E+01 0.  1.
         -5    1    3    3    0  502 -0.73627710678E+01 -0.19961793285E+02 -0.70943315770E+02  0.74182949802E+02  0.41800000000E+01 0.  1.
        -11    1    1    2    0    0  0.51894312587E+02 -0.14794811088E+02 -0.49802902850E+02  0.73431840820E+02  0.00000000000E+00 0. -1.
         11    1    1    2    0    0 -0.27322351594E+02 -0.50280479404E+01  0.11270889850E+02  0.29980412284E+02  0.00000000000E+00 0.  1.
</event>
<event>
 7    1  0.3273069E-009  0.6353305E+02  0.7561462E-02  0.1383576E+00
          2   -1    0    0  501    0  0.00000000000E+00  0.00000000000E+00  0.86437224888E+03  0.86437224888E+03  0.00000000000E+00 0. -1.
         -2   -1    0    0    0  501 -0.00000000000E+00 -0.00000000000E+00 -0.26231928722E+02  0.26231928722E+02  0.00000000000E+00 0.  1.
         25    2    1    2    0    0  0.43772693669E+01 -0.52731114422E+02  0.71726373162E+03  0.73000997456E+03  0.12509025278E+03 0.  0.
          5    1    3    3  502    0 -0.11098395421E+02 -0.20209017610E+02  0.17345803266E+02  0.29153525767E+02  0.41800000000E+01 0. -1.
         -5    1    3    3    0  502  0.15475664788E+02 -0.32522096812E+02  0.69991792835E+03  0.70085644879E+03  0.41800000000E+01 0. -1.
        -11    1    1    2    0    0 -0.22967083969E+02  0.24573861964E+02 -0.14825286093E+01  0.33668375799E+02  0.00000000000E+00 0.  1.
         11    1    1    2    0    0  0.18589814602E+02  0.28157252458E+02  0.12235911715E+03  0.12692582725E+03  0.00000000000E+00 0. -1.
</event>
<event>
 7    1  0.3265282E-009  0.1226054E+03  0.7561462E-02  0.1238860E+00
          1   -1    0    0  501    0  0.00000000000E+00  0.00000000000E+00  0.32612256077E+03  0.32612256077E+03  0.00000000000E+00 0. -1.
         -1   -1    0    0    0  501 -0.00000000000E+00 -0.00000000000E+00 -0.12929311512E+03  0.12929311512E+03  0.00000000000E+00 0.  1.
         25    2    1    2    0    0  0.63296367307E+02 -0.77387175702E+02 -0.55096071179E+02  0.16934714718E+03  0.12509066360E+03 0.  0.
          5    1    3    3  502    0 -0.17207663784E+01  0.18553436124E+02 -0.49709190942E+02  0.53250982085E+02  0.41800000000E+01 0. -1.
         -5    1    3    3    0  502  0.65017133686E+02 -0.95940611826E+02 -0.53868802369E+01  0.11609616509E+03  0.41800000000E+01 0. -1.
        -11    1    1    2    0    0 -0.44959994843E+02  0.18761867396E+02  0.19934438841E+03  0.20521109618E+03  0.00000000000E+00 0. -1.
         11    1    1    2    0    0 -0.18336372465E+02  0.58625308306E+02  0.52581128413E+02  0.80857432524E+02  0.00000000000E+00 0.  1.
</event>
<event>
 7    1  0.3265282E-009  0.8172177E+02  0.7561462E-02  0.1324235E+00
         -1   -1    0    0    0  501 -0.00000000000E+00  0.00000000000E+00  0.31309111297E+03  0.31309111297E+03  0.00000000000E+00 0.  1.
          1   -1    0    0  501    0  0.00000000000E+00 -0.00000000000E+00 -0.25825397816E+02  0.25825397816E+02  0.00000000000E+00 0. -1.
         25    2    1    2    0    0  0.76868386746E+01  0.15074073342E+01  0.19459289239E+03  0.23146634958E+03  0.12509563323E+03 0.  0.
          5    1    3    3  502    0  0.51443411292E+02  0.31604134792E+02  0.15084559582E+03  0.16253341835E+03  0.41800000000E+01 0.  1.
         -5    1    3    3    0  502 -0.43756572618E+02 -0.30096727458E+02  0.43747296574E+02  0.68932931234E+02  0.41800000000E+01 0.  1.
        -11    1    1    2    0    0 -0.28437097703E+02 -0.41307834502E+01  0.30732915380E+02  0.42074267497E+02  0.00000000000E+00 0. -1.
         11    1    1    2    0    0  0.20750259028E+02  0.26233761160E+01  0.61939907376E+02  0.65375893705E+02  0.00000000000E+00 0.  1.
</event>
<event>
 7    1  0.3265282E-009  0.1494975E+03  0.7561462E-02  0.1201092E+00
          1   -1    0    0  501    0  0.00000000000E+00  0.00000000000E+00  0.29217918311E+04  0.29217918311E+04  0.00000000000E+00 0. -1.
         -1   -1    0    0    0  501 -0.00000000000E+00 -0.00000000000E+00 -0.13118560527E+02  0.13118560527E+02  0.00000000000E+00 0.  1.
         25    2    1    2    0    0 -0.82745103566E+02 -0.76394670125E+02  0.23961088657E+04  0.24020133198E+04  0.12508954580E+03 0.  0.
          5    1    3    3  502    0 -0.22985794317E+02  0.34025150286E+02  0.73739878128E+03  0.73855297212E+03  0.41800000000E+01 0.  1.
         -5    1    3    3    0  502 -0.59759309249E+02 -0.11041982041E+03  0.16587100844E+04  0.16634603477E+04  0.41800000000E+01 0.  1.
        -11    1    1    2    0    0  0.76801200669E+01  0.52881776536E+02  0.10504720523E+03  0.11785746417E+03  0.00000000000E+00 0. -1.
         11    1    1    2    0    0  0.75064983499E+02  0.23512893589E+02  0.40751719971E+03  0.41503960771E+03  0.00000000000E+00 0.  1.
</event>
<event>
 7    1  0.3265282E-009  0.8710982E+02  0.7561462E-02  0.1310006E+00
          1   -1    0    0  501    0  0.00000000000E+00  0.00000000000E+00  0.16245207293E+03  0.16245207293E+03  0.00000000000E+00 0. -1.
         -1   -1    0    0    0  501 -0.00000000000E+00 -0.00000000000E+00 -0.95413131143E+02  0.95413131143E+02  0.00000000000E+00 0.  1.
         25    2    1    2    0    0  0.23523370716E+01 -0.32457126977E+01  0.96907249200E+02  0.15828659310E+03  0.12509021731E+03 0.  0.
          5    1    3    3  502    0  0.16668472862E+02  0.49710720731E+02  0.88047509306E+02  0.10256134768E+03  0.41800000000E+01 0. -1.
         -5    1    3    3    0  502 -0.14316135790E+02 -0.52956433429E+02  0.88597398937E+01  0.55725245414E+02  0.41800000000E+01 0. -1.
        -11    1    1    2    0    0  0.18919262988E+02  0.28110289197E+02  0.20434919225E+02  0.39569088876E+02  0.00000000000E+00 0. -1.
         11    1    1    2    0    0 -0.21271600059E+02 -0.24864576500E+02 -0.50303226634E+02  0.60009522106E+02  0.00000000000E+00 0.  1.
</event>
<event>
 7    1  0.3265282E-009  0.7853461E+02  0.7561462E-02  0.1333262E+00
         -4   -1    0    0    0  501 -0.00000000000E+00  0.00000000000E+00  0.97199190306E+02  0.97199190306E+02  0.00000000000E+00 0.  1.
          4   -1    0    0  501    0  0.00000000000E+00 -0.00000000000E+00 -0.15671815555E+03  0.15671815555E+03  0.00000000000E+00 0. -1.
         25    2    1    2    0    0 -0.35442634655E+02  0.60404583516E+02  0.20109569546E+02  0.14476527472E+03  0.12509075072E+03 0.  0.
          5    1    3    3  502    0 -0.19588366840E+02 -0.24005644105E+01 -0.47155085931E+02  0.51288803400E+02  0.41800000000E+01 0. -1.
         -5    1    3    3    0  502 -0.15854267815E+02  0.62805147926E+02  0.67264655477E+02  0.93476471320E+02  0.41800000000E+01 0. -1.
        -11    1    1    2    0    0  0.10412174746E+02 -0.34193114179E+02 -0.54020084584E+02  0.64774624497E+02  0.00000000000E+00 0. -1.
         11    1    1    2    0    0  0.25030459909E+02 -0.26211469337E+02 -0.25608450201E+02  0.44377446634E+02  0.00000000000E+00 0.  1.
</event>
<event>
 7    1  0.3265282E-009  0.1172861E+03  0.7561462E-02  0.1247643E+00
          1   -1    0    0  501    0  0.00000000000E+00  0.00000000000E+00  0.52585797172E+03  0.52585797172E+03  0.00000000000E+00 0. -1.
         -1   -1    0    0    0  501 -0.00000000000E+00 -0.00000000000E+00 -0.53699759880E+02  0.53699759880E+02  0.00000000000E+00 0.  1.
         25    2    1    2    0    0 -0.12800829759E+02 -0.10902935922E+03  0.13992364860E+03  0.21743470202E+03  0.12509180545E+03 0.  0.
          5    1    3    3  502    0 -0.34835878906E+02 -0.47577166256E+02  0.14005261994E+03  0.15201754491E+03  0.41800000000E+01 0. -1.
         -5    1    3    3    0  502  0.22035049147E+02 -0.61452192964E+02 -0.12897133793E+00  0.65417157112E+02  0.41800000000E+01 0. -1.
        -11    1    1    2    0    0  0.10815141385E+02  0.59767843549E+02  0.59703492744E+02  0.85168476865E+02  0.00000000000E+00 0.  1.
         11    1    1    2    0    0  0.19856883737E+01  0.49261515672E+02  0.27253107049E+03  0.27695455271E+03  0.00000000000E+00 0. -1.
</event>
<event>
 7    1  0.3265282E-009  0.1066331E+03  0.7561462E-02  0.1266935E+00
         -2   -1    0    0    0  501 -0.00000000000E+00  0.00000000000E+00  0.17610732362E+03  0.17610732362E+03  0.00000000000E+00 0.  1.
          2   -1    0    0  501    0  0.00000000000E+00 -0.00000000000E+00 -0.74870281091E+02  0.74870281091E+02  0.00000000000E+00 0. -1.
         25    2    1    2    0    0  0.18365211666E+01  0.35315752447E+02  0.76986161899E+02  0.15108245695E+03  0.12509382276E+03 0.  0.
          5    1    3    3  502    0 -0.10902085917E+02  0.81280425098E+02  0.48983036633E+02  0.95614712567E+02  0.41800000000E+01 0.  1.
         -5    1    3    3    0  502  0.12738607084E+02 -0.45964672651E+02  0.28003125266E+02  0.55467744384E+02  0.41800000000E+01 0.  1.
        -11    1    1    2    0    0  0.23673631639E+02 -0.48929750107E+02  0.39512018815E+02  0.67199411540E+02  0.00000000000E+00 0.  1.
         11    1    1    2    0    0 -0.25510152805E+02  0.13613997660E+02 -0.15261138183E+02  0.32695736222E+02  0.00000000000E+00 0. -1.
</event>
<event>
 7    1  0.3265282E-009  0.8176841E+02  0.7561462E-02  0.1324107E+00
          2   -1    0    0  501    0  0.00000000000E+00  0.00000000000E+00  0.56458273845E+03  0.56458273845E+03  0.00000000000E+00 0. -1.
         -2   -1    0    0    0  501 -0.00000000000E+00 -0.00000000000E+00 -0.24935143890E+02  0.24935143890E+02  0.00000000000E+00 0.  1.
         25    2    1    2    0    0  0.40287966857E+02  0.30700845749E+02  0.31859483268E+03  0.34600078636E+03  0.12509282373E+03 0.  0.
          5    1    3    3  502    0  0.34263539655E+01 -0.74953575775E+01  0.28020651986E+03  0.28035885301E+03  0.41800000000E+01 0. -1.
         -5    1    3    3    0  502  0.36861612892E+02  0.38196203327E+02  0.38388312825E+02  0.65641933359E+02  0.41800000000E+01 0. -1.
        -11    1    1    2    0    0 -0.62797798769E+02 -0.42311020808E+02  0.14889618903E+03  0.16704448844E+03  0.00000000000E+00 0.  1.
         11    1    1    2    0    0  0.22509831912E+02  0.11610175059E+02  0.72156572846E+02  0.76472607530E+02  0.00000000000E+00 0. -1.
</event>
<event>
 7    1  0.3265282E-009  0.1600306E+03  0.7561462E-02  0.1188662E+00
          1   -1    0    0  501    0  0.00000000000E+00  0.00000000000E+00  0.27927423060E+03  0.27927423060E+03  0.00000000000E+00 0. -1.
         -1   -1    0    0    0  501 -0.00000000000E+00 -0.00000000000E+00 -0.96597914170E+02  0.96597914170E+02  0.00000000000E+00 0.  1.
         25    2    1    2    0    0  0.12303794032E+03 -0.16110611497E+01  0.83791432096E+02  0.19444485874E+03  0.12508744430E+03 0.  0.
          5    1    3    3  502    0  0.18036864793E+02 -0.49266096334E+02  0.13743318144E+01  0.52648247146E+02  0.41800000000E+01 0.  1.
         -5    1    3    3    0  502  0.10500107553E+03  0.47655035185E+02  0.82417100281E+02  0.14179661159E+03  0.41800000000E+01 0.  1.
        -11    1    1    2    0    0 -0.58183313805E+02  0.45393582344E+02  0.50638598513E+02  0.89499402136E+02  0.00000000000E+00 0.  1.
         11    1    1    2    0    0 -0.64854626514E+02 -0.43782521194E+02  0.48246285821E+02  0.91927883898E+02  0.00000000000E+00 0. -1.
</event>
<event>
 7    1  0.3265282E-009  0.1273883E+03  0.7561462E-02  0.1231383E+00
         -1   -1    0    0    0  501 -0.00000000000E+00  0.00000000000E+00  0.58423081508E+02  0.58423081508E+02  0.00000000000E+00 0.  1.
          1   -1    0    0  501    0  0.00000000000E+00 -0.00000000000E+00 -0.35578286032E+03  0.35578286032E+03  0.00000000000E+00 0. -1.
         25    2    1    2    0    0  0.89213578632E+02 -0.59947653019E+01 -0.11727428740E+03  0.19338294359E+03  0.12509478232E+03 0.  0.
          5    1    3    3  502    0  0.10047640042E+03 -0.26042883922E+02 -0.37801748219E+02  0.11054493843E+03  0.41800000000E+01 0.  1.
         -5    1    3    3    0  502 -0.11262821791E+02  0.20048118620E+02 -0.79472539178E+02  0.82838005157E+02  0.41800000000E+01 0.  1.
        -11    1    1    2    0    0 -0.94579798932E+02 -0.23572865679E+02 -0.13131869322E+03  0.16354087426E+03  0.00000000000E+00 0.  1.
         11    1    1    2    0    0  0.53662202997E+01  0.29567630981E+02 -0.48766798191E+02  0.57282123982E+02  0.00000000000E+00 0. -1.
</event>
<event>
 7    1  0.3265282E-009  0.1034111E+03  0.7561462E-02  0.1273282E+00
         -4   -1    0    0    0  501 -0.00000000000E+00  0.00000000000E+00  0.34207653325E+03  0.34207653325E+03  0.00000000000E+00 0.  1.
          4   -1    0    0  501    0  0.00000000000E+00 -0.00000000000E+00 -0.38214796915E+02  0.38214796915E+02  0.00000000000E+00 0. -1.
         25    2    1    2    0    0  0.13842877683E+02 -0.10332619230E+02  0.11087855764E+03  0.16804778943E+03  0.12509043410E+03 0.  0.
          5    1    3    3  502    0 -0.16500414864E+01 -0.63307228791E+02  0.87183311934E+02  0.10783751728E+03  0.41800000000E+01 0.  1.
         -5    1    3    3    0  502  0.15492919169E+02  0.52974609561E+02  0.23695245704E+02  0.60210272142E+02  0.41800000000E+01 0.  1.
        -11    1    1    2    0    0  0.36467241072E+02 -0.80369268346E+00  0.70938347495E+02  0.79766877453E+02  0.00000000000E+00 0.  1.
         11    1    1    2    0    0 -0.50310118755E+02  0.11136311914E+02  0.12204483120E+03  0.13247666329E+03  0.00000000000E+00 0. -1.
</event>
<event>
 7    1  0.3265282E-009  0.1104461E+03  0.7561462E-02  0.1259746E+00
         -1   -1    0    0    0  501 -0.00000000000E+00  0.00000000000E+00  0.56612534486E+02  0.56612534486E+02  0.00000000000E+00 0.  1.
          1   -1    0    0  501    0  0.00000000000E+00 -0.00000000000E+00 -0.23108192278E+03  0.23108192278E+03  0.00000000000E+00 0. -1.
         25    2    1    2    0    0  0.14316665348E+02  0.29797102536E+02 -0.76249734633E+02  0.15017983173E+03  0.12508847110E+03 0.  0.
          5    1    3    3  502    0 -0.55552807091E+02  0.10440000668E+02 -0.36077273681E+02  0.67187424909E+02  0.41800000000E+01 0.  1.
         -5    1    3    3    0  502  0.69869472439E+02  0.19357101868E+02 -0.40172460951E+02  0.82992406824E+02  0.41800000000E+01 0.  1.
        -11    1    1    2    0    0  0.11266448273E+02 -0.54724096658E+02 -0.38240380926E+02  0.67705142678E+02  0.00000000000E+00 0.  1.
         11    1    1    2    0    0 -0.25583113621E+02  0.24926994122E+02 -0.59979272731E+02  0.69809482851E+02  0.00000000000E+00 0. -1.
</event>
<event>
 7    1  0.3265282E-009  0.1893479E+03  0.7561462E-02  0.1159051E+00
          3   -1    0    0  501    0  0.00000000000E+00  0.00000000000E+00  0.18659093119E+03  0.18659093119E+03  0.00000000000E+00 0. -1.
         -3   -1    0    0    0  501 -0.00000000000E+00 -0.00000000000E+00 -0.23767728482E+03  0.23767728482E+03  0.00000000000E+00 0.  1.
         25    2    1    2    0    0  0.86212319118E+00 -0.18045826758E+03 -0.45879371492E+02  0.22431768363E+03  0.12509027487E+03 0.  0.
          5    1    3    3  502    0 -0.21543126681E+02 -0.40447899878E+02 -0.66607577183E+02  0.80957894303E+02  0.41800000000E+01 0. -1.
         -5    1    3    3    0  502  0.22405249872E+02 -0.14001036770E+03  0.20728205692E+02  0.14335978933E+03  0.41800000000E+01 0. -1.
        -11    1    1    2    0    0  0.16051351901E+02  0.87414558061E+01  0.18234484975E+02  0.25817734017E+02  0.00000000000E+00 0. -1.
         11    1    1    2    0    0 -0.16913475093E+02  0.17171681177E+03 -0.23441467120E+02  0.17413279836E+03  0.00000000000E+00 0.  1.
</event>
<event>
 7    1  0.3265282E-009  0.6242684E+02  0.7561462E-02  0.1387921E+00
          2   -1    0    0  501    0  0.00000000000E+00  0.00000000000E+00  0.19757717057E+03  0.19757717057E+03  0.00000000000E+00 0. -1.
         -2   -1    0    0    0  501 -0.00000000000E+00 -0.00000000000E+00 -0.75912914696E+02  0.75912914696E+02  0.00000000000E+00 0.  1.
         25    2    1    2    0    0  0.80545944083E+01 -0.28989881326E+02  0.94251274844E+01  0.12900488507E+03  0.12509251629E+03 0.  0.
          5    1    3    3  502    0 -0.16241630699E+02  0.55559204714E+01 -0.51674734963E+02  0.54611440683E+02  0.41800000000E+01 0.  1.
         -5    1    3    3    0  502  0.24296225107E+02 -0.34545801798E+02  0.61099862447E+02  0.74393444384E+02  0.41800000000E+01 0.  1.
        -11    1    1    2    0    0 -0.48704400346E+01 -0.17490865117E+02 -0.45742563711E+01  0.18723658030E+02  0.00000000000E+00 0.  1.
         11    1    1    2    0    0 -0.31841543737E+01  0.46480746444E+02  0.11681338476E+03  0.12576154217E+03  0.00000000000E+00 0. -1.
</event>
<event>
 7    1  0.3265282E-009  0.1051261E+03  0.7561462E-02  0.1269871E+00
          1   -1    0    0  501    0  0.00000000000E+00  0.00000000000E+00  0.14855931852E+03  0.14855931852E+03  0.00000000000E+00 0. -1.
         -1   -1    0    0    0  501 -0.00000000000E+00 -0.00000000000E+00 -0.11452972007E+03  0.11452972007E+03  0.00000000000E+00 0.  1.
         25    2    1    2    0    0  0.56226532470E+02  0.33307600497E+02 -0.13490089514E+02  0.14177563768E+03  0.12509008642E+03 0.  0.
          5    1    3    3  502    0 -0.27292912185E+02  0.11109280054E+02  0.32270277463E+02  0.43899457472E+02  0.41800000000E+01 0. -1.
         -5    1    3    3    0  502  0.83519444654E+02  0.22198320442E+02 -0.45760366977E+02  0.97876180206E+02  0.41800000000E+01 0. -1.
        -11    1    1    2    0    0 -0.11071977347E+02  0.20759156249E+02  0.45054757018E+02  0.50827771744E+02  0.00000000000E+00 0. -1.
         11    1    1    2    0    0 -0.45154555123E+02 -0.54066756746E+02  0.24649309468E+01  0.70485629159E+02  0.00000000000E+00 0.  1.
</event>
<event>
 7    1  0.3265282E-009  0.1474570E+03  0.7561462E-02  0.1203633E+00
         -2   -1    0    0    0  501 -0.00000000000E+00  0.00000000000E+00  0.42449540720E+03  0.42449540720E+03  0.00000000000E+00 0.  1.
          2   -1    0    0  501    0  0.00000000000E+00 -0.00000000000E+00 -0.58627531414E+02  0.58627531414E+02  0.00000000000E+00 0. -1.
         25    2    1    2    0    0 -0.83965165502E+02  0.75039292245E+02  0.21582156367E+03  0.27368883098E+03  0.12508231076E+03 0.  0.
          5    1    3    3  502    0 -0.10616782678E+03  0.51388072727E+02  0.20937868850E+03  0.24035234357E+03  0.41800000000E+01 0. -1.
         -5    1    3    3    0  502  0.22202661279E+02  0.23651219518E+02  0.64428751634E+01  0.33336487411E+02  0.41800000000E+01 0. -1.
        -11    1    1    2    0    0 -0.19104949847E+02 -0.18630146639E+02  0.15718864164E+02  0.30970375571E+02  0.00000000000E+00 0.  1.
         11    1    1    2    0    0  0.10307011535E+03 -0.56409145607E+02  0.13432744796E+03  0.17846373206E+03  0.00000000000E+00 0. -1.
</event>
<event>
 7    1  0.3265282E-009  0.2919583E+03  0.7561462E-02  0.1089331E+00
         -2   -1    0    0    0  501 -0.00000000000E+00  0.00000000000E+00  0.39290718947E+02  0.39290718947E+02  0.00000000000E+00 0. -1.
          2   -1    0    0  501    0  0.00000000000E+00 -0.00000000000E+00 -0.30605605852E+04  0.30605605852E+04  0.00000000000E+00 0.  1.
         25    2    1    2    0    0  0.28544088012E+03  0.22226108209E+01 -0.22627478257E+04  0.22841093077E+04  0.12508465318E+03 0.  0.
          5    1    3    3  502    0  0.28787220613E+03  0.77529424787E+01 -0.19384846658E+04  0.19597629416E+04  0.41800000000E+01 0.  1.
         -5    1    3    3    0  502 -0.24313260118E+01 -0.55303316578E+01 -0.32426315989E+03  0.32434636606E+03  0.41800000000E+01 0.  1.
        -11    1    1    2    0    0 -0.16959562124E+03  0.19453280171E+02 -0.33307531454E+03  0.37427298862E+03  0.00000000000E+00 0.  1.
         11    1    1    2    0    0 -0.11584525888E+03 -0.21675890992E+02 -0.42544672598E+03  0.44146900786E+03  0.00000000000E+00 0. -1.
</event>
<event>
 7    1  0.3265282E-009  0.9326226E+02  0.7561462E-02  0.1295139E+00
          4   -1    0    0  501    0  0.00000000000E+00  0.00000000000E+00  0.24794365051E+03  0.24794365051E+03  0.00000000000E+00 0.  1.
         -4   -1    0    0    0  501 -0.00000000000E+00 -0.00000000000E+00 -0.68553301246E+02  0.68553301246E+02  0.00000000000E+00 0. -1.
         25    2    1    2    0    0  0.11123841465E+02 -0.17370480172E+02  0.18303819895E+03  0.22263935103E+03  0.12505928563E+03 0.  0.
          5    1    3    3  502    0  0.53637595153E+02 -0.22566197156E+02  0.16669054751E+03  0.17660531107E+03  0.41800000000E+01 0.  1.
         -5    1    3    3    0  502 -0.42513753688E+02  0.51957169847E+01  0.16347651436E+02  0.46034039960E+02  0.41800000000E+01 0.  1.
        -11    1    1    2    0    0 -0.29682228062E+01  0.50725430019E+02  0.17250374866E+02  0.53660553764E+02  0.00000000000E+00 0.  1.
         11    1    1    2    0    0 -0.81556186590E+01 -0.33354949847E+02 -0.20898224552E+02  0.40197046962E+02  0.00000000000E+00 0. -1.
</event>
<event>
 7    1  0.3265282E-009  0.1343551E+03  0.7561462E-02  0.1221133E+00
          1   -1    0    0  501    0  0.00000000000E+00  0.00000000000E+00  0.25799704629E+02  0.25799704629E+02  0.00000000000E+00 0. -1.
         -1   -1    0    0    0  501 -0.00000000000E+00 -0.00000000000E+00 -0.75824205144E+03  0.75824205144E+03  0.00000000000E+00 0.  1.
         25    2    1    2    0    0 -0.15485400856E+02 -0.84661052002E+02 -0.44397096251E+03  0.46921732356E+03  0.12508952718E+03 0.  0.
          5    1    3    3  502    0  0.41088102091E+02  0.16408858767E+01 -0.20103735524E+03  0.20524233297E+03  0.41800000000E+01 0. -1.
         -5    1    3    3    0  502 -0.56573502947E+02 -0.86301937879E+02 -0.24293360727E+03  0.26397499059E+03  0.41800000000E+01 0. -1.
        -11    1    1    2    0    0 -0.37586296870E+02  0.37691868340E+02 -0.15195018027E+03  0.16100392522E+03  0.00000000000E+00 0. -1.
         11    1    1    2    0    0  0.53071697726E+02  0.46969183662E+02 -0.13652120403E+03  0.15382050730E+03  0.00000000000E+00 0.  1.
</event>
<event>
 7    1  0.3265282E-009  0.8047143E+02  0.7561462E-02  0.1327719E+00
          1   -1    0    0  501    0  0.00000000000E+00  0.00000000000E+00  0.25283900795E+03  0.25283900795E+03  0.00000000000E+00 0. -1.
         -1   -1    0    0    0  501 -0.00000000000E+00 -0.00000000000E+00 -0.46722535925E+02  0.46722535925E+02  0.00000000000E+00 0.  1.
         25    2    1    2    0    0 -0.51945632102E+01  0.11929040262E+02  0.11337809479E+03  0.16932620567E+03  0.12508991191E+03 0.  0.
          5    1    3    3  502    0 -0.74004541419E+01 -0.44408041841E+02  0.30018493188E+01  0.45313622687E+02  0.41800000000E+01 0. -1.
         -5    1    3    3    0  502  0.22058909317E+01  0.56337082103E+02  0.11037624547E+03  0.12401258299E+03  0.41800000000E+01 0. -1.
        -11    1    1    2    0    0  0.26175558828E+02  0.10750992868E+02  0.95127149504E+02  0.99246754609E+02  0.00000000000E+00 0. -1.
         11    1    1    2    0    0 -0.20980995618E+02 -0.22680033130E+02 -0.23887722717E+01  0.30988583589E+02  0.00000000000E+00 0.  1.
</event>
<event>
 7    1  0.3265282E-009  0.1289559E+03  0.7561462E-02  0.1229013E+00
         -2   -1    0    0    0  501 -0.00000000000E+00  0.00000000000E+00  0.30704653771E+02  0.30704653771E+02  0.00000000000E+00 0.  1.
          2   -1    0    0  501    0  0.00000000000E+00 -0.00000000000E+00 -0.92686344485E+03  0.92686344485E+03  0.00000000000E+00 0. -1.
         25    2    1    2    0    0 -0.36768817736E+02  0.83751785908E+02 -0.22056584902E+03  0.26956201700E+03  0.12509228456E+03 0.  0.
          5    1    3    3  502    0 -0.66098602844E+02  0.65143776561E+02 -0.73689105826E+02  0.11857610906E+03  0.41800000000E+01 0. -1.
         -5    1    3    3    0  502  0.29329785108E+02  0.18608009346E+02 -0.14687674319E+03  0.15098590794E+03  0.41800000000E+01 0. -1.
        -11    1    1    2    0    0  0.17404256297E+01 -0.93619741913E+02 -0.49677958948E+03  0.50552709688E+03  0.00000000000E+00 0.  1.
         11    1    1    2    0    0  0.35028392106E+02  0.98679560052E+01 -0.17881335259E+03  0.18247898474E+03  0.00000000000E+00 0. -1.
</event>
<event>
 7    1  0.3265282E-009  0.1959435E+03  0.7561462E-02  0.1153207E+00
         -2   -1    0    0    0  501 -0.00000000000E+00  0.00000000000E+00  0.25818668506E+02  0.25818668506E+02  0.00000000000E+00 0.  1.
          2   -1    0    0  501    0  0.00000000000E+00 -0.00000000000E+00 -0.21382247373E+04  0.21382247373E+04  0.00000000000E+00 0. -1.
         25    2    1    2    0    0  0.12522672484E+03 -0.11310467868E+03 -0.16493699995E+04  0.16626913235E+04  0.12508653486E+03 0.  0.
          5    1    3    3  502    0  0.14860127959E+03 -0.10621441832E+03 -0.13509419860E+04  0.13632408316E+04  0.41800000000E+01 0.  1.
         -5    1    3    3    0  502 -0.23374554757E+02 -0.68902603679E+01 -0.29842801347E+03  0.29945049193E+03  0.41800000000E+01 0.  1.
        -11    1    1    2    0    0 -0.17233543155E+01  0.41823607093E+02 -0.55003851583E+02  0.69120241242E+02  0.00000000000E+00 0.  1.
         11    1    1    2    0    0 -0.12350337052E+03  0.71281071591E+02 -0.40803221772E+03  0.43223184102E+03  0.00000000000E+00 0. -1.
</event>
<event>
 7    1  0.3265282E-009  0.1447286E+03  0.7561462E-02  0.1207104E+00
         -1   -1    0    0    0  501 -0.00000000000E+00  0.00000000000E+00  0.18850361630E+03  0.18850361630E+03  0.00000000000E+00 0.  1.
          1   -1    0    0  501    0  0.00000000000E+00 -0.00000000000E+00 -0.13156470422E+03  0.13156470422E+03  0.00000000000E+00 0. -1.
         25    2    1    2    0    0 -0.80788691233E+02 -0.67274617289E+02 -0.14567759462E+02  0.16405505628E+03  0.12509658314E+03 0.  0.
          5    1    3    3  502    0 -0.75426849222E+02  0.18162029110E+02 -0.75726598374E+01  0.78063349031E+02  0.41800000000E+01 0. -1.
         -5    1    3    3    0  502 -0.53618420109E+01 -0.85436646399E+02 -0.69950996242E+01  0.85991707253E+02  0.41800000000E+01 0. -1.
        -11    1    1    2    0    0  0.57813184074E+02  0.80831352549E+02  0.25122244972E+02  0.10250462916E+03  0.00000000000E+00 0. -1.
         11    1    1    2    0    0  0.22975507159E+02 -0.13556735260E+02  0.46384426567E+02  0.53508635079E+02  0.00000000000E+00 0.  1.
</event>
<event>
 7    1  0.3265282E-009  0.1117020E+03  0.7561462E-02  0.1257450E+00
         -2   -1    0    0    0  501 -0.00000000000E+00  0.00000000000E+00  0.33599250149E+03  0.33599250149E+03  0.00000000000E+00 0.  1.
          2   -1    0    0  501    0  0.00000000000E+00 -0.00000000000E+00 -0.49324723495E+02  0.49324723495E+02  0.00000000000E+00 0. -1.
         25    2    1    2    0    0 -0.36341950260E+02 -0.51154003720E+02  0.12881356220E+03  0.19020471220E+03  0.12508968499E+03 0.  0.
          5    1    3    3  502    0  0.45353132976E+02 -0.50445139286E+01  0.47319333957E+02  0.65870672971E+02  0.41800000000E+01 0.  1.
         -5    1    3    3    0  502 -0.81695083236E+02 -0.46109489792E+02  0.81494228243E+02  0.12433403923E+03  0.41800000000E+01 0.  1.
        -11    1    1    2    0    0  0.10613165393E+02  0.56425235337E+02  0.30371986136E+02  0.64953090799E+02  0.00000000000E+00 0. -1.
         11    1    1    2    0    0  0.25728784866E+02 -0.52712316164E+01  0.12748222966E+03  0.13015942199E+03  0.00000000000E+00 0.  1.
</event>
<event>
 7    1  0.3265282E-009  0.1171587E+03  0.7561462E-02  0.1247859E+00
          2   -1    0    0  501    0  0.00000000000E+00  0.00000000000E+00  0.28701046345E+03  0.28701046345E+03  0.00000000000E+00 0. -1.
         -2   -1    0    0    0  501 -0.00000000000E+00 -0.00000000000E+00 -0.13183361701E+03  0.13183361701E+03  0.00000000000E+00 0.  1.
         25    2    1    2    0    0  0.25176424469E+02  0.54963382892E+02  0.24059470595E+03  0.27782228350E+03  0.12507830696E+03 0.  0.
          5    1    3    3  502    0 -0.26511731023E+02 -0.23260541037E+02  0.11920327654E+03  0.12438174379E+03  0.41800000000E+01 0. -1.
         -5    1    3    3    0  502  0.51688155492E+02  0.78223923929E+02  0.12139142941E+03  0.15344053971E+03  0.41800000000E+01 0. -1.
        -11    1    1    2    0    0  0.29152171318E+02 -0.38281337251E+02 -0.14731921278E+02  0.50322354663E+02  0.00000000000E+00 0. -1.
         11    1    1    2    0    0 -0.54328595787E+02 -0.16682045641E+02 -0.70685938232E+02  0.90699442285E+02  0.00000000000E+00 0.  1.
</event>
<event>
 7    1  0.4253926E-009  0.1376254E+03  0.7561462E-02  0.1216560E+00
          4   -1    0    0  501    0  0.00000000000E+00  0.00000000000E+00  0.16564783018E+03  0.16564783018E+03  0.00000000000E+00 0.  1.
         -4   -1    0    0    0  501 -0.00000000000E+00 -0.00000000000E+00 -0.14356523394E+03  0.14356523394E+03  0.00000000000E+00 0. -1.
         25    2    1    2    0    0 -0.41502820493E+02  0.10104931322E+03  0.16616390581E+02  0.16690329818E+03  0.12508860339E+03 0.  0.
          5    1    3    3  502    0 -0.39824256040E+02 -0.18471280898E+02 -0.79292208891E+01  0.44805184198E+02  0.41800000000E+01 0.  1.
         -5    1    3    3    0  502 -0.16785644535E+01  0.11952059411E+03  0.24545611470E+02  0.12209811398E+03  0.41800000000E+01 0.  1.
        -11    1    1    2    0    0  0.80199012435E+01 -0.49044528631E+02 -0.41421566028E+02  0.64694905030E+02  0.00000000000E+00 0.  1.
         11    1    1    2    0    0  0.33482919250E+02 -0.52004784585E+02  0.46887771684E+02  0.77614860915E+02  0.00000000000E+00 0. -1.
</event>
<event>
 7    1  0.3265282E-009  0.1086209E+03  0.7561462E-02  0.1263145E+00
          1   -1    0    0  501    0  0.00000000000E+00  0.00000000000E+00  0.11976227173E+03  0.11976227173E+03  0.00000000000E+00 0.  1.
         -1   -1    0    0    0  501 -0.00000000000E+00 -0.00000000000E+00 -0.11478161094E+03  0.11478161094E+03  0.00000000000E+00 0. -1.
         25    2    1    2    0    0  0.10892923499E+02 -0.43722907300E+01  0.45501710095E+02  0.13362858930E+03  0.12509365111E+03 0.  0.
          5    1    3    3  502    0 -0.26609542585E+01  0.59714751263E+02  0.24174878424E+02  0.64612919318E+02  0.41800000000E+01 0. -1.
         -5    1    3    3    0  502  0.13553877757E+02 -0.64087041993E+02  0.21326831671E+02  0.69015669980E+02  0.41800000000E+01 0. -1.
        -11    1    1    2    0    0 -0.32080915059E+02 -0.34686990316E+02 -0.27235524680E+02  0.54535733357E+02  0.00000000000E+00 0. -1.
         11    1    1    2    0    0  0.21187991560E+02  0.39059281046E+02 -0.13285524631E+02  0.46379560012E+02  0.00000000000E+00 0.  1.
</event>
<event>
 7    1  0.3265282E-009  0.1312441E+03  0.7561462E-02  0.1225621E+00
          2   -1    0    0  501    0  0.00000000000E+00  0.00000000000E+00  0.10780781987E+03  0.10780781987E+03  0.00000000000E+00 0. -1.
         -2   -1    0    0    0  501 -0.00000000000E+00 -0.00000000000E+00 -0.21513263986E+03  0.21513263986E+03  0.00000000000E+00 0.  1.
         25    2    1    2    0    0 -0.90776494560E+02 -0.50765237536E+02 -0.33360782370E+02  0.16606827289E+03  0.12509295805E+03 0.  0.
          5    1    3    3  502    0 -0.48134316158E+02  0.10549791635E+02  0.38245511111E+02  0.62517213755E+02  0.41800000000E+01 0. -1.
         -5    1    3    3    0  502 -0.42642178402E+02 -0.61315029172E+02 -0.71606293481E+02  0.10355105913E+03  0.41800000000E+01 0. -1.
        -11    1    1    2    0    0 -0.44514893923E+01 -0.19426886737E+02 -0.85189351090E+01  0.21674684346E+02  0.00000000000E+00 0.  1.
         11    1    1    2    0    0  0.95227983952E+02  0.70192124274E+02 -0.65445102511E+02  0.13519750249E+03  0.00000000000E+00 0. -1.
</event>
<event>
 7    1  0.3265282E-009  0.1479655E+03  0.7561462E-02  0.1202995E+00
         -1   -1    0    0    0  501 -0.00000000000E+00  0.00000000000E+00  0.14174467473E+03  0.14174467473E+03  0.00000000000E+00 0.  1.
          1   -1    0    0  501    0  0.00000000000E+00 -0.00000000000E+00 -0.16083978170E+03  0.16083978170E+03  0.00000000000E+00 0. -1.
         25    2    1    2    0    0 -0.46145612940E+01 -0.10377036984E+03 -0.37474217355E+02  0.16685732850E+03  0.12508983681E+03 0.  0.
          5    1    3    3  502    0  0.59042608847E+02 -0.41364244050E+02 -0.26598976756E+02  0.76954586022E+02  0.41800000000E+01 0.  1.
         -5    1    3    3    0  502 -0.63657170141E+02 -0.62406125792E+02 -0.10875240599E+02  0.89902742477E+02  0.41800000000E+01 0.  1.
        -11    1    1    2    0    0 -0.28728153659E+01  0.11819232495E+03  0.16189252811E+02  0.11933051015E+03  0.00000000000E+00 0.  1.
         11    1    1    2    0    0  0.74873766600E+01 -0.14421955111E+02  0.21898575702E+01  0.16396617781E+02  0.00000000000E+00 0. -1.
</event>
<event>
 7    1  0.3265282E-009  0.1356457E+03  0.7561462E-02  0.1219311E+00
         -3   -1    0    0    0  501 -0.00000000000E+00  0.00000000000E+00  0.17838064530E+03  0.17838064530E+03  0.00000000000E+00 0.  1.
          3   -1    0    0  501    0  0.00000000000E+00 -0.00000000000E+00 -0.11204987641E+03  0.11204987641E+03  0.00000000000E+00 0. -1.
         25    2    1    2    0    0  0.87176719215E+02 -0.19051544216E+02  0.34031270522E+02  0.15737910852E+03  0.12508922701E+03 0.  0.
          5    1    3    3  502    0  0.54799757709E+02 -0.71911707096E+02  0.29028449916E+02  0.95049620551E+02  0.41800000000E+01 0. -1.
         -5    1    3    3    0  502  0.32376961507E+02  0.52860162880E+02  0.50028206063E+01  0.62329487967E+02  0.41800000000E+01 0. -1.
        -11    1    1    2    0    0 -0.47913465937E+02 -0.29459317446E+02  0.41593398043E+02  0.69954001767E+02  0.00000000000E+00 0.  1.
         11    1    1    2    0    0 -0.39263253279E+02  0.48510861661E+02 -0.92938996720E+01  0.63097411423E+02  0.00000000000E+00 0. -1.
</event>
<event>
 7    1  0.3265282E-009  0.1689957E+03  0.7561462E-02  0.1178899E+00
          1   -1    0    0  501    0  0.00000000000E+00  0.00000000000E+00  0.30200630103E+03  0.30200630103E+03  0.00000000000E+00 0. -1.
         -1   -1    0    0    0  501 -0.00000000000E+00 -0.00000000000E+00 -0.10699880824E+03  0.10699880824E+03  0.00000000000E+00 0.  1.
         25    2    1    2    0    0  0.13170082614E+03 -0.54083375974E+02  0.85378106583E+02  0.20786571401E+03  0.12509442359E+03 0.  0.
          5    1    3    3  502    0  0.79904856408E+02 -0.93902138784E+02  0.47263509823E+02  0.13211248808E+03  0.41800000000E+01 0.  1.
         -5    1    3    3    0  502  0.51795969731E+02  0.39818762810E+02  0.38114596761E+02  0.75753225927E+02  0.41800000000E+01 0.  1.
        -11    1    1    2    0    0 -0.14875274307E+01  0.12320107551E+02 -0.12631288594E+02  0.17707265161E+02  0.00000000000E+00 0.  1.
         11    1    1    2    0    0 -0.13021329871E+03  0.41763268423E+02  0.12226067481E+03  0.18343213010E+03  0.00000000000E+00 0. -1.
</event>
<event>
 7    1  0.3265282E-009  0.1164710E+03  0.7561462E-02  0.1249035E+00
         -2   -1    0    0    0  501 -0.00000000000E+00  0.00000000000E+00  0.11675249017E+03  0.11675249017E+03  0.00000000000E+00 0.  1.
          2   -1    0    0  501    0  0.00000000000E+00 -0.00000000000E+00 -0.15238346789E+03  0.15238346789E+03  0.00000000000E+00 0. -1.
         25    2    1    2    0    0  0.22256432867E+02 -0.56277595200E+02 -0.67768552270E+02  0.15460247049E+03  0.12508729224E+03 0.  0.
          5    1    3    3  502    0  0.60847387668E+02  0.38790108338E+01 -0.54303094714E+02  0.81754203602E+02  0.41800000000E+01 0.  1.
         -5    1    3    3    0  502 -0.38590954802E+02 -0.60156606034E+02 -0.13465457556E+02  0.72848266892E+02  0.41800000000E+01 0.  1.
        -11    1    1    2    0    0  0.24377627694E+02  0.46623642892E+02  0.40226688048E+02  0.66228537956E+02  0.00000000000E+00 0.  1.
         11    1    1    2    0    0 -0.46634060561E+02  0.96539523082E+01 -0.80891134937E+01  0.48304949608E+02  0.00000000000E+00 0. -1.
</event>
<event>
 7    1  0.3265282E-009  0.1311127E+03  0.7561462E-02  0.1225814E+00
          3   -1    0    0  501    0  0.00000000000E+00  0.00000000000E+00  0.42048775242E+03  0.42048775242E+03  0.00000000000E+00 0. -1.
         -3   -1    0    0    0  501 -0.00000000000E+00 -0.00000000000E+00 -0.42877519391E+02  0.42877519391E+02  0.00000000000E+00 0.  1.
         25    2    1    2    0    0  0.82782039042E+01  0.67392820505E+02  0.23880458418E+03  0.27800163276E+03  0.12508779905E+03 0.  0.
          5    1    3    3  502    0  0.58854409706E+02  0.30317824059E+01  0.81982051371E+02  0.10105227555E+03  0.41800000000E+01 0. -1.
         -5    1    3    3    0  502 -0.50576205802E+02  0.64361038100E+02  0.15682253281E+03  0.17694935721E+03  0.41800000000E+01 0. -1.
        -11    1    1    2    0    0 -0.50123213398E+02 -0.11611113734E+02  0.44157832910E+02  0.67801686489E+02  0.00000000000E+00 0. -1.
         11    1    1    2    0    0  0.41845009493E+02 -0.55781706771E+02  0.94647815938E+02  0.11756195257E+03  0.00000000000E+00 0.  1.
</event>
<event>
 7    1  0.3265282E-009  0.9738952E+02  0.7561462E-02  0.1285883E+00
          1   -1    0    0  501    0  0.00000000000E+00  0.00000000000E+00  0.17862556480E+03  0.17862556480E+03  0.00000000000E+00 0. -1.
         -1   -1    0    0    0  501 -0.00000000000E+00 -0.00000000000E+00 -0.73278837230E+02  0.73278837230E+02  0.00000000000E+00 0.  1.
         25    2    1    2    0    0  0.18871105549E+02  0.32682156350E+02  0.61823356958E+02  0.14453998720E+03  0.12508172714E+03 0.  0.
          5    1    3    3  502    0  0.70386906568E+02  0.67775979962E+01  0.21406341319E+02  0.73999704726E+02  0.41800000000E+01 0. -1.
         -5    1    3    3    0  502 -0.51515801019E+02  0.25904558354E+02  0.40417015638E+02  0.70540282472E+02  0.41800000000E+01 0. -1.
        -11    1    1    2    0    0 -0.34102300644E+02 -0.36979770469E+02 -0.10226805266E+02  0.51332814837E+02  0.00000000000E+00 0.  1.
         11    1    1    2    0    0  0.15231195095E+02  0.42976141184E+01  0.53750175877E+02  0.56031599994E+02  0.00000000000E+00 0. -1.
</event>
<event>
 7    1  0.3265282E-009  0.1441561E+03  0.7561462E-02  0.1207843E+00
          1   -1    0    0  501    0  0.00000000000E+00  0.00000000000E+00  0.13428536543E+04  0.13428536543E+04  0.00000000000E+00 0. -1.
         -1   -1    0    0    0  501 -0.00000000000E+00 -0.00000000000E+00 -0.82889869252E+02  0.82889869252E+02  0.00000000000E+00 0.  1.
         25    2    1    2    0    0 -0.98969341281E+02 -0.61736870788E+02  0.12644537564E+04  0.12759689805E+04  0.12508863070E+03 0.  0.
          5    1    3    3  502    0 -0.10863917461E+03 -0.32228845726E+02  0.11872002339E+04  0.11926034699E+04  0.41800000000E+01 0.  1.
         -5    1    3    3    0  502  0.96698333283E+01 -0.29508025062E+02  0.77253522467E+02  0.83365510574E+02  0.41800000000E+01 0.  1.
        -11    1    1    2    0    0  0.11183242927E+03  0.40860798863E+02  0.12831485726E+02  0.11975284608E+03  0.00000000000E+00 0. -1.
         11    1    1    2    0    0 -0.12863087985E+02  0.20876071924E+02 -0.17321457065E+02  0.30021696927E+02  0.00000000000E+00 0.  1.
</event>
<event>
 7    1  0.3265282E-009  0.1440447E+03  0.7561462E-02  0.1207988E+00
         -1   -1    0    0    0  501 -0.00000000000E+00  0.00000000000E+00  0.43142269135E+02  0.43142269135E+02  0.00000000000E+00 0. -1.
          1   -1    0    0  501    0  0.00000000000E+00 -0.00000000000E+00 -0.70917768606E+03  0.70917768606E+03  0.00000000000E+00 0.  1.
         25    2    1    2    0    0 -0.66564791973E+02 -0.11618431748E+03 -0.28313385180E+03  0.33725324453E+03  0.12508119664E+03 0.  0.
          5    1    3    3  502    0  0.18237022542E+00 -0.55071556438E+02 -0.22000793949E+03  0.22683446701E+03  0.41800000000E+01 0. -1.
         -5    1    3    3    0  502 -0.66747162198E+02 -0.61112761041E+02 -0.63125912314E+02  0.11041877752E+03  0.41800000000E+01 0. -1.
        -11    1    1    2    0    0  0.12541450879E+02 -0.16371930163E+01 -0.21137606757E+01  0.12823274751E+02  0.00000000000E+00 0. -1.
         11    1    1    2    0    0  0.54023341094E+02  0.11782151050E+03 -0.38078780445E+03  0.40224343591E+03  0.00000000000E+00 0.  1.
</event>
<event>
 7    1  0.3265282E-009  0.9500990E+02  0.7561462E-02  0.1291154E+00
         -1   -1    0    0    0  501 -0.00000000000E+00  0.00000000000E+00  0.15605881328E+03  0.15605881328E+03  0.00000000000E+00 0.  1.
          1   -1    0    0  501    0  0.00000000000E+00 -0.00000000000E+00 -0.12715223006E+03  0.12715223006E+03  0.00000000000E+00 0. -1.
         25    2    1    2    0    0 -0.27688220315E+02  0.53576829749E+01  0.10133873113E+03  0.16344135429E+03  0.12509274781E+03 0.  0.
          5    1    3    3  502    0  0.36064103616E+01  0.58227698245E+02  0.20841566681E+02  0.62091177637E+02  0.41800000000E+01 0.  1.
         -5    1    3    3    0  502 -0.31294630676E+02 -0.52870015270E+02  0.80497164445E+02  0.10135017665E+03  0.41800000000E+01 0.  1.
        -11    1    1    2    0    0  0.37038980423E+02 -0.27357324927E+02 -0.81981820340E+02  0.94028337027E+02  0.00000000000E+00 0. -1.
         11    1    1    2    0    0 -0.93507601087E+01  0.21999641952E+02  0.95496724374E+01  0.25741352029E+02  0.00000000000E+00 0.  1.
</event>
<event>
 7    1  0.3265282E-009  0.1092657E+03  0.7561462E-02  0.1261936E+00
         -2   -1    0    0    0  501 -0.00000000000E+00  0.00000000000E+00  0.71205916439E+02  0.71205916439E+02  0.00000000000E+00 0.  1.
          2   -1    0    0  501    0  0.00000000000E+00 -0.00000000000E+00 -0.18664503384E+03  0.18664503384E+03  0.00000000000E+00 0. -1.
         25    2    1    2    0    0  0.41282236932E+02  0.15129493147E+02 -0.55815909578E+02  0.14386018814E+03  0.12508882173E+03 0.  0.
          5    1    3    3  502    0  0.22255458063E+02 -0.54788959019E+02 -0.17649487182E+02  0.61855575673E+02  0.41800000000E+01 0. -1.
         -5    1    3    3    0  502  0.19026778868E+02  0.69918452166E+02 -0.38166422397E+02  0.82004612468E+02  0.41800000000E+01 0. -1.
        -11    1    1    2    0    0 -0.62891155378E+02 -0.58964781286E+01 -0.17155412256E+02  0.65455130041E+02  0.00000000000E+00 0.  1.
         11    1    1    2    0    0  0.21608918446E+02 -0.92330150184E+01 -0.42467795567E+02  0.48535632097E+02  0.00000000000E+00 0. -1.
</event>
<event>
 7    1  0.3265282E-009  0.1179262E+03  0.7561462E-02  0.1246558E+00
          1   -1    0    0  501    0  0.00000000000E+00  0.00000000000E+00  0.46757061228E+02  0.46757061228E+02  0.00000000000E+00 0. -1.
         -1   -1    0    0    0  501 -0.00000000000E+00 -0.00000000000E+00 -0.38899625208E+03  0.38899625208E+03  0.00000000000E+00 0.  1.
         25    2    1    2    0    0  0.52800625653E+02 -0.21745259607E+02 -0.27743786201E+03  0.30964479662E+03  0.12508944964E+03 0.  0.
          5    1    3    3  502    0  0.42615627219E+02 -0.72198472109E+02 -0.19594074228E+03  0.21316415727E+03  0.41800000000E+01 0.  1.
         -5    1    3    3    0  502  0.10184998434E+02  0.50453212502E+02 -0.81497119727E+02  0.96480639346E+02  0.41800000000E+01 0.  1.
        -11    1    1    2    0    0  0.16682547164E+02  0.25739086509E+02  0.49335949003E+00  0.30676560397E+02  0.00000000000E+00 0. -1.
         11    1    1    2    0    0 -0.69483172816E+02 -0.39938269024E+01 -0.65294688332E+02  0.95431956295E+02  0.00000000000E+00 0.  1.
</event>
<event>
 7    1  0.3265282E-009  0.8037751E+02  0.7561462E-02  0.1327984E+00
          1   -1    0    0  501    0  0.00000000000E+00  0.00000000000E+00  0.69832022790E+03  0.69832022790E+03  0.00000000000E+00 0. -1.
         -1   -1    0    0    0  501 -0.00000000000E+00 -0.00000000000E+00 -0.18748652836E+02  0.18748652836E+02  0.00000000000E+00 0.  1.
         25    2    1    2    0    0  0.43499323160E+01 -0.44717594879E+02  0.47447534406E+03  0.49274002375E+03  0.12508914293E+03 0.  0.
          5    1    3    3  502    0 -0.31423174326E+02 -0.47898846050E+02  0.91316882234E+02  0.10787938041E+03  0.41800000000E+01 0.  1.
         -5    1    3    3    0  502  0.35773106642E+02  0.31812511708E+01  0.38315846182E+03  0.38486064333E+03  0.41800000000E+01 0.  1.
        -11    1    1    2    0    0  0.22615119380E+02  0.15597284165E+02  0.17482028798E+02  0.32562865795E+02  0.00000000000E+00 0.  1.
         11    1    1    2    0    0 -0.26965051696E+02  0.29120310713E+02  0.18761420220E+03  0.19176599119E+03  0.00000000000E+00 0. -1.
</event>
<event>
 7    1  0.3265282E-009  0.7385208E+02  0.7561462E-02  0.1347463E+00
         -2   -1    0    0    0  501 -0.00000000000E+00  0.00000000000E+00  0.11894816719E+03  0.11894816719E+03  0.00000000000E+00 0. -1.
          2   -1    0    0  501    0  0.00000000000E+00 -0.00000000000E+00 -0.20923827191E+03  0.20923827191E+03  0.00000000000E+00 0.  1.
         25    2    1    2    0    0  0.96301782185E+01  0.57675154548E+02 -0.15004344917E+03  0.20391714401E+03  0.12509996483E+03 0.  0.
          5    1    3    3  502    0  0.75668353042E+01  0.66267746927E+02 -0.16946933534E+03  0.18217024812E+03  0.41800000000E+01 0. -1.
         -5    1    3    3    0  502  0.20633429143E+01 -0.85925923790E+01  0.19425886168E+02  0.21746895897E+02  0.41800000000E+01 0. -1.
        -11    1    1    2    0    0  0.88655702309E+01 -0.50481231930E+02 -0.95888984145E+01  0.52143073227E+02  0.00000000000E+00 0.  1.
         11    1    1    2    0    0 -0.18495748449E+02 -0.71939226174E+01  0.69342242868E+02  0.72126221857E+02  0.00000000000E+00 0. -1.
</event>
<event>
 7    1  0.3265282E-009  0.1863707E+03  0.7561462E-02  0.1161776E+00
         -1   -1    0    0    0  501 -0.00000000000E+00  0.00000000000E+00  0.69079292363E+02  0.69079292363E+02  0.00000000000E+00 0.  1.
          1   -1    0    0  501    0  0.00000000000E+00 -0.00000000000E+00 -0.62899756502E+03  0.62899756502E+03  0.00000000000E+00 0. -1.
         25    2    1    2    0    0  0.10927343252E+03 -0.13266037415E+03 -0.36513018120E+03  0.42249990269E+03  0.12508661249E+03 0.  0.
          5    1    3    3  502    0  0.30690239184E+02 -0.10209196889E+02 -0.19886791315E+03  0.20152428579E+03  0.41800000000E+01 0. -1.
         -5    1    3    3    0  502  0.78583193336E+02 -0.12245117726E+03 -0.16626226806E+03  0.22097561691E+03  0.41800000000E+01 0. -1.
        -11    1    1    2    0    0 -0.12480126779E+03  0.12696268709E+03 -0.18265211169E+03  0.25506209883E+03  0.00000000000E+00 0. -1.
         11    1    1    2    0    0  0.15527835269E+02  0.56976870612E+01 -0.12135979757E+02  0.20514855853E+02  0.00000000000E+00 0.  1.
</event>
<event>
 7    1  0.3265282E-009  0.1244305E+03  0.7561462E-02  0.1235962E+00
          2   -1    0    0  501    0  0.00000000000E+00  0.00000000000E+00  0.55007873451E+03  0.55007873451E+03  0.00000000000E+00 0.  1.
         -2   -1    0    0    0  501 -0.00000000000E+00 -0.00000000000E+00 -0.34772252597E+02  0.34772252597E+02  0.00000000000E+00 0. -1.
         25    2    1    2    0    0  0.21466738590E+02 -0.72531307247E+02  0.36731918464E+03  0.39533786314E+03  0.12508809390E+03 0.  0.
          5    1    3    3  502    0 -0.33050526618E+02  0.79534824082E+01  0.34607196106E+02  0.48690097704E+02  0.41800000000E+01 0. -1.
         -5    1    3    3    0  502  0.54517265207E+02 -0.80484789655E+02  0.33271198853E+03  0.34664776544E+03  0.41800000000E+01 0. -1.
        -11    1    1    2    0    0 -0.53783908726E+01  0.91941875408E+02  0.10491039017E+03  0.13960095096E+03  0.00000000000E+00 0.  1.
         11    1    1    2    0    0 -0.16088347717E+02 -0.19410568160E+02  0.43076907102E+02  0.49912173005E+02  0.00000000000E+00 0. -1.
</event>
<event>
 7    1  0.3265282E-009  0.9270972E+02  0.7561462E-02  0.1296419E+00
          1   -1    0    0  501    0  0.00000000000E+00  0.00000000000E+00  0.27923708188E+03  0.27923708188E+03  0.00000000000E+00 0. -1.
         -1   -1    0    0    0  501 -0.00000000000E+00 -0.00000000000E+00 -0.52888679423E+02  0.52888679423E+02  0.00000000000E+00 0.  1.
         25    2    1    2    0    0 -0.19573740256E+02  0.42900376849E+02  0.15811304782E+03  0.20703361687E+03  0.12505842226E+03 0.  0.
          5    1    3    3  502    0 -0.42359512631E+01 -0.19708636250E+02 -0.12853832008E+02  0.24270702982E+02  0.41800000000E+01 0. -1.
         -5    1    3    3    0  502 -0.15337788993E+02  0.62609013099E+02  0.17096687983E+03  0.18276291388E+03  0.41800000000E+01 0. -1.
        -11    1    1    2    0    0  0.15526368521E+02 -0.70577265603E+02  0.64517660840E+02  0.96874904385E+02  0.00000000000E+00 0. -1.
         11    1    1    2    0    0  0.40473717349E+01  0.27676888754E+02  0.37176937950E+01  0.28217240053E+02  0.00000000000E+00 0.  1.
</event>
<event>
 7    1  0.3265282E-009  0.7308809E+02  0.7561462E-02  0.1349896E+00
         -1   -1    0    0    0  501 -0.00000000000E+00  0.00000000000E+00  0.22374413024E+02  0.22374413024E+02  0.00000000000E+00 0.  1.
          1   -1    0    0  501    0  0.00000000000E+00 -0.00000000000E+00 -0.60321006250E+03  0.60321006250E+03  0.00000000000E+00 0. -1.
         25    2    1    2    0    0 -0.70148102831E+01 -0.38703882937E+02 -0.30515825968E+03  0.33213824757E+03  0.12508818462E+03 0.  0.
          5    1    3    3  502    0  0.49166624393E+01 -0.30834227712E+02 -0.31349360982E+03  0.31507243447E+03  0.41800000000E+01 0.  1.
         -5    1    3    3    0  502 -0.11931472722E+02 -0.78696552253E+01  0.83353501399E+01  0.17065813096E+02  0.41800000000E+01 0.  1.
        -11    1    1    2    0    0 -0.26713575471E+02 -0.19112605483E+02 -0.74321122861E+02  0.81255991201E+02  0.00000000000E+00 0.  1.
         11    1    1    2    0    0  0.33728385754E+02  0.57816488420E+02 -0.20135626693E+03  0.21219023675E+03  0.00000000000E+00 0. -1.
</event>
<event>
 7    1  0.3265282E-009  0.1011163E+03  0.7561462E-02  0.1277966E+00
          2   -1    0    0  501    0  0.00000000000E+00  0.00000000000E+00  0.13209095541E+03  0.13209095541E+03  0.00000000000E+00 0. -1.
         -2   -1    0    0    0  501 -0.00000000000E+00 -0.00000000000E+00 -0.12199519466E+03  0.12199519466E+03  0.00000000000E+00 0.  1.
         25    2    1    2    0    0 -0.62282573855E+02  0.10579702511E+01  0.36559039008E+02  0.14444347273E+03  0.12508842941E+03 0.  0.
          5    1    3    3  502    0  0.18664528988E+02 -0.21836216450E+02 -0.26438532755E+02  0.39263894425E+02  0.41800000000E+01 0. -1.
         -5    1    3    3    0  502 -0.80947102843E+02  0.22894186701E+02  0.62997571763E+02  0.10517957830E+03  0.41800000000E+01 0. -1.
        -11    1    1    2    0    0  0.32473158825E+01  0.24452075748E+02  0.18787770638E+02  0.31006924942E+02  0.00000000000E+00 0. -1.
         11    1    1    2    0    0  0.59035257972E+02 -0.25510045999E+02 -0.45251048892E+02  0.78635752406E+02  0.00000000000E+00 0.  1.
</event>
<event>
 7    1  0.3265282E-009  0.1131554E+03  0.7561462E-02  0.1254836E+00
         -2   -1    0    0    0  501 -0.00000000000E+00  0.00000000000E+00  0.27100353995E+03  0.27100353995E+03  0.00000000000E+00 0.  1.
          2   -1    0    0  501    0  0.00000000000E+00 -0.00000000000E+00 -0.67759900295E+02  0.67759900295E+02  0.00000000000E+00 0. -1.
         25    2    1    2    0    0 -0.12935018335E+02 -0.78611067048E+02  0.11214564615E+03  0.18593587055E+03  0.12509391450E+03 0.  0.
          5    1    3    3  502    0  0.46712940635E+02 -0.37239411424E+02  0.93225363810E+02  0.11080303896E+03  0.41800000000E+01 0.  1.
         -5    1    3    3    0  502 -0.59647958970E+02 -0.41371655624E+02  0.18920282339E+02  0.75132831586E+02  0.41800000000E+01 0.  1.
        -11    1    1    2    0    0 -0.13364512782E+02  0.30529375421E+01  0.68266255404E+02  0.69629104952E+02  0.00000000000E+00 0.  1.
         11    1    1    2    0    0  0.26299531117E+02  0.75558129506E+02  0.22831738105E+02  0.83198464747E+02  0.00000000000E+00 0. -1.
</event>
<event>
 7    1  0.3265282E-009  0.1347210E+03  0.7561462E-02  0.1220614E+00
          2   -1    0    0  501    0  0.00000000000E+00  0.00000000000E+00  0.72680604273E+03  0.72680604273E+03  0.00000000000E+00 0. -1.
         -2   -1    0    0    0  501 -0.00000000000E+00 -0.00000000000E+00 -0.33019235970E+02  0.33019235970E+02  0.00000000000E+00 0.  1.
         25    2    1    2    0    0 -0.89310768307E+02  0.81652060904E+01  0.21723081490E+03  0.26623288935E+03  0.12509052922E+03 0.  0.
          5    1    3    3  502    0 -0.96488622077E+02 -0.31079585023E+02  0.10051967676E+03  0.14282042085E+03  0.41800000000E+01 0. -1.
         -5    1    3    3    0  502  0.71778537708E+01  0.39244791113E+02  0.11671113814E+03  0.12341246850E+03  0.41800000000E+01 0. -1.
        -11    1    1    2    0    0 -0.98208845191E+01 -0.25418083257E+02  0.12397637678E+03  0.12693569525E+03  0.00000000000E+00 0. -1.
         11    1    1    2    0    0  0.99131652826E+02  0.17252877167E+02  0.35257961507E+03  0.36665669410E+03  0.00000000000E+00 0.  1.
</event>
<event>
 7    1  0.3265282E-009  0.8218454E+02  0.7561462E-02  0.1322964E+00
          1   -1    0    0  501    0  0.00000000000E+00  0.00000000000E+00  0.39039718847E+02  0.39039718847E+02  0.00000000000E+00 0. -1.
         -1   -1    0    0    0  501 -0.00000000000E+00 -0.00000000000E+00 -0.33168924628E+03  0.33168924628E+03  0.00000000000E+00 0.  1.
         25    2    1    2    0    0 -0.34063087461E+02  0.60672109075E+01 -0.17886637362E+03  0.22098938847E+03  0.12508407264E+03 0.  0.
          5    1    3    3  502    0 -0.55923237257E+02  0.32781828045E+02 -0.36649476215E+02  0.74583598882E+02  0.41800000000E+01 0.  1.
         -5    1    3    3    0  502  0.21860149796E+02 -0.26714617137E+02 -0.14221689740E+03  0.14640578959E+03  0.41800000000E+01 0.  1.
        -11    1    1    2    0    0  0.43497210331E+02 -0.19951100827E+02 -0.12200049960E+03  0.13105027903E+03  0.00000000000E+00 0.  1.
         11    1    1    2    0    0 -0.94341228699E+01  0.13883889920E+02  0.82173457947E+01  0.18689297620E+02  0.00000000000E+00 0. -1.
</event>
<event>
 7    1  0.3265282E-009  0.8372300E+02  0.7561462E-02  0.1318806E+00
          2   -1    0    0  501    0  0.00000000000E+00  0.00000000000E+00  0.46240153602E+03  0.46240153602E+03  0.00000000000E+00 0.  1.
         -2   -1    0    0    0  501 -0.00000000000E+00 -0.00000000000E+00 -0.33296307086E+02  0.33296307086E+02  0.00000000000E+00 0. -1.
         25    2    1    2    0    0  0.23131029426E+02 -0.35033321023E+01  0.32777028346E+03  0.35160701555E+03  0.12508723677E+03 0.  0.
          5    1    3    3  502    0  0.30278267352E+02 -0.51706353975E+02  0.85748975190E+02  0.10469326464E+03  0.41800000000E+01 0. -1.
         -5    1    3    3    0  502 -0.71472379256E+01  0.48203021873E+02  0.24202130827E+03  0.24691375091E+03  0.41800000000E+01 0. -1.
        -11    1    1    2    0    0 -0.34854541988E+02 -0.13870338633E+02  0.11371891322E+03  0.11974646807E+03  0.00000000000E+00 0.  1.
         11    1    1    2    0    0  0.11723512562E+02  0.17373670736E+02 -0.12383967751E+02  0.24344359488E+02  0.00000000000E+00 0. -1.
</event>
<event>
 7    1  0.3265282E-009  0.1073510E+03  0.7561462E-02  0.1265556E+00
          2   -1    0    0  501    0  0.00000000000E+00  0.00000000000E+00  0.14771890935E+03  0.14771890935E+03  0.00000000000E+00 0. -1.
         -2   -1    0    0    0  501 -0.00000000000E+00 -0.00000000000E+00 -0.92511082648E+02  0.92511082648E+02  0.00000000000E+00 0.  1.
         25    2    1    2    0    0 -0.11561761885E+02 -0.39001108537E+02  0.46269412664E+02  0.13943442679E+03  0.12508533096E+03 0.  0.
          5    1    3    3  502    0 -0.24594177924E+02  0.33281898056E+02 -0.14464077263E+02  0.44036805708E+02  0.41800000000E+01 0.  1.
         -5    1    3    3    0  502  0.13032416039E+02 -0.72283006592E+02  0.60733489927E+02  0.95397621084E+02  0.41800000000E+01 0.  1.
        -11    1    1    2    0    0 -0.37158341529E+02  0.34343834193E+02  0.11113983927E+02  0.51805037699E+02  0.00000000000E+00 0.  1.
         11    1    1    2    0    0  0.48720103414E+02  0.46572743440E+01 -0.21755698878E+01  0.48990527506E+02  0.00000000000E+00 0. -1.
</event>
<event>
 7    1  0.3265282E-009  0.1055809E+03  0.7561462E-02  0.1268979E+00
          1   -1    0    0  501    0  0.00000000000E+00  0.00000000000E+00  0.50049738697E+02  0.50049738697E+02  0.00000000000E+00 0. -1.
         -1   -1    0    0    0  501 -0.00000000000E+00 -0.00000000000E+00 -0.32023700081E+03  0.32023700081E+03  0.00000000000E+00 0.  1.
         25    2    1    2    0    0  0.92322751387E+01  0.33197550393E+02 -0.67025961800E+02  0.14603790367E+03  0.12508907824E+03 0.  0.
          5    1    3    3  502    0 -0.30233144534E+02  0.60704656137E+02 -0.59868982900E+01  0.68208603975E+02  0.41800000000E+01 0.  1.
         -5    1    3    3    0  502  0.39465419673E+02 -0.27507105743E+02 -0.61039063510E+02  0.77829299692E+02  0.41800000000E+01 0.  1.
        -11    1    1    2    0    0 -0.38613564727E+02 -0.48345514135E+02 -0.13107754193E+03  0.14494694931E+03  0.00000000000E+00 0.  1.
         11    1    1    2    0    0  0.29381289588E+02  0.15147963742E+02 -0.72083758386E+02  0.79301886525E+02  0.00000000000E+00 0. -1.
</event>
<event>
 7    1  0.3265282E-009  0.1426565E+03  0.7561462E-02  0.1209799E+00
         -1   -1    0    0    0  501 -0.00000000000E+00  0.00000000000E+00  0.19346066237E+02  0.19346066237E+02  0.00000000000E+00 0.  1.
          1   -1    0    0  501    0  0.00000000000E+00 -0.00000000000E+00 -0.14848952837E+04  0.14848952837E+04  0.00000000000E+00 0. -1.
         25    2    1    2    0    0 -0.88596382487E+02  0.35360046526E+02 -0.11813843401E+04  0.11918118817E+04  0.12508777096E+03 0.  0.
          5    1    3    3  502    0 -0.11860967022E+03  0.40000960446E+02 -0.10063109317E+04  0.10140746986E+04  0.41800000000E+01 0. -1.
         -5    1    3    3    0  502  0.30013287733E+02 -0.46409139203E+01 -0.17507340840E+03  0.17773718309E+03  0.41800000000E+01 0. -1.
        -11    1    1    2    0    0  0.57132562323E+02  0.24205605174E+02 -0.14915265293E+03  0.16154428147E+03  0.00000000000E+00 0. -1.
         11    1    1    2    0    0  0.31463820164E+02 -0.59565651700E+02 -0.13501222449E+03  0.15088518683E+03  0.00000000000E+00 0.  1.
</event>
<event>
 7    1  0.3265282E-009  0.1206637E+03  0.7561462E-02  0.1242006E+00
          3   -1    0    0  501    0  0.00000000000E+00  0.00000000000E+00  0.97138075739E+02  0.97138075739E+02  0.00000000000E+00 0. -1.
         -3   -1    0    0    0  501 -0.00000000000E+00 -0.00000000000E+00 -0.24887384772E+03  0.24887384772E+03  0.00000000000E+00 0.  1.
         25    2    1    2    0    0 -0.63143047867E+02 -0.79252101632E+02 -0.13128606061E+03  0.20773007411E+03  0.12509122220E+03 0.  0.
          5    1    3    3  502    0 -0.62712021058E+02 -0.55659962951E+02 -0.10521470787E+02  0.84610890602E+02  0.41800000000E+01 0.  1.
         -5    1    3    3    0  502 -0.43102680864E+00 -0.23592138681E+02 -0.12076458982E+03  0.12311918350E+03  0.41800000000E+01 0.  1.
        -11    1    1    2    0    0  0.63071778977E+02  0.96977836198E+02 -0.27985301355E+02  0.11902070034E+03  0.00000000000E+00 0.  1.
         11    1    1    2    0    0  0.71268889874E-01 -0.17725734566E+02  0.75355899814E+01  0.19261149019E+02  0.00000000000E+00 0. -1.
</event>
<event>
 7    1  0.3265282E-009  0.1041077E+03  0.7561462E-02  0.1271888E+00
         -1   -1    0    0    0  501 -0.00000000000E+00  0.00000000000E+00  0.13350524197E+02  0.13350524197E+02  0.00000000000E+00 0.  1.
          1   -1    0    0  501    0  0.00000000000E+00 -0.00000000000E+00 -0.97764314585E+03  0.97764314585E+03  0.00000000000E+00 0. -1.
         25    2    1    2    0    0  0.27376643042E+02  0.12149794227E+02 -0.47320286518E+03  0.49037236552E+03  0.12508799769E+03 0.  0.
          5    1    3    3  502    0 -0.59867766291E+01 -0.44529029479E+02 -0.32577651934E+03  0.32888674177E+03  0.41800000000E+01 0. -1.
         -5    1    3    3    0  502  0.33363419672E+02  0.56678823706E+02 -0.14742634584E+03  0.16148562374E+03  0.41800000000E+01 0. -1.
        -11    1    1    2    0    0 -0.53480115882E+02  0.18812196104E+02 -0.29300450739E+03  0.29843870872E+03  0.00000000000E+00 0.  1.
         11    1    1    2    0    0  0.26103472839E+02 -0.30961990332E+02 -0.19808524909E+03  0.20218259580E+03  0.00000000000E+00 0. -1.
</event>
<event>
 7    1  0.3691497E-009  0.9950287E+02  0.7561462E-02  0.1281345E+00
         -1   -1    0    0    0  501 -0.00000000000E+00  0.00000000000E+00  0.18734414657E+02  0.18734414657E+02  0.00000000000E+00 0.  1.
          1   -1    0    0  501    0  0.00000000000E+00 -0.00000000000E+00 -0.71218626101E+03  0.71218626101E+03  0.00000000000E+00 0. -1.
         25    2    1    2    0    0  0.19405588090E+02 -0.34113690824E+02 -0.35512336234E+03  0.37853156133E+03  0.12503287443E+03 0.  0.
          5    1    3    3  502    0 -0.13244961922E+02 -0.58130719451E+02 -0.77172543906E+02  0.97609853463E+02  0.41800000000E+01 0. -1.
         -5    1    3    3    0  502  0.32650550012E+02  0.24017028627E+02 -0.27795081844E+03  0.28092170787E+03  0.41800000000E+01 0. -1.
        -11    1    1    2    0    0 -0.53908703215E+02  0.34469207637E+02 -0.21399213293E+03  0.22335377210E+03  0.00000000000E+00 0.  1.
         11    1    1    2    0    0  0.34503115124E+02 -0.35551681345E+00 -0.12433635108E+03  0.12903534224E+03  0.00000000000E+00 0. -1.
</event>
<event>
 7    1  0.3265282E-009  0.1298494E+03  0.7561462E-02  0.1227679E+00
         -2   -1    0    0    0  501 -0.00000000000E+00  0.00000000000E+00  0.67477915838E+02  0.67477915838E+02  0.00000000000E+00 0.  1.
          2   -1    0    0  501    0  0.00000000000E+00 -0.00000000000E+00 -0.42148752762E+03  0.42148752762E+03  0.00000000000E+00 0. -1.
         25    2    1    2    0    0 -0.10150830294E+03  0.16326868574E+02 -0.30013046152E+03  0.34102250279E+03  0.12509017257E+03 0.  0.
          5    1    3    3  502    0 -0.78358851116E+02  0.46974850998E+02 -0.93427512178E+02  0.13073988912E+03  0.41800000000E+01 0.  1.
         -5    1    3    3    0  502 -0.23149451828E+02 -0.30647982424E+02 -0.20670294934E+03  0.21028261367E+03  0.41800000000E+01 0.  1.
        -11    1    1    2    0    0 -0.93920173071E+01 -0.16178766660E+02  0.86706867689E+01  0.20619003098E+02  0.00000000000E+00 0.  1.
         11    1    1    2    0    0  0.11090032025E+03 -0.14810191413E+00 -0.62549837034E+02  0.12732393757E+03  0.00000000000E+00 0. -1.
</event>
<event>
 7    1  0.3265282E-009  0.1222962E+03  0.7561462E-02  0.1239356E+00
         -2   -1    0    0    0  501 -0.00000000000E+00  0.00000000000E+00  0.35183655278E+02  0.35183655278E+02  0.00000000000E+00 0.  1.
          2   -1    0    0  501    0  0.00000000000E+00 -0.00000000000E+00 -0.48720125065E+03  0.48720125065E+03  0.00000000000E+00 0. -1.
         25    2    1    2    0    0  0.19183174582E+02 -0.71348606571E+02 -0.22898601406E+03  0.27118028210E+03  0.12508210469E+03 0.  0.
          5    1    3    3  502    0 -0.48125223172E+02 -0.45115850276E+02 -0.15079017853E+03  0.16464090437E+03  0.41800000000E+01 0. -1.
         -5    1    3    3    0  502  0.67308397754E+02 -0.26232756295E+02 -0.78195835533E+02  0.10653937772E+03  0.41800000000E+01 0. -1.
        -11    1    1    2    0    0 -0.39234072470E+02  0.84730803053E+01 -0.13710168746E+03  0.14285649525E+03  0.00000000000E+00 0. -1.
         11    1    1    2    0    0  0.20050897888E+02  0.62875526266E+02 -0.85929893851E+02  0.10834812858E+03  0.00000000000E+00 0.  1.
</event>
<event>
 7    1  0.5726037E-009  0.1729467E+03  0.7561462E-02  0.1174809E+00
          2   -1    0    0  501    0  0.00000000000E+00  0.00000000000E+00  0.13067661808E+04  0.13067661808E+04  0.00000000000E+00 0. -1.
         -2   -1    0    0    0  501 -0.00000000000E+00 -0.00000000000E+00 -0.25587754334E+02  0.25587754334E+02  0.00000000000E+00 0.  1.
         25    2    1    2    0    0  0.12109111036E+03 -0.74712581347E+02  0.54368672902E+03  0.57574989231E+03  0.12509057663E+03 0.  0.
          5    1    3    3  502    0  0.12274440709E+03 -0.12417303135E+02  0.41025641973E+03  0.42842523411E+03  0.41800000000E+01 0.  1.
         -5    1    3    3    0  502 -0.16532967254E+01 -0.62295278212E+02  0.13343030929E+03  0.14732465820E+03  0.41800000000E+01 0.  1.
        -11    1    1    2    0    0 -0.12648866502E+02  0.46152327971E+02  0.12333693915E+03  0.13229524466E+03  0.00000000000E+00 0. -1.
         11    1    1    2    0    0 -0.10844224386E+03  0.28560253376E+02  0.61415475831E+03  0.62430879817E+03  0.00000000000E+00 0.  1.
</event>
<event>
 7    1  0.3265282E-009  0.1036370E+03  0.7561462E-02  0.1272829E+00
         -2   -1    0    0    0  501 -0.00000000000E+00  0.00000000000E+00  0.10280201773E+03  0.10280201773E+03  0.00000000000E+00 0.  1.
          2   -1    0    0  501    0  0.00000000000E+00 -0.00000000000E+00 -0.14846772991E+03  0.14846772991E+03  0.00000000000E+00 0. -1.
         25    2    1    2    0    0  0.55177440892E+02 -0.12901168265E+02 -0.91075108091E+01  0.13762372294E+03  0.12508537979E+03 0.  0.
          5    1    3    3  502    0  0.92921436585E+02  0.90578414718E+01 -0.61528825214E+01  0.93657718488E+02  0.41800000000E+01 0.  1.
         -5    1    3    3    0  502 -0.37743995692E+02 -0.21959009737E+02 -0.29546282877E+01  0.43966004455E+02  0.41800000000E+01 0.  1.
        -11    1    1    2    0    0 -0.42432082503E+02  0.27506293814E+02  0.19602503255E+02  0.54234084843E+02  0.00000000000E+00 0.  1.
         11    1    1    2    0    0 -0.12745358389E+02 -0.14605125549E+02 -0.56160704623E+02  0.59411939848E+02  0.00000000000E+00 0. -1.
</event>
<event>
 7    1  0.3265282E-009  0.5985506E+02  0.7561462E-02  0.1398441E+00
         -1   -1    0    0    0  501 -0.00000000000E+00  0.00000000000E+00  0.17748588534E+02  0.17748588534E+02  0.00000000000E+00 0.  1.
          1   -1    0    0  501    0  0.00000000000E+00 -0.00000000000E+00 -0.70579912982E+03  0.70579912982E+03  0.00000000000E+00 0. -1.
         25    2    1    2    0    0  0.20022974764E+02  0.50891743463E+01 -0.38864570724E+03  0.40880263666E+03  0.12508913132E+03 0.  0.
          5    1    3    3  502    0  0.61599072148E+01  0.50296150990E+00  0.85322225229E+01  0.11334401103E+02  0.41800000000E+01 0. -1.
         -5    1    3    3    0  502  0.13863067550E+02  0.45862128364E+01 -0.39717792976E+03  0.39746823556E+03  0.41800000000E+01 0. -1.
        -11    1    1    2    0    0 -0.27889916368E+02 -0.46872763102E+02 -0.16937488872E+03  0.17794031664E+03  0.00000000000E+00 0.  1.
         11    1    1    2    0    0  0.78669416033E+01  0.41783588756E+02 -0.13002994532E+03  0.13680476505E+03  0.00000000000E+00 0. -1.
</event>
<event>
 7    1  0.3265282E-009  0.9196395E+02  0.7561462E-02  0.1298164E+00
         -1   -1    0    0    0  501 -0.00000000000E+00  0.00000000000E+00  0.25283724761E+02  0.25283724761E+02  0.00000000000E+00 0.  1.
          1   -1    0    0  501    0  0.00000000000E+00 -0.00000000000E+00 -0.56080486490E+03  0.56080486490E+03  0.00000000000E+00 0. -1.
         25    2    1    2    0    0  0.43587477668E+02 -0.67847600109E+01 -0.35419700061E+03  0.37821728315E+03  0.12508755675E+03 0.  0.
          5    1    3    3  502    0  0.34828714604E+02  0.48764712307E+02 -0.90943734980E+02  0.10899207246E+03  0.41800000000E+01 0. -1.
         -5    1    3    3    0  502  0.87587630640E+01 -0.55549472318E+02 -0.26325326563E+03  0.26922521068E+03  0.41800000000E+01 0. -1.
        -11    1    1    2    0    0  0.11747102894E+02  0.21030787354E+01  0.53749092147E+01  0.13088430602E+02  0.00000000000E+00 0.  1.
         11    1    1    2    0    0 -0.55334580562E+02  0.46816812755E+01 -0.18669904875E+03  0.19478287592E+03  0.00000000000E+00 0. -1.
</event>
<event>
 7    1  0.3265282E-009  0.1754955E+03  0.7561462E-02  0.1172235E+00
          1   -1    0    0  501    0  0.00000000000E+00  0.00000000000E+00  0.46424831904E+03  0.46424831904E+03  0.00000000000E+00 0. -1.
         -1   -1    0    0    0  501 -0.00000000000E+00 -0.00000000000E+00 -0.71479880512E+02  0.71479880512E+02  0.00000000000E+00 0.  1.
         25    2    1    2    0    0 -0.31985858036E+02 -0.14225796322E+03  0.19825477782E+03  0.27606759206E+03  0.12509170732E+03 0.  0.
          5    1    3    3  502    0  0.73093537138E+01 -0.14007694718E+03  0.18903864902E+03  0.23543164827E+03  0.41800000000E+01 0.  1.
         -5    1    3    3    0  502 -0.39295211750E+02 -0.21810160390E+01  0.92161288018E+01  0.40635943787E+02  0.41800000000E+01 0.  1.
        -11    1    1    2    0    0 -0.30115784809E+02  0.28417513121E+02  0.59173686867E+02  0.72222162555E+02  0.00000000000E+00 0. -1.
         11    1    1    2    0    0  0.62101642845E+02  0.11384045010E+03  0.13533997384E+03  0.18743844494E+03  0.00000000000E+00 0.  1.
</event>
<event>
 7    1  0.3265282E-009  0.1210768E+03  0.7561462E-02  0.1241331E+00
         -1   -1    0    0    0  501 -0.00000000000E+00  0.00000000000E+00  0.19825826725E+03  0.19825826725E+03  0.00000000000E+00 0. -1.
          1   -1    0    0  501    0  0.00000000000E+00 -0.00000000000E+00 -0.91226531051E+02  0.91226531051E+02  0.00000000000E+00 0.  1.
         25    2    1    2    0    0 -0.49102394424E+02  0.53952040688E+02  0.93246331169E+02  0.17223195780E+03  0.12508837347E+03 0.  0.
          5    1    3    3  502    0 -0.57229687846E+02 -0.19941814555E+02  0.73198905032E+02  0.95123421073E+02  0.41800000000E+01 0. -1.
         -5    1    3    3    0  502  0.81272934225E+01  0.73893855243E+02  0.20047426138E+02  0.77108536724E+02  0.41800000000E+01 0. -1.
        -11    1    1    2    0    0  0.16577535502E+02 -0.69105775623E+02  0.30906044609E+02  0.77495848283E+02  0.00000000000E+00 0.  1.
         11    1    1    2    0    0  0.32524858922E+02  0.15153734936E+02 -0.17120639584E+02  0.39756992217E+02  0.00000000000E+00 0. -1.
</event>
<event>
 7    1  0.3265282E-009  0.1113847E+03  0.7561462E-02  0.1258027E+00
          2   -1    0    0  501    0  0.00000000000E+00  0.00000000000E+00  0.36639907625E+03  0.36639907625E+03  0.00000000000E+00 0. -1.
         -2   -1    0    0    0  501 -0.00000000000E+00 -0.00000000000E+00 -0.52115593996E+02  0.52115593996E+02  0.00000000000E+00 0.  1.
         25    2    1    2    0    0  0.69178697774E+02  0.25656506269E+02  0.10825082128E+03  0.18113313549E+03  0.12508806468E+03 0.  0.
          5    1    3    3  502    0 -0.21990117846E+02  0.39065569200E+02  0.95276772557E+01  0.46021006221E+02  0.41800000000E+01 0. -1.
         -5    1    3    3    0  502  0.91168815620E+02 -0.13409062931E+02  0.98723144022E+02  0.13511212927E+03  0.41800000000E+01 0. -1.
        -11    1    1    2    0    0 -0.43310973262E+02 -0.37276284829E+02  0.42005820173E+02  0.70921440651E+02  0.00000000000E+00 0.  1.
         11    1    1    2    0    0 -0.25867724512E+02  0.11619778560E+02  0.16402684080E+03  0.16646009410E+03  0.00000000000E+00 0. -1.
</event>
<event>
 7    1  0.3265282E-009  0.9536522E+02  0.7561462E-02  0.1290356E+00
          3   -1    0    0  501    0  0.00000000000E+00  0.00000000000E+00  0.52195416235E+03  0.52195416235E+03  0.00000000000E+00 0. -1.
         -3   -1    0    0    0  501 -0.00000000000E+00 -0.00000000000E+00 -0.30807584172E+02  0.30807584172E+02  0.00000000000E+00 0.  1.
         25    2    1    2    0    0  0.16928652991E+02 -0.37497189742E+01  0.12713715379E+03  0.17919570453E+03  0.12508639000E+03 0.  0.
          5    1    3    3  502    0 -0.22662080177E+02 -0.45398859785E+02  0.14922982267E+02  0.53054633610E+02  0.41800000000E+01 0.  1.
         -5    1    3    3    0  502  0.39590733168E+02  0.41649140811E+02  0.11221417152E+03  0.12614107092E+03  0.41800000000E+01 0.  1.
        -11    1    1    2    0    0 -0.34549937531E+02  0.33178587835E+02  0.24835464041E+03  0.25293189654E+03  0.00000000000E+00 0.  1.
         11    1    1    2    0    0  0.17621284540E+02 -0.29428868861E+02  0.11565478398E+03  0.12063414545E+03  0.00000000000E+00 0. -1.
</event>
<event>
 7    1  0.3265282E-009  0.2619577E+03  0.7561462E-02  0.1105973E+00
         -2   -1    0    0    0  501 -0.00000000000E+00  0.00000000000E+00  0.79831034589E+02  0.79831034589E+02  0.00000000000E+00 0. -1.
          2   -1    0    0  501    0  0.00000000000E+00 -0.00000000000E+00 -0.10502758577E+04  0.10502758577E+04  0.00000000000E+00 0.  1.
         25    2    1    2    0    0  0.20103460261E+03 -0.13120491385E+03 -0.26231802905E+03  0.37694763124E+03  0.12509647265E+03 0.  0.
          5    1    3    3  502    0  0.17488208386E+03 -0.46079354937E+02 -0.16321648385E+03  0.24364757994E+03  0.41800000000E+01 0. -1.
         -5    1    3    3    0  502  0.26152518745E+02 -0.85125558918E+02 -0.99101545199E+02  0.13330005131E+03  0.41800000000E+01 0. -1.
        -11    1    1    2    0    0 -0.19071800512E+03  0.89079953795E+02 -0.62337598450E+03  0.65795608797E+03  0.00000000000E+00 0.  1.
         11    1    1    2    0    0 -0.10316597484E+02  0.42124960059E+02 -0.84750809612E+02  0.95203173127E+02  0.00000000000E+00 0. -1.
</event>
<event>
 7    1  0.3265282E-009  0.1697254E+03  0.7561462E-02  0.1178135E+00
          2   -1    0    0  501    0  0.00000000000E+00  0.00000000000E+00  0.10470195647E+03  0.10470195647E+03  0.00000000000E+00 0. -1.
         -2   -1    0    0    0  501 -0.00000000000E+00 -0.00000000000E+00 -0.32178629131E+03  0.32178629131E+03  0.00000000000E+00 0.  1.
         25    2    1    2    0    0 -0.14155508025E+03 -0.32073449716E+02 -0.80562599398E+02  0.20785273417E+03  0.12508349115E+03 0.  0.
          5    1    3    3  502    0 -0.13827134708E+03  0.12775986873E+02 -0.34079543850E+02  0.14304222793E+03  0.41800000000E+01 0.  1.
         -5    1    3    3    0  502 -0.32837331772E+01 -0.44849436588E+02 -0.46483055549E+02  0.64810506239E+02  0.41800000000E+01 0.  1.
        -11    1    1    2    0    0  0.97595414760E+02 -0.51937683059E+01 -0.12695404515E+03  0.16021600978E+03  0.00000000000E+00 0.  1.
         11    1    1    2    0    0  0.43959665493E+02  0.37267218021E+02 -0.95676902953E+01  0.58419503823E+02  0.00000000000E+00 0. -1.
</event>
<event>
 7    1  0.3265282E-009  0.1680083E+03  0.7561462E-02  0.1179941E+00
         -1   -1    0    0    0  501 -0.00000000000E+00  0.00000000000E+00  0.12887828003E+03  0.12887828003E+03  0.00000000000E+00 0.  1.
          1   -1    0    0  501    0  0.00000000000E+00 -0.00000000000E+00 -0.28515246551E+03  0.28515246551E+03  0.00000000000E+00 0. -1.
         25    2    1    2    0    0  0.56817395718E+02  0.13500917567E+03 -0.20638317940E+02  0.19372278645E+03  0.12508750477E+03 0.  0.
          5    1    3    3  502    0  0.93555290250E+02  0.10727356117E+03 -0.32377150123E+02  0.14603411077E+03  0.41800000000E+01 0. -1.
         -5    1    3    3    0  502 -0.36737894532E+02  0.27735614504E+02  0.11738832183E+02  0.47688675675E+02  0.41800000000E+01 0. -1.
        -11    1    1    2    0    0 -0.32538111280E+02 -0.96825630819E+02 -0.31704652635E+02  0.10695380530E+03  0.00000000000E+00 0.  1.
         11    1    1    2    0    0 -0.24279284438E+02 -0.38183544854E+02 -0.10393121491E+03  0.11335415379E+03  0.00000000000E+00 0. -1.
</event>
<event>
 7    1  0.3265282E-009  0.8906013E+02  0.7561462E-02  0.1305144E+00
         -1   -1    0    0    0  501 -0.00000000000E+00  0.00000000000E+00  0.29092949903E+03  0.29092949903E+03  0.00000000000E+00 0.  1.
          1   -1    0    0  501    0  0.00000000000E+00 -0.00000000000E+00 -0.40108224034E+02  0.40108224034E+02  0.00000000000E+00 0. -1.
         25    2    1    2    0    0  0.16745179036E+02 -0.26751624766E+01  0.13757699949E+03  0.18671426554E+03  0.12508888300E+03 0.  0.
          5    1    3    3  502    0 -0.22228773393E+02 -0.53999442600E+02  0.45016967181E+02  0.73851593767E+02  0.41800000000E+01 0. -1.
         -5    1    3    3    0  502  0.38973952429E+02  0.51324280123E+02  0.92560032312E+02  0.11286267177E+03  0.41800000000E+01 0. -1.
        -11    1    1    2    0    0 -0.61474805986E+01  0.27407000421E+02  0.11399679586E+03  0.11740615255E+03  0.00000000000E+00 0.  1.
         11    1    1    2    0    0 -0.10597698438E+02 -0.24731837944E+02 -0.75252035761E+00  0.26917304976E+02  0.00000000000E+00 0. -1.
</event>
<event>
 7    1  0.3265282E-009  0.1228967E+03  0.7561462E-02  0.1238393E+00
         -2   -1    0    0    0  501 -0.00000000000E+00  0.00000000000E+00  0.57577783715E+02  0.57577783715E+02  0.00000000000E+00 0. -1.
          2   -1    0    0  501    0  0.00000000000E+00 -0.00000000000E+00 -0.34138109414E+03  0.34138109414E+03  0.00000000000E+00 0.  1.
         25    2    1    2    0    0 -0.57976876373E+02 -0.67464805778E+02 -0.17135001064E+03  0.23004543864E+03  0.12508900623E+03 0.  0.
          5    1    3    3  502    0 -0.69956711413E+02  0.44789139334E+01 -0.42949198414E+02  0.82317119642E+02  0.41800000000E+01 0. -1.
         -5    1    3    3    0  502  0.11979835040E+02 -0.71943719712E+02 -0.12840081223E+03  0.14772831900E+03  0.41800000000E+01 0. -1.
        -11    1    1    2    0    0  0.11406407250E+02 -0.79332366748E+01  0.10454475426E+02  0.17387881611E+02  0.00000000000E+00 0. -1.
         11    1    1    2    0    0  0.46570469123E+02  0.75398042453E+02 -0.12290777521E+03  0.15152555760E+03  0.00000000000E+00 0.  1.
</event>
<event>
 7    1  0.3265282E-009  0.1834490E+03  0.7561462E-02  0.1164506E+00
         -1   -1    0    0    0  501 -0.00000000000E+00  0.00000000000E+00  0.31006678037E+03  0.31006678037E+03  0.00000000000E+00 0.  1.
          1   -1    0    0  501    0  0.00000000000E+00 -0.00000000000E+00 -0.12380352477E+03  0.12380352477E+03  0.00000000000E+00 0. -1.
         25    2    1    2    0    0 -0.16115388585E+03 -0.19561119016E+02  0.91864761443E+02  0.22458847239E+03  0.12509050817E+03 0.  0.
          5    1    3    3  502    0 -0.13949083614E+03 -0.64448656898E+02  0.79537913443E+02  0.17307534434E+03  0.41800000000E+01 0.  1.
         -5    1    3    3    0  502 -0.21663049703E+02  0.44887537882E+02  0.12326848000E+02  0.51513128047E+02  0.41800000000E+01 0.  1.
        -11    1    1    2    0    0  0.10355327993E+03  0.20469753529E+02  0.85589503620E+01  0.10590348542E+03  0.00000000000E+00 0. -1.
         11    1    1    2    0    0  0.57600605919E+02 -0.90863451278E+00  0.85839543788E+02  0.10337834733E+03  0.00000000000E+00 0.  1.
</event>
<event>
 7    1  0.3265282E-009  0.9243093E+02  0.7561462E-02  0.1297069E+00
         -2   -1    0    0    0  501 -0.00000000000E+00  0.00000000000E+00  0.22007038659E+02  0.22007038659E+02  0.00000000000E+00 0. -1.
          2   -1    0    0  501    0  0.00000000000E+00 -0.00000000000E+00 -0.83825507083E+03  0.83825507083E+03  0.00000000000E+00 0.  1.
         25    2    1    2    0    0 -0.15593543680E+02 -0.24744223476E+02 -0.69011912633E+03  0.70197725744E+03  0.12510885757E+03 0.  0.
          5    1    3    3  502    0 -0.35072458795E+02  0.20995416194E+02 -0.57557473629E+03  0.57703954312E+03  0.41800000000E+01 0.  1.
         -5    1    3    3    0  502  0.19478915115E+02 -0.45739639670E+02 -0.11454439004E+03  0.12493771432E+03  0.41800000000E+01 0.  1.
        -11    1    1    2    0    0 -0.31151488639E+02 -0.13045355827E+02 -0.60504587913E+02  0.69292147547E+02  0.00000000000E+00 0.  1.
         11    1    1    2    0    0  0.46745032319E+02  0.37789579304E+02 -0.65624317933E+02  0.88992704502E+02  0.00000000000E+00 0. -1.
</event>
<event>
 7    1  0.3265282E-009  0.1057022E+03  0.7561462E-02  0.1268742E+00
          1   -1    0    0  501    0  0.00000000000E+00  0.00000000000E+00  0.11091714605E+04  0.11091714605E+04  0.00000000000E+00 0. -1.
         -1   -1    0    0    0  501 -0.00000000000E+00 -0.00000000000E+00 -0.15563615433E+02  0.15563615433E+02  0.00000000000E+00 0.  1.
         25    2    1    2    0    0  0.72698348280E+02  0.49163595275E+01  0.67027216180E+03  0.68572653901E+03  0.12508754924E+03 0.  0.
          5    1    3    3  502    0  0.29954649003E+02  0.36269560912E+02  0.57237728901E+03  0.57432220523E+03  0.41800000000E+01 0. -1.
         -5    1    3    3    0  502  0.42743699277E+02 -0.31353201384E+02  0.97894872797E+02  0.11140433378E+03  0.41800000000E+01 0. -1.
        -11    1    1    2    0    0 -0.15956590939E+01  0.31209892212E+02  0.68069037214E+02  0.74899915401E+02  0.00000000000E+00 0. -1.
         11    1    1    2    0    0 -0.71102689186E+02 -0.36126251739E+02  0.35526664600E+03  0.36410862148E+03  0.00000000000E+00 0.  1.
</event>
<event>
 7    1  0.3265282E-009  0.8776782E+02  0.7561462E-02  0.1308349E+00
          1   -1    0    0  501    0  0.00000000000E+00  0.00000000000E+00  0.68367143686E+03  0.68367143686E+03  0.00000000000E+00 0. -1.
         -1   -1    0    0    0  501 -0.00000000000E+00 -0.00000000000E+00 -0.24388239678E+02  0.24388239678E+02  0.00000000000E+00 0.  1.
         25    2    1    2    0    0  0.40764391186E+02  0.45147899345E+02  0.46641173744E+03  0.48671177012E+03  0.12509344486E+03 0.  0.
          5    1    3    3  502    0  0.32005064044E+02  0.10439950211E+02  0.21112580402E+02  0.39956603160E+02  0.41800000000E+01 0. -1.
         -5    1    3    3    0  502  0.87593271423E+01  0.34707949133E+02  0.44529915704E+03  0.44675516696E+03  0.41800000000E+01 0. -1.
        -11    1    1    2    0    0 -0.49595714474E+02  0.92601495176E+01  0.11836059518E+03  0.12866513029E+03  0.00000000000E+00 0. -1.
         11    1    1    2    0    0  0.88313232876E+01 -0.54408048862E+02  0.74510864568E+02  0.92682776128E+02  0.00000000000E+00 0.  1.
</event>
<event>
 7    1  0.3265282E-009  0.1130328E+03  0.7561462E-02  0.1255055E+00
         -1   -1    0    0    0  501 -0.00000000000E+00  0.00000000000E+00  0.26398425083E+02  0.26398425083E+02  0.00000000000E+00 0.  1.
          1   -1    0    0  501    0  0.00000000000E+00 -0.00000000000E+00 -0.89620898218E+03  0.89620898218E+03  0.00000000000E+00 0. -1.
         25    2    1    2    0    0 -0.43482058339E+02  0.54075105988E+02 -0.71913014712E+03  0.73321892815E+03  0.12508805545E+03 0.  0.
          5    1    3    3  502    0  0.27161334911E+01  0.65412072837E+02 -0.17325241291E+03  0.18525654545E+03  0.41800000000E+01 0.  1.
         -5    1    3    3    0  502 -0.46198191830E+02 -0.11336966849E+02 -0.54587773421E+03  0.54796238270E+03  0.41800000000E+01 0.  1.
        -11    1    1    2    0    0 -0.13493770254E+02 -0.54077720894E+02 -0.92231340322E+02  0.10776410288E+03  0.00000000000E+00 0.  1.
         11    1    1    2    0    0  0.56975828593E+02  0.26149061398E-02 -0.58449069649E+02  0.81624376222E+02  0.00000000000E+00 0. -1.
</event>
<event>
 7    1  0.3265282E-009  0.9653293E+02  0.7561462E-02  0.1287760E+00
          4   -1    0    0  501    0  0.00000000000E+00  0.00000000000E+00  0.32298532799E+02  0.32298532799E+02  0.00000000000E+00 0. -1.
         -4   -1    0    0    0  501 -0.00000000000E+00 -0.00000000000E+00 -0.38674586274E+03  0.38674586274E+03  0.00000000000E+00 0.  1.
         25    2    1    2    0    0 -0.48963453778E+02  0.72523231129E+01 -0.19872961906E+03  0.23998209193E+03  0.12509167422E+03 0.  0.
          5    1    3    3  502    0  0.39247086787E+02  0.15404088978E+02 -0.40598320984E+02  0.58679773732E+02  0.41800000000E+01 0.  1.
         -5    1    3    3    0  502 -0.88210540566E+02 -0.81517658651E+01 -0.15813129807E+03  0.18130231820E+03  0.41800000000E+01 0.  1.
        -11    1    1    2    0    0  0.28604289990E+02 -0.22650181695E+02 -0.14794676967E+03  0.15237940410E+03  0.00000000000E+00 0.  1.
         11    1    1    2    0    0  0.20359163788E+02  0.15397858583E+02 -0.77709412125E+01  0.26682899513E+02  0.00000000000E+00 0. -1.
</event>
<event>
 7    1  0.3265282E-009  0.1849301E+03  0.7561462E-02  0.1163115E+00
         -3   -1    0    0    0  501 -0.00000000000E+00  0.00000000000E+00  0.38938007677E+02  0.38938007677E+02  0.00000000000E+00 0.  1.
          3   -1    0    0  501    0  0.00000000000E+00 -0.00000000000E+00 -0.10981843980E+04  0.10981843980E+04  0.00000000000E+00 0. -1.
         25    2    1    2    0    0 -0.27373026310E+02  0.15846354905E+03 -0.73751426483E+03  0.76513815533E+03  0.12509647064E+03 0.  0.
          5    1    3    3  502    0 -0.15584734517E+02 -0.15082820751E+02 -0.17335842007E+03  0.17475980557E+03  0.41800000000E+01 0.  1.
         -5    1    3    3    0  502 -0.11788291793E+02  0.17354636980E+03 -0.56415584475E+03  0.59037834976E+03  0.41800000000E+01 0.  1.
        -11    1    1    2    0    0  0.35560016461E+02 -0.34509238232E+02 -0.38643477332E+02  0.62838846539E+02  0.00000000000E+00 0.  1.
         11    1    1    2    0    0 -0.81869901507E+01 -0.12395431082E+03 -0.28308864816E+03  0.30914540381E+03  0.00000000000E+00 0. -1.
</event>
<event>
 7    1  0.3265282E-009  0.1761614E+03  0.7561462E-02  0.1171571E+00
         -2   -1    0    0    0  501 -0.00000000000E+00  0.00000000000E+00  0.40792307200E+03  0.40792307200E+03  0.00000000000E+00 0. -1.
          2   -1    0    0  501    0  0.00000000000E+00 -0.00000000000E+00 -0.98556877041E+02  0.98556877041E+02  0.00000000000E+00 0.  1.
         25    2    1    2    0    0 -0.94190276044E+02 -0.12995830192E+03  0.95340321871E+02  0.22471748993E+03  0.12508878832E+03 0.  0.
          5    1    3    3  502    0 -0.39127398698E+02 -0.15048740901E+02  0.87348572901E+02  0.96977644431E+02  0.41800000000E+01 0. -1.
         -5    1    3    3    0  502 -0.55062877346E+02 -0.11490956102E+03  0.79917489706E+01  0.12773984550E+03  0.41800000000E+01 0. -1.
        -11    1    1    2    0    0  0.75791585681E+02  0.30730630550E+02  0.10674966144E+03  0.13447760532E+03  0.00000000000E+00 0.  1.
         11    1    1    2    0    0  0.18398690364E+02  0.99227671372E+02  0.10727621165E+03  0.14728485380E+03  0.00000000000E+00 0. -1.
</event>
<event>
 7    1  0.3265282E-009  0.1804109E+03  0.7561462E-02  0.1167406E+00
         -1   -1    0    0    0  501 -0.00000000000E+00  0.00000000000E+00  0.62924286308E+03  0.62924286308E+03  0.00000000000E+00 0.  1.
          1   -1    0    0  501    0  0.00000000000E+00 -0.00000000000E+00 -0.60150492312E+02  0.60150492312E+02  0.00000000000E+00 0. -1.
         25    2    1    2    0    0  0.15701786637E+03  0.30396159053E+02  0.27019453950E+03  0.33798144246E+03  0.12509128437E+03 0.  0.
          5    1    3    3  502    0  0.13285444946E+03  0.71207945271E+02  0.17125096964E+03  0.22817809538E+03  0.41800000000E+01 0.  1.
         -5    1    3    3    0  502  0.24163416908E+02 -0.40811786217E+02  0.98943569863E+02  0.10980334707E+03  0.41800000000E+01 0.  1.
        -11    1    1    2    0    0 -0.10366721520E+03 -0.33582910010E+02  0.26885862352E+03  0.29010284865E+03  0.00000000000E+00 0.  1.
         11    1    1    2    0    0 -0.53350651169E+02  0.31867509567E+01  0.30039207743E+02  0.61309064286E+02  0.00000000000E+00 0. -1.
</event>
<event>
 7    1  0.3265282E-009  0.1613317E+03  0.7561462E-02  0.1187201E+00
         -1   -1    0    0    0  501 -0.00000000000E+00  0.00000000000E+00  0.89525986175E+02  0.89525986175E+02  0.00000000000E+00 0.  1.
          1   -1    0    0  501    0  0.00000000000E+00 -0.00000000000E+00 -0.38419043566E+03  0.38419043566E+03  0.00000000000E+00 0. -1.
         25    2    1    2    0    0 -0.97718117000E+02  0.10032636601E+03 -0.22017400678E+03  0.28937486855E+03  0.12508801373E+03 0.  0.
          5    1    3    3  502    0 -0.12220513772E+03  0.91352536762E+02 -0.21293411689E+03  0.26198815277E+03  0.41800000000E+01 0. -1.
         -5    1    3    3    0  502  0.24487020719E+02  0.89738292531E+01 -0.72398898857E+01  0.27386715771E+02  0.41800000000E+01 0. -1.
        -11    1    1    2    0    0  0.81643887775E+02 -0.97713347991E+02 -0.94481263331E+02  0.15855703046E+03  0.00000000000E+00 0. -1.
         11    1    1    2    0    0  0.16074229225E+02 -0.26130180236E+01  0.19990820625E+02  0.25784522831E+02  0.00000000000E+00 0.  1.
</event>
<event>
 7    1  0.3265282E-009  0.1669464E+03  0.7561462E-02  0.1181070E+00
          2   -1    0    0  501    0  0.00000000000E+00  0.00000000000E+00  0.13055566044E+04  0.13055566044E+04  0.00000000000E+00 0. -1.
         -2   -1    0    0    0  501 -0.00000000000E+00 -0.00000000000E+00 -0.23426417945E+02  0.23426417945E+02  0.00000000000E+00 0.  1.
         25    2    1    2    0    0 -0.11534981936E+03 -0.72120780366E+02  0.70928257457E+03  0.73296390128E+03  0.12508925695E+03 0.  0.
          5    1    3    3  502    0 -0.10985587281E+03  0.23508500724E+01  0.43107904537E+03  0.44488251825E+03  0.41800000000E+01 0. -1.
         -5    1    3    3    0  502 -0.54939465493E+01 -0.74471630439E+02  0.27820352920E+03  0.28808138303E+03  0.41800000000E+01 0. -1.
        -11    1    1    2    0    0  0.61435433863E+02  0.72754046187E+02  0.47353159915E+03  0.48301101350E+03  0.00000000000E+00 0.  1.
         11    1    1    2    0    0  0.53914385500E+02 -0.63326582056E+00  0.99316012735E+02  0.11300810756E+03  0.00000000000E+00 0. -1.
</event>
<event>
 7    1  0.3265282E-009  0.9189002E+02  0.7561462E-02  0.1298338E+00
          1   -1    0    0  501    0  0.00000000000E+00  0.00000000000E+00  0.55756150715E+02  0.55756150715E+02  0.00000000000E+00 0. -1.
         -1   -1    0    0    0  501 -0.00000000000E+00 -0.00000000000E+00 -0.24207298594E+03  0.24207298594E+03  0.00000000000E+00 0.  1.
         25    2    1    2    0    0  0.14850374000E+02  0.38643393138E+02 -0.11878857501E+03  0.17740614950E+03  0.12509344861E+03 0.  0.
          5    1    3    3  502    0  0.46084658707E+02  0.63932366773E+02 -0.11109584760E+03  0.13627510060E+03  0.41800000000E+01 0.  1.
         -5    1    3    3    0  502 -0.31234284707E+02 -0.25288973635E+02 -0.76927274119E+01  0.41131048901E+02  0.41800000000E+01 0.  1.
        -11    1    1    2    0    0  0.18360950572E+02 -0.13104273403E+02  0.15536813266E+02  0.27390492033E+02  0.00000000000E+00 0. -1.
         11    1    1    2    0    0 -0.33211324572E+02 -0.25539119735E+02 -0.83065073484E+02  0.93032495127E+02  0.00000000000E+00 0.  1.
</event>
<event>
 7    1  0.3265282E-009  0.2170990E+03  0.7561462E-02  0.1136064E+00
         -1   -1    0    0    0  501 -0.00000000000E+00  0.00000000000E+00  0.75371310658E+02  0.75371310658E+02  0.00000000000E+00 0.  1.
          1   -1    0    0  501    0  0.00000000000E+00 -0.00000000000E+00 -0.78601484952E+03  0.78601484952E+03  0.00000000000E+00 0. -1.
         25    2    1    2    0    0  0.14852948298E+03  0.14443392887E+03 -0.24899831267E+03  0.34723268358E+03  0.12509280440E+03 0.  0.
          5    1    3    3  502    0  0.13665723313E+03  0.87940297983E+02 -0.23815496643E+03  0.28834693653E+03  0.41800000000E+01 0. -1.
         -5    1    3    3    0  502  0.11872249854E+02  0.56493630891E+02 -0.10843346244E+02  0.58885747049E+02  0.41800000000E+01 0. -1.
        -11    1    1    2    0    0 -0.86404932987E+02 -0.47432489869E+02 -0.13047388285E+03  0.16352090890E+03  0.00000000000E+00 0.  1.
         11    1    1    2    0    0 -0.62124549995E+02 -0.97001439005E+02 -0.33117134334E+03  0.35063256770E+03  0.00000000000E+00 0. -1.
</event>
<event>
 7    1  0.3265282E-009  0.1467112E+03  0.7561462E-02  0.1204573E+00
         -2   -1    0    0    0  501 -0.00000000000E+00  0.00000000000E+00  0.47907100221E+02  0.47907100221E+02  0.00000000000E+00 0.  1.
          2   -1    0    0  501    0  0.00000000000E+00 -0.00000000000E+00 -0.64950120778E+03  0.64950120778E+03  0.00000000000E+00 0. -1.
         25    2    1    2    0    0  0.12218273822E+03  0.55454938081E+02 -0.23700156219E+03  0.29970140687E+03  0.12508925263E+03 0.  0.
          5    1    3    3  502    0  0.13277338770E+03  0.57111508508E+02 -0.13749396031E+03  0.19953084575E+03  0.41800000000E+01 0. -1.
         -5    1    3    3    0  502 -0.10590649486E+02 -0.16565704263E+01 -0.99507601886E+02  0.10017056112E+03  0.41800000000E+01 0. -1.
        -11    1    1    2    0    0 -0.82826588123E+02 -0.52037089959E+02 -0.33316144393E+03  0.34722420732E+03  0.00000000000E+00 0. -1.
         11    1    1    2    0    0 -0.39356150095E+02 -0.34178481221E+01 -0.31431101439E+02  0.50482693804E+02  0.00000000000E+00 0.  1.
</event>
<event>
 7    1  0.3265282E-009  0.2246405E+03  0.7561462E-02  0.1130470E+00
          2   -1    0    0  501    0  0.00000000000E+00  0.00000000000E+00  0.10405935951E+04  0.10405935951E+04  0.00000000000E+00 0.  1.
         -2   -1    0    0    0  501 -0.00000000000E+00 -0.00000000000E+00 -0.56633584246E+02  0.56633584246E+02  0.00000000000E+00 0. -1.
         25    2    1    2    0    0  0.44663962509E+02  0.20030506800E+03  0.35659357257E+03  0.43002516038E+03  0.12508266367E+03 0.  0.
          5    1    3    3  502    0  0.73579607467E+02  0.10909730137E+03  0.27222613959E+03  0.30239167197E+03  0.41800000000E+01 0. -1.
         -5    1    3    3    0  502 -0.28915644958E+02  0.91207766629E+02  0.84367432982E+02  0.12763348841E+03  0.41800000000E+01 0. -1.
        -11    1    1    2    0    0 -0.60203511047E+02 -0.77845690408E+02  0.20909252781E+03  0.23109327001E+03  0.00000000000E+00 0. -1.
         11    1    1    2    0    0  0.15539548538E+02 -0.12245937760E+03  0.41827391048E+03  0.43610874896E+03  0.00000000000E+00 0.  1.
</event>
<event>
 7    1  0.3265282E-009  0.1421927E+03  0.7561462E-02  0.1210409E+00
          1   -1    0    0  501    0  0.00000000000E+00  0.00000000000E+00  0.61027145515E+03  0.61027145515E+03  0.00000000000E+00 0. -1.
         -1   -1    0    0    0  501 -0.00000000000E+00 -0.00000000000E+00 -0.39715875492E+02  0.39715875492E+02  0.00000000000E+00 0.  1.
         25    2    1    2    0    0 -0.98123067791E+02  0.31030190359E+02  0.21803917913E+03  0.27162789584E+03  0.12509844529E+03 0.  0.
          5    1    3    3  502    0 -0.22025305931E+01  0.49651138769E+02  0.13293532883E+03  0.14198366376E+03  0.41800000000E+01 0.  1.
         -5    1    3    3    0  502 -0.95920537198E+02 -0.18620948409E+02  0.85103850298E+02  0.12964423208E+03  0.41800000000E+01 0.  1.
        -11    1    1    2    0    0 -0.17160593331E+02  0.58061655585E+00  0.58606030462E+02  0.61069549577E+02  0.00000000000E+00 0.  1.
         11    1    1    2    0    0  0.11528366112E+03 -0.31610806915E+02  0.29391037007E+03  0.31728988523E+03  0.00000000000E+00 0. -1.
</event>
<event>
 7    1  0.3265282E-009  0.2842095E+03  0.7561462E-02  0.1093412E+00
          2   -1    0    0  501    0  0.00000000000E+00  0.00000000000E+00  0.62353643027E+03  0.62353643027E+03  0.00000000000E+00 0. -1.
         -2   -1    0    0    0  501 -0.00000000000E+00 -0.00000000000E+00 -0.14224407056E+03  0.14224407056E+03  0.00000000000E+00 0.  1.
         25    2    1    2    0    0  0.17617016494E+03 -0.21324778064E+03  0.25532953257E+03  0.39667472246E+03  0.12508845779E+03 0.  0.
          5    1    3    3  502    0  0.49699767990E+02 -0.73963019157E+02  0.16581155350E+03  0.18828579026E+03  0.41800000000E+01 0.  1.
         -5    1    3    3    0  502  0.12647039694E+03 -0.13928476148E+03  0.89517979074E+02  0.20838893220E+03  0.41800000000E+01 0.  1.
        -11    1    1    2    0    0 -0.69997489715E+02  0.15466341504E+03  0.11801443359E+03  0.20675547648E+03  0.00000000000E+00 0.  1.
         11    1    1    2    0    0 -0.10617267522E+03  0.58584365595E+02  0.10794839355E+03  0.16235030190E+03  0.00000000000E+00 0. -1.
</event>
<event>
 7    1  0.3265282E-009  0.9182462E+02  0.7561462E-02  0.1298492E+00
          1   -1    0    0  501    0  0.00000000000E+00  0.00000000000E+00  0.15837163989E+03  0.15837163989E+03  0.00000000000E+00 0. -1.
         -1   -1    0    0    0  501 -0.00000000000E+00 -0.00000000000E+00 -0.88827681419E+02  0.88827681419E+02  0.00000000000E+00 0.  1.
         25    2    1    2    0    0 -0.18299866846E+02 -0.11623644686E+02 -0.48420117745E+01  0.12703516953E+03  0.12507795560E+03 0.  0.
          5    1    3    3  502    0 -0.62691912626E+02 -0.31066857642E+02  0.19341917358E+02  0.72711812792E+02  0.41800000000E+01 0. -1.
         -5    1    3    3    0  502  0.44392045780E+02  0.19443212956E+02 -0.24183929133E+02  0.54323356734E+02  0.41800000000E+01 0. -1.
        -11    1    1    2    0    0  0.31691694110E+02 -0.15037562198E+02 -0.49292328001E+01  0.35423002250E+02  0.00000000000E+00 0.  1.
         11    1    1    2    0    0 -0.13391827264E+02  0.26661206884E+02  0.79315203043E+02  0.84741149530E+02  0.00000000000E+00 0. -1.
</event>
<event>
 7    1  0.3265282E-009  0.7568986E+02  0.7561462E-02  0.1341748E+00
          2   -1    0    0  501    0  0.00000000000E+00  0.00000000000E+00  0.88122228949E+02  0.88122228949E+02  0.00000000000E+00 0.  1.
         -2   -1    0    0    0  501 -0.00000000000E+00 -0.00000000000E+00 -0.19349540133E+03  0.19349540133E+03  0.00000000000E+00 0. -1.
         25    2    1    2    0    0  0.14694356962E+02 -0.27769991112E+02  0.12331799344E+02  0.12956307278E+03  0.12508964794E+03 0.  0.
          5    1    3    3  502    0 -0.43664557170E+01  0.22355726388E+02 -0.45209123285E+02  0.50795488639E+02  0.41800000000E+01 0. -1.
         -5    1    3    3    0  502  0.19060812679E+02 -0.50125717499E+02  0.57540922629E+02  0.78767584144E+02  0.41800000000E+01 0. -1.
        -11    1    1    2    0    0 -0.41369544385E+02  0.22998440453E+02 -0.11555214053E+03  0.12487059160E+03  0.00000000000E+00 0. -1.
         11    1    1    2    0    0  0.26675187423E+02  0.47715506582E+01 -0.21528311969E+01  0.27183965897E+02  0.00000000000E+00 0.  1.
</event>
<event>
 7    1  0.3265282E-009  0.1398470E+03  0.7561462E-02  0.1213535E+00
          2   -1    0    0  501    0  0.00000000000E+00  0.00000000000E+00  0.90508836299E+03  0.90508836299E+03  0.00000000000E+00 0. -1.
         -2   -1    0    0    0  501 -0.00000000000E+00 -0.00000000000E+00 -0.26435997487E+02  0.26435997487E+02  0.00000000000E+00 0.  1.
         25    2    1    2    0    0 -0.45394882403E+01  0.89625932071E+02  0.45812522341E+03  0.48329702220E+03  0.12507548397E+03 0.  0.
          5    1    3    3  502    0 -0.39384262839E+02 -0.41302372074E+00  0.25843908817E+03  0.26145654599E+03  0.41800000000E+01 0. -1.
         -5    1    3    3    0  502  0.34844774599E+02  0.90038955792E+02  0.19968613524E+03  0.22184047621E+03  0.41800000000E+01 0. -1.
        -11    1    1    2    0    0  0.57678962946E+02 -0.36207444600E+02  0.11596549818E+03  0.13448359967E+03  0.00000000000E+00 0.  1.
         11    1    1    2    0    0 -0.53139474706E+02 -0.53418487471E+02  0.30456164391E+03  0.31374373861E+03  0.00000000000E+00 0. -1.
</event>
<event>
 7    1  0.3265282E-009  0.6453288E+02  0.7561462E-02  0.1379737E+00
         -2   -1    0    0    0  501 -0.00000000000E+00  0.00000000000E+00  0.29685368178E+02  0.29685368178E+02  0.00000000000E+00 0.  1.
          2   -1    0    0  501    0  0.00000000000E+00 -0.00000000000E+00 -0.42077647142E+03  0.42077647142E+03  0.00000000000E+00 0. -1.
         25    2    1    2    0    0 -0.20245964553E+02  0.15178979891E+02 -0.25008864780E+03  0.28076693064E+03  0.12508172158E+03 0.  0.
          5    1    3    3  502    0  0.83369299623E+01 -0.31416948243E+02 -0.21076719495E+03  0.21329981694E+03  0.41800000000E+01 0. -1.
         -5    1    3    3    0  502 -0.28582894515E+02  0.46595928134E+02 -0.39321452848E+02  0.67467113704E+02  0.41800000000E+01 0. -1.
        -11    1    1    2    0    0 -0.54503095424E+01 -0.14799323992E+02  0.85574394026E+01  0.17943122188E+02  0.00000000000E+00 0.  1.
         11    1    1    2    0    0  0.25696274095E+02 -0.37965589852E+00 -0.14955989485E+03  0.15175178677E+03  0.00000000000E+00 0. -1.
</event>
<event>
 7    1  0.3265282E-009  0.1246790E+03  0.7561462E-02  0.1235572E+00
         -1   -1    0    0    0  501 -0.00000000000E+00  0.00000000000E+00  0.63575089465E+02  0.63575089465E+02  0.00000000000E+00 0.  1.
          1   -1    0    0  501    0  0.00000000000E+00 -0.00000000000E+00 -0.39013744896E+03  0.39013744896E+03  0.00000000000E+00 0. -1.
         25    2    1    2    0    0  0.55203877450E+02  0.95528549671E+02 -0.21907726373E+03  0.27534671352E+03  0.12509113987E+03 0.  0.
          5    1    3    3  502    0  0.66108646085E+01  0.23479954873E+02 -0.17696384652E+03  0.17868600165E+03  0.41800000000E+01 0. -1.
         -5    1    3    3    0  502  0.48593012842E+02  0.72048594798E+02 -0.42113417214E+02  0.96660711868E+02  0.41800000000E+01 0. -1.
        -11    1    1    2    0    0 -0.82519461623E+00 -0.81422533047E+02 -0.85412302872E+02  0.11800665793E+03  0.00000000000E+00 0. -1.
         11    1    1    2    0    0 -0.54378682834E+02 -0.14106016624E+02 -0.22072792888E+02  0.60359166973E+02  0.00000000000E+00 0.  1.
</event>
<event>
 7    1  0.3265282E-009  0.1356332E+03  0.7561462E-02  0.1219329E+00
          2   -1    0    0  501    0  0.00000000000E+00  0.00000000000E+00  0.34408136920E+03  0.34408136920E+03  0.00000000000E+00 0. -1.
         -2   -1    0    0    0  501 -0.00000000000E+00 -0.00000000000E+00 -0.56541001065E+02  0.56541001065E+02  0.00000000000E+00 0.  1.
         25    2    1    2    0    0 -0.30457136500E+02  0.80883967103E+02  0.14364738661E+03  0.20916991275E+03  0.12509047694E+03 0.  0.
          5    1    3    3  502    0  0.33438593911E+02 -0.10647593297E+02  0.59932205973E+02  0.69576235300E+02  0.41800000000E+01 0. -1.
         -5    1    3    3    0  502 -0.63895730411E+02  0.91531560400E+02  0.83715180635E+02  0.13959367745E+03  0.41800000000E+01 0. -1.
        -11    1    1    2    0    0  0.10005957131E+01  0.19539622713E+02  0.11513834632E+02  0.22701683538E+02  0.00000000000E+00 0.  1.
         11    1    1    2    0    0  0.29456540787E+02 -0.10042358982E+03  0.13237914689E+03  0.16875077398E+03  0.00000000000E+00 0. -1.
</event>
<event>
 7    1  0.3265282E-009  0.2003060E+03  0.7561462E-02  0.1149481E+00
          1   -1    0    0  501    0  0.00000000000E+00  0.00000000000E+00  0.12824491156E+04  0.12824491156E+04  0.00000000000E+00 0. -1.
         -1   -1    0    0    0  501 -0.00000000000E+00 -0.00000000000E+00 -0.35950963612E+02  0.35950963612E+02  0.00000000000E+00 0.  1.
         25    2    1    2    0    0  0.16699752586E+03 -0.79613194926E+02  0.62747693329E+03  0.66603355179E+03  0.12508779257E+03 0.  0.
          5    1    3    3  502    0  0.15234857281E+03 -0.89924032705E+02  0.39496015929E+03  0.43279027152E+03  0.41800000000E+01 0. -1.
         -5    1    3    3    0  502  0.14648953053E+02  0.10310837779E+02  0.23251677400E+03  0.23324328027E+03  0.41800000000E+01 0. -1.
        -11    1    1    2    0    0 -0.10858849883E+03  0.95629641733E+02  0.45904287811E+03  0.48130744270E+03  0.00000000000E+00 0.  1.
         11    1    1    2    0    0 -0.58409027031E+02 -0.16016446807E+02  0.15997834057E+03  0.17105908470E+03  0.00000000000E+00 0. -1.
</event>
<event>
 7    1  0.3265282E-009  0.1068913E+03  0.7561462E-02  0.1266437E+00
          1   -1    0    0  501    0  0.00000000000E+00  0.00000000000E+00  0.12942830265E+04  0.12942830265E+04  0.00000000000E+00 0. -1.
         -1   -1    0    0    0  501 -0.00000000000E+00 -0.00000000000E+00 -0.14861637178E+02  0.14861637178E+02  0.00000000000E+00 0.  1.
         25    2    1    2    0    0  0.52250946322E+02  0.30102506244E+01  0.10243452017E+04  0.10332808619E+04  0.12508806622E+03 0.  0.
          5    1    3    3  502    0 -0.38943077193E+01 -0.42517494537E+02  0.15205619817E+03  0.15799197061E+03  0.41800000000E+01 0. -1.
         -5    1    3    3    0  502  0.56145254041E+02  0.45527745161E+02  0.87228900353E+03  0.87528889128E+03  0.41800000000E+01 0. -1.
        -11    1    1    2    0    0 -0.54199658745E+02  0.32312821248E+02  0.11274497744E+03  0.12920197894E+03  0.00000000000E+00 0.  1.
         11    1    1    2    0    0  0.19487124235E+01 -0.35323071872E+02  0.14233121019E+03  0.14666182284E+03  0.00000000000E+00 0. -1.
</event>
<event>
 7    1  0.3265282E-009  0.1068040E+03  0.7561462E-02  0.1266605E+00
         -1   -1    0    0    0  501 -0.00000000000E+00  0.00000000000E+00  0.86675450762E+02  0.86675450762E+02  0.00000000000E+00 0.  1.
          1   -1    0    0  501    0  0.00000000000E+00 -0.00000000000E+00 -0.21218860198E+03  0.21218860198E+03  0.00000000000E+00 0. -1.
         25    2    1    2    0    0 -0.52817401329E+02  0.57177170644E+02 -0.98136983904E+02  0.17702236900E+03  0.12508854780E+03 0.  0.
          5    1    3    3  502    0 -0.62882339221E+02  0.96110363450E+01  0.39497052098E+01  0.63872006206E+02  0.41800000000E+01 0. -1.
         -5    1    3    3    0  502  0.10064937892E+02  0.47566134299E+02 -0.10208668911E+03  0.11315036280E+03  0.41800000000E+01 0. -1.
        -11    1    1    2    0    0  0.62893475971E+02 -0.25582948560E+02  0.13478094548E+02  0.69222363507E+02  0.00000000000E+00 0.  1.
         11    1    1    2    0    0 -0.10076074643E+02 -0.31594222084E+02 -0.40854261861E+02  0.52619320230E+02  0.00000000000E+00 0. -1.
</event>
<event>
 7    1  0.3265282E-009  0.1310815E+03  0.7561462E-02  0.1225860E+00
         -1   -1    0    0    0  501 -0.00000000000E+00  0.00000000000E+00  0.14552420041E+03  0.14552420041E+03  0.00000000000E+00 0.  1.
          1   -1    0    0  501    0  0.00000000000E+00 -0.00000000000E+00 -0.14655825996E+03  0.14655825996E+03  0.00000000000E+00 0. -1.
         25    2    1    2    0    0  0.62656250936E+02 -0.40814706788E+02 -0.62996139772E+02  0.15876786351E+03  0.12508826798E+03 0.  0.
          5    1    3    3  502    0  0.51075128921E+02 -0.84530169487E+02 -0.32474307443E+02  0.10404840889E+03  0.41800000000E+01 0. -1.
         -5    1    3    3    0  502  0.11581122015E+02  0.43715462699E+02 -0.30521832329E+02  0.54719454629E+02  0.41800000000E+01 0. -1.
        -11    1    1    2    0    0 -0.36843020075E+02  0.69895446468E+02  0.44598555493E+02  0.90729337688E+02  0.00000000000E+00 0. -1.
         11    1    1    2    0    0 -0.25813230861E+02 -0.29080739681E+02  0.17363524730E+02  0.42585259174E+02  0.00000000000E+00 0.  1.
</event>
<event>
 7    1  0.3265282E-009  0.8583628E+02  0.7561462E-02  0.1313260E+00
          2   -1    0    0  501    0  0.00000000000E+00  0.00000000000E+00  0.12257797078E+04  0.12257797078E+04  0.00000000000E+00 0. -1.
         -2   -1    0    0    0  501 -0.00000000000E+00 -0.00000000000E+00 -0.33259024873E+02  0.33259024873E+02  0.00000000000E+00 0.  1.
         25    2    1    2    0    0  0.55336851416E+00  0.35108065999E+02  0.11438899792E+04  0.11512424874E+04  0.12506837271E+03 0.  0.
          5    1    3    3  502    0  0.24021963632E+02  0.54788953409E+02  0.10623223804E+04  0.10640137201E+04  0.41800000000E+01 0. -1.
         -5    1    3    3    0  502 -0.23468595118E+02 -0.19680887410E+02  0.81567598782E+02  0.87228767371E+02  0.41800000000E+01 0. -1.
        -11    1    1    2    0    0  0.32444208043E+02  0.22517197944E+00 -0.79192555140E+01  0.33397484125E+02  0.00000000000E+00 0.  1.
         11    1    1    2    0    0 -0.32997576558E+02 -0.35333237979E+02  0.56549959247E+02  0.74398761115E+02  0.00000000000E+00 0. -1.
</event>
<event>
 7    1  0.3265282E-009  0.1208610E+03  0.7561462E-02  0.1241683E+00
          2   -1    0    0  501    0  0.00000000000E+00  0.00000000000E+00  0.31060795836E+03  0.31060795836E+03  0.00000000000E+00 0. -1.
         -2   -1    0    0    0  501 -0.00000000000E+00 -0.00000000000E+00 -0.58214513334E+02  0.58214513334E+02  0.00000000000E+00 0.  1.
         25    2    1    2    0    0  0.47208249036E+02 -0.63320432906E+02  0.14989826719E+03  0.21061770096E+03  0.12510887039E+03 0.  0.
          5    1    3    3  502    0  0.43846296698E+02  0.13552297959E+02  0.11896961145E+03  0.12758292740E+03  0.41800000000E+01 0.  1.
         -5    1    3    3    0  502  0.33619523371E+01 -0.76872730865E+02  0.30928655737E+02  0.83034773559E+02  0.41800000000E+01 0.  1.
        -11    1    1    2    0    0 -0.29188101553E+02 -0.18659149034E+02  0.43502042526E+02  0.55610581897E+02  0.00000000000E+00 0.  1.
         11    1    1    2    0    0 -0.18020147482E+02  0.81979581940E+02  0.58993135312E+02  0.10259418884E+03  0.00000000000E+00 0. -1.
</event>
<event>
 7    1  0.3265282E-009  0.1560534E+03  0.7561462E-02  0.1193226E+00
          1   -1    0    0  501    0  0.00000000000E+00  0.00000000000E+00  0.37255818136E+03  0.37255818136E+03  0.00000000000E+00 0. -1.
         -1   -1    0    0    0  501 -0.00000000000E+00 -0.00000000000E+00 -0.10520164127E+03  0.10520164127E+03  0.00000000000E+00 0.  1.
         25    2    1    2    0    0 -0.14541920699E+03  0.44016867628E+02  0.21810518641E+03  0.29377145680E+03  0.12509023180E+03 0.  0.
          5    1    3    3  502    0 -0.12082984723E+03  0.39999461929E+02  0.73623381618E+02  0.14709753111E+03  0.41800000000E+01 0. -1.
         -5    1    3    3    0  502 -0.24589359761E+02  0.40174056985E+01  0.14448180479E+03  0.14667392569E+03  0.41800000000E+01 0. -1.
        -11    1    1    2    0    0  0.48701341114E+02 -0.39442741122E+02 -0.19044076004E+02  0.65499826598E+02  0.00000000000E+00 0.  1.
         11    1    1    2    0    0  0.96717865881E+02 -0.45741265052E+01  0.68295429683E+02  0.11848853923E+03  0.00000000000E+00 0. -1.
</event>
<event>
 7    1  0.3265282E-009  0.9573191E+02  0.7561462E-02  0.1289536E+00
          2   -1    0    0  501    0  0.00000000000E+00  0.00000000000E+00  0.53315359195E+03  0.53315359195E+03  0.00000000000E+00 0. -1.
         -2   -1    0    0    0  501 -0.00000000000E+00 -0.00000000000E+00 -0.40730120639E+02  0.40730120639E+02  0.00000000000E+00 0.  1.
         25    2    1    2    0    0  0.15367736794E+02  0.79537952055E+02  0.38313484813E+03  0.41109820068E+03  0.12508783153E+03 0.  0.
          5    1    3    3  502    0  0.39022177809E+02  0.21363682215E+02  0.33508005267E+02  0.55851554103E+02  0.41800000000E+01 0.  1.
         -5    1    3    3    0  502 -0.23654441015E+02  0.58174269839E+02  0.34962684286E+03  0.35524664657E+03  0.41800000000E+01 0.  1.
        -11    1    1    2    0    0 -0.18472540975E+02 -0.38663991221E+02 -0.32899111134E+01  0.42976301637E+02  0.00000000000E+00 0.  1.
         11    1    1    2    0    0  0.31048041809E+01 -0.40873960833E+02  0.11257853430E+03  0.11980921028E+03  0.00000000000E+00 0. -1.
</event>
<event>
 7    1  0.3265282E-009  0.1233280E+03  0.7561462E-02  0.1237706E+00
          2   -1    0    0  501    0  0.00000000000E+00  0.00000000000E+00  0.57384094415E+02  0.57384094415E+02  0.00000000000E+00 0. -1.
         -2   -1    0    0    0  501 -0.00000000000E+00 -0.00000000000E+00 -0.29447349153E+03  0.29447349153E+03  0.00000000000E+00 0.  1.
         25    2    1    2    0    0  0.61500895898E+01  0.69242853925E+02 -0.15303051837E+03  0.20948740893E+03  0.12503694864E+03 0.  0.
          5    1    3    3  502    0 -0.47046199781E+02 -0.26598529650E+01 -0.84087035925E+02  0.96480680669E+02  0.41800000000E+01 0.  1.
         -5    1    3    3    0  502  0.53196289370E+02  0.71902706890E+02 -0.68943482449E+02  0.11300672826E+03  0.41800000000E+01 0.  1.
        -11    1    1    2    0    0 -0.35229622492E+01 -0.89406589353E+02 -0.82941901600E+02  0.12200536268E+03  0.00000000000E+00 0.  1.
         11    1    1    2    0    0 -0.26271273406E+01  0.20163735428E+02 -0.11169771357E+01  0.20364814323E+02  0.00000000000E+00 0. -1.
</event>
<event>
 7    1  0.3265282E-009  0.1090138E+03  0.7561462E-02  0.1262407E+00
          1   -1    0    0  501    0  0.00000000000E+00  0.00000000000E+00  0.15519029881E+03  0.15519029881E+03  0.00000000000E+00 0. -1.
         -1   -1    0    0    0  501 -0.00000000000E+00 -0.00000000000E+00 -0.87139624101E+02  0.87139624101E+02  0.00000000000E+00 0.  1.
         25    2    1    2    0    0 -0.20533038889E+02  0.36681081408E+02  0.54727637398E+02  0.14284173434E+03  0.12506613992E+03 0.  0.
          5    1    3    3  502    0 -0.25477967274E+02  0.81985509390E+02  0.31737956038E+02  0.91627074710E+02  0.41800000000E+01 0.  1.
         -5    1    3    3    0  502  0.49449283846E+01 -0.45304427982E+02  0.22989681360E+02  0.51214659625E+02  0.41800000000E+01 0.  1.
        -11    1    1    2    0    0 -0.70197062634E+01  0.21130749778E+02  0.25970983011E+02  0.34209308979E+02  0.00000000000E+00 0. -1.
         11    1    1    2    0    0  0.27552745153E+02 -0.57811831187E+02 -0.12647945704E+02  0.65278879595E+02  0.00000000000E+00 0.  1.
</event>
<event>
 7    1  0.3265282E-009  0.1044758E+03  0.7561462E-02  0.1271156E+00
          4   -1    0    0  501    0  0.00000000000E+00  0.00000000000E+00  0.25998821138E+03  0.25998821138E+03  0.00000000000E+00 0.  1.
         -4   -1    0    0    0  501 -0.00000000000E+00 -0.00000000000E+00 -0.61819452015E+02  0.61819452015E+02  0.00000000000E+00 0. -1.
         25    2    1    2    0    0 -0.59235140459E+02 -0.13288342033E+02  0.85801283600E+02  0.16338449820E+03  0.12508897667E+03 0.  0.
          5    1    3    3  502    0 -0.96506635764E+02  0.60792446982E+01  0.61602547359E+02  0.11472939555E+03  0.41800000000E+01 0.  1.
         -5    1    3    3    0  502  0.37271495305E+02 -0.19367586731E+02  0.24198736240E+02  0.48655102648E+02  0.41800000000E+01 0.  1.
        -11    1    1    2    0    0  0.25963526480E+02 -0.11565518464E+02  0.11337273109E+03  0.11688131621E+03  0.00000000000E+00 0.  1.
         11    1    1    2    0    0  0.33271613980E+02  0.24853860497E+02 -0.10052553273E+01  0.41541848980E+02  0.00000000000E+00 0. -1.
</event>
<event>
 7    1  0.3265282E-009  0.1831170E+03  0.7561462E-02  0.1164820E+00
          1   -1    0    0  501    0  0.00000000000E+00  0.00000000000E+00  0.38773573060E+03  0.38773573060E+03  0.00000000000E+00 0. -1.
         -1   -1    0    0    0  501 -0.00000000000E+00 -0.00000000000E+00 -0.12348160397E+03  0.12348160397E+03  0.00000000000E+00 0.  1.
         25    2    1    2    0    0  0.40186338738E+02  0.15957503078E+03  0.26583481791E+02  0.20840518747E+03  0.12508760287E+03 0.  0.
          5    1    3    3  502    0  0.14706258575E+02  0.16541880538E+03 -0.62339305898E+01  0.16624075765E+03  0.41800000000E+01 0.  1.
         -5    1    3    3    0  502  0.25480080164E+02 -0.58437745990E+01  0.32817412380E+02  0.42164429820E+02  0.41800000000E+01 0.  1.
        -11    1    1    2    0    0  0.48584709146E+00 -0.10777957583E+03  0.87468769769E+02  0.13880727178E+03  0.00000000000E+00 0.  1.
         11    1    1    2    0    0 -0.40672185830E+02 -0.51795454954E+02  0.15020187507E+03  0.16400487532E+03  0.00000000000E+00 0. -1.
</event>
<event>
 7    1  0.3265282E-009  0.2705219E+03  0.7561462E-02  0.1100981E+00
         -2   -1    0    0    0  501 -0.00000000000E+00  0.00000000000E+00  0.14979085951E+03  0.14979085951E+03  0.00000000000E+00 0.  1.
          2   -1    0    0  501    0  0.00000000000E+00 -0.00000000000E+00 -0.49868597703E+03  0.49868597703E+03  0.00000000000E+00 0. -1.
         25    2    1    2    0    0  0.13007458926E+03 -0.21395998371E+03 -0.16824895027E+03  0.32657965413E+03  0.12509311662E+03 0.  0.
          5    1    3    3  502    0  0.10681249978E+03 -0.61826122708E+02 -0.96517388551E+02  0.15673052750E+03  0.41800000000E+01 0. -1.
         -5    1    3    3    0  502  0.23262089479E+02 -0.15213386100E+03 -0.71731561716E+02  0.16984912662E+03  0.41800000000E+01 0. -1.
        -11    1    1    2    0    0 -0.12124464172E+03  0.12478314403E+03 -0.14081805462E+03  0.22383212613E+03  0.00000000000E+00 0. -1.
         11    1    1    2    0    0 -0.88299475370E+01  0.89176839672E+02 -0.39828112637E+02  0.98065056282E+02  0.00000000000E+00 0.  1.
</event>
<event>
 7    1  0.3482571E-009  0.1624465E+03  0.7561462E-02  0.1185962E+00
          2   -1    0    0  501    0  0.00000000000E+00  0.00000000000E+00  0.21268994758E+03  0.21268994758E+03  0.00000000000E+00 0.  1.
         -2   -1    0    0    0  501 -0.00000000000E+00 -0.00000000000E+00 -0.14987267496E+03  0.14987267496E+03  0.00000000000E+00 0. -1.
         25    2    1    2    0    0  0.11048104569E+03  0.83687708680E+02  0.60841080037E+02  0.19636440007E+03  0.12509055341E+03 0.  0.
          5    1    3    3  502    0 -0.20290688068E+02  0.62737699692E+01 -0.15134117557E+02  0.26411855787E+02  0.41800000000E+01 0. -1.
         -5    1    3    3    0  502  0.13077173376E+03  0.77413938711E+02  0.75975197594E+02  0.16995254428E+03  0.41800000000E+01 0. -1.
        -11    1    1    2    0    0 -0.11001949777E+03 -0.55855897541E+02 -0.26691205368E+02  0.12624021397E+03  0.00000000000E+00 0. -1.
         11    1    1    2    0    0 -0.46154792281E+00 -0.27831811139E+02  0.28667397951E+02  0.39958008497E+02  0.00000000000E+00 0.  1.
</event>
<event>
 7    1  0.3265282E-009  0.8093790E+02  0.7561462E-02  0.1326411E+00
         -1   -1    0    0    0  501 -0.00000000000E+00  0.00000000000E+00  0.30996899401E+02  0.30996899401E+02  0.00000000000E+00 0.  1.
          1   -1    0    0  501    0  0.00000000000E+00 -0.00000000000E+00 -0.50064547818E+03  0.50064547818E+03  0.00000000000E+00 0. -1.
         25    2    1    2    0    0  0.54282906262E+02  0.23710229426E+02 -0.25284803685E+03  0.28824982262E+03  0.12508805544E+03 0.  0.
          5    1    3    3  502    0  0.16012655392E+02  0.16838114523E+01  0.11489606715E+02  0.20216919057E+02  0.41800000000E+01 0.  1.
         -5    1    3    3    0  502  0.38270250870E+02  0.22026417974E+02 -0.26433764356E+03  0.26803290357E+03  0.41800000000E+01 0.  1.
        -11    1    1    2    0    0  0.20105878280E+02 -0.16758976133E+02 -0.20164681725E+02  0.33041247124E+02  0.00000000000E+00 0.  1.
         11    1    1    2    0    0 -0.74388784543E+02 -0.69512532929E+01 -0.19663586021E+03  0.21035130783E+03  0.00000000000E+00 0. -1.
</event>
<event>
 7    1  0.3265282E-009  0.7282547E+02  0.7561462E-02  0.1350740E+00
         -2   -1    0    0    0  501 -0.00000000000E+00  0.00000000000E+00  0.14363434748E+03  0.14363434748E+03  0.00000000000E+00 0.  1.
          2   -1    0    0  501    0  0.00000000000E+00 -0.00000000000E+00 -0.93388122397E+02  0.93388122397E+02  0.00000000000E+00 0. -1.
         25    2    1    2    0    0 -0.15533192540E+02  0.16220687510E+02  0.76928095675E+02  0.14855662105E+03  0.12508695768E+03 0.  0.
          5    1    3    3  502    0  0.38162908445E+01  0.39836784126E+02 -0.21357254388E+02  0.45553684377E+02  0.41800000000E+01 0.  1.
         -5    1    3    3    0  502 -0.19349483384E+02 -0.23616096617E+02  0.98285350063E+02  0.10300293668E+03  0.41800000000E+01 0.  1.
        -11    1    1    2    0    0 -0.80162863100E+01 -0.40198694921E+02  0.61892844609E+01  0.41454832791E+02  0.00000000000E+00 0.  1.
         11    1    1    2    0    0  0.23549478850E+02  0.23978007412E+02 -0.32871155055E+02  0.47011016030E+02  0.00000000000E+00 0. -1.
</event>
<event>
 7    1  0.3265282E-009  0.8532348E+02  0.7561462E-02  0.1314589E+00
          2   -1    0    0  501    0  0.00000000000E+00  0.00000000000E+00  0.95875761769E+03  0.95875761769E+03  0.00000000000E+00 0. -1.
         -2   -1    0    0    0  501 -0.00000000000E+00 -0.00000000000E+00 -0.17361354724E+02  0.17361354724E+02  0.00000000000E+00 0.  1.
         25    2    1    2    0    0  0.67092204277E+01  0.36180659994E+02  0.74449245259E+03  0.75582421472E+03  0.12508867970E+03 0.  0.
          5    1    3    3  502    0 -0.93557013389E+01 -0.22509316642E+02  0.30664155041E+02  0.39394939873E+02  0.41800000000E+01 0. -1.
         -5    1    3    3    0  502  0.16064921767E+02  0.58689976636E+02  0.71382829755E+03  0.71642927484E+03  0.41800000000E+01 0. -1.
        -11    1    1    2    0    0 -0.40363271212E+02 -0.82723065491E+01  0.40042640677E+02  0.57454658567E+02  0.00000000000E+00 0.  1.
         11    1    1    2    0    0  0.33654050785E+02 -0.27908353445E+02  0.15686116970E+03  0.16284009913E+03  0.00000000000E+00 0. -1.
</event>
<event>
 6    1  0.6692930E-009  0.1440422E+03  0.7561462E-02  0.1207991E+00
         -1   -1    0    0    0  501 -0.00000000000E+00  0.00000000000E+00  0.98944871688E+02  0.98944871688E+02  0.00000000000E+00 0.  1.
          1   -1    0    0  501    0  0.00000000000E+00 -0.00000000000E+00 -0.27649287920E+03  0.27649287920E+03  0.00000000000E+00 0. -1.
          5    1    1    2  502    0  0.13221593797E+03 -0.20036664121E+02 -0.49671066648E+02  0.14271373243E+03  0.41800000000E+01 0.  1.
         -5    1    1    2    0  502 -0.16439795697E+02  0.27392531960E+02  0.71705089651E+01  0.33007670147E+02  0.41800000000E+01 0.  1.
        -11    1    1    2    0    0 -0.51794191841E+02  0.15609769596E+02 -0.67403141570E+01  0.54513622612E+02  0.00000000000E+00 0.  1.
         11    1    1    2    0    0 -0.63981950436E+02 -0.22965637435E+02 -0.12830713567E+03  0.14520272569E+03  0.00000000000E+00 0. -1.
</event>
<event>
 7    1  0.3265282E-009  0.1136566E+03  0.7561462E-02  0.1253944E+00
         -4   -1    0    0    0  501 -0.00000000000E+00  0.00000000000E+00  0.21795259765E+03  0.21795259765E+03  0.00000000000E+00 0.  1.
          4   -1    0    0  501    0  0.00000000000E+00 -0.00000000000E+00 -0.85726451333E+02  0.85726451333E+02  0.00000000000E+00 0. -1.
         25    2    1    2    0    0  0.23645260356E+00  0.49500831152E+02  0.14587021196E+03  0.19843799444E+03  0.12509648559E+03 0.  0.
          5    1    3    3  502    0 -0.52602797911E+01  0.90817825375E+02  0.85177118596E+02  0.12469226873E+03  0.41800000000E+01 0.  1.
         -5    1    3    3    0  502  0.54967323946E+01 -0.41316994222E+02  0.60693093366E+02  0.73745725712E+02  0.41800000000E+01 0.  1.
        -11    1    1    2    0    0  0.37491851875E+02 -0.41240370788E+02 -0.30002694119E+02  0.63297462779E+02  0.00000000000E+00 0.  1.
         11    1    1    2    0    0 -0.37728304479E+02 -0.82604603644E+01  0.16358628478E+02  0.41943591763E+02  0.00000000000E+00 0. -1.
</event>
<event>
 7    1  0.3265282E-009  0.1050975E+03  0.7561462E-02  0.1269928E+00
          2   -1    0    0  501    0  0.00000000000E+00  0.00000000000E+00  0.22619026708E+04  0.22619026708E+04  0.00000000000E+00 0. -1.
         -2   -1    0    0    0  501 -0.00000000000E+00 -0.00000000000E+00 -0.76818225824E+01  0.76818225824E+01  0.00000000000E+00 0.  1.
         25    2    1    2    0    0 -0.15141763204E+02 -0.10101485462E+02  0.18705324068E+04  0.18747987261E+04  0.12508982970E+03 0.  0.
          5    1    3    3  502    0  0.42720215043E+02 -0.35852316391E+02  0.57529728321E+03  0.57800937867E+03  0.41800000000E+01 0.  1.
         -5    1    3    3    0  502 -0.57861978247E+02  0.25750830930E+02  0.12952351236E+04  0.12967893474E+04  0.41800000000E+01 0.  1.
        -11    1    1    2    0    0 -0.34955338671E+02 -0.10694017533E+02  0.11474448242E+03  0.12042646702E+03  0.00000000000E+00 0.  1.
         11    1    1    2    0    0  0.50097101875E+02  0.20795502995E+02  0.26894395904E+03  0.27435930030E+03  0.00000000000E+00 0. -1.
</event>
<event>
 7    1  0.3265282E-009  0.1597068E+03  0.7561462E-02  0.1189028E+00
         -2   -1    0    0    0  501 -0.00000000000E+00  0.00000000000E+00  0.30097096995E+02  0.30097096995E+02  0.00000000000E+00 0. -1.
          2   -1    0    0  501    0  0.00000000000E+00 -0.00000000000E+00 -0.10874783448E+04  0.10874783448E+04  0.00000000000E+00 0.  1.
         25    2    1    2    0    0 -0.18437363853E+02 -0.13915008493E+03 -0.68161265612E+03  0.70706857316E+03  0.12508985429E+03 0.  0.
          5    1    3    3  502    0 -0.34088999342E+02 -0.29186417576E+02 -0.57114683258E+02  0.72756211355E+02  0.41800000000E+01 0.  1.
         -5    1    3    3    0  502  0.15651635489E+02 -0.10996366735E+03 -0.62449797286E+03  0.63431236180E+03  0.41800000000E+01 0.  1.
        -11    1    1    2    0    0  0.84940356953E+01  0.14897303452E+03 -0.32105046722E+03  0.35403180106E+03  0.00000000000E+00 0.  1.
         11    1    1    2    0    0  0.99433281576E+01 -0.98229495881E+01 -0.54718124498E+02  0.56475067614E+02  0.00000000000E+00 0. -1.
</event>
<event>
 7    1  0.3265282E-009  0.1115416E+03  0.7561462E-02  0.1257741E+00
         -1   -1    0    0    0  501 -0.00000000000E+00  0.00000000000E+00  0.41636484610E+03  0.41636484610E+03  0.00000000000E+00 0.  1.
          1   -1    0    0  501    0  0.00000000000E+00 -0.00000000000E+00 -0.38745847132E+02  0.38745847132E+02  0.00000000000E+00 0. -1.
         25    2    1    2    0    0 -0.35147842409E+02  0.71968849633E+02  0.27861400443E+03  0.31573957418E+03  0.12510327374E+03 0.  0.
          5    1    3    3  502    0  0.13796408832E+02 -0.19076177284E+02  0.67308747061E+01  0.24839857301E+02  0.41800000000E+01 0.  1.
         -5    1    3    3    0  502 -0.48944251241E+02  0.91045026917E+02  0.27188312972E+03  0.29089971688E+03  0.41800000000E+01 0.  1.
        -11    1    1    2    0    0  0.46765754787E+02 -0.69619132434E+02  0.95308421701E+02  0.12695493164E+03  0.00000000000E+00 0. -1.
         11    1    1    2    0    0 -0.11617912379E+02 -0.23497171994E+01  0.36965728439E+01  0.12416187408E+02  0.00000000000E+00 0.  1.
</event>
<event>
 7    1  0.3265282E-009  0.1273091E+03  0.7561462E-02  0.1231504E+00
         -2   -1    0    0    0  501 -0.00000000000E+00  0.00000000000E+00  0.96778587833E+02  0.96778587833E+02  0.00000000000E+00 0.  1.
          2   -1    0    0  501    0  0.00000000000E+00 -0.00000000000E+00 -0.59150440246E+03  0.59150440246E+03  0.00000000000E+00 0. -1.
         25    2    1    2    0    0  0.14437736358E+02 -0.84066004889E+02 -0.53413157079E+03  0.55517560138E+03  0.12509145474E+03 0.  0.
          5    1    3    3  502    0  0.21527482549E+02 -0.10571514180E+03 -0.28165733898E+03  0.30164126493E+03  0.41800000000E+01 0. -1.
         -5    1    3    3    0  502 -0.70897461911E+01  0.21649136911E+02 -0.25247423181E+03  0.25353433645E+03  0.41800000000E+01 0. -1.
        -11    1    1    2    0    0 -0.43885622540E+02  0.11782328883E+02  0.30094877250E+02  0.54502043781E+02  0.00000000000E+00 0.  1.
         11    1    1    2    0    0  0.29447886182E+02  0.72283676006E+02  0.93108789078E+01  0.78605345134E+02  0.00000000000E+00 0. -1.
</event>
<event>
 7    1  0.3265282E-009  0.1174579E+03  0.7561462E-02  0.1247351E+00
          1   -1    0    0  501    0  0.00000000000E+00  0.00000000000E+00  0.29176532223E+03  0.29176532223E+03  0.00000000000E+00 0. -1.
         -1   -1    0    0    0  501 -0.00000000000E+00 -0.00000000000E+00 -0.55168575913E+02  0.55168575913E+02  0.00000000000E+00 0.  1.
         25    2    1    2    0    0  0.31781615121E+02 -0.33871463695E+02  0.19298475408E+03  0.23461500560E+03  0.12507493126E+03 0.  0.
          5    1    3    3  502    0  0.78564684929E+02 -0.11526645167E+02  0.13535991146E+03  0.15698742401E+03  0.41800000000E+01 0.  1.
         -5    1    3    3    0  502 -0.46783069808E+02 -0.22344818527E+02  0.57624842621E+02  0.77627581585E+02  0.41800000000E+01 0.  1.
        -11    1    1    2    0    0 -0.60997349876E+02  0.32804237230E+01  0.28414284314E+02  0.67370686688E+02  0.00000000000E+00 0.  1.
         11    1    1    2    0    0  0.29215734756E+02  0.30591039972E+02  0.15197707919E+02  0.44948205858E+02  0.00000000000E+00 0. -1.
</event>
<event>
 7    1  0.3265282E-009  0.8887199E+02  0.7561462E-02  0.1305607E+00
         -1   -1    0    0    0  501 -0.00000000000E+00  0.00000000000E+00  0.63530939063E+02  0.63530939063E+02  0.00000000000E+00 0.  1.
          1   -1    0    0  501    0  0.00000000000E+00 -0.00000000000E+00 -0.19415660765E+03  0.19415660765E+03  0.00000000000E+00 0. -1.
         25    2    1    2    0    0 -0.79284721580E+01 -0.23915062555E+02 -0.81455758050E+02  0.15138748157E+03  0.12509331785E+03 0.  0.
          5    1    3    3  502    0 -0.23820843085E+02  0.26301320594E+02 -0.90938895814E+02  0.97706433781E+02  0.41800000000E+01 0.  1.
         -5    1    3    3    0  502  0.15892370927E+02 -0.50216383149E+02  0.94831377646E+01  0.53681047793E+02  0.41800000000E+01 0.  1.
        -11    1    1    2    0    0  0.79792148534E+01  0.56264400281E+02 -0.14022991396E+02  0.58531998910E+02  0.00000000000E+00 0.  1.
         11    1    1    2    0    0 -0.50742695435E-01 -0.32349337726E+02 -0.35146919139E+02  0.47768066227E+02  0.00000000000E+00 0. -1.
</event>
<event>
 7    1  0.3265282E-009  0.9435233E+02  0.7561462E-02  0.1292642E+00
         -1   -1    0    0    0  501 -0.00000000000E+00  0.00000000000E+00  0.61955590408E+02  0.61955590408E+02  0.00000000000E+00 0. -1.
          1   -1    0    0  501    0  0.00000000000E+00 -0.00000000000E+00 -0.21253164805E+03  0.21253164805E+03  0.00000000000E+00 0.  1.
         25    2    1    2    0    0 -0.24259528402E+02  0.19963482766E+02 -0.10649183943E+03  0.16725592153E+03  0.12508783338E+03 0.  0.
          5    1    3    3  502    0  0.33794726884E+02 -0.30386768031E+02 -0.15767022198E+02  0.48285718649E+02  0.41800000000E+01 0. -1.
         -5    1    3    3    0  502 -0.58054255285E+02  0.50350250796E+02 -0.90724817229E+02  0.11897020288E+03  0.41800000000E+01 0. -1.
        -11    1    1    2    0    0  0.38348271471E+02  0.37406499022E+01  0.15534825579E+02  0.41544111403E+02  0.00000000000E+00 0. -1.
         11    1    1    2    0    0 -0.14088743069E+02 -0.23704132668E+02 -0.59619043792E+02  0.65687205524E+02  0.00000000000E+00 0.  1.
</event>
<event>
 7    1  0.3265282E-009  0.9516689E+02  0.7561462E-02  0.1290801E+00
          2   -1    0    0  501    0  0.00000000000E+00  0.00000000000E+00  0.61008511254E+03  0.61008511254E+03  0.00000000000E+00 0.  1.
         -2   -1    0    0    0  501 -0.00000000000E+00 -0.00000000000E+00 -0.32085230506E+02  0.32085230506E+02  0.00000000000E+00 0. -1.
         25    2    1    2    0    0  0.64431097577E+02  0.34520731871E+02  0.20801208770E+03  0.25349938614E+03  0.12509941199E+03 0.  0.
          5    1    3    3  502    0  0.25771859035E+02  0.12295719834E+02 -0.10298737920E+02  0.30641635842E+02  0.41800000000E+01 0.  1.
         -5    1    3    3    0  502  0.38659238542E+02  0.22225012037E+02  0.21831082562E+03  0.22285775029E+03  0.41800000000E+01 0.  1.
        -11    1    1    2    0    0  0.32834405076E+01  0.25795911737E+02  0.54110065168E+02  0.60034233537E+02  0.00000000000E+00 0. -1.
         11    1    1    2    0    0 -0.67714538084E+02 -0.60316643608E+02  0.31587772917E+03  0.32863672337E+03  0.00000000000E+00 0.  1.
</event>
<event>
 7    1  0.3265282E-009  0.1909486E+03  0.7561462E-02  0.1157609E+00
         -1   -1    0    0    0  501 -0.00000000000E+00  0.00000000000E+00  0.10783482085E+03  0.10783482085E+03  0.00000000000E+00 0.  1.
          1   -1    0    0  501    0  0.00000000000E+00 -0.00000000000E+00 -0.43126462319E+03  0.43126462319E+03  0.00000000000E+00 0. -1.
         25    2    1    2    0    0 -0.52010585121E+02 -0.15655218539E+03 -0.61165886519E+02  0.21587531050E+03  0.12508875368E+03 0.  0.
          5    1    3    3  502    0  0.27397252128E+02 -0.74173718603E+02  0.11872020735E+02  0.80067266919E+02  0.41800000000E+01 0.  1.
         -5    1    3    3    0  502 -0.79407837249E+02 -0.82378466787E+02 -0.73037907254E+02  0.13580804359E+03  0.41800000000E+01 0.  1.
        -11    1    1    2    0    0  0.64990095044E+02  0.53012753787E+02 -0.10312469867E+03  0.13292391806E+03  0.00000000000E+00 0. -1.
         11    1    1    2    0    0 -0.12979509923E+02  0.10353943160E+03 -0.15913921716E+03  0.19030021548E+03  0.00000000000E+00 0.  1.
</event>
<event>
 7    1  0.3265282E-009  0.1840639E+03  0.7561462E-02  0.1163927E+00
          2   -1    0    0  501    0  0.00000000000E+00  0.00000000000E+00  0.14136426855E+04  0.14136426855E+04  0.00000000000E+00 0. -1.
         -2   -1    0    0    0  501 -0.00000000000E+00 -0.00000000000E+00 -0.24347407700E+02  0.24347407700E+02  0.00000000000E+00 0.  1.
         25    2    1    2    0    0  0.48536477335E+02 -0.14166061158E+03  0.66634198262E+03  0.69432195762E+03  0.12509126478E+03 0.  0.
          5    1    3    3  502    0  0.38911419243E+02 -0.16450420273E+03  0.55557120747E+03  0.58073450925E+03  0.41800000000E+01 0.  1.
         -5    1    3    3    0  502  0.96250580927E+01  0.22843591150E+02  0.11077077516E+03  0.11358744838E+03  0.41800000000E+01 0.  1.
        -11    1    1    2    0    0 -0.63215351581E+02  0.48745863144E+02  0.35732198247E+03  0.36613022138E+03  0.00000000000E+00 0. -1.
         11    1    1    2    0    0  0.14678874246E+02  0.92914748435E+02  0.36563131266E+03  0.37753791415E+03  0.00000000000E+00 0.  1.
</event>
<event>
 7    1  0.3265282E-009  0.9889539E+02  0.7561462E-02  0.1282636E+00
         -1   -1    0    0    0  501 -0.00000000000E+00  0.00000000000E+00  0.24283786686E+03  0.24283786686E+03  0.00000000000E+00 0.  1.
          1   -1    0    0  501    0  0.00000000000E+00 -0.00000000000E+00 -0.81662968055E+02  0.81662968055E+02  0.00000000000E+00 0. -1.
         25    2    1    2    0    0  0.58797005199E+00 -0.25594702559E+02 -0.91124409477E+01  0.12800599316E+03  0.12508822165E+03 0.  0.
          5    1    3    3  502    0  0.16663362166E+02  0.45022489115E+02 -0.24177433979E+02  0.53913939558E+02  0.41800000000E+01 0. -1.
         -5    1    3    3    0  502 -0.16075392114E+02 -0.70617191674E+02  0.15064993031E+02  0.74092053600E+02  0.41800000000E+01 0. -1.
        -11    1    1    2    0    0 -0.30351271560E+02 -0.87726747379E+01  0.15542894775E+02  0.35209957190E+02  0.00000000000E+00 0. -1.
         11    1    1    2    0    0  0.29763301508E+02  0.34367377297E+02  0.15474444498E+03  0.16128488457E+03  0.00000000000E+00 0.  1.
</event>
<event>
 7    1  0.3265282E-009  0.8620581E+02  0.7561462E-02  0.1312309E+00
         -3   -1    0    0    0  501 -0.00000000000E+00  0.00000000000E+00  0.87232419795E+02  0.87232419795E+02  0.00000000000E+00 0.  1.
          3   -1    0    0  501    0  0.00000000000E+00 -0.00000000000E+00 -0.21572669944E+03  0.21572669944E+03  0.00000000000E+00 0. -1.
         25    2    1    2    0    0 -0.36064329756E+02  0.36819160406E+02 -0.14155426296E+03  0.19580875638E+03  0.12508866159E+03 0.  0.
          5    1    3    3  502    0 -0.47151913766E+02  0.10978513198E+02  0.28077964890E+01  0.48674293471E+02  0.41800000000E+01 0. -1.
         -5    1    3    3    0  502  0.11087584010E+02  0.25840647208E+02 -0.14436205945E+03  0.14713446291E+03  0.41800000000E+01 0. -1.
        -11    1    1    2    0    0  0.44913013910E+02 -0.57461507226E+02 -0.11541547590E+02  0.73839088239E+02  0.00000000000E+00 0.  1.
         11    1    1    2    0    0 -0.88486841544E+01  0.20642346820E+02  0.24601530907E+02  0.33311274614E+02  0.00000000000E+00 0. -1.
</event>
<event>
 7    1  0.3265282E-009  0.1031502E+03  0.7561462E-02  0.1273808E+00
          1   -1    0    0  501    0  0.00000000000E+00  0.00000000000E+00  0.13606154670E+03  0.13606154670E+03  0.00000000000E+00 0. -1.
         -1   -1    0    0    0  501 -0.00000000000E+00 -0.00000000000E+00 -0.93585643162E+02  0.93585643162E+02  0.00000000000E+00 0.  1.
         25    2    1    2    0    0 -0.13550395431E+02 -0.29673386165E+02  0.36747535911E+02  0.13439833716E+03  0.12509359924E+03 0.  0.
          5    1    3    3  502    0 -0.39197140128E+02  0.32627773796E+02 -0.10196186612E+02  0.52176834310E+02  0.41800000000E+01 0.  1.
         -5    1    3    3    0  502  0.25646744697E+02 -0.62301159962E+02  0.46943722522E+02  0.82221502847E+02  0.41800000000E+01 0.  1.
        -11    1    1    2    0    0 -0.13680195365E+02 -0.23895108882E+02 -0.15402742793E+02  0.31549460522E+02  0.00000000000E+00 0.  1.
         11    1    1    2    0    0  0.27230590796E+02  0.53568495047E+02  0.21131110419E+02  0.63699392181E+02  0.00000000000E+00 0. -1.
</event>
<event>
 7    1  0.3265282E-009  0.7322415E+02  0.7561462E-02  0.1349460E+00
         -2   -1    0    0    0  501 -0.00000000000E+00  0.00000000000E+00  0.87595604322E+02  0.87595604322E+02  0.00000000000E+00 0.  1.
          2   -1    0    0  501    0  0.00000000000E+00 -0.00000000000E+00 -0.20798149526E+03  0.20798149526E+03  0.00000000000E+00 0. -1.
         25    2    1    2    0    0 -0.14948660431E+02 -0.91645913574E+00 -0.15229967395E+03  0.19764993684E+03  0.12508398979E+03 0.  0.
          5    1    3    3  502    0  0.19562902396E+02  0.42054755326E+02 -0.12992734399E+03  0.13802136325E+03  0.41800000000E+01 0.  1.
         -5    1    3    3    0  502 -0.34511562826E+02 -0.42971214461E+02 -0.22372329959E+02  0.59628573593E+02  0.41800000000E+01 0.  1.
        -11    1    1    2    0    0  0.11121291815E+02 -0.20246236600E+02 -0.26810244382E+02  0.35389015696E+02  0.00000000000E+00 0. -1.
         11    1    1    2    0    0  0.38273686157E+01  0.21162695735E+02  0.58724027400E+02  0.62538147041E+02  0.00000000000E+00 0.  1.
</event>
<event>
 7    1  0.3265282E-009  0.1021783E+03  0.7561462E-02  0.1275781E+00
         -2   -1    0    0    0  501 -0.00000000000E+00  0.00000000000E+00  0.48988518875E+02  0.48988518875E+02  0.00000000000E+00 0.  1.
          2   -1    0    0  501    0  0.00000000000E+00 -0.00000000000E+00 -0.51640895724E+03  0.51640895724E+03  0.00000000000E+00 0. -1.
         25    2    1    2    0    0  0.40367127799E+02 -0.43779329437E+02 -0.43411774339E+03  0.45568929579E+03  0.12509350293E+03 0.  0.
          5    1    3    3  502    0  0.26498269912E+02  0.31853578976E+02 -0.28334527208E+03  0.28638928823E+03  0.41800000000E+01 0.  1.
         -5    1    3    3    0  502  0.13868857888E+02 -0.75632908413E+02 -0.15077247131E+03  0.16930000756E+03  0.41800000000E+01 0.  1.
        -11    1    1    2    0    0 -0.56869448385E+02  0.37103123141E+02 -0.50757607880E+02  0.84776828581E+02  0.00000000000E+00 0. -1.
         11    1    1    2    0    0  0.16502320586E+02  0.66762062962E+01  0.17454912908E+02  0.24931351746E+02  0.00000000000E+00 0.  1.
</event>
<event>
 7    1  0.3265282E-009  0.7402444E+02  0.7561462E-02  0.1346919E+00
          3   -1    0    0  501    0  0.00000000000E+00  0.00000000000E+00  0.11195201416E+03  0.11195201416E+03  0.00000000000E+00 0. -1.
         -3   -1    0    0    0  501 -0.00000000000E+00 -0.00000000000E+00 -0.13214963704E+03  0.13214963704E+03  0.00000000000E+00 0.  1.
         25    2    1    2    0    0 -0.12068202094E+02  0.17625870662E+02 -0.64559712112E+02  0.14237797870E+03  0.12508884672E+03 0.  0.
          5    1    3    3  502    0 -0.44300777577E+01  0.39419641276E+02 -0.95528339406E+02  0.10352134918E+03  0.41800000000E+01 0. -1.
         -5    1    3    3    0  502 -0.76381243367E+01 -0.21793770614E+02  0.30968627295E+02  0.38856629518E+02  0.41800000000E+01 0. -1.
        -11    1    1    2    0    0 -0.33351546226E+02 -0.20557822253E+02  0.15048378582E+01  0.39207323658E+02  0.00000000000E+00 0.  1.
         11    1    1    2    0    0  0.45419748320E+02  0.29319515904E+01  0.42857251373E+02  0.62516348845E+02  0.00000000000E+00 0. -1.
</event>
<event>
 7    1  0.3265282E-009  0.7423794E+02  0.7561462E-02  0.1346247E+00
          1   -1    0    0  501    0  0.00000000000E+00  0.00000000000E+00  0.98335463295E+02  0.98335463295E+02  0.00000000000E+00 0. -1.
         -1   -1    0    0    0  501 -0.00000000000E+00 -0.00000000000E+00 -0.12703232103E+03  0.12703232103E+03  0.00000000000E+00 0.  1.
         25    2    1    2    0    0  0.20478583822E+02 -0.20925698091E+02 -0.19432516570E+02  0.12993244674E+03  0.12509021056E+03 0.  0.
          5    1    3    3  502    0  0.34037505310E+02  0.65291426394E+01 -0.65638344645E+02  0.74344106417E+02  0.41800000000E+01 0. -1.
         -5    1    3    3    0  502 -0.13558921488E+02 -0.27454840731E+02  0.46205828075E+02  0.55588340320E+02  0.41800000000E+01 0. -1.
        -11    1    1    2    0    0  0.27403990967E+02  0.21411982322E+02 -0.27355538164E+02  0.44246775884E+02  0.00000000000E+00 0.  1.
         11    1    1    2    0    0 -0.47882574789E+02 -0.48628423098E+00  0.18091196996E+02  0.51188561706E+02  0.00000000000E+00 0. -1.
</event>
<event>
 7    1  0.3265282E-009  0.6676496E+02  0.7561462E-02  0.1371453E+00
         -1   -1    0    0    0  501 -0.00000000000E+00  0.00000000000E+00  0.39876731906E+02  0.39876731906E+02  0.00000000000E+00 0.  1.
          1   -1    0    0  501    0  0.00000000000E+00 -0.00000000000E+00 -0.36176895083E+03  0.36176895083E+03  0.00000000000E+00 0. -1.
         25    2    1    2    0    0 -0.48534652577E+02 -0.16235996797E+02 -0.15443350802E+03  0.20522286586E+03  0.12508995236E+03 0.  0.
          5    1    3    3  502    0 -0.16501829364E+02 -0.42496170508E+01  0.20468426770E+02  0.26959200876E+02  0.41800000000E+01 0.  1.
         -5    1    3    3    0  502 -0.32032823212E+02 -0.11986379746E+02 -0.17490193479E+03  0.17826366499E+03  0.41800000000E+01 0.  1.
        -11    1    1    2    0    0 -0.14636989156E+02  0.10666801601E+02 -0.82561406071E+00  0.18130188817E+02  0.00000000000E+00 0.  1.
         11    1    1    2    0    0  0.63171641733E+02  0.55691951958E+01 -0.16663309685E+03  0.17829262806E+03  0.00000000000E+00 0. -1.
</event>
<event>
 7    1  0.3265282E-009  0.1394528E+03  0.7561462E-02  0.1214067E+00
         -1   -1    0    0    0  501 -0.00000000000E+00  0.00000000000E+00  0.22884125288E+03  0.22884125288E+03  0.00000000000E+00 0.  1.
          1   -1    0    0  501    0  0.00000000000E+00 -0.00000000000E+00 -0.10541868791E+03  0.10541868791E+03  0.00000000000E+00 0. -1.
         25    2    1    2    0    0 -0.97838171423E+02 -0.45305904385E+02  0.94350388112E+02  0.19019033886E+03  0.12508171929E+03 0.  0.
          5    1    3    3  502    0 -0.11906162078E+03 -0.53644529147E+02  0.49528626170E+02  0.13972817275E+03  0.41800000000E+01 0.  1.
         -5    1    3    3    0  502  0.21223449353E+02  0.83386247625E+01  0.44821761942E+02  0.50462166115E+02  0.41800000000E+01 0.  1.
        -11    1    1    2    0    0  0.58891322661E+02  0.59403237129E+02 -0.13434576901E+02  0.84719657239E+02  0.00000000000E+00 0. -1.
         11    1    1    2    0    0  0.38946848763E+02 -0.14097332744E+02  0.42506753764E+02  0.59349944689E+02  0.00000000000E+00 0.  1.
</event>
<event>
 7    1  0.3265282E-009  0.1642218E+03  0.7561462E-02  0.1184011E+00
         -2   -1    0    0    0  501 -0.00000000000E+00  0.00000000000E+00  0.16088151215E+03  0.16088151215E+03  0.00000000000E+00 0. -1.
          2   -1    0    0  501    0  0.00000000000E+00 -0.00000000000E+00 -0.23722501897E+03  0.23722501897E+03  0.00000000000E+00 0.  1.
         25    2    1    2    0    0  0.14246776062E+02 -0.14175593916E+03  0.38109765533E+02  0.19338026146E+03  0.12508338970E+03 0.  0.
          5    1    3    3  502    0 -0.66745377818E+01 -0.15821627340E+03  0.17340284101E+02  0.15935839004E+03  0.41800000000E+01 0. -1.
         -5    1    3    3    0  502  0.20921313844E+02  0.16460334239E+02  0.20769481432E+02  0.34021871424E+02  0.41800000000E+01 0. -1.
        -11    1    1    2    0    0 -0.15303048031E+02  0.88146572909E+02 -0.13583247045E+02  0.90490365205E+02  0.00000000000E+00 0. -1.
         11    1    1    2    0    0  0.10562719682E+01  0.53609366248E+02 -0.10087002531E+03  0.11423590445E+03  0.00000000000E+00 0.  1.
</event>
<event>
 7    1  0.3265282E-009  0.1197832E+03  0.7561462E-02  0.1243455E+00
         -2   -1    0    0    0  501 -0.00000000000E+00  0.00000000000E+00  0.65893156254E+02  0.65893156254E+02  0.00000000000E+00 0.  1.
          2   -1    0    0  501    0  0.00000000000E+00 -0.00000000000E+00 -0.37236464641E+03  0.37236464641E+03  0.00000000000E+00 0. -1.
         25    2    1    2    0    0  0.62466315069E+02 -0.16004573889E+02 -0.29365516128E+03  0.32563782079E+03  0.12509376354E+03 0.  0.
          5    1    3    3  502    0  0.18438053615E+02 -0.65512750481E+02 -0.10096758747E+03  0.12183516905E+03  0.41800000000E+01 0. -1.
         -5    1    3    3    0  502  0.44028261454E+02  0.49508176592E+02 -0.19268757381E+03  0.20380265174E+03  0.41800000000E+01 0. -1.
        -11    1    1    2    0    0  0.19351782117E+02  0.12627299024E+02  0.13308755676E+02  0.26665766994E+02  0.00000000000E+00 0.  1.
         11    1    1    2    0    0 -0.81818097186E+02  0.33772748652E+01 -0.26125084546E+02  0.85954214877E+02  0.00000000000E+00 0. -1.
</event>
<event>
 7    1  0.3265282E-009  0.1342165E+03  0.7561462E-02  0.1221330E+00
         -2   -1    0    0    0  501 -0.00000000000E+00  0.00000000000E+00  0.17570190276E+02  0.17570190276E+02  0.00000000000E+00 0.  1.
          2   -1    0    0  501    0  0.00000000000E+00 -0.00000000000E+00 -0.18525192918E+04  0.18525192918E+04  0.00000000000E+00 0. -1.
         25    2    1    2    0    0 -0.35868574940E+02  0.10759102656E+03 -0.14184887604E+04  0.14285029846E+04  0.12509208667E+03 0.  0.
          5    1    3    3  502    0 -0.14731319575E+02  0.37588146666E+01 -0.17693927385E+02  0.23699956338E+02  0.41800000000E+01 0. -1.
         -5    1    3    3    0  502 -0.21137255365E+02  0.10383221189E+03 -0.14007948330E+04  0.14048030283E+04  0.41800000000E+01 0. -1.
        -11    1    1    2    0    0 -0.27044877768E+02 -0.65668944133E+02 -0.21353956833E+03  0.22503995841E+03  0.00000000000E+00 0. -1.
         11    1    1    2    0    0  0.62913452708E+02 -0.41922082426E+02 -0.20292077288E+03  0.21654653909E+03  0.00000000000E+00 0.  1.
</event>
<event>
 7    1  0.3265282E-009  0.2011742E+03  0.7561462E-02  0.1148752E+00
         -2   -1    0    0    0  501 -0.00000000000E+00  0.00000000000E+00  0.14709943226E+02  0.14709943226E+02  0.00000000000E+00 0.  1.
          2   -1    0    0  501    0  0.00000000000E+00 -0.00000000000E+00 -0.37274523926E+04  0.37274523926E+04  0.00000000000E+00 0. -1.
         25    2    1    2    0    0 -0.11175601725E+03  0.12787074381E+03 -0.28667035763E+04  0.28744524148E+04  0.12508779494E+03 0.  0.
          5    1    3    3  502    0 -0.12924312809E+03  0.65810574659E+02 -0.18348157219E+04  0.18405436761E+04  0.41800000000E+01 0.  1.
         -5    1    3    3    0  502  0.17487110837E+02  0.62060169155E+02 -0.10318878544E+04  0.10339087388E+04  0.41800000000E+01 0.  1.
        -11    1    1    2    0    0  0.47829918100E+02  0.20202749210E+01 -0.22065473339E+03  0.22578816165E+03  0.00000000000E+00 0.  1.
         11    1    1    2    0    0  0.63926099154E+02 -0.12989101874E+03 -0.62538413969E+03  0.64192175932E+03  0.00000000000E+00 0. -1.
</event>
<event>
 7    1  0.3265282E-009  0.1550124E+03  0.7561462E-02  0.1194446E+00
         -2   -1    0    0    0  501 -0.00000000000E+00  0.00000000000E+00  0.13931402217E+03  0.13931402217E+03  0.00000000000E+00 0.  1.
          2   -1    0    0  501    0  0.00000000000E+00 -0.00000000000E+00 -0.21961993197E+03  0.21961993197E+03  0.00000000000E+00 0. -1.
         25    2    1    2    0    0  0.27861391940E+02  0.11973963656E+03  0.17966679929E+02  0.17630641240E+03  0.12508921512E+03 0.  0.
          5    1    3    3  502    0  0.75631616139E+02  0.94218422714E+02  0.16041670470E+02  0.12195105629E+03  0.41800000000E+01 0.  1.
         -5    1    3    3    0  502 -0.47770224199E+02  0.25521213847E+02  0.19250094590E+01  0.54355356108E+02  0.41800000000E+01 0.  1.
        -11    1    1    2    0    0  0.16921616846E+02 -0.38301913373E+02  0.67205211190E+01  0.42409233532E+02  0.00000000000E+00 0.  1.
         11    1    1    2    0    0 -0.44783008786E+02 -0.81437723188E+02 -0.10499311084E+03  0.14021830821E+03  0.00000000000E+00 0. -1.
</event>
<event>
 7    1  0.3265282E-009  0.1306929E+03  0.7561462E-02  0.1226431E+00
          2   -1    0    0  501    0  0.00000000000E+00  0.00000000000E+00  0.63501613939E+03  0.63501613939E+03  0.00000000000E+00 0. -1.
         -2   -1    0    0    0  501 -0.00000000000E+00 -0.00000000000E+00 -0.34657805813E+02  0.34657805813E+02  0.00000000000E+00 0.  1.
         25    2    1    2    0    0  0.70126888372E+02 -0.37540967479E+02  0.18402225031E+03  0.23630201756E+03  0.12508936878E+03 0.  0.
          5    1    3    3  502    0 -0.22164665782E+01 -0.63833457733E+02  0.12037704844E+03  0.13633682277E+03  0.41800000000E+01 0.  1.
         -5    1    3    3    0  502  0.72343354950E+02  0.26292490254E+02  0.63645201869E+02  0.99965194793E+02  0.41800000000E+01 0.  1.
        -11    1    1    2    0    0  0.80689524076E+01  0.41225853901E+02  0.14133933478E+03  0.14744994601E+03  0.00000000000E+00 0.  1.
         11    1    1    2    0    0 -0.78195840779E+02 -0.36848864221E+01  0.27499674849E+03  0.28592198164E+03  0.00000000000E+00 0. -1.
</event>
<event>
 7    1  0.3265282E-009  0.2204665E+03  0.7561462E-02  0.1133536E+00
          2   -1    0    0  501    0  0.00000000000E+00  0.00000000000E+00  0.84095844354E+02  0.84095844354E+02  0.00000000000E+00 0. -1.
         -2   -1    0    0    0  501 -0.00000000000E+00 -0.00000000000E+00 -0.94797096011E+03  0.94797096011E+03  0.00000000000E+00 0.  1.
         25    2    1    2    0    0  0.19219359299E+03  0.40240632134E+02 -0.75390717514E+03  0.78903756243E+03  0.12508621247E+03 0.  0.
          5    1    3    3  502    0  0.10436554694E+03  0.82101287825E+02 -0.37585827932E+03  0.39864734714E+03  0.41800000000E+01 0. -1.
         -5    1    3    3    0  502  0.87828046048E+02 -0.41860655691E+02 -0.37804889582E+03  0.39039021530E+03  0.41800000000E+01 0. -1.
        -11    1    1    2    0    0 -0.15649326742E+03  0.54210894608E+00 -0.10531042163E+03  0.18862852788E+03  0.00000000000E+00 0.  1.
         11    1    1    2    0    0 -0.35700325571E+02 -0.40782741080E+02 -0.46575189901E+01  0.54400714141E+02  0.00000000000E+00 0. -1.
</event>
<event>
 7    1  0.3265282E-009  0.1130530E+03  0.7561462E-02  0.1255018E+00
         -2   -1    0    0    0  501 -0.00000000000E+00  0.00000000000E+00  0.80403039202E+02  0.80403039202E+02  0.00000000000E+00 0.  1.
          2   -1    0    0  501    0  0.00000000000E+00 -0.00000000000E+00 -0.26232485930E+03  0.26232485930E+03  0.00000000000E+00 0. -1.
         25    2    1    2    0    0  0.30067671886E+02 -0.90786229283E+02 -0.10230202878E+03  0.18777819355E+03  0.12509492621E+03 0.  0.
          5    1    3    3  502    0 -0.17190754736E+02 -0.68876732980E+02  0.19745928299E+01  0.71139987428E+02  0.41800000000E+01 0. -1.
         -5    1    3    3    0  502  0.47258426621E+02 -0.21909496303E+02 -0.10427662161E+03  0.11663820613E+03  0.41800000000E+01 0. -1.
        -11    1    1    2    0    0 -0.17182191859E+01  0.63055069313E+02  0.31633878580E+01  0.63157747474E+02  0.00000000000E+00 0.  1.
         11    1    1    2    0    0 -0.28349452700E+02  0.27731159970E+02 -0.82783179176E+02  0.91791957470E+02  0.00000000000E+00 0. -1.
</event>
<event>
 7    1  0.3265282E-009  0.1129665E+03  0.7561462E-02  0.1255173E+00
          1   -1    0    0  501    0  0.00000000000E+00  0.00000000000E+00  0.51964467501E+03  0.51964467501E+03  0.00000000000E+00 0. -1.
         -1   -1    0    0    0  501 -0.00000000000E+00 -0.00000000000E+00 -0.48920609609E+02  0.48920609609E+02  0.00000000000E+00 0.  1.
         25    2    1    2    0    0 -0.98283250090E+02 -0.25957927328E+02  0.15093716060E+03  0.22082390678E+03  0.12509100735E+03 0.  0.
          5    1    3    3  502    0 -0.48563137965E+02  0.23158801821E+01  0.15580521892E+03  0.16326812399E+03  0.41800000000E+01 0.  1.
         -5    1    3    3    0  502 -0.49720112125E+02 -0.28273807511E+02 -0.48680583221E+01  0.57555782791E+02  0.41800000000E+01 0.  1.
        -11    1    1    2    0    0  0.55856953924E+02  0.46471119264E+02  0.10399785659E+03  0.12686653776E+03  0.00000000000E+00 0.  1.
         11    1    1    2    0    0  0.42426296166E+02 -0.20513191936E+02  0.21578904821E+03  0.22087484008E+03  0.00000000000E+00 0. -1.
</event>
<event>
 7    1  0.3265282E-009  0.1012272E+03  0.7561462E-02  0.1277736E+00
         -1   -1    0    0    0  501 -0.00000000000E+00  0.00000000000E+00  0.70857868801E+02  0.70857868801E+02  0.00000000000E+00 0.  1.
          1   -1    0    0  501    0  0.00000000000E+00 -0.00000000000E+00 -0.18584474675E+03  0.18584474675E+03  0.00000000000E+00 0. -1.
         25    2    1    2    0    0  0.31330947314E+02  0.10595074464E+02 -0.57623923977E+02  0.14163970891E+03  0.12508959454E+03 0.  0.
          5    1    3    3  502    0  0.67889311986E+02  0.38636773635E+02 -0.16954869839E+02  0.80041857613E+02  0.41800000000E+01 0. -1.
         -5    1    3    3    0  502 -0.36558364673E+02 -0.28041699171E+02 -0.40669054139E+02  0.61597851297E+02  0.41800000000E+01 0. -1.
        -11    1    1    2    0    0 -0.53342184123E+02 -0.15224982931E+02 -0.22289031818E+01  0.55517175015E+02  0.00000000000E+00 0.  1.
         11    1    1    2    0    0  0.22011236810E+02  0.46299084666E+01 -0.55134050793E+02  0.59545731629E+02  0.00000000000E+00 0. -1.
</event>
<event>
 7    1  0.3265282E-009  0.9683075E+02  0.7561462E-02  0.1287105E+00
         -4   -1    0    0    0  501 -0.00000000000E+00  0.00000000000E+00  0.70974540024E+02  0.70974540024E+02  0.00000000000E+00 0.  1.
          4   -1    0    0  501    0  0.00000000000E+00 -0.00000000000E+00 -0.22295056936E+03  0.22295056936E+03  0.00000000000E+00 0. -1.
         25    2    1    2    0    0  0.26325014753E+02 -0.57547835060E+02 -0.75148940765E+02  0.15905839317E+03  0.12508976545E+03 0.  0.
          5    1    3    3  502    0  0.27549904293E+02 -0.66929134241E+02 -0.10492602978E+03  0.12753607475E+03  0.41800000000E+01 0. -1.
         -5    1    3    3    0  502 -0.12248895403E+01  0.93812991814E+01  0.29777089016E+02  0.31522318426E+02  0.41800000000E+01 0. -1.
        -11    1    1    2    0    0  0.39261839056E+01  0.75527328465E+02 -0.51093830903E+02  0.91270870608E+02  0.00000000000E+00 0. -1.
         11    1    1    2    0    0 -0.30251198658E+02 -0.17979493405E+02 -0.25733257664E+02  0.43595845598E+02  0.00000000000E+00 0.  1.
</event>
<event>
 7    1  0.3265282E-009  0.1534127E+03  0.7561462E-02  0.1196341E+00
         -2   -1    0    0    0  501 -0.00000000000E+00  0.00000000000E+00  0.22588849988E+02  0.22588849988E+02  0.00000000000E+00 0.  1.
          2   -1    0    0  501    0  0.00000000000E+00 -0.00000000000E+00 -0.12216301200E+04  0.12216301200E+04  0.00000000000E+00 0. -1.
         25    2    1    2    0    0 -0.12423633055E+03  0.17165768801E+02 -0.67823549791E+03  0.70098516908E+03  0.12508991646E+03 0.  0.
          5    1    3    3  502    0 -0.12716094796E+03  0.45828026990E+02 -0.63231264192E+03  0.64661183432E+03  0.41800000000E+01 0. -1.
         -5    1    3    3    0  502  0.29246174046E+01 -0.28662258189E+02 -0.45922855986E+02  0.54373334764E+02  0.41800000000E+01 0. -1.
        -11    1    1    2    0    0  0.12720653432E+02 -0.27687836975E+02 -0.44483363904E+02  0.53918466264E+02  0.00000000000E+00 0.  1.
         11    1    1    2    0    0  0.11151567712E+03  0.10522068174E+02 -0.47632240817E+03  0.48931533461E+03  0.00000000000E+00 0. -1.
</event>
<event>
 7    1  0.3265282E-009  0.1048704E+03  0.7561462E-02  0.1270375E+00
          2   -1    0    0  501    0  0.00000000000E+00  0.00000000000E+00  0.23800070828E+03  0.23800070828E+03  0.00000000000E+00 0.  1.
         -2   -1    0    0    0  501 -0.00000000000E+00 -0.00000000000E+00 -0.56153345773E+02  0.56153345773E+02  0.00000000000E+00 0. -1.
         25    2    1    2    0    0  0.22758363267E+02  0.15629952518E+02  0.66280469803E+02  0.14423397471E+03  0.12509236695E+03 0.  0.
          5    1    3    3  502    0  0.13919748838E+02 -0.54271725912E+02  0.39779085548E+02  0.68840596222E+02  0.41800000000E+01 0.  1.
         -5    1    3    3    0  502  0.88386144297E+01  0.69901678430E+02  0.26501384255E+02  0.75393378488E+02  0.41800000000E+01 0.  1.
        -11    1    1    2    0    0 -0.35896506613E+02 -0.40945569574E+02  0.10713334043E+03  0.12017758312E+03  0.00000000000E+00 0.  1.
         11    1    1    2    0    0  0.13138143346E+02  0.25315617056E+02  0.84335522817E+01  0.29742496223E+02  0.00000000000E+00 0. -1.
</event>
<event>
 7    1  0.3265282E-009  0.1423130E+03  0.7561462E-02  0.1210250E+00
          2   -1    0    0  501    0  0.00000000000E+00  0.00000000000E+00  0.70526300914E+03  0.70526300914E+03  0.00000000000E+00 0. -1.
         -2   -1    0    0    0  501 -0.00000000000E+00 -0.00000000000E+00 -0.32909117884E+02  0.32909117884E+02  0.00000000000E+00 0.  1.
         25    2    1    2    0    0  0.77608346092E+01  0.10524711342E+03  0.35801670996E+03  0.39364916851E+03  0.12508604167E+03 0.  0.
          5    1    3    3  502    0  0.51788951164E+02  0.87553909166E+02  0.30882583171E+03  0.32517479793E+03  0.41800000000E+01 0.  1.
         -5    1    3    3    0  502 -0.44028116555E+02  0.17693204253E+02  0.49190878243E+02  0.68474370581E+02  0.41800000000E+01 0.  1.
        -11    1    1    2    0    0 -0.17050964623E+02  0.98628280933E+01  0.90857426857E+02  0.92968181587E+02  0.00000000000E+00 0. -1.
         11    1    1    2    0    0  0.92901300134E+01 -0.11510994151E+03  0.22347975444E+03  0.25155477693E+03  0.00000000000E+00 0.  1.
</event>
<event>
 7    1  0.3265282E-009  0.1405269E+03  0.7561462E-02  0.1212622E+00
         -1   -1    0    0    0  501 -0.00000000000E+00  0.00000000000E+00  0.32254984034E+02  0.32254984034E+02  0.00000000000E+00 0.  1.
          1   -1    0    0  501    0  0.00000000000E+00 -0.00000000000E+00 -0.63652033151E+03  0.63652033151E+03  0.00000000000E+00 0. -1.
         25    2    1    2    0    0 -0.88119640375E+02  0.33998253838E+02 -0.34767052866E+03  0.38137159091E+03  0.12509413084E+03 0.  0.
          5    1    3    3  502    0 -0.96534086708E+02  0.67125817855E+02 -0.22427526495E+03  0.25326186485E+03  0.41800000000E+01 0. -1.
         -5    1    3    3    0  502  0.84144463326E+01 -0.33127564017E+02 -0.12339526372E+03  0.12810972607E+03  0.41800000000E+01 0. -1.
        -11    1    1    2    0    0  0.10188085549E+03 -0.11411085899E+02 -0.19325259445E+03  0.21876125539E+03  0.00000000000E+00 0.  1.
         11    1    1    2    0    0 -0.13761215112E+02 -0.22587167939E+02 -0.63342224356E+02  0.68642469239E+02  0.00000000000E+00 0. -1.
</event>
<event>
 7    1  0.3265282E-009  0.1122287E+03  0.7561462E-02  0.1256497E+00
         -1   -1    0    0    0  501 -0.00000000000E+00  0.00000000000E+00  0.27741578034E+03  0.27741578034E+03  0.00000000000E+00 0.  1.
          1   -1    0    0  501    0  0.00000000000E+00 -0.00000000000E+00 -0.51346259226E+02  0.51346259226E+02  0.00000000000E+00 0. -1.
         25    2    1    2    0    0  0.48947212431E+02 -0.10748350588E+00  0.14542325561E+03  0.19796909534E+03  0.12509195929E+03 0.  0.
          5    1    3    3  502    0  0.89458350858E+02 -0.38420002728E+01  0.76589062753E+02  0.11790213924E+03  0.41800000000E+01 0.  1.
         -5    1    3    3    0  502 -0.40511138427E+02  0.37345167669E+01  0.68834192856E+02  0.80066956094E+02  0.41800000000E+01 0.  1.
        -11    1    1    2    0    0 -0.41771854349E+02  0.37325545947E+02  0.20404682251E+02  0.59619084644E+02  0.00000000000E+00 0. -1.
         11    1    1    2    0    0 -0.71753580824E+01 -0.37218062441E+02  0.60241583258E+02  0.71173859590E+02  0.00000000000E+00 0.  1.
</event>
<event>
 7    1  0.3265282E-009  0.1194092E+03  0.7561462E-02  0.1244075E+00
          3   -1    0    0  501    0  0.00000000000E+00  0.00000000000E+00  0.22388089375E+03  0.22388089375E+03  0.00000000000E+00 0. -1.
         -3   -1    0    0    0  501 -0.00000000000E+00 -0.00000000000E+00 -0.10541607696E+03  0.10541607696E+03  0.00000000000E+00 0.  1.
         25    2    1    2    0    0 -0.77484371716E+02  0.35490369946E+02  0.13599008133E+03  0.20347884823E+03  0.12508775015E+03 0.  0.
          5    1    3    3  502    0 -0.73049207793E+02  0.57007773110E+02  0.15052353030E+03  0.17680746174E+03  0.41800000000E+01 0. -1.
         -5    1    3    3    0  502 -0.44351639227E+01 -0.21517403164E+02 -0.14533448973E+02  0.26671386484E+02  0.41800000000E+01 0. -1.
        -11    1    1    2    0    0  0.13207444673E+02 -0.54970898385E+02 -0.15508354067E+02  0.58623760626E+02  0.00000000000E+00 0. -1.
         11    1    1    2    0    0  0.64276927043E+02  0.19480528438E+02 -0.20169104699E+01  0.67194361863E+02  0.00000000000E+00 0.  1.
</event>
<event>
 7    1  0.3265282E-009  0.1718664E+03  0.7561462E-02  0.1175915E+00
          1   -1    0    0  501    0  0.00000000000E+00  0.00000000000E+00  0.14746033773E+04  0.14746033773E+04  0.00000000000E+00 0. -1.
         -1   -1    0    0    0  501 -0.00000000000E+00 -0.00000000000E+00 -0.24411941674E+02  0.24411941674E+02  0.00000000000E+00 0.  1.
         25    2    1    2    0    0 -0.12983893400E+03  0.54750346515E+02  0.51773371020E+03  0.55095461513E+03  0.12508814500E+03 0.  0.
          5    1    3    3  502    0 -0.93213869273E+02  0.84506881249E+02  0.45646879846E+03  0.47350974094E+03  0.41800000000E+01 0.  1.
         -5    1    3    3    0  502 -0.36625064730E+02 -0.29756534734E+02  0.61264911750E+02  0.77444874185E+02  0.41800000000E+01 0.  1.
        -11    1    1    2    0    0  0.53345566920E+01  0.23048693835E+02  0.10037302074E+03  0.10312343611E+03  0.00000000000E+00 0.  1.
         11    1    1    2    0    0  0.12450437731E+03 -0.77799040350E+02  0.83208470473E+03  0.84493726779E+03  0.00000000000E+00 0. -1.
</event>
<event>
 7    1  0.3265282E-009  0.9889965E+02  0.7561462E-02  0.1282627E+00
         -1   -1    0    0    0  501 -0.00000000000E+00  0.00000000000E+00  0.12064811408E+03  0.12064811408E+03  0.00000000000E+00 0.  1.
          1   -1    0    0  501    0  0.00000000000E+00 -0.00000000000E+00 -0.21702480873E+03  0.21702480873E+03  0.00000000000E+00 0. -1.
         25    2    1    2    0    0  0.37118449179E+02  0.89023054554E+02 -0.12450246309E+03  0.20112610334E+03  0.12509181674E+03 0.  0.
          5    1    3    3  502    0  0.29206532025E+02  0.48971910200E+02 -0.14455485695E+03  0.15545046982E+03  0.41800000000E+01 0.  1.
         -5    1    3    3    0  502  0.79119171538E+01  0.40051144355E+02  0.20052393858E+02  0.45675633511E+02  0.41800000000E+01 0.  1.
        -11    1    1    2    0    0 -0.15356286848E+02 -0.11826648229E+02  0.49821502469E+02  0.53459024143E+02  0.00000000000E+00 0.  1.
         11    1    1    2    0    0 -0.21762162331E+02 -0.77196406325E+02 -0.21695734022E+02  0.83087795335E+02  0.00000000000E+00 0. -1.
</event>
<event>
 7    1  0.3265282E-009  0.9655115E+02  0.7561462E-02  0.1287720E+00
          2   -1    0    0  501    0  0.00000000000E+00  0.00000000000E+00  0.89526738233E+03  0.89526738233E+03  0.00000000000E+00 0. -1.
         -2   -1    0    0    0  501 -0.00000000000E+00 -0.00000000000E+00 -0.19828214417E+02  0.19828214417E+02  0.00000000000E+00 0.  1.
         25    2    1    2    0    0  0.74771014162E+02 -0.18805888728E+02  0.48274529526E+03  0.50461371428E+03  0.12509042545E+03 0.  0.
          5    1    3    3  502    0  0.58553352353E+02 -0.20532900111E+01  0.47651261287E+03  0.48011920779E+03  0.41800000000E+01 0. -1.
         -5    1    3    3    0  502  0.16217661808E+02 -0.16752598717E+02  0.62326823901E+01  0.24494506487E+02  0.41800000000E+01 0. -1.
        -11    1    1    2    0    0  0.16155264210E+00  0.34181584311E+02  0.20448287941E+03  0.20732017456E+03  0.00000000000E+00 0. -1.
         11    1    1    2    0    0 -0.74932566804E+02 -0.15375695583E+02  0.18821099325E+03  0.20316170791E+03  0.00000000000E+00 0.  1.
</event>
<event>
 7    1  0.3265282E-009  0.9745858E+02  0.7561462E-02  0.1285733E+00
         -2   -1    0    0    0  501 -0.00000000000E+00  0.00000000000E+00  0.14265685803E+03  0.14265685803E+03  0.00000000000E+00 0.  1.
          2   -1    0    0  501    0  0.00000000000E+00 -0.00000000000E+00 -0.10894541008E+03  0.10894541008E+03  0.00000000000E+00 0. -1.
         25    2    1    2    0    0 -0.56943317961E+02  0.18260170582E+02  0.37064961939E+02  0.14351907240E+03  0.12509171615E+03 0.  0.
          5    1    3    3  502    0  0.25031018587E+02  0.42262528615E+02 -0.23548838959E+01  0.49352721248E+02  0.41800000000E+01 0. -1.
         -5    1    3    3    0  502 -0.81974336548E+02 -0.24002358032E+02  0.39419845834E+02  0.94166351152E+02  0.41800000000E+01 0. -1.
        -11    1    1    2    0    0  0.27826846232E+02 -0.12087588867E+02  0.43223656325E+02  0.52808405031E+02  0.00000000000E+00 0.  1.
         11    1    1    2    0    0  0.29116471729E+02 -0.61725817151E+01 -0.46577170308E+02  0.55274790681E+02  0.00000000000E+00 0. -1.
</event>
<event>
 7    1  0.3265282E-009  0.2219580E+03  0.7561462E-02  0.1132432E+00
         -1   -1    0    0    0  501 -0.00000000000E+00  0.00000000000E+00  0.78126495255E+02  0.78126495255E+02  0.00000000000E+00 0.  1.
          1   -1    0    0  501    0  0.00000000000E+00 -0.00000000000E+00 -0.71712302076E+03  0.71712302076E+03  0.00000000000E+00 0. -1.
         25    2    1    2    0    0 -0.19737307463E+03  0.24079521563E+02 -0.44360903092E+03  0.50196864100E+03  0.12509032850E+03 0.  0.
          5    1    3    3  502    0 -0.15307809488E+03  0.63624961205E+02 -0.25489273435E+03  0.30408685806E+03  0.41800000000E+01 0. -1.
         -5    1    3    3    0  502 -0.44294979751E+02 -0.39545439642E+02 -0.18871629657E+03  0.19788178294E+03  0.41800000000E+01 0. -1.
        -11    1    1    2    0    0  0.50100903308E+02 -0.47973331102E+02 -0.56930268995E+02  0.89736260994E+02  0.00000000000E+00 0.  1.
         11    1    1    2    0    0  0.14727217132E+03  0.23893809539E+02 -0.13845722559E+03  0.20354461402E+03  0.00000000000E+00 0. -1.
</event>
<event>
 7    1  0.3265282E-009  0.1507657E+03  0.7561462E-02  0.1199535E+00
         -2   -1    0    0    0  501 -0.00000000000E+00  0.00000000000E+00  0.61012367922E+02  0.61012367922E+02  0.00000000000E+00 0.  1.
          2   -1    0    0  501    0  0.00000000000E+00 -0.00000000000E+00 -0.41376827766E+03  0.41376827766E+03  0.00000000000E+00 0. -1.
         25    2    1    2    0    0 -0.60294611398E+02 -0.90648324204E+02 -0.13064724000E+03  0.21111286393E+03  0.12508949257E+03 0.  0.
          5    1    3    3  502    0 -0.56514779351E+02  0.15290179848E+02 -0.58122082786E+02  0.82603624571E+02  0.41800000000E+01 0.  1.
         -5    1    3    3    0  502 -0.37798320464E+01 -0.10593850405E+03 -0.72525157219E+02  0.12850923936E+03  0.41800000000E+01 0.  1.
        -11    1    1    2    0    0  0.12334652487E+02  0.87843789025E+02 -0.10734200241E+03  0.13925150055E+03  0.00000000000E+00 0.  1.
         11    1    1    2    0    0  0.47959958911E+02  0.28045351786E+01 -0.11476666732E+03  0.12441628111E+03  0.00000000000E+00 0. -1.
</event>
<event>
 7    1  0.3265282E-009  0.8353675E+02  0.7561462E-02  0.1319304E+00
         -2   -1    0    0    0  501 -0.00000000000E+00  0.00000000000E+00  0.34378713693E+02  0.34378713693E+02  0.00000000000E+00 0.  1.
          2   -1    0    0  501    0  0.00000000000E+00 -0.00000000000E+00 -0.65851084700E+03  0.65851084700E+03  0.00000000000E+00 0. -1.
         25    2    1    2    0    0 -0.52000125747E+01 -0.45832208596E+02 -0.55555485421E+03  0.57132912006E+03  0.12509250942E+03 0.  0.
          5    1    3    3  502    0 -0.55981378381E+02 -0.81119967458E+01 -0.14142974116E+03  0.15237966826E+03  0.41800000000E+01 0.  1.
         -5    1    3    3    0  502  0.50781365806E+02 -0.37720211850E+02 -0.41412511305E+03  0.41894945179E+03  0.41800000000E+01 0.  1.
        -11    1    1    2    0    0 -0.18114587496E+01  0.23039100902E+02  0.19545944809E+02  0.30267565341E+02  0.00000000000E+00 0.  1.
         11    1    1    2    0    0  0.70114713243E+01  0.22793107693E+02 -0.88123223904E+02  0.91292875295E+02  0.00000000000E+00 0. -1.
</event>
<event>
 7    1  0.3265282E-009  0.9653906E+02  0.7561462E-02  0.1287747E+00
         -2   -1    0    0    0  501 -0.00000000000E+00  0.00000000000E+00  0.29931070205E+02  0.29931070205E+02  0.00000000000E+00 0.  1.
          2   -1    0    0  501    0  0.00000000000E+00 -0.00000000000E+00 -0.71055984078E+03  0.71055984078E+03  0.00000000000E+00 0. -1.
         25    2    1    2    0    0 -0.29050962109E+02 -0.46446005301E+02 -0.56952074962E+03  0.58566464866E+03  0.12509199272E+03 0.  0.
          5    1    3    3  502    0 -0.18057810216E+02  0.22242098993E+02 -0.41670030248E+03  0.41770493170E+03  0.41800000000E+01 0.  1.
         -5    1    3    3    0  502 -0.10993151893E+02 -0.68688104294E+02 -0.15282044714E+03  0.16795971697E+03  0.41800000000E+01 0.  1.
        -11    1    1    2    0    0  0.36870418719E+02  0.64762075013E+02 -0.47981672597E+02  0.88632923012E+02  0.00000000000E+00 0.  1.
         11    1    1    2    0    0 -0.78194566101E+01 -0.18316069713E+02 -0.63126348362E+02  0.66193339310E+02  0.00000000000E+00 0. -1.
</event>
<event>
 7    1  0.3611589E-009  0.2518499E+03  0.7561462E-02  0.1112141E+00
          1   -1    0    0  501    0  0.00000000000E+00  0.00000000000E+00  0.32116496193E+03  0.32116496193E+03  0.00000000000E+00 0. -1.
         -1   -1    0    0    0  501 -0.00000000000E+00 -0.00000000000E+00 -0.20284608577E+03  0.20284608577E+03  0.00000000000E+00 0.  1.
         25    2    1    2    0    0  0.24602726500E+02  0.22882946581E+03  0.76014043516E+02  0.27275086530E+03  0.12508669447E+03 0.  0.
          5    1    3    3  502    0  0.72728237772E+02  0.10009823809E+03  0.26453491749E+02  0.12659507677E+03  0.41800000000E+01 0. -1.
         -5    1    3    3    0  502 -0.48125511272E+02  0.12873122773E+03  0.49560551767E+02  0.14615578852E+03  0.41800000000E+01 0. -1.
        -11    1    1    2    0    0 -0.50842664418E+02 -0.11759301088E+03  0.48046075144E+02  0.13682659855E+03  0.00000000000E+00 0.  1.
         11    1    1    2    0    0  0.26239937918E+02 -0.11123645493E+03 -0.57412425014E+01  0.11443358385E+03  0.00000000000E+00 0. -1.
</event>
<event>
 7    1  0.3265282E-009  0.1256262E+03  0.7561462E-02  0.1234094E+00
          2   -1    0    0  501    0  0.00000000000E+00  0.00000000000E+00  0.56539089266E+03  0.56539089266E+03  0.00000000000E+00 0. -1.
         -2   -1    0    0    0  501 -0.00000000000E+00 -0.00000000000E+00 -0.29293147388E+02  0.29293147388E+02  0.00000000000E+00 0.  1.
         25    2    1    2    0    0 -0.48118117503E+02  0.40130204185E+02  0.35312247450E+03  0.37982706086E+03  0.12508927871E+03 0.  0.
          5    1    3    3  502    0  0.35127503483E+02 -0.15388308168E+02  0.12160193963E+03  0.12757447100E+03  0.41800000000E+01 0. -1.
         -5    1    3    3    0  502 -0.83245620987E+02  0.55518512353E+02  0.23152053486E+03  0.25225258986E+03  0.41800000000E+01 0. -1.
        -11    1    1    2    0    0  0.32661354104E+02  0.27781435955E+02  0.74030351674E+02  0.85551535372E+02  0.00000000000E+00 0.  1.
         11    1    1    2    0    0  0.15456763399E+02 -0.67911640140E+02  0.10894491910E+03  0.12930544381E+03  0.00000000000E+00 0. -1.
</event>
<event>
 7    1  0.3265282E-009  0.3112439E+03  0.7561462E-02  0.1079751E+00
         -3   -1    0    0    0  501 -0.00000000000E+00  0.00000000000E+00  0.64430701730E+03  0.64430701730E+03  0.00000000000E+00 0.  1.
          3   -1    0    0  501    0  0.00000000000E+00 -0.00000000000E+00 -0.18515931421E+03  0.18515931421E+03  0.00000000000E+00 0. -1.
         25    2    1    2    0    0 -0.81915933613E+02  0.28072301928E+03  0.40858749344E+03  0.51779069913E+03  0.12509130497E+03 0.  0.
          5    1    3    3  502    0 -0.21313075969E+02  0.24685058074E+03  0.30425852514E+03  0.39240308223E+03  0.41800000000E+01 0.  1.
         -5    1    3    3    0  502 -0.60602857644E+02  0.33872438542E+02  0.10432896830E+03  0.12538761691E+03  0.41800000000E+01 0.  1.
        -11    1    1    2    0    0  0.65979414452E+01 -0.17606736352E+03  0.48397488692E+02  0.18271717555E+03  0.00000000000E+00 0.  1.
         11    1    1    2    0    0  0.75317992168E+02 -0.10465565576E+03  0.21627209585E+01  0.12895845683E+03  0.00000000000E+00 0. -1.
</event>
<event>
 7    1  0.3265282E-009  0.1365429E+03  0.7561462E-02  0.1218058E+00
          1   -1    0    0  501    0  0.00000000000E+00  0.00000000000E+00  0.11684182713E+03  0.11684182713E+03  0.00000000000E+00 0. -1.
         -1   -1    0    0    0  501 -0.00000000000E+00 -0.00000000000E+00 -0.18928035268E+03  0.18928035268E+03  0.00000000000E+00 0.  1.
         25    2    1    2    0    0 -0.83889539435E+01 -0.96214036793E+02 -0.92931077814E+01  0.15830768950E+03  0.12508975689E+03 0.  0.
          5    1    3    3  502    0 -0.54501962527E+02 -0.88832386712E+02 -0.27729945850E+02  0.10792626717E+03  0.41800000000E+01 0. -1.
         -5    1    3    3    0  502  0.46113008583E+02 -0.73816500811E+01  0.18436838069E+02  0.50381422335E+02  0.41800000000E+01 0. -1.
        -11    1    1    2    0    0 -0.27036509010E+02  0.76971488063E+02 -0.11640394817E+02  0.82408018939E+02  0.00000000000E+00 0. -1.
         11    1    1    2    0    0  0.35425462954E+02  0.19242548730E+02 -0.51505022952E+02  0.65406471365E+02  0.00000000000E+00 0.  1.
</event>
<event>
 7    1  0.3265282E-009  0.1381986E+03  0.7561462E-02  0.1215774E+00
         -4   -1    0    0    0  501 -0.00000000000E+00  0.00000000000E+00  0.62533733108E+02  0.62533733108E+02  0.00000000000E+00 0.  1.
          4   -1    0    0  501    0  0.00000000000E+00 -0.00000000000E+00 -0.45149806825E+03  0.45149806825E+03  0.00000000000E+00 0. -1.
         25    2    1    2    0    0 -0.82713189470E+02  0.75491253682E+02 -0.11210167098E+03  0.20187772415E+03  0.12508968693E+03 0.  0.
          5    1    3    3  502    0  0.78992222722E+01 -0.12229125536E+02 -0.65711287293E+02  0.67434374777E+02  0.41800000000E+01 0. -1.
         -5    1    3    3    0  502 -0.90612411742E+02  0.87720379218E+02 -0.46390383684E+02  0.13444334937E+03  0.41800000000E+01 0. -1.
        -11    1    1    2    0    0  0.33186378917E+02 -0.78723051931E+02 -0.11773191298E+03  0.14546290931E+03  0.00000000000E+00 0.  1.
         11    1    1    2    0    0  0.49526810552E+02  0.32317982487E+01 -0.15913075118E+03  0.16669116790E+03  0.00000000000E+00 0. -1.
</event>
<event>
 7    1  0.3265282E-009  0.9968851E+02  0.7561462E-02  0.1280952E+00
         -2   -1    0    0    0  501 -0.00000000000E+00  0.00000000000E+00  0.16603652068E+03  0.16603652068E+03  0.00000000000E+00 0.  1.
          2   -1    0    0  501    0  0.00000000000E+00 -0.00000000000E+00 -0.17883036864E+03  0.17883036864E+03  0.00000000000E+00 0. -1.
         25    2    1    2    0    0 -0.20105726433E+02  0.74152053923E+02  0.10149722376E+03  0.17847053367E+03  0.12508907874E+03 0.  0.
          5    1    3    3  502    0  0.14004171944E+02  0.96573236672E+01  0.10388606320E+03  0.10535258545E+03  0.41800000000E+01 0. -1.
         -5    1    3    3    0  502 -0.34109898377E+02  0.64494730256E+02 -0.23888394484E+01  0.73117948220E+02  0.41800000000E+01 0. -1.
        -11    1    1    2    0    0 -0.11212709224E+02 -0.76553699468E+02 -0.43056519676E+02  0.88544099956E+02  0.00000000000E+00 0.  1.
         11    1    1    2    0    0  0.31318435657E+02  0.24016455453E+01 -0.71234552040E+02  0.77852255700E+02  0.00000000000E+00 0. -1.
</event>
<event>
 7    1  0.3265282E-009  0.1595427E+03  0.7561462E-02  0.1189214E+00
          2   -1    0    0  501    0  0.00000000000E+00  0.00000000000E+00  0.19122279436E+03  0.19122279436E+03  0.00000000000E+00 0. -1.
         -2   -1    0    0    0  501 -0.00000000000E+00 -0.00000000000E+00 -0.14631544079E+03  0.14631544079E+03  0.00000000000E+00 0.  1.
         25    2    1    2    0    0 -0.50315671143E+01  0.12639415633E+03  0.12557361596E+02  0.17834371290E+03  0.12509193891E+03 0.  0.
          5    1    3    3  502    0  0.45564453662E+02  0.89369661761E+02  0.42148011301E+02  0.10888977517E+03  0.41800000000E+01 0.  1.
         -5    1    3    3    0  502 -0.50596020777E+02  0.37024494564E+02 -0.29590649705E+02  0.69453937729E+02  0.41800000000E+01 0.  1.
        -11    1    1    2    0    0 -0.35980205832E+02 -0.10193086751E+03  0.23735745416E+02  0.11067006178E+03  0.00000000000E+00 0.  1.
         11    1    1    2    0    0  0.41011772946E+02 -0.24463288812E+02  0.86142465649E+01  0.48524460467E+02  0.00000000000E+00 0. -1.
</event>
<event>
 7    1  0.3265282E-009  0.1041559E+03  0.7561462E-02  0.1271792E+00
         -1   -1    0    0    0  501 -0.00000000000E+00  0.00000000000E+00  0.24336574380E+02  0.24336574380E+02  0.00000000000E+00 0.  1.
          1   -1    0    0  501    0  0.00000000000E+00 -0.00000000000E+00 -0.61738631158E+03  0.61738631158E+03  0.00000000000E+00 0. -1.
         25    2    1    2    0    0 -0.14963062552E+02  0.55699590571E+02 -0.32243592709E+03  0.35062705206E+03  0.12509222569E+03 0.  0.
          5    1    3    3  502    0 -0.49829077340E+02  0.19570649781E+02 -0.27895517025E+03  0.28407640995E+03  0.41800000000E+01 0.  1.
         -5    1    3    3    0  502  0.34866014788E+02  0.36128940789E+02 -0.43480756841E+02  0.66550642110E+02  0.41800000000E+01 0.  1.
        -11    1    1    2    0    0 -0.14250885881E+02  0.19157024807E+02 -0.36872144299E+02  0.43927603771E+02  0.00000000000E+00 0.  1.
         11    1    1    2    0    0  0.29213948433E+02 -0.74856615378E+02 -0.23374166581E+03  0.24716823013E+03  0.00000000000E+00 0. -1.
</event>
<event>
 7    1  0.3265282E-009  0.9593578E+02  0.7561462E-02  0.1289082E+00
          2   -1    0    0  501    0  0.00000000000E+00  0.00000000000E+00  0.17104522820E+03  0.17104522820E+03  0.00000000000E+00 0.  1.
         -2   -1    0    0    0  501 -0.00000000000E+00 -0.00000000000E+00 -0.99144491112E+02  0.99144491112E+02  0.00000000000E+00 0. -1.
         25    2    1    2    0    0  0.21502321095E+02  0.42791306953E+02 -0.19095119377E+02  0.13529706757E+03  0.12508887698E+03 0.  0.
          5    1    3    3  502    0 -0.42703822490E+02 -0.15266186362E+02  0.36787966692E+01  0.45691124370E+02  0.41800000000E+01 0. -1.
         -5    1    3    3    0  502  0.64206143585E+02  0.58057493315E+02 -0.22773916047E+02  0.89605943197E+02  0.41800000000E+01 0. -1.
        -11    1    1    2    0    0 -0.22617802279E+02 -0.67456561528E+01  0.95660620602E+02  0.98529301179E+02  0.00000000000E+00 0.  1.
         11    1    1    2    0    0  0.11154811838E+01 -0.36045650800E+02 -0.46647641366E+01  0.36363350565E+02  0.00000000000E+00 0. -1.
</event>
<event>
 7    1  0.3265282E-009  0.6764363E+02  0.7561462E-02  0.1368294E+00
         -2   -1    0    0    0  501 -0.00000000000E+00  0.00000000000E+00  0.88821992090E+02  0.88821992090E+02  0.00000000000E+00 0.  1.
          2   -1    0    0  501    0  0.00000000000E+00 -0.00000000000E+00 -0.15379350578E+03  0.15379350578E+03  0.00000000000E+00 0. -1.
         25    2    1    2    0    0 -0.40078931757E+02  0.11281873149E+02 -0.35079706039E+02  0.13641103504E+03  0.12507511052E+03 0.  0.
          5    1    3    3  502    0 -0.51315630341E+02 -0.22792003054E+02  0.28636049702E+02  0.63168544886E+02  0.41800000000E+01 0. -1.
         -5    1    3    3    0  502  0.11236698583E+02  0.34073876203E+02 -0.63715755741E+02  0.73242490155E+02  0.41800000000E+01 0. -1.
        -11    1    1    2    0    0  0.23214368788E+02 -0.11689461555E+02 -0.63492666554E+02  0.68606626034E+02  0.00000000000E+00 0. -1.
         11    1    1    2    0    0  0.16864562969E+02  0.40758840605E+00  0.33600858904E+02  0.37597836793E+02  0.00000000000E+00 0.  1.
</event>
<event>
 7    1  0.3265282E-009  0.1330172E+03  0.7561462E-02  0.1223046E+00
          1   -1    0    0  501    0  0.00000000000E+00  0.00000000000E+00  0.22174855882E+03  0.22174855882E+03  0.00000000000E+00 0. -1.
         -1   -1    0    0    0  501 -0.00000000000E+00 -0.00000000000E+00 -0.14394927813E+03  0.14394927813E+03  0.00000000000E+00 0.  1.
         25    2    1    2    0    0 -0.71389156737E+02  0.43660751659E+02  0.15926415325E+03  0.21912263319E+03  0.12508790881E+03 0.  0.
          5    1    3    3  502    0 -0.85003098764E+02 -0.16699780666E+02  0.10899522756E+03  0.13929049323E+03  0.41800000000E+01 0. -1.
         -5    1    3    3    0  502  0.13613942027E+02  0.60360532325E+02  0.50268925687E+02  0.79832139955E+02  0.41800000000E+01 0. -1.
        -11    1    1    2    0    0  0.64395073728E+02  0.82381340043E+01 -0.64534305003E+02  0.91538346579E+02  0.00000000000E+00 0.  1.
         11    1    1    2    0    0  0.69940830089E+01 -0.51898885663E+02 -0.16930567562E+02  0.55036857179E+02  0.00000000000E+00 0. -1.
</event>
<event>
 7    1  0.3265282E-009  0.2596250E+03  0.7561462E-02  0.1107369E+00
          2   -1    0    0  501    0  0.00000000000E+00  0.00000000000E+00  0.92107652016E+03  0.92107652016E+03  0.00000000000E+00 0. -1.
         -2   -1    0    0    0  501 -0.00000000000E+00 -0.00000000000E+00 -0.91931623838E+02  0.91931623838E+02  0.00000000000E+00 0.  1.
         25    2    1    2    0    0 -0.25105086318E+03 -0.17846098079E+02  0.59393228193E+03  0.65707518108E+03  0.12508884427E+03 0.  0.
          5    1    3    3  502    0 -0.52495089163E+02  0.16368947854E+01  0.34146368666E+02  0.62784239295E+02  0.41800000000E+01 0.  1.
         -5    1    3    3    0  502 -0.19855577402E+03 -0.19482992865E+02  0.55978591326E+03  0.59429094179E+03  0.41800000000E+01 0.  1.
        -11    1    1    2    0    0  0.21041887058E+03 -0.20148859890E+02  0.19063225650E+03  0.28464492771E+03  0.00000000000E+00 0.  1.
         11    1    1    2    0    0  0.40631992600E+02  0.37994957969E+02  0.44580357891E+02  0.71288035205E+02  0.00000000000E+00 0. -1.
</event>
<event>
 7    1  0.3265282E-009  0.3221785E+03  0.7561462E-02  0.1074651E+00
          1   -1    0    0  501    0  0.00000000000E+00  0.00000000000E+00  0.24814762598E+03  0.24814762598E+03  0.00000000000E+00 0. -1.
         -1   -1    0    0    0  501 -0.00000000000E+00 -0.00000000000E+00 -0.43076082460E+03  0.43076082460E+03  0.00000000000E+00 0.  1.
         25    2    1    2    0    0  0.30119827038E+03 -0.62511810989E+02 -0.10706607919E+03  0.34890981747E+03  0.12508713293E+03 0.  0.
          5    1    3    3  502    0  0.24758121308E+02  0.31152169383E+02 -0.16459287169E+02  0.43264335914E+02  0.41800000000E+01 0.  1.
         -5    1    3    3    0  502  0.27644014907E+03 -0.93663980372E+02 -0.90606792019E+02  0.30564548156E+03  0.41800000000E+01 0.  1.
        -11    1    1    2    0    0 -0.18331629270E+03  0.10569537471E+02 -0.81825639382E+02  0.20102739503E+03  0.00000000000E+00 0.  1.
         11    1    1    2    0    0 -0.11788197768E+03  0.51942273518E+02  0.62785199555E+01  0.12897123808E+03  0.00000000000E+00 0. -1.
</event>
<event>
 7    1  0.3265282E-009  0.1047111E+03  0.7561462E-02  0.1270690E+00
          2   -1    0    0  501    0  0.00000000000E+00  0.00000000000E+00  0.98406789122E+02  0.98406789122E+02  0.00000000000E+00 0. -1.
         -2   -1    0    0    0  501 -0.00000000000E+00 -0.00000000000E+00 -0.15521278091E+03  0.15521278091E+03  0.00000000000E+00 0.  1.
         25    2    1    2    0    0  0.22441658403E+02  0.49651952262E+02 -0.58606705274E+02  0.14849063966E+03  0.12508309145E+03 0.  0.
          5    1    3    3  502    0  0.56797873699E+02  0.42839420120E+02  0.93981588813E+01  0.71881932106E+02  0.41800000000E+01 0.  1.
         -5    1    3    3    0  502 -0.34356215296E+02  0.68125321424E+01 -0.68004864156E+02  0.76608707550E+02  0.41800000000E+01 0.  1.
        -11    1    1    2    0    0 -0.52414002787E+02 -0.10298494051E+02  0.11695397687E+02  0.54681523341E+02  0.00000000000E+00 0.  1.
         11    1    1    2    0    0  0.29972344384E+02 -0.39353458211E+02 -0.98946841984E+01  0.50447407034E+02  0.00000000000E+00 0. -1.
</event>
<event>
 7    1  0.6794543E-009  0.1450906E+03  0.7561462E-02  0.1206639E+00
         -3   -1    0    0    0  501 -0.00000000000E+00  0.00000000000E+00  0.17734789551E+03  0.17734789551E+03  0.00000000000E+00 0.  1.
          3   -1    0    0  501    0  0.00000000000E+00 -0.00000000000E+00 -0.14807305004E+03  0.14807305004E+03  0.00000000000E+00 0. -1.
         25    2    1    2    0    0 -0.99483465828E+02 -0.56871429243E+02 -0.19650623434E+02  0.17077890280E+03  0.12509183507E+03 0.  0.
          5    1    3    3  502    0 -0.12194953688E+03 -0.17163683087E+02 -0.78630625588E+01  0.12347299994E+03  0.41800000000E+01 0.  1.
         -5    1    3    3    0  502  0.22466071051E+02 -0.39707746156E+02 -0.11787560875E+02  0.47305902852E+02  0.41800000000E+01 0.  1.
        -11    1    1    2    0    0  0.23002464651E+02  0.34489175292E+02  0.61296003018E+02  0.73998760654E+02  0.00000000000E+00 0.  1.
         11    1    1    2    0    0  0.76481001176E+02  0.22382253951E+02 -0.12370534111E+02  0.80643282095E+02  0.00000000000E+00 0. -1.
</event>
<event>
 7    1  0.3265282E-009  0.9940735E+02  0.7561462E-02  0.1281547E+00
          1   -1    0    0  501    0  0.00000000000E+00  0.00000000000E+00  0.36211032517E+03  0.36211032517E+03  0.00000000000E+00 0. -1.
         -1   -1    0    0    0  501 -0.00000000000E+00 -0.00000000000E+00 -0.42318383073E+02  0.42318383073E+02  0.00000000000E+00 0.  1.
         25    2    1    2    0    0  0.36553945797E+02  0.23706957157E+02  0.18834797325E+03  0.23025818923E+03  0.12508262832E+03 0.  0.
          5    1    3    3  502    0  0.35731793564E+02 -0.47024907209E+02  0.10770530345E+03  0.12290650007E+03  0.41800000000E+01 0.  1.
         -5    1    3    3    0  502  0.82215223252E+00  0.70731864366E+02  0.80642669809E+02  0.10735168916E+03  0.41800000000E+01 0.  1.
        -11    1    1    2    0    0  0.79097125782E+01 -0.22951999202E+02 -0.97331062037E+01  0.26155136719E+02  0.00000000000E+00 0.  1.
         11    1    1    2    0    0 -0.44463658375E+02 -0.75495795572E+00  0.14117707505E+03  0.14801538230E+03  0.00000000000E+00 0. -1.
</event>
<event>
 7    1  0.3265282E-009  0.2187607E+03  0.7561462E-02  0.1134810E+00
          2   -1    0    0  501    0  0.00000000000E+00  0.00000000000E+00  0.20031117399E+04  0.20031117399E+04  0.00000000000E+00 0. -1.
         -2   -1    0    0    0  501 -0.00000000000E+00 -0.00000000000E+00 -0.48531025528E+02  0.48531025528E+02  0.00000000000E+00 0.  1.
         25    2    1    2    0    0 -0.12620329597E+03 -0.15529733202E+03  0.16969729057E+04  0.17133032802E+04  0.12508618639E+03 0.  0.
          5    1    3    3  502    0 -0.11393910935E+02 -0.81540913506E+02  0.97904941775E+03  0.98251411011E+03  0.41800000000E+01 0. -1.
         -5    1    3    3    0  502 -0.11480938504E+03 -0.73756418511E+02  0.71792348796E+03  0.73078917009E+03  0.41800000000E+01 0. -1.
        -11    1    1    2    0    0  0.60466472341E+02  0.13053374535E+02  0.60414342044E+02  0.86466627023E+02  0.00000000000E+00 0.  1.
         11    1    1    2    0    0  0.65736823630E+02  0.14224395748E+03  0.19719346665E+03  0.25187285822E+03  0.00000000000E+00 0. -1.
</event>
<event>
 7    1  0.3265282E-009  0.9748591E+02  0.7561462E-02  0.1285673E+00
         -2   -1    0    0    0  501 -0.00000000000E+00  0.00000000000E+00  0.13297317473E+02  0.13297317473E+02  0.00000000000E+00 0.  1.
          2   -1    0    0  501    0  0.00000000000E+00 -0.00000000000E+00 -0.12758468707E+04  0.12758468707E+04  0.00000000000E+00 0. -1.
         25    2    1    2    0    0 -0.15531539881E+02 -0.75223054755E+01 -0.10462826988E+04  0.10538748176E+04  0.12508729547E+03 0.  0.
          5    1    3    3  502    0 -0.51044891237E+02 -0.43435499273E+02 -0.39905935807E+03  0.40467031913E+03  0.41800000000E+01 0.  1.
         -5    1    3    3    0  502  0.35513351355E+02  0.35913193798E+02 -0.64722334072E+03  0.64920449843E+03  0.41800000000E+01 0.  1.
        -11    1    1    2    0    0 -0.16258158212E+02  0.32743975866E+02 -0.39157332391E+02  0.53570442820E+02  0.00000000000E+00 0.  1.
         11    1    1    2    0    0  0.31789698094E+02 -0.25221670391E+02 -0.17710952208E+03  0.18169892783E+03  0.00000000000E+00 0. -1.
</event>
<event>
 7    1  0.3265282E-009  0.1249053E+03  0.7561462E-02  0.1235217E+00
          2   -1    0    0  501    0  0.00000000000E+00  0.00000000000E+00  0.84071027363E+03  0.84071027363E+03  0.00000000000E+00 0. -1.
         -2   -1    0    0    0  501 -0.00000000000E+00 -0.00000000000E+00 -0.35865558373E+02  0.35865558373E+02  0.00000000000E+00 0.  1.
         25    2    1    2    0    0 -0.77474137025E+02  0.65556258239E+02  0.64958690387E+03  0.66926130449E+03  0.12509069956E+03 0.  0.
          5    1    3    3  502    0 -0.73208075532E+02  0.13306032668E+02  0.15607035766E+03  0.17295057609E+03  0.41800000000E+01 0. -1.
         -5    1    3    3    0  502 -0.42660614924E+01  0.52250225571E+02  0.49351654620E+03  0.49631072841E+03  0.41800000000E+01 0. -1.
        -11    1    1    2    0    0  0.23389464718E+02 -0.64489729821E+02  0.13132228238E+03  0.14816050136E+03  0.00000000000E+00 0. -1.
         11    1    1    2    0    0  0.54084672307E+02 -0.10665284179E+01  0.23935529012E+02  0.59154026156E+02  0.00000000000E+00 0.  1.
</event>
<event>
 7    1  0.3265282E-009  0.1456924E+03  0.7561462E-02  0.1205868E+00
          2   -1    0    0  501    0  0.00000000000E+00  0.00000000000E+00  0.97990113020E+02  0.97990113020E+02  0.00000000000E+00 0. -1.
         -2   -1    0    0    0  501 -0.00000000000E+00 -0.00000000000E+00 -0.26136112364E+03  0.26136112364E+03  0.00000000000E+00 0.  1.
         25    2    1    2    0    0  0.78275457375E+02  0.57425713676E+02 -0.16116571749E+03  0.22593471606E+03  0.12508935850E+03 0.  0.
          5    1    3    3  502    0 -0.27890221078E+02  0.42051963832E+02 -0.58832234039E+02  0.77620462869E+02  0.41800000000E+01 0. -1.
         -5    1    3    3    0  502  0.10616567845E+03  0.15373749844E+02 -0.10233348345E+03  0.14831425320E+03  0.41800000000E+01 0. -1.
        -11    1    1    2    0    0  0.93247869912E+01 -0.43753949857E+02 -0.98738022861E+00  0.44747454678E+02  0.00000000000E+00 0. -1.
         11    1    1    2    0    0 -0.87600244366E+02 -0.13671763820E+02 -0.12179129030E+01  0.88669065918E+02  0.00000000000E+00 0.  1.
</event>
<event>
 7    1  0.3265282E-009  0.3460833E+03  0.7561462E-02  0.1064234E+00
          1   -1    0    0  501    0  0.00000000000E+00  0.00000000000E+00  0.56899332663E+03  0.56899332663E+03  0.00000000000E+00 0. -1.
         -1   -1    0    0    0  501 -0.00000000000E+00 -0.00000000000E+00 -0.24239586620E+03  0.24239586620E+03  0.00000000000E+00 0.  1.
         25    2    1    2    0    0  0.27093703153E+03  0.17652203924E+03  0.31067790972E+03  0.46554739820E+03  0.12508681378E+03 0.  0.
          5    1    3    3  502    0  0.25235120817E+03  0.10614547447E+03  0.24683922575E+03  0.36863948484E+03  0.41800000000E+01 0. -1.
         -5    1    3    3    0  502  0.18585823366E+02  0.70376564773E+02  0.63838683970E+02  0.96907913353E+02  0.41800000000E+01 0. -1.
        -11    1    1    2    0    0 -0.16872277974E+03 -0.17520425940E+03  0.96830555365E+01  0.24342898447E+03  0.00000000000E+00 0.  1.
         11    1    1    2    0    0 -0.10221425179E+03 -0.13177798428E+01  0.62364951685E+01  0.10241281016E+03  0.00000000000E+00 0. -1.
</event>
<event>
 7    1  0.3265282E-009  0.1237535E+03  0.7561462E-02  0.1237030E+00
         -1   -1    0    0    0  501 -0.00000000000E+00  0.00000000000E+00  0.15298024560E+03  0.15298024560E+03  0.00000000000E+00 0.  1.
          1   -1    0    0  501    0  0.00000000000E+00 -0.00000000000E+00 -0.10853714806E+03  0.10853714806E+03  0.00000000000E+00 0. -1.
         25    2    1    2    0    0 -0.54828896223E+02  0.42563912860E+02  0.17041456788E+02  0.14406394785E+03  0.12508443261E+03 0.  0.
          5    1    3    3  502    0 -0.21726993144E+02 -0.44485614743E+02  0.90057810728E+01  0.50493649530E+02  0.41800000000E+01 0.  1.
         -5    1    3    3    0  502 -0.33101903079E+02  0.87049527603E+02  0.80356757157E+01  0.93570298319E+02  0.41800000000E+01 0.  1.
        -11    1    1    2    0    0  0.62056365524E+02 -0.64382373476E+00 -0.73911597252E+01  0.62498290001E+02  0.00000000000E+00 0. -1.
         11    1    1    2    0    0 -0.72274693003E+01 -0.41920089126E+02  0.34792800474E+02  0.54955155805E+02  0.00000000000E+00 0.  1.
</event>
<event>
 7    1  0.3265282E-009  0.1781101E+03  0.7561462E-02  0.1169645E+00
         -2   -1    0    0    0  501 -0.00000000000E+00  0.00000000000E+00  0.50097589197E+02  0.50097589197E+02  0.00000000000E+00 0.  1.
          2   -1    0    0  501    0  0.00000000000E+00 -0.00000000000E+00 -0.81935872502E+03  0.81935872502E+03  0.00000000000E+00 0. -1.
         25    2    1    2    0    0  0.57063768441E+02 -0.15870029509E+03 -0.35380462709E+03  0.41142110609E+03  0.12509018770E+03 0.  0.
          5    1    3    3  502    0  0.37270265901E+02 -0.21167612285E+02 -0.19794258364E+03  0.20257314568E+03  0.41800000000E+01 0. -1.
         -5    1    3    3    0  502  0.19793502540E+02 -0.13753268281E+03 -0.15586204345E+03  0.20884796042E+03  0.41800000000E+01 0. -1.
        -11    1    1    2    0    0  0.22563898439E+01  0.52097095097E+02 -0.23151217249E+03  0.23731220917E+03  0.00000000000E+00 0. -1.
         11    1    1    2    0    0 -0.59320158285E+02  0.10660320000E+03 -0.18394433625E+03  0.22072299895E+03  0.00000000000E+00 0.  1.
</event>
<event>
 7    1  0.3265282E-009  0.1696768E+03  0.7561462E-02  0.1178185E+00
         -1   -1    0    0    0  501 -0.00000000000E+00  0.00000000000E+00  0.38693147019E+03  0.38693147019E+03  0.00000000000E+00 0.  1.
          1   -1    0    0  501    0  0.00000000000E+00 -0.00000000000E+00 -0.19455149446E+03  0.19455149446E+03  0.00000000000E+00 0. -1.
         25    2    1    2    0    0 -0.15450353834E+03 -0.58171284059E+02 -0.10299129398E+03  0.23132594526E+03  0.12509694109E+03 0.  0.
          5    1    3    3  502    0 -0.64612359690E+02 -0.52350707144E+02  0.13140458611E+02  0.84294113766E+02  0.41800000000E+01 0.  1.
         -5    1    3    3    0  502 -0.89891178648E+02 -0.58205769149E+01 -0.11613175259E+03  0.14703183150E+03  0.41800000000E+01 0.  1.
        -11    1    1    2    0    0  0.12096333526E+03  0.52638380281E+02  0.28590144268E+03  0.31486911960E+03  0.00000000000E+00 0.  1.
         11    1    1    2    0    0  0.33540203081E+02  0.55329037782E+01  0.94698270332E+01  0.35287899782E+02  0.00000000000E+00 0. -1.
</event>
<event>
 7    1  0.3274518E-009  0.1447112E+03  0.7561462E-02  0.1207127E+00
          2   -1    0    0  501    0  0.00000000000E+00  0.00000000000E+00  0.11706308439E+04  0.11706308439E+04  0.00000000000E+00 0. -1.
         -2   -1    0    0    0  501 -0.00000000000E+00 -0.00000000000E+00 -0.26754449797E+02  0.26754449797E+02  0.00000000000E+00 0.  1.
         25    2    1    2    0    0 -0.13002532722E+03 -0.26755004996E+02  0.75431027252E+03  0.77605748515E+03  0.12513519497E+03 0.  0.
          5    1    3    3  502    0 -0.11904426021E+03 -0.35256197833E+02  0.34833591386E+03  0.36982416993E+03  0.41800000000E+01 0.  1.
         -5    1    3    3    0  502 -0.10981067006E+02  0.85011928371E+01  0.40597435865E+03  0.40623331522E+03  0.41800000000E+01 0.  1.
        -11    1    1    2    0    0  0.76410889779E+02 -0.20623607760E+02  0.27581420146E+03  0.28694499647E+03  0.00000000000E+00 0. -1.
         11    1    1    2    0    0  0.53614437438E+02  0.47378612756E+02  0.11375192011E+03  0.13438281206E+03  0.00000000000E+00 0.  1.
</event>
<event>
 7    1  0.3265282E-009  0.9640204E+02  0.7561462E-02  0.1288049E+00
         -1   -1    0    0    0  501 -0.00000000000E+00  0.00000000000E+00  0.17166770742E+03  0.17166770742E+03  0.00000000000E+00 0.  1.
          1   -1    0    0  501    0  0.00000000000E+00 -0.00000000000E+00 -0.82703252432E+02  0.82703252432E+02  0.00000000000E+00 0. -1.
         25    2    1    2    0    0  0.26285256927E+01  0.13812218549E+01 -0.24747547175E+01  0.12515098133E+03  0.12509127386E+03 0.  0.
          5    1    3    3  502    0  0.43856965499E+02  0.35396029359E+02 -0.30962996751E+02  0.64439831510E+02  0.41800000000E+01 0. -1.
         -5    1    3    3    0  502 -0.41228439807E+02 -0.34014807504E+02  0.28488242034E+02  0.60711149821E+02  0.41800000000E+01 0. -1.
        -11    1    1    2    0    0  0.28660563560E+02  0.27774693103E+02  0.71825764864E+02  0.82169349388E+02  0.00000000000E+00 0.  1.
         11    1    1    2    0    0 -0.31289089252E+02 -0.29155914958E+02  0.19613444840E+02  0.47050629132E+02  0.00000000000E+00 0. -1.
</event>
<event>
 7    1  0.3265282E-009  0.1166240E+03  0.7561462E-02  0.1248773E+00
         -1   -1    0    0    0  501 -0.00000000000E+00  0.00000000000E+00  0.83027350851E+02  0.83027350851E+02  0.00000000000E+00 0.  1.
          1   -1    0    0  501    0  0.00000000000E+00 -0.00000000000E+00 -0.17718904652E+03  0.17718904652E+03  0.00000000000E+00 0. -1.
         25    2    1    2    0    0 -0.48204944487E+02 -0.25995626307E+02 -0.51838604909E+02  0.14607153119E+03  0.12510060754E+03 0.  0.
          5    1    3    3  502    0  0.38723920088E+01  0.45391322001E+02 -0.51280884331E+01  0.46034087629E+02  0.41800000000E+01 0.  1.
         -5    1    3    3    0  502 -0.52077336496E+02 -0.71386948308E+02 -0.46710516476E+02  0.10003744356E+03  0.41800000000E+01 0.  1.
        -11    1    1    2    0    0 -0.14454069025E+02  0.32962934312E+02  0.35635976681E+01  0.36168693343E+02  0.00000000000E+00 0.  1.
         11    1    1    2    0    0  0.62659013512E+02 -0.69673080046E+01 -0.45886688429E+02  0.77976172835E+02  0.00000000000E+00 0. -1.
</event>
<event>
 7    1  0.3265282E-009  0.1795295E+03  0.7561462E-02  0.1168259E+00
         -2   -1    0    0    0  501 -0.00000000000E+00  0.00000000000E+00  0.27107825517E+03  0.27107825517E+03  0.00000000000E+00 0. -1.
          2   -1    0    0  501    0  0.00000000000E+00 -0.00000000000E+00 -0.15864310174E+03  0.15864310174E+03  0.00000000000E+00 0.  1.
         25    2    1    2    0    0  0.16341394858E+03  0.29845682796E+01  0.11826687580E+03  0.23737317157E+03  0.12508374166E+03 0.  0.
          5    1    3    3  502    0  0.54293298551E+02 -0.37643956736E+02  0.99273958058E+02  0.11932150223E+03  0.41800000000E+01 0.  1.
         -5    1    3    3    0  502  0.10912065003E+03  0.40628525015E+02  0.18992917746E+02  0.11805166934E+03  0.41800000000E+01 0.  1.
        -11    1    1    2    0    0 -0.18064813134E+02  0.22421386375E+02 -0.31392821551E+02  0.42597714557E+02  0.00000000000E+00 0.  1.
         11    1    1    2    0    0 -0.14534913545E+03 -0.25405954655E+02  0.25561099172E+02  0.14975047078E+03  0.00000000000E+00 0. -1.
</event>
<event>
 7    1  0.3265282E-009  0.2091941E+03  0.7561462E-02  0.1142206E+00
         -1   -1    0    0    0  501 -0.00000000000E+00  0.00000000000E+00  0.15955158206E+03  0.15955158206E+03  0.00000000000E+00 0.  1.
          1   -1    0    0  501    0  0.00000000000E+00 -0.00000000000E+00 -0.35232064709E+03  0.35232064709E+03  0.00000000000E+00 0. -1.
         25    2    1    2    0    0  0.54072468207E+01  0.20816316464E+03 -0.71661613993E+02  0.25326587365E+03  0.12508826645E+03 0.  0.
          5    1    3    3  502    0  0.21555823756E+01  0.16766179626E+03 -0.10725416517E+03  0.19908805290E+03  0.41800000000E+01 0. -1.
         -5    1    3    3    0  502  0.32516644450E+01  0.40501368376E+02  0.35592551175E+02  0.54177820749E+02  0.41800000000E+01 0. -1.
        -11    1    1    2    0    0 -0.89958323453E+01 -0.24229153248E+02 -0.59040158966E+02  0.64449338533E+02  0.00000000000E+00 0. -1.
         11    1    1    2    0    0  0.35885855246E+01 -0.18393401139E+03 -0.62067292069E+02  0.19415701696E+03  0.00000000000E+00 0.  1.
</event>
<event>
 7    1  0.3265282E-009  0.1786106E+03  0.7561462E-02  0.1169155E+00
         -1   -1    0    0    0  501 -0.00000000000E+00  0.00000000000E+00  0.28102438804E+03  0.28102438804E+03  0.00000000000E+00 0.  1.
          1   -1    0    0  501    0  0.00000000000E+00 -0.00000000000E+00 -0.39526890182E+03  0.39526890182E+03  0.00000000000E+00 0. -1.
         25    2    1    2    0    0 -0.82233900296E+02 -0.12187634590E+03  0.22398041495E+03  0.29569071621E+03  0.12509802286E+03 0.  0.
          5    1    3    3  502    0  0.26742785901E+02 -0.30288481440E+02  0.95922867209E+02  0.10416927359E+03  0.41800000000E+01 0. -1.
         -5    1    3    3    0  502 -0.10897668620E+03 -0.91587864459E+02  0.12805754774E+03  0.19152144262E+03  0.41800000000E+01 0. -1.
        -11    1    1    2    0    0  0.10003361371E+03  0.78038487914E+02 -0.25673254906E+03  0.28637096782E+03  0.00000000000E+00 0.  1.
         11    1    1    2    0    0 -0.17799713415E+02  0.43837857985E+02 -0.81492379680E+02  0.94231605825E+02  0.00000000000E+00 0. -1.
</event>
<event>
 7    1  0.3265282E-009  0.1032993E+03  0.7561462E-02  0.1273507E+00
         -2   -1    0    0    0  501 -0.00000000000E+00  0.00000000000E+00  0.50982962962E+02  0.50982962962E+02  0.00000000000E+00 0.  1.
          2   -1    0    0  501    0  0.00000000000E+00 -0.00000000000E+00 -0.24651578894E+03  0.24651578894E+03  0.00000000000E+00 0. -1.
         25    2    1    2    0    0  0.32125325802E+02 -0.66664319659E+01 -0.98780821118E+02  0.16273029662E+03  0.12508805276E+03 0.  0.
          5    1    3    3  502    0 -0.42194853596E+02 -0.13162207055E+02 -0.79309468651E+01  0.45100129520E+02  0.41800000000E+01 0.  1.
         -5    1    3    3    0  502  0.74320179398E+02  0.64957750891E+01 -0.90849874253E+02  0.11763016710E+03  0.41800000000E+01 0.  1.
        -11    1    1    2    0    0  0.25059571056E+02 -0.11370746153E+02 -0.99350660516E+01  0.29257161637E+02  0.00000000000E+00 0.  1.
         11    1    1    2    0    0 -0.57184896858E+02  0.18037178119E+02 -0.86816938809E+02  0.10551129365E+03  0.00000000000E+00 0. -1.
</event>
<event>
 7    1  0.3265282E-009  0.8557893E+02  0.7561462E-02  0.1313925E+00
         -2   -1    0    0    0  501 -0.00000000000E+00  0.00000000000E+00  0.83753014793E+02  0.83753014793E+02  0.00000000000E+00 0.  1.
          2   -1    0    0  501    0  0.00000000000E+00 -0.00000000000E+00 -0.14829544485E+03  0.14829544485E+03  0.00000000000E+00 0. -1.
         25    2    1    2    0    0 -0.23424673282E+02  0.13737240912E+02 -0.27201836677E+02  0.13087337071E+03  0.12510184705E+03 0.  0.
          5    1    3    3  502    0 -0.62652775637E+02 -0.22996121756E+02  0.66829801802E+01  0.67203619954E+02  0.41800000000E+01 0. -1.
         -5    1    3    3    0  502  0.39228102356E+02  0.36733362667E+02 -0.33884816858E+02  0.63669750751E+02  0.41800000000E+01 0. -1.
        -11    1    1    2    0    0 -0.76024885194E+01 -0.17546885255E+02 -0.59734884951E+02  0.62721188556E+02  0.00000000000E+00 0. -1.
         11    1    1    2    0    0  0.31027161801E+02  0.38096443436E+01  0.22394291571E+02  0.38453900380E+02  0.00000000000E+00 0.  1.
</event>
<event>
 7    1  0.3265282E-009  0.2086973E+03  0.7561462E-02  0.1142602E+00
         -2   -1    0    0    0  501 -0.00000000000E+00  0.00000000000E+00  0.12140282802E+03  0.12140282802E+03  0.00000000000E+00 0.  1.
          2   -1    0    0  501    0  0.00000000000E+00 -0.00000000000E+00 -0.11347446208E+04  0.11347446208E+04  0.00000000000E+00 0. -1.
         25    2    1    2    0    0  0.16777190962E+03  0.95462711608E+02 -0.10164727014E+04  0.10421730443E+04  0.12508940262E+03 0.  0.
          5    1    3    3  502    0 -0.24724524965E+01  0.15658584567E+02 -0.32993523705E+03  0.33034230328E+03  0.41800000000E+01 0.  1.
         -5    1    3    3    0  502  0.17024436212E+03  0.79804127041E+02 -0.68653746435E+03  0.71183074104E+03  0.41800000000E+01 0.  1.
        -11    1    1    2    0    0 -0.24437277379E+02  0.17813795841E+02  0.77711766443E+01  0.31223437261E+02  0.00000000000E+00 0.  1.
         11    1    1    2    0    0 -0.14333463224E+03 -0.11327650745E+03 -0.46402680304E+01  0.18275096724E+03  0.00000000000E+00 0. -1.
</event>
<event>
 7    1  0.3265282E-009  0.1472433E+03  0.7561462E-02  0.1203902E+00
          1   -1    0    0  501    0  0.00000000000E+00  0.00000000000E+00  0.11360535959E+03  0.11360535959E+03  0.00000000000E+00 0. -1.
         -1   -1    0    0    0  501 -0.00000000000E+00 -0.00000000000E+00 -0.25759602994E+03  0.25759602994E+03  0.00000000000E+00 0.  1.
         25    2    1    2    0    0 -0.11483648848E+03  0.18966816635E+02 -0.14736757930E+03  0.22563739138E+03  0.12509144552E+03 0.  0.
          5    1    3    3  502    0  0.25743950640E+02  0.14453696579E+02 -0.31303617992E+02  0.43232502110E+02  0.41800000000E+01 0.  1.
         -5    1    3    3    0  502 -0.14058043912E+03  0.45131200563E+01 -0.11606396130E+03  0.18240488927E+03  0.41800000000E+01 0.  1.
        -11    1    1    2    0    0  0.27636218890E+02  0.13686769999E+02  0.35537185861E+02  0.47052947267E+02  0.00000000000E+00 0. -1.
         11    1    1    2    0    0  0.87200269586E+02 -0.32653586634E+02 -0.32160276907E+02  0.98511050886E+02  0.00000000000E+00 0.  1.
</event>
<event>
 7    1  0.3265282E-009  0.1105300E+03  0.7561462E-02  0.1259591E+00
          3   -1    0    0  501    0  0.00000000000E+00  0.00000000000E+00  0.65343954145E+02  0.65343954145E+02  0.00000000000E+00 0. -1.
         -3   -1    0    0    0  501 -0.00000000000E+00 -0.00000000000E+00 -0.22062956725E+03  0.22062956725E+03  0.00000000000E+00 0.  1.
         25    2    1    2    0    0 -0.43421994892E+02 -0.61039577947E+01 -0.51483561468E+02  0.14219665835E+03  0.12508638857E+03 0.  0.
          5    1    3    3  502    0 -0.81541954382E+02 -0.13208195050E+02 -0.69537528240E+01  0.83002251892E+02  0.41800000000E+01 0. -1.
         -5    1    3    3    0  502  0.38119959490E+02  0.71042372550E+01 -0.44529808644E+02  0.59194406462E+02  0.41800000000E+01 0. -1.
        -11    1    1    2    0    0  0.58783820101E+02  0.33704686984E+02 -0.74229539565E+02  0.10050655687E+03  0.00000000000E+00 0. -1.
         11    1    1    2    0    0 -0.15361825209E+02 -0.27600729189E+02 -0.29572512067E+02  0.43270306164E+02  0.00000000000E+00 0.  1.
</event>
<event>
 7    1  0.3265282E-009  0.1070250E+03  0.7561462E-02  0.1266180E+00
         -1   -1    0    0    0  501 -0.00000000000E+00  0.00000000000E+00  0.12514344997E+03  0.12514344997E+03  0.00000000000E+00 0.  1.
          1   -1    0    0  501    0  0.00000000000E+00 -0.00000000000E+00 -0.14885169222E+03  0.14885169222E+03  0.00000000000E+00 0. -1.
         25    2    1    2    0    0  0.56849196428E+02 -0.26533016726E+02  0.41479210730E+02  0.14595923632E+03  0.12509093346E+03 0.  0.
          5    1    3    3  502    0  0.82693824708E+02 -0.10005868832E+02 -0.11904516999E+02  0.84247112597E+02  0.41800000000E+01 0.  1.
         -5    1    3    3    0  502 -0.25844628280E+02 -0.16527147894E+02  0.53383727729E+02  0.61712123726E+02  0.41800000000E+01 0.  1.
        -11    1    1    2    0    0 -0.10298336994E+02 -0.26910071510E+02 -0.46560628929E+02  0.54754907175E+02  0.00000000000E+00 0. -1.
         11    1    1    2    0    0 -0.46550859434E+02  0.53443088236E+02 -0.18626824048E+02  0.73280998686E+02  0.00000000000E+00 0.  1.
</event>
<event>
 7    1  0.4483521E-009  0.1128608E+03  0.7561462E-02  0.1255362E+00
         -2   -1    0    0    0  501 -0.00000000000E+00  0.00000000000E+00  0.11416335334E+03  0.11416335334E+03  0.00000000000E+00 0.  1.
          2   -1    0    0  501    0  0.00000000000E+00 -0.00000000000E+00 -0.20553202878E+03  0.20553202878E+03  0.00000000000E+00 0. -1.
         25    2    1    2    0    0  0.51964513089E+02 -0.93776006389E+02 -0.37097091807E+02  0.16887211176E+03  0.12508935173E+03 0.  0.
          5    1    3    3  502    0  0.40759337775E+02 -0.41072012216E+02 -0.80729660749E+02  0.99413199968E+02  0.41800000000E+01 0.  1.
         -5    1    3    3    0  502  0.11205175314E+02 -0.52703994173E+02  0.43632568941E+02  0.69458911797E+02  0.41800000000E+01 0.  1.
        -11    1    1    2    0    0 -0.29751895095E+02  0.18169951006E+02  0.21945149872E+02  0.41193591542E+02  0.00000000000E+00 0.  1.
         11    1    1    2    0    0 -0.22212617994E+02  0.75606055383E+02 -0.76216733506E+02  0.10962967881E+03  0.00000000000E+00 0. -1.
</event>
<event>
 7    1  0.3265282E-009  0.1113460E+03  0.7561462E-02  0.1258097E+00
         -1   -1    0    0    0  501 -0.00000000000E+00  0.00000000000E+00  0.85834602272E+02  0.85834602272E+02  0.00000000000E+00 0.  1.
          1   -1    0    0  501    0  0.00000000000E+00 -0.00000000000E+00 -0.16156991827E+03  0.16156991827E+03  0.00000000000E+00 0. -1.
         25    2    1    2    0    0 -0.33174857996E+02  0.22807992604E+02 -0.24547384755E+02  0.13368159427E+03  0.12508964313E+03 0.  0.
          5    1    3    3  502    0 -0.74124917168E+02 -0.23660894046E+01 -0.38212877861E+02  0.83533215901E+02  0.41800000000E+01 0. -1.
         -5    1    3    3    0  502  0.40950059172E+02  0.25174082009E+02  0.13665493106E+02  0.50148378369E+02  0.41800000000E+01 0. -1.
        -11    1    1    2    0    0  0.63226389935E+02 -0.13602928365E+01 -0.41193040031E+02  0.75473792324E+02  0.00000000000E+00 0.  1.
         11    1    1    2    0    0 -0.30051531939E+02 -0.21447699768E+02 -0.99948912073E+01  0.38249133944E+02  0.00000000000E+00 0. -1.
</event>
<event>
 7    1  0.3265282E-009  0.9277159E+02  0.7561462E-02  0.1296275E+00
         -2   -1    0    0    0  501 -0.00000000000E+00  0.00000000000E+00  0.79080405060E+02  0.79080405060E+02  0.00000000000E+00 0.  1.
          2   -1    0    0  501    0  0.00000000000E+00 -0.00000000000E+00 -0.19334722623E+03  0.19334722623E+03  0.00000000000E+00 0. -1.
         25    2    1    2    0    0  0.60009734337E+02 -0.37950972337E+00 -0.67733535987E+02  0.15439125897E+03  0.12509003440E+03 0.  0.
          5    1    3    3  502    0  0.64607123637E+02 -0.14084572074E+02 -0.99326784402E+02  0.11939739568E+03  0.41800000000E+01 0.  1.
         -5    1    3    3    0  502 -0.45973892993E+01  0.13705062350E+02  0.31593248415E+02  0.34993863288E+02  0.41800000000E+01 0.  1.
        -11    1    1    2    0    0 -0.19376778762E+01  0.36039754177E+02 -0.32265895127E+02  0.48411842198E+02  0.00000000000E+00 0. -1.
         11    1    1    2    0    0 -0.58072056461E+02 -0.35660244454E+02 -0.14267390055E+02  0.69624530125E+02  0.00000000000E+00 0.  1.
</event>
<event>
 7    1  0.4211465E-009  0.1491722E+03  0.7561462E-02  0.1201494E+00
         -1   -1    0    0    0  501 -0.00000000000E+00  0.00000000000E+00  0.84270965981E+02  0.84270965981E+02  0.00000000000E+00 0.  1.
          1   -1    0    0  501    0  0.00000000000E+00 -0.00000000000E+00 -0.34547221305E+03  0.34547221305E+03  0.00000000000E+00 0. -1.
         25    2    1    2    0    0 -0.50228419061E+02  0.11845053457E+03 -0.10444260588E+03  0.20762167718E+03  0.12508029298E+03 0.  0.
          5    1    3    3  502    0 -0.75230017112E+02  0.12068588695E+03 -0.11200755760E+03  0.18107402946E+03  0.41800000000E+01 0.  1.
         -5    1    3    3    0  502  0.25001598051E+02 -0.22353523887E+01  0.75649517143E+01  0.26547647727E+02  0.41800000000E+01 0.  1.
        -11    1    1    2    0    0  0.31370056951E+02 -0.45444930906E+02 -0.86094141600E+01  0.55887782478E+02  0.00000000000E+00 0.  1.
         11    1    1    2    0    0  0.18858362111E+02 -0.73005603659E+02 -0.14814922702E+03  0.16623371937E+03  0.00000000000E+00 0. -1.
</event>
<event>
 7    1  0.3265282E-009  0.9418766E+02  0.7561462E-02  0.1293016E+00
          2   -1    0    0  501    0  0.00000000000E+00  0.00000000000E+00  0.91808692061E+02  0.91808692061E+02  0.00000000000E+00 0. -1.
         -2   -1    0    0    0  501 -0.00000000000E+00 -0.00000000000E+00 -0.15067564636E+03  0.15067564636E+03  0.00000000000E+00 0.  1.
         25    2    1    2    0    0  0.20483853463E+02  0.25731329972E+02 -0.67052398850E+02  0.14568863346E+03  0.12508982426E+03 0.  0.
          5    1    3    3  502    0  0.52298712263E+02  0.30023064391E+02  0.10770591576E+02  0.61400470215E+02  0.41800000000E+01 0. -1.
         -5    1    3    3    0  502 -0.31814858800E+02 -0.42917344182E+01 -0.77822990426E+02  0.84288163248E+02  0.41800000000E+01 0. -1.
        -11    1    1    2    0    0  0.29813828382E+02 -0.33291806170E+02 -0.27353472091E+01  0.44773774079E+02  0.00000000000E+00 0. -1.
         11    1    1    2    0    0 -0.50297681846E+02  0.75604761979E+01  0.10920791763E+02  0.52021930876E+02  0.00000000000E+00 0.  1.
</event>
<event>
 7    1  0.3265282E-009  0.6805667E+02  0.7561462E-02  0.1366829E+00
         -1   -1    0    0    0  501 -0.00000000000E+00  0.00000000000E+00  0.14022390058E+02  0.14022390058E+02  0.00000000000E+00 0. -1.
          1   -1    0    0  501    0  0.00000000000E+00 -0.00000000000E+00 -0.73803660001E+03  0.73803660001E+03  0.00000000000E+00 0.  1.
         25    2    1    2    0    0  0.35384087705E+01  0.34789643017E+02 -0.51999200911E+03  0.53596832996E+03  0.12509005389E+03 0.  0.
          5    1    3    3  502    0 -0.17863796624E+02  0.40296905753E+02 -0.55803400912E+02  0.71235158429E+02  0.41800000000E+01 0. -1.
         -5    1    3    3    0  502  0.21402205395E+02 -0.55072627363E+01 -0.46418860820E+03  0.46473317153E+03  0.41800000000E+01 0. -1.
        -11    1    1    2    0    0 -0.16524991428E+02 -0.48033598708E+02 -0.12513449965E+03  0.13505163808E+03  0.00000000000E+00 0. -1.
         11    1    1    2    0    0  0.12986582657E+02  0.13243955691E+02 -0.78887701186E+02  0.81039022019E+02  0.00000000000E+00 0.  1.
</event>
<event>
 7    1  0.3265282E-009  0.9760827E+02  0.7561462E-02  0.1285407E+00
         -2   -1    0    0    0  501 -0.00000000000E+00  0.00000000000E+00  0.24043441516E+02  0.24043441516E+02  0.00000000000E+00 0.  1.
          2   -1    0    0  501    0  0.00000000000E+00 -0.00000000000E+00 -0.59176524944E+03  0.59176524944E+03  0.00000000000E+00 0. -1.
         25    2    1    2    0    0  0.34728830775E+02 -0.31980611207E+02 -0.33793318820E+03  0.36342185974E+03  0.12509099596E+03 0.  0.
          5    1    3    3  502    0  0.21257398598E+02  0.39301551455E+02 -0.22280797016E+03  0.22728253982E+03  0.41800000000E+01 0. -1.
         -5    1    3    3    0  502  0.13471432177E+02 -0.71282162662E+02 -0.11512521804E+03  0.13613931992E+03  0.41800000000E+01 0. -1.
        -11    1    1    2    0    0 -0.27167343122E+02 -0.14354880807E+02 -0.18488720024E+03  0.18742306141E+03  0.00000000000E+00 0. -1.
         11    1    1    2    0    0 -0.75614876523E+01  0.46335492014E+02 -0.44901419477E+02  0.64963769801E+02  0.00000000000E+00 0.  1.
</event>
<event>
 7    1  0.3265282E-009  0.1129754E+03  0.7561462E-02  0.1255157E+00
         -2   -1    0    0    0  501 -0.00000000000E+00  0.00000000000E+00  0.18997629194E+03  0.18997629194E+03  0.00000000000E+00 0.  1.
          2   -1    0    0  501    0  0.00000000000E+00 -0.00000000000E+00 -0.13526301255E+03  0.13526301255E+03  0.00000000000E+00 0. -1.
         25    2    1    2    0    0 -0.67224752228E+02 -0.73314906345E+02  0.90484110868E+02  0.18365440511E+03  0.12508926170E+03 0.  0.
          5    1    3    3  502    0 -0.24896706985E+02 -0.43662991665E+02  0.11553978770E+03  0.12606830609E+03  0.41800000000E+01 0. -1.
         -5    1    3    3    0  502 -0.42328045243E+02 -0.29651914680E+02 -0.25055676832E+02  0.57586099015E+02  0.41800000000E+01 0. -1.
        -11    1    1    2    0    0  0.66347233017E+02  0.18547578159E+02  0.10745430420E+02  0.69723971914E+02  0.00000000000E+00 0.  1.
         11    1    1    2    0    0  0.87751921100E+00  0.54767328186E+02 -0.46516261893E+02  0.71860927472E+02  0.00000000000E+00 0. -1.
</event>
<event>
 7    1  0.3265282E-009  0.1092500E+03  0.7561462E-02  0.1261965E+00
          1   -1    0    0  501    0  0.00000000000E+00  0.00000000000E+00  0.50151486612E+02  0.50151486612E+02  0.00000000000E+00 0. -1.
         -1   -1    0    0    0  501 -0.00000000000E+00 -0.00000000000E+00 -0.39802306006E+03  0.39802306006E+03  0.00000000000E+00 0.  1.
         25    2    1    2    0    0  0.53908617055E+02  0.73074323097E+02 -0.19515612887E+03  0.24895689054E+03  0.12509045937E+03 0.  0.
          5    1    3    3  502    0  0.12558307104E+02  0.81906800530E+02 -0.18849690785E+03  0.20594900272E+03  0.41800000000E+01 0.  1.
         -5    1    3    3    0  502  0.41350309951E+02 -0.88324774333E+01 -0.66592210177E+01  0.43007887826E+02  0.41800000000E+01 0.  1.
        -11    1    1    2    0    0 -0.16003879243E+02 -0.38671945219E+02 -0.41229253278E+01  0.42055225729E+02  0.00000000000E+00 0. -1.
         11    1    1    2    0    0 -0.37904737812E+02 -0.34402377877E+02 -0.14859251925E+03  0.15716243040E+03  0.00000000000E+00 0.  1.
</event>
<event>
 7    1  0.3265282E-009  0.9434306E+02  0.7561462E-02  0.1292663E+00
          2   -1    0    0  501    0  0.00000000000E+00  0.00000000000E+00  0.23385523070E+03  0.23385523070E+03  0.00000000000E+00 0.  1.
         -2   -1    0    0    0  501 -0.00000000000E+00 -0.00000000000E+00 -0.55869206797E+02  0.55869206797E+02  0.00000000000E+00 0. -1.
         25    2    1    2    0    0  0.37475464221E+02  0.14560809213E+00  0.97634088053E+02  0.16304530882E+03  0.12508767309E+03 0.  0.
          5    1    3    3  502    0  0.56707537602E+02 -0.34313059666E+02  0.10416410978E+02  0.67224288038E+02  0.41800000000E+01 0.  1.
         -5    1    3    3    0  502 -0.19232073381E+02  0.34458667758E+02  0.87217677075E+02  0.95821020786E+02  0.41800000000E+01 0.  1.
        -11    1    1    2    0    0  0.15864199523E+02 -0.20130318096E+02 -0.29131359954E+01  0.25795133155E+02  0.00000000000E+00 0. -1.
         11    1    1    2    0    0 -0.53339663744E+02  0.19984710004E+02  0.83265071843E+02  0.10088399552E+03  0.00000000000E+00 0.  1.
</event>
<event>
 7    1  0.3265282E-009  0.9291707E+02  0.7561462E-02  0.1295937E+00
         -2   -1    0    0    0  501 -0.00000000000E+00  0.00000000000E+00  0.20121530857E+02  0.20121530857E+02  0.00000000000E+00 0.  1.
          2   -1    0    0  501    0  0.00000000000E+00 -0.00000000000E+00 -0.61139771850E+03  0.61139771850E+03  0.00000000000E+00 0. -1.
         25    2    1    2    0    0 -0.10523259718E+01 -0.13807251152E+02 -0.38045635453E+03  0.40073281875E+03  0.12509199314E+03 0.  0.
          5    1    3    3  502    0  0.31928835572E+02  0.41918874306E+02 -0.24364350803E+03  0.24931160015E+03  0.41800000000E+01 0.  1.
         -5    1    3    3    0  502 -0.32981161544E+02 -0.55726125458E+02 -0.13681284650E+03  0.15142121860E+03  0.41800000000E+01 0.  1.
        -11    1    1    2    0    0 -0.12971644349E+02 -0.24263771849E+02 -0.16085722677E+02  0.31870749214E+02  0.00000000000E+00 0.  1.
         11    1    1    2    0    0  0.14023970321E+02  0.38071023001E+02 -0.19473411044E+03  0.19891568139E+03  0.00000000000E+00 0. -1.
</event>
<event>
 7    1  0.3265282E-009  0.1162907E+03  0.7561462E-02  0.1249345E+00
          2   -1    0    0  501    0  0.00000000000E+00  0.00000000000E+00  0.15189904768E+03  0.15189904768E+03  0.00000000000E+00 0. -1.
         -2   -1    0    0    0  501 -0.00000000000E+00 -0.00000000000E+00 -0.10154598124E+03  0.10154598124E+03  0.00000000000E+00 0.  1.
         25    2    1    2    0    0  0.59574337966E+02  0.19802933281E+00  0.22713737204E+02  0.14040300344E+03  0.12509176055E+03 0.  0.
          5    1    3    3  502    0  0.97034949262E+02  0.33734856125E+01  0.18436559641E+01  0.97200994083E+02  0.41800000000E+01 0. -1.
         -5    1    3    3    0  502 -0.37460611296E+02 -0.31754562797E+01  0.20870081240E+02  0.43202009354E+02  0.41800000000E+01 0. -1.
        -11    1    1    2    0    0 -0.24974533539E+01  0.31960832895E+02 -0.14459787926E+02  0.35168417358E+02  0.00000000000E+00 0.  1.
         11    1    1    2    0    0 -0.57076884612E+02 -0.32158862228E+02  0.42099117155E+02  0.77873608123E+02  0.00000000000E+00 0. -1.
</event>
<event>
 7    1  0.3265282E-009  0.2273852E+03  0.7561462E-02  0.1128494E+00
         -1   -1    0    0    0  501 -0.00000000000E+00  0.00000000000E+00  0.12968135675E+04  0.12968135675E+04  0.00000000000E+00 0. -1.
          1   -1    0    0  501    0  0.00000000000E+00 -0.00000000000E+00 -0.50257340137E+02  0.50257340137E+02  0.00000000000E+00 0.  1.
         25    2    1    2    0    0  0.20399800204E+03  0.98827839779E+02  0.53111378773E+03  0.59085568532E+03  0.12508580500E+03 0.  0.
          5    1    3    3  502    0  0.15500731923E+03  0.64361084314E+02  0.23558040574E+03  0.28928397494E+03  0.41800000000E+01 0.  1.
         -5    1    3    3    0  502  0.48990682815E+02  0.34466755465E+02  0.29553338198E+03  0.30157171038E+03  0.41800000000E+01 0.  1.
        -11    1    1    2    0    0 -0.11908881288E+03 -0.62314941223E+02  0.27387647553E+03  0.30507969631E+03  0.00000000000E+00 0.  1.
         11    1    1    2    0    0 -0.84909189165E+02 -0.36512898556E+02  0.44156596411E+03  0.45113552601E+03  0.00000000000E+00 0. -1.
</event>
<event>
 7    1  0.3265282E-009  0.2390474E+03  0.7561462E-02  0.1120429E+00
         -1   -1    0    0    0  501 -0.00000000000E+00  0.00000000000E+00  0.86194733435E+02  0.86194733435E+02  0.00000000000E+00 0.  1.
          1   -1    0    0  501    0  0.00000000000E+00 -0.00000000000E+00 -0.10095127290E+04  0.10095127290E+04  0.00000000000E+00 0. -1.
         25    2    1    2    0    0 -0.97006336169E+02 -0.20765370439E+03 -0.75305186118E+03  0.79703478032E+03  0.12508814976E+03 0.  0.
          5    1    3    3  502    0 -0.97922220222E-01 -0.64064495190E+02 -0.38396144606E+03  0.38929183602E+03  0.41800000000E+01 0.  1.
         -5    1    3    3    0  502 -0.96908413949E+02 -0.14358920920E+03 -0.36909041512E+03  0.40774294430E+03  0.41800000000E+01 0.  1.
        -11    1    1    2    0    0  0.72614629557E+02  0.70160729154E+02 -0.43028599092E+02  0.10975824653E+03  0.00000000000E+00 0.  1.
         11    1    1    2    0    0  0.24391706612E+02  0.13749297523E+03 -0.12723753532E+03  0.18891443562E+03  0.00000000000E+00 0. -1.
</event>
<event>
 7    1  0.3265282E-009  0.1502389E+03  0.7561462E-02  0.1200180E+00
          2   -1    0    0  501    0  0.00000000000E+00  0.00000000000E+00  0.84041302499E+02  0.84041302499E+02  0.00000000000E+00 0. -1.
         -2   -1    0    0    0  501 -0.00000000000E+00 -0.00000000000E+00 -0.30756742676E+03  0.30756742676E+03  0.00000000000E+00 0.  1.
         25    2    1    2    0    0  0.67174569203E+02  0.98275375471E+02 -0.12538835683E+03  0.21340496914E+03  0.12509583788E+03 0.  0.
          5    1    3    3  502    0  0.10280940238E+03  0.83530124623E+02 -0.10768753646E+03  0.17076631063E+03  0.41800000000E+01 0.  1.
         -5    1    3    3    0  502 -0.35634833177E+02  0.14745250848E+02 -0.17700820368E+02  0.42638658513E+02  0.41800000000E+01 0.  1.
        -11    1    1    2    0    0 -0.75127302746E+02 -0.83120065114E+02 -0.42229889252E+02  0.11973479189E+03  0.00000000000E+00 0. -1.
         11    1    1    2    0    0  0.79527335432E+01 -0.15155310356E+02 -0.55907878186E+02  0.58468968231E+02  0.00000000000E+00 0.  1.
</event>
<event>
 7    1  0.3265282E-009  0.8886048E+02  0.7561462E-02  0.1305635E+00
          1   -1    0    0  501    0  0.00000000000E+00  0.00000000000E+00  0.86325404396E+02  0.86325404396E+02  0.00000000000E+00 0. -1.
         -1   -1    0    0    0  501 -0.00000000000E+00 -0.00000000000E+00 -0.14266735439E+03  0.14266735439E+03  0.00000000000E+00 0.  1.
         25    2    1    2    0    0  0.11403564202E+02 -0.19786092907E+02 -0.28760684997E+02  0.13036941717E+03  0.12508987642E+03 0.  0.
          5    1    3    3  502    0 -0.27990337511E+02 -0.58257842045E+02 -0.36914235929E+02  0.74549100383E+02  0.41800000000E+01 0.  1.
         -5    1    3    3    0  502  0.39393901713E+02  0.38471749138E+02  0.81535509317E+01  0.55820316792E+02  0.41800000000E+01 0.  1.
        -11    1    1    2    0    0 -0.41287116628E+01  0.37945172617E+02 -0.53766872868E+02  0.65937538648E+02  0.00000000000E+00 0.  1.
         11    1    1    2    0    0 -0.72748525392E+01 -0.18159079710E+02  0.26185607875E+02  0.32685802960E+02  0.00000000000E+00 0. -1.
</event>
<event>
 7    1  0.3265282E-009  0.1431529E+03  0.7561462E-02  0.1209148E+00
          2   -1    0    0  501    0  0.00000000000E+00  0.00000000000E+00  0.12020155171E+04  0.12020155171E+04  0.00000000000E+00 0. -1.
         -2   -1    0    0    0  501 -0.00000000000E+00 -0.00000000000E+00 -0.21258658607E+02  0.21258658607E+02  0.00000000000E+00 0.  1.
         25    2    1    2    0    0  0.58839822225E+02 -0.10235854310E+03  0.62253753029E+03  0.64586422678E+03  0.12509287265E+03 0.  0.
          5    1    3    3  502    0  0.50229387991E+02 -0.12251907760E+03  0.38253663042E+03  0.40482794099E+03  0.41800000000E+01 0.  1.
         -5    1    3    3    0  502  0.86104342344E+01  0.20160534496E+02  0.24000089987E+03  0.24103628579E+03  0.41800000000E+01 0.  1.
        -11    1    1    2    0    0  0.30868363630E+01  0.50891703754E+02  0.10083658193E+03  0.11299340832E+03  0.00000000000E+00 0.  1.
         11    1    1    2    0    0 -0.61926658588E+02  0.51466839346E+02  0.45738274631E+03  0.46441654064E+03  0.00000000000E+00 0. -1.
</event>
<event>
 7    1  0.3265282E-009  0.6912008E+02  0.7561462E-02  0.1363111E+00
         -1   -1    0    0    0  501 -0.00000000000E+00  0.00000000000E+00  0.15945336125E+03  0.15945336125E+03  0.00000000000E+00 0.  1.
          1   -1    0    0  501    0  0.00000000000E+00 -0.00000000000E+00 -0.10849016470E+03  0.10849016470E+03  0.00000000000E+00 0. -1.
         25    2    1    2    0    0  0.62216945968E+02 -0.21137030568E+02 -0.52109176185E+01  0.14139378337E+03  0.12508927166E+03 0.  0.
          5    1    3    3  502    0  0.25127485994E+02 -0.73821807351E+01  0.59665135437E+02  0.65293858299E+02  0.41800000000E+01 0. -1.
         -5    1    3    3    0  502  0.37089459974E+02 -0.13754849833E+02 -0.64876053056E+02  0.76099925067E+02  0.41800000000E+01 0. -1.
        -11    1    1    2    0    0 -0.19264523144E+02  0.21657364874E+02 -0.22646888970E+02  0.36783758445E+02  0.00000000000E+00 0. -1.
         11    1    1    2    0    0 -0.42952422824E+02 -0.52033430591E+00  0.78821003130E+02  0.89765984140E+02  0.00000000000E+00 0.  1.
</event>
<event>
 7    1  0.3265282E-009  0.1122786E+03  0.7561462E-02  0.1256408E+00
          2   -1    0    0  501    0  0.00000000000E+00  0.00000000000E+00  0.11769382440E+04  0.11769382440E+04  0.00000000000E+00 0. -1.
         -2   -1    0    0    0  501 -0.00000000000E+00 -0.00000000000E+00 -0.11157752605E+02  0.11157752605E+02  0.00000000000E+00 0.  1.
         25    2    1    2    0    0 -0.34997128012E+02 -0.43435392479E+01  0.77003705298E+03  0.78092519553E+03  0.12507370929E+03 0.  0.
          5    1    3    3  502    0 -0.56862718276E+02  0.46305208891E+02  0.49010108804E+03  0.49557450499E+03  0.41800000000E+01 0. -1.
         -5    1    3    3    0  502  0.21865590263E+02 -0.50648748139E+02  0.27993596494E+03  0.28535069054E+03  0.41800000000E+01 0. -1.
        -11    1    1    2    0    0  0.63968416633E+02  0.13539240706E+02  0.27227088755E+03  0.28001197398E+03  0.00000000000E+00 0.  1.
         11    1    1    2    0    0 -0.28971288621E+02 -0.91957014581E+01  0.12347255086E+03  0.12715882708E+03  0.00000000000E+00 0. -1.
</event>
<event>
 7    1  0.3265282E-009  0.1455703E+03  0.7561462E-02  0.1206024E+00
         -2   -1    0    0    0  501 -0.00000000000E+00  0.00000000000E+00  0.13301805779E+03  0.13301805779E+03  0.00000000000E+00 0.  1.
          2   -1    0    0  501    0  0.00000000000E+00 -0.00000000000E+00 -0.23239960564E+03  0.23239960564E+03  0.00000000000E+00 0. -1.
         25    2    1    2    0    0  0.95017932378E+02 -0.75535992423E+02 -0.12311493367E+03  0.21339876907E+03  0.12509058366E+03 0.  0.
          5    1    3    3  502    0  0.42262856378E+02  0.69634440285E+01  0.13640953380E+02  0.45146279925E+02  0.41800000000E+01 0. -1.
         -5    1    3    3    0  502  0.52755076000E+02 -0.82499436451E+02 -0.13675588705E+03  0.16825248914E+03  0.41800000000E+01 0. -1.
        -11    1    1    2    0    0 -0.71150775979E+02  0.95419181058E+02  0.20619142150E+02  0.12079901514E+03  0.00000000000E+00 0.  1.
         11    1    1    2    0    0 -0.23867156399E+02 -0.19883188635E+02  0.31142436699E+01  0.31219879220E+02  0.00000000000E+00 0. -1.
</event>
<event>
 7    1  0.3265282E-009  0.8750454E+02  0.7561462E-02  0.1309010E+00
          1   -1    0    0  501    0  0.00000000000E+00  0.00000000000E+00  0.21757890552E+03  0.21757890552E+03  0.00000000000E+00 0. -1.
         -1   -1    0    0    0  501 -0.00000000000E+00 -0.00000000000E+00 -0.58688170826E+02  0.58688170826E+02  0.00000000000E+00 0.  1.
         25    2    1    2    0    0  0.26053335730E+02 -0.17498023938E+02  0.10459111566E+03  0.16604726273E+03  0.12508970718E+03 0.  0.
          5    1    3    3  502    0  0.66443570279E+02 -0.13087710649E+02  0.10521858974E+03  0.12519768460E+03  0.41800000000E+01 0.  1.
         -5    1    3    3    0  502 -0.40390234549E+02 -0.44103132888E+01 -0.62747407913E+00  0.40849578137E+02  0.41800000000E+01 0.  1.
        -11    1    1    2    0    0 -0.43592246376E+02  0.32409555035E+01  0.70120946803E+02  0.82630109024E+02  0.00000000000E+00 0. -1.
         11    1    1    2    0    0  0.17538910646E+02  0.14257068434E+02 -0.15821327769E+02  0.27589704591E+02  0.00000000000E+00 0.  1.
</event>
<event>
 7    1  0.3265282E-009  0.1003855E+03  0.7561462E-02  0.1279487E+00
         -2   -1    0    0    0  501 -0.00000000000E+00  0.00000000000E+00  0.13441971746E+02  0.13441971746E+02  0.00000000000E+00 0.  1.
          2   -1    0    0  501    0  0.00000000000E+00 -0.00000000000E+00 -0.98015334664E+03  0.98015334664E+03  0.00000000000E+00 0. -1.
         25    2    1    2    0    0  0.26658127131E+02  0.15758417908E+02 -0.65579027300E+03  0.66833057131E+03  0.12508351977E+03 0.  0.
          5    1    3    3  502    0 -0.36165881486E+02  0.26976561025E+02 -0.11240010623E+03  0.12118977724E+03  0.41800000000E+01 0.  1.
         -5    1    3    3    0  502  0.62824008617E+02 -0.11218143117E+02 -0.54339016677E+03  0.54714079407E+03  0.41800000000E+01 0.  1.
        -11    1    1    2    0    0 -0.36931090507E+02  0.28133626698E+02 -0.11087573317E+03  0.12020330529E+03  0.00000000000E+00 0.  1.
         11    1    1    2    0    0  0.10272963375E+02 -0.43892044606E+02 -0.20004536873E+03  0.20506144178E+03  0.00000000000E+00 0. -1.
</event>
<event>
 7    1  0.3265282E-009  0.2140555E+03  0.7561462E-02  0.1138394E+00
          1   -1    0    0  501    0  0.00000000000E+00  0.00000000000E+00  0.11446861258E+04  0.11446861258E+04  0.00000000000E+00 0. -1.
         -1   -1    0    0    0  501 -0.00000000000E+00 -0.00000000000E+00 -0.49614762588E+02  0.49614762588E+02  0.00000000000E+00 0.  1.
         25    2    1    2    0    0 -0.20693298856E+03  0.13375891118E+02  0.70835900707E+03  0.74861338780E+03  0.12509734325E+03 0.  0.
          5    1    3    3  502    0 -0.31688430420E+02  0.26929980962E+02  0.41244002841E+02  0.58718997500E+02  0.41800000000E+01 0. -1.
         -5    1    3    3    0  502 -0.17524455814E+03 -0.13554089844E+02  0.66711500423E+03  0.68989439030E+03  0.41800000000E+01 0. -1.
        -11    1    1    2    0    0  0.16628839222E+03  0.39001375487E+01  0.23662749121E+03  0.28923971038E+03  0.00000000000E+00 0.  1.
         11    1    1    2    0    0  0.40644596339E+02 -0.17276028667E+02  0.15008486491E+03  0.15644779019E+03  0.00000000000E+00 0. -1.
</event>
<event>
 7    1  0.3265282E-009  0.1220160E+03  0.7561462E-02  0.1239808E+00
         -1   -1    0    0    0  501 -0.00000000000E+00  0.00000000000E+00  0.22847128827E+02  0.22847128827E+02  0.00000000000E+00 0.  1.
          1   -1    0    0  501    0  0.00000000000E+00 -0.00000000000E+00 -0.17249901337E+04  0.17249901337E+04  0.00000000000E+00 0. -1.
         25    2    1    2    0    0 -0.53295127542E+02  0.20267982350E+02 -0.15772960662E+04  0.15832755488E+04  0.12508965291E+03 0.  0.
          5    1    3    3  502    0 -0.91155976663E+02 -0.47461098821E+01 -0.11157114945E+04  0.11194469835E+04  0.41800000000E+01 0. -1.
         -5    1    3    3    0  502  0.37860849121E+02  0.25014092232E+02 -0.46158457168E+03  0.46382856522E+03  0.41800000000E+01 0. -1.
        -11    1    1    2    0    0  0.16145992398E+02 -0.54334453875E+02 -0.62153211712E+02  0.84118652358E+02  0.00000000000E+00 0. -1.
         11    1    1    2    0    0  0.37149135145E+02  0.34066471525E+02 -0.62693727038E+02  0.80443061441E+02  0.00000000000E+00 0.  1.
</event>
<event>
 7    1  0.3265282E-009  0.9932815E+02  0.7561462E-02  0.1281715E+00
         -1   -1    0    0    0  501 -0.00000000000E+00  0.00000000000E+00  0.12271794763E+03  0.12271794763E+03  0.00000000000E+00 0.  1.
          1   -1    0    0  501    0  0.00000000000E+00 -0.00000000000E+00 -0.14986649550E+03  0.14986649550E+03  0.00000000000E+00 0. -1.
         25    2    1    2    0    0 -0.52444839362E+02 -0.21161120583E+02  0.11798397983E+02  0.13778506419E+03  0.12508903837E+03 0.  0.
          5    1    3    3  502    0 -0.23261278429E+02  0.43381759335E+02 -0.27635791903E+02  0.56606302752E+02  0.41800000000E+01 0. -1.
         -5    1    3    3    0  502 -0.29183560933E+02 -0.64542879918E+02  0.39434189886E+02  0.81178761439E+02  0.41800000000E+01 0. -1.
        -11    1    1    2    0    0  0.54783823343E+02 -0.21916301954E+01 -0.74315761258E+02  0.92352059611E+02  0.00000000000E+00 0. -1.
         11    1    1    2    0    0 -0.23389839807E+01  0.23352750778E+02  0.35368815404E+02  0.42447319328E+02  0.00000000000E+00 0.  1.
</event>
<event>
 7    1  0.3265282E-009  0.1627718E+03  0.7561462E-02  0.1185602E+00
         -2   -1    0    0    0  501 -0.00000000000E+00  0.00000000000E+00  0.54592293749E+02  0.54592293749E+02  0.00000000000E+00 0.  1.
          2   -1    0    0  501    0  0.00000000000E+00 -0.00000000000E+00 -0.67013370177E+03  0.67013370177E+03  0.00000000000E+00 0. -1.
         25    2    1    2    0    0  0.12183185486E+03  0.72251952289E+02 -0.45353433468E+03  0.49132515584E+03  0.12507465991E+03 0.  0.
          5    1    3    3  502    0  0.12453813637E+03  0.37125588294E+02 -0.42879302160E+03  0.44807252146E+03  0.41800000000E+01 0. -1.
         -5    1    3    3    0  502 -0.27062815105E+01  0.35126363995E+02 -0.24741313083E+02  0.43252634373E+02  0.41800000000E+01 0. -1.
        -11    1    1    2    0    0 -0.11041832062E+03 -0.27405198529E+02 -0.79469582694E+02  0.13877559227E+03  0.00000000000E+00 0.  1.
         11    1    1    2    0    0 -0.11413534242E+02 -0.44846753760E+02 -0.82537490643E+02  0.94625247415E+02  0.00000000000E+00 0. -1.
</event>
<event>
 7    1  0.3265282E-009  0.7001273E+02  0.7561462E-02  0.1360050E+00
          1   -1    0    0  501    0  0.00000000000E+00  0.00000000000E+00  0.18592364182E+03  0.18592364182E+03  0.00000000000E+00 0. -1.
         -1   -1    0    0    0  501 -0.00000000000E+00 -0.00000000000E+00 -0.76323922044E+02  0.76323922044E+02  0.00000000000E+00 0.  1.
         25    2    1    2    0    0  0.46069602138E+02  0.13979851834E+02  0.45923084130E+02  0.14167528013E+03  0.12508041752E+03 0.  0.
          5    1    3    3  502    0  0.13994543953E+02 -0.30978951026E+01 -0.43002549695E+02  0.45520719401E+02  0.41800000000E+01 0. -1.
         -5    1    3    3    0  502  0.32075058185E+02  0.17077746936E+02  0.88925633825E+02  0.96154560730E+02  0.41800000000E+01 0. -1.
        -11    1    1    2    0    0  0.17339898060E+02 -0.17983499547E+02  0.49540711100E+02  0.55482973757E+02  0.00000000000E+00 0. -1.
         11    1    1    2    0    0 -0.63409500198E+02  0.40036477128E+01  0.14135924547E+02  0.65089309976E+02  0.00000000000E+00 0.  1.
</event>
<event>
 7    1  0.3265282E-009  0.1819416E+03  0.7561462E-02  0.1165937E+00
          4   -1    0    0  501    0  0.00000000000E+00  0.00000000000E+00  0.52202020706E+02  0.52202020706E+02  0.00000000000E+00 0. -1.
         -4   -1    0    0    0  501 -0.00000000000E+00 -0.00000000000E+00 -0.78888095942E+03  0.78888095942E+03  0.00000000000E+00 0.  1.
         25    2    1    2    0    0  0.56286295015E+02 -0.16101421038E+03 -0.42993649459E+03  0.47915192259E+03  0.12508977814E+03 0.  0.
          5    1    3    3  502    0  0.18342995871E+00 -0.21759342899E+02 -0.21950652723E+03  0.22062205362E+03  0.41800000000E+01 0.  1.
         -5    1    3    3    0  502  0.56102865056E+02 -0.13925486749E+03 -0.21042996736E+03  0.25852986897E+03  0.41800000000E+01 0.  1.
        -11    1    1    2    0    0 -0.24095661679E+01  0.12867672001E+03 -0.21884319225E+03  0.25388156112E+03  0.00000000000E+00 0.  1.
         11    1    1    2    0    0 -0.53876728847E+02  0.32337490373E+02 -0.87899251879E+02  0.10804949642E+03  0.00000000000E+00 0. -1.
</event>
<event>
 7    1  0.3265282E-009  0.1122608E+03  0.7561462E-02  0.1256440E+00
          4   -1    0    0  501    0  0.00000000000E+00  0.00000000000E+00  0.23902298015E+02  0.23902298015E+02  0.00000000000E+00 0.  1.
         -4   -1    0    0    0  501 -0.00000000000E+00 -0.00000000000E+00 -0.85834549921E+03  0.85834549921E+03  0.00000000000E+00 0. -1.
         25    2    1    2    0    0 -0.58105251503E+02  0.68696006360E+02 -0.55997868841E+03  0.58079157421E+03  0.12508940663E+03 0.  0.
          5    1    3    3  502    0 -0.61012961797E+02  0.32320194874E+02 -0.52671503105E+03  0.53123758606E+03  0.41800000000E+01 0. -1.
         -5    1    3    3    0  502  0.29077102942E+01  0.36375811486E+02 -0.33263657362E+02  0.49553988150E+02  0.41800000000E+01 0. -1.
        -11    1    1    2    0    0  0.44389145994E+02 -0.85855810359E+02 -0.17826948756E+03  0.20278468051E+03  0.00000000000E+00 0.  1.
         11    1    1    2    0    0  0.13716105509E+02  0.17159803999E+02 -0.96195025223E+02  0.98671542510E+02  0.00000000000E+00 0. -1.
</event>
<event>
 7    1  0.3265282E-009  0.1587088E+03  0.7561462E-02  0.1190162E+00
          3   -1    0    0  501    0  0.00000000000E+00  0.00000000000E+00  0.16518862296E+03  0.16518862296E+03  0.00000000000E+00 0. -1.
         -3   -1    0    0    0  501 -0.00000000000E+00 -0.00000000000E+00 -0.20215008953E+03  0.20215008953E+03  0.00000000000E+00 0.  1.
         25    2    1    2    0    0 -0.21053521166E+01  0.13109568705E+03 -0.84190873036E+02  0.19981631983E+03  0.12509175392E+03 0.  0.
          5    1    3    3  502    0 -0.51375810194E+02  0.11807308584E+03 -0.49453437267E+02  0.13799942873E+03  0.41800000000E+01 0. -1.
         -5    1    3    3    0  502  0.49270458078E+02  0.13022601212E+02 -0.34737435769E+02  0.61816891100E+02  0.41800000000E+01 0. -1.
        -11    1    1    2    0    0 -0.98346325573E+01 -0.12211332766E+03  0.69389885305E+02  0.14079538690E+03  0.00000000000E+00 0. -1.
         11    1    1    2    0    0  0.11939984674E+02 -0.89823593955E+01 -0.22160478836E+02  0.26727005754E+02  0.00000000000E+00 0.  1.
</event>
<event>
 7    1  0.4705122E-009  0.2257344E+03  0.7561462E-02  0.1129679E+00
          1   -1    0    0  501    0  0.00000000000E+00  0.00000000000E+00  0.81000229695E+03  0.81000229695E+03  0.00000000000E+00 0. -1.
         -1   -1    0    0    0  501 -0.00000000000E+00 -0.00000000000E+00 -0.73102842382E+02  0.73102842382E+02  0.00000000000E+00 0.  1.
         25    2    1    2    0    0 -0.21378846605E+03  0.75148908312E+01  0.45196830050E+03  0.51544523976E+03  0.12508584547E+03 0.  0.
          5    1    3    3  502    0 -0.21980041114E+03 -0.71028245601E+01  0.35880037218E+03  0.42085371607E+03  0.41800000000E+01 0.  1.
         -5    1    3    3    0  502  0.60119450904E+01  0.14617715391E+02  0.93167928311E+02  0.94591523684E+02  0.41800000000E+01 0.  1.
        -11    1    1    2    0    0  0.14282246947E+03 -0.15901504316E+02  0.11753550459E+03  0.18564942893E+03  0.00000000000E+00 0. -1.
         11    1    1    2    0    0  0.70965996576E+02  0.83866134849E+01  0.16739564948E+03  0.18201047064E+03  0.00000000000E+00 0.  1.
</event>
<event>
 7    1  0.3265282E-009  0.9015052E+02  0.7561462E-02  0.1302488E+00
         -2   -1    0    0    0  501 -0.00000000000E+00  0.00000000000E+00  0.16557865275E+02  0.16557865275E+02  0.00000000000E+00 0.  1.
          2   -1    0    0  501    0  0.00000000000E+00 -0.00000000000E+00 -0.60267938827E+03  0.60267938827E+03  0.00000000000E+00 0. -1.
         25    2    1    2    0    0 -0.26676946482E+01  0.82454468377E+00 -0.35886058920E+03  0.38004714183E+03  0.12508841299E+03 0.  0.
          5    1    3    3  502    0 -0.33843647791E+02  0.49893247536E+02 -0.24234577710E+03  0.24976724510E+03  0.41800000000E+01 0.  1.
         -5    1    3    3    0  502  0.31175953143E+02 -0.49068702852E+02 -0.11651481210E+03  0.13027989674E+03  0.41800000000E+01 0.  1.
        -11    1    1    2    0    0 -0.23864481186E+02  0.17278453699E+02 -0.42843052292E+02  0.51996014791E+02  0.00000000000E+00 0.  1.
         11    1    1    2    0    0  0.26532175834E+02 -0.18102998383E+02 -0.18441788150E+03  0.18719409692E+03  0.00000000000E+00 0. -1.
</event>
<event>
 7    1  0.3265282E-009  0.7342865E+02  0.7561462E-02  0.1348807E+00
         -1   -1    0    0    0  501 -0.00000000000E+00  0.00000000000E+00  0.40846105432E+03  0.40846105432E+03  0.00000000000E+00 0.  1.
          1   -1    0    0  501    0  0.00000000000E+00 -0.00000000000E+00 -0.34467170107E+02  0.34467170107E+02  0.00000000000E+00 0. -1.
         25    2    1    2    0    0  0.47012636747E+02 -0.17499616428E+02  0.21181829962E+03  0.25105930074E+03  0.12508939140E+03 0.  0.
          5    1    3    3  502    0  0.36499581088E+02 -0.60317711124E+01  0.22633358595E+03  0.22937516477E+03  0.41800000000E+01 0.  1.
         -5    1    3    3    0  502  0.10513055660E+02 -0.11467845316E+02 -0.14515286328E+02  0.21684135968E+02  0.41800000000E+01 0.  1.
        -11    1    1    2    0    0 -0.67575160264E+02  0.24374356902E+02  0.15157178685E+03  0.16773347349E+03  0.00000000000E+00 0.  1.
         11    1    1    2    0    0  0.20562523516E+02 -0.68747404734E+01  0.10603797734E+02  0.24135450199E+02  0.00000000000E+00 0. -1.
</event>
<event>
 7    1  0.3265282E-009  0.1559214E+03  0.7561462E-02  0.1193380E+00
          2   -1    0    0  501    0  0.00000000000E+00  0.00000000000E+00  0.98098180917E+03  0.98098180917E+03  0.00000000000E+00 0.  1.
         -2   -1    0    0    0  501 -0.00000000000E+00 -0.00000000000E+00 -0.29258505029E+02  0.29258505029E+02  0.00000000000E+00 0. -1.
         25    2    1    2    0    0 -0.71034068224E+02 -0.90565082651E+02  0.67596107819E+03  0.69700885671E+03  0.12510033598E+03 0.  0.
          5    1    3    3  502    0 -0.76621436674E+02 -0.86079869110E+00  0.38008250859E+03  0.38775220343E+03  0.41800000000E+01 0.  1.
         -5    1    3    3    0  502  0.55873684503E+01 -0.89704283960E+02  0.29587856961E+03  0.30925665328E+03  0.41800000000E+01 0.  1.
        -11    1    1    2    0    0  0.25312404893E+02  0.95817856741E+02  0.21726084945E+03  0.23879710261E+03  0.00000000000E+00 0. -1.
         11    1    1    2    0    0  0.45721663330E+02 -0.52527740899E+01  0.58501376501E+02  0.74434354877E+02  0.00000000000E+00 0.  1.
</event>
<event>
 7    1  0.3265282E-009  0.6380480E+02  0.7561462E-02  0.1382525E+00
         -2   -1    0    0    0  501 -0.00000000000E+00  0.00000000000E+00  0.26171399409E+03  0.26171399409E+03  0.00000000000E+00 0.  1.
          2   -1    0    0  501    0  0.00000000000E+00 -0.00000000000E+00 -0.48202265013E+02  0.48202265013E+02  0.00000000000E+00 0. -1.
         25    2    1    2    0    0 -0.17348012523E+02 -0.22454342838E+02  0.12557142812E+03  0.17950267739E+03  0.12509147284E+03 0.  0.
          5    1    3    3  502    0  0.24258468547E+02  0.14184978443E+01  0.12890005457E+03  0.13123712090E+03  0.41800000000E+01 0.  1.
         -5    1    3    3    0  502 -0.41606481070E+02 -0.23872840682E+02 -0.33286264494E+01  0.48265556490E+02  0.41800000000E+01 0.  1.
        -11    1    1    2    0    0  0.17685543912E+02 -0.11338198331E+02 -0.12496531276E+02  0.24443741505E+02  0.00000000000E+00 0. -1.
         11    1    1    2    0    0 -0.33753138851E+00  0.33792541168E+02  0.10043683223E+03  0.10596984021E+03  0.00000000000E+00 0.  1.
</event>
<event>
 7    1  0.3265282E-009  0.3689432E+02  0.7561462E-02  0.1532394E+00
         -1   -1    0    0    0  501 -0.00000000000E+00  0.00000000000E+00  0.54337614247E+02  0.54337614247E+02  0.00000000000E+00 0.  1.
          1   -1    0    0  501    0  0.00000000000E+00 -0.00000000000E+00 -0.30459351838E+03  0.30459351838E+03  0.00000000000E+00 0. -1.
         25    2    1    2    0    0  0.19818169227E+02  0.84006278702E+01 -0.22961456314E+03  0.26235909105E+03  0.12508443016E+03 0.  0.
          5    1    3    3  502    0  0.11154368551E+02 -0.69882546227E+01  0.13059533308E+02  0.19007352542E+02  0.41800000000E+01 0.  1.
         -5    1    3    3    0  502  0.86638006765E+01  0.15388882493E+02 -0.24267409645E+03  0.24335173851E+03  0.41800000000E+01 0.  1.
        -11    1    1    2    0    0 -0.23517635417E+01  0.13564566271E+02  0.33152960938E+02  0.35897730692E+02  0.00000000000E+00 0.  1.
         11    1    1    2    0    0 -0.17466405686E+02 -0.21965194141E+02 -0.53794301935E+02  0.60674310889E+02  0.00000000000E+00 0. -1.
</event>
<event>
 7    1  0.3265282E-009  0.8670357E+02  0.7561462E-02  0.1311037E+00
          2   -1    0    0  501    0  0.00000000000E+00  0.00000000000E+00  0.75756540483E+03  0.75756540483E+03  0.00000000000E+00 0. -1.
         -2   -1    0    0    0  501 -0.00000000000E+00 -0.00000000000E+00 -0.22279219330E+02  0.22279219330E+02  0.00000000000E+00 0.  1.
         25    2    1    2    0    0 -0.16099916247E+02  0.11384684522E+02  0.59899611632E+03  0.61223554092E+03  0.12508873590E+03 0.  0.
          5    1    3    3  502    0  0.49651522050E+02 -0.35159926426E+01  0.14783601216E+03  0.15604677100E+03  0.41800000000E+01 0.  1.
         -5    1    3    3    0  502 -0.65751438297E+02  0.14900677165E+02  0.45116010416E+03  0.45618876992E+03  0.41800000000E+01 0.  1.
        -11    1    1    2    0    0  0.25675832248E+02  0.13668235256E+02  0.13771239975E+03  0.14075075155E+03  0.00000000000E+00 0. -1.
         11    1    1    2    0    0 -0.95759160011E+01 -0.25052919778E+02 -0.14223305790E+01  0.26858331685E+02  0.00000000000E+00 0.  1.
</event>
<event>
 7    1  0.3265282E-009  0.1123650E+03  0.7561462E-02  0.1256252E+00
          1   -1    0    0  501    0  0.00000000000E+00  0.00000000000E+00  0.76004753445E+02  0.76004753445E+02  0.00000000000E+00 0. -1.
         -1   -1    0    0    0  501 -0.00000000000E+00 -0.00000000000E+00 -0.35097480383E+03  0.35097480383E+03  0.00000000000E+00 0.  1.
         25    2    1    2    0    0  0.44972618587E+02  0.54355253022E+02 -0.28020131774E+03  0.31486042551E+03  0.12508908479E+03 0.  0.
          5    1    3    3  502    0  0.50882521797E+02  0.91309791974E+02 -0.18581970229E+03  0.21324385875E+03  0.41800000000E+01 0. -1.
         -5    1    3    3    0  502 -0.59099032091E+01 -0.36954538953E+02 -0.94381615455E+02  0.10161656677E+03  0.41800000000E+01 0. -1.
        -11    1    1    2    0    0 -0.30656676069E+02 -0.49894768096E+01  0.39570074440E+02  0.50304248902E+02  0.00000000000E+00 0. -1.
         11    1    1    2    0    0 -0.14315942518E+02 -0.49365776212E+02 -0.34338807081E+02  0.61814882860E+02  0.00000000000E+00 0.  1.
</event>
<event>
 7    1  0.3946389E-009  0.6937051E+02  0.7561462E-02  0.1362247E+00
          1   -1    0    0  501    0  0.00000000000E+00  0.00000000000E+00  0.53319267155E+03  0.53319267155E+03  0.00000000000E+00 0. -1.
         -1   -1    0    0    0  501 -0.00000000000E+00 -0.00000000000E+00 -0.29671478218E+02  0.29671478218E+02  0.00000000000E+00 0.  1.
         25    2    1    2    0    0  0.10241165856E+02 -0.21083679749E+02  0.41325861606E+03  0.43240551970E+03  0.12506976731E+03 0.  0.
          5    1    3    3  502    0 -0.22935293040E+02 -0.30099326772E+02  0.38719192106E+03  0.38905918994E+03  0.41800000000E+01 0. -1.
         -5    1    3    3    0  502  0.33176458897E+02  0.90156470235E+01  0.26066694994E+02  0.43346329765E+02  0.41800000000E+01 0. -1.
        -11    1    1    2    0    0 -0.14740893637E+02 -0.19923019474E+02  0.85396135386E+02  0.88919742403E+02  0.00000000000E+00 0. -1.
         11    1    1    2    0    0  0.44997277811E+01  0.41006699223E+02  0.48664418854E+01  0.41538887659E+02  0.00000000000E+00 0.  1.
</event>
<event>
 7    1  0.3265282E-009  0.1172791E+03  0.7561462E-02  0.1247654E+00
         -2   -1    0    0    0  501 -0.00000000000E+00  0.00000000000E+00  0.71618929062E+02  0.71618929062E+02  0.00000000000E+00 0.  1.
          2   -1    0    0  501    0  0.00000000000E+00 -0.00000000000E+00 -0.20717054224E+03  0.20717054224E+03  0.00000000000E+00 0. -1.
         25    2    1    2    0    0 -0.56190031463E+02 -0.80037804544E+01 -0.79359487444E+02  0.15863875440E+03  0.12508775325E+03 0.  0.
          5    1    3    3  502    0  0.15197609035E+01  0.49392046720E+02 -0.78394144442E+01  0.50207696335E+02  0.41800000000E+01 0.  1.
         -5    1    3    3    0  502 -0.57709792367E+02 -0.57395827175E+02 -0.71520073000E+02  0.10843105807E+03  0.41800000000E+01 0.  1.
        -11    1    1    2    0    0  0.79451873490E+02  0.10188628735E+02 -0.54169224700E+02  0.96699086144E+02  0.00000000000E+00 0. -1.
         11    1    1    2    0    0 -0.23261842026E+02 -0.21848482810E+01 -0.20229010346E+01  0.23451630755E+02  0.00000000000E+00 0.  1.
</event>
<event>
 7    1  0.3265282E-009  0.1170385E+03  0.7561462E-02  0.1248064E+00
         -2   -1    0    0    0  501 -0.00000000000E+00  0.00000000000E+00  0.10937582080E+03  0.10937582080E+03  0.00000000000E+00 0.  1.
          2   -1    0    0  501    0  0.00000000000E+00 -0.00000000000E+00 -0.14889896898E+03  0.14889896898E+03  0.00000000000E+00 0. -1.
         25    2    1    2    0    0 -0.59547296090E+02  0.79430679950E+01 -0.50243886759E+02  0.14758491642E+03  0.12509151289E+03 0.  0.
          5    1    3    3  502    0 -0.84364339986E+02  0.35019216857E+02 -0.85111899077E+01  0.91834634884E+02  0.41800000000E+01 0.  1.
         -5    1    3    3    0  502  0.24817043896E+02 -0.27076148862E+02 -0.41732696852E+02  0.55750281537E+02  0.41800000000E+01 0.  1.
        -11    1    1    2    0    0 -0.36503996828E+01 -0.36243496093E+02  0.18770448011E+02  0.40978605948E+02  0.00000000000E+00 0.  1.
         11    1    1    2    0    0  0.63197695773E+02  0.28300428098E+02 -0.80497094297E+01  0.69711267407E+02  0.00000000000E+00 0. -1.
</event>
<event>
 7    1  0.3265282E-009  0.1186127E+03  0.7561462E-02  0.1245403E+00
         -2   -1    0    0    0  501 -0.00000000000E+00  0.00000000000E+00  0.35268697199E+02  0.35268697199E+02  0.00000000000E+00 0. -1.
          2   -1    0    0  501    0  0.00000000000E+00 -0.00000000000E+00 -0.60647756137E+03  0.60647756137E+03  0.00000000000E+00 0.  1.
         25    2    1    2    0    0  0.49858792446E+01  0.95522875432E+02 -0.35064587541E+03  0.38438153330E+03  0.12508858652E+03 0.  0.
          5    1    3    3  502    0  0.30447798033E+02  0.16346669340E+02 -0.25583415117E+03  0.25819153222E+03  0.41800000000E+01 0. -1.
         -5    1    3    3    0  502 -0.25461918788E+02  0.79176206092E+02 -0.94811724232E+02  0.12619000108E+03  0.41800000000E+01 0. -1.
        -11    1    1    2    0    0 -0.36477349395E+02 -0.33248423358E+02 -0.15087543904E+03  0.15874335507E+03  0.00000000000E+00 0.  1.
         11    1    1    2    0    0  0.31491470150E+02 -0.62274452074E+02 -0.69687549725E+02  0.98621370199E+02  0.00000000000E+00 0. -1.
</event>
<event>
 7    1  0.3265282E-009  0.9823129E+02  0.7561462E-02  0.1284060E+00
         -4   -1    0    0    0  501 -0.00000000000E+00  0.00000000000E+00  0.53505210615E+02  0.53505210615E+02  0.00000000000E+00 0. -1.
          4   -1    0    0  501    0  0.00000000000E+00 -0.00000000000E+00 -0.39544862983E+03  0.39544862983E+03  0.00000000000E+00 0.  1.
         25    2    1    2    0    0 -0.55534200391E+02  0.29389101449E+02 -0.28367747851E+03  0.31633582426E+03  0.12509066791E+03 0.  0.
          5    1    3    3  502    0 -0.48329035188E+02  0.42070759770E+02 -0.29203680525E+03  0.29901272964E+03  0.41800000000E+01 0.  1.
         -5    1    3    3    0  502 -0.72051652030E+01 -0.12681658320E+02  0.83593267421E+01  0.17323094612E+02  0.41800000000E+01 0.  1.
        -11    1    1    2    0    0  0.49940923816E+02 -0.64472202010E+02 -0.51503414811E+02  0.96453939478E+02  0.00000000000E+00 0.  1.
         11    1    1    2    0    0  0.55932765750E+01  0.35083100561E+02 -0.67625258975E+01  0.36164076711E+02  0.00000000000E+00 0. -1.
</event>
<event>
 7    1  0.3265282E-009  0.1076840E+03  0.7561462E-02  0.1264920E+00
         -1   -1    0    0    0  501 -0.00000000000E+00  0.00000000000E+00  0.24453547753E+02  0.24453547753E+02  0.00000000000E+00 0.  1.
          1   -1    0    0  501    0  0.00000000000E+00 -0.00000000000E+00 -0.61475646935E+03  0.61475646935E+03  0.00000000000E+00 0. -1.
         25    2    1    2    0    0  0.45361825974E+02 -0.79295216637E+01 -0.24882622284E+03  0.28228200031E+03  0.12509222980E+03 0.  0.
          5    1    3    3  502    0  0.14155308444E+02  0.57020614154E+02 -0.86701572791E+02  0.10481583048E+03  0.41800000000E+01 0. -1.
         -5    1    3    3    0  502  0.31206517530E+02 -0.64950135818E+02 -0.16212465005E+03  0.17746616983E+03  0.41800000000E+01 0. -1.
        -11    1    1    2    0    0  0.18746577623E+02  0.74668486315E+01 -0.17627102875E+02  0.26793707411E+02  0.00000000000E+00 0.  1.
         11    1    1    2    0    0 -0.64108403597E+02  0.46267303219E+00 -0.32384959589E+03  0.33013430939E+03  0.00000000000E+00 0. -1.
</event>
<event>
 7    1  0.3265282E-009  0.1172785E+03  0.7561462E-02  0.1247655E+00
          2   -1    0    0  501    0  0.00000000000E+00  0.00000000000E+00  0.79127395758E+03  0.79127395758E+03  0.00000000000E+00 0.  1.
         -2   -1    0    0    0  501 -0.00000000000E+00 -0.00000000000E+00 -0.28742285210E+02  0.28742285210E+02  0.00000000000E+00 0. -1.
         25    2    1    2    0    0 -0.95603332884E+02 -0.35493638739E+02  0.47826511032E+03  0.50476162641E+03  0.12508792145E+03 0.  0.
          5    1    3    3  502    0 -0.33660246822E+02 -0.27712972422E+02  0.32284056275E+02  0.54412808659E+02  0.41800000000E+01 0.  1.
         -5    1    3    3    0  502 -0.61943086062E+02 -0.77806663172E+01  0.44598105405E+03  0.45034881775E+03  0.41800000000E+01 0.  1.
        -11    1    1    2    0    0 -0.95818572397E+01  0.19587659320E+02  0.17175748531E+02  0.27757786717E+02  0.00000000000E+00 0. -1.
         11    1    1    2    0    0  0.10518519012E+03  0.15905979419E+02  0.26709081351E+03  0.28749682966E+03  0.00000000000E+00 0.  1.
</event>
<event>
 7    1  0.3265282E-009  0.1505483E+03  0.7561462E-02  0.1199801E+00
         -2   -1    0    0    0  501 -0.00000000000E+00  0.00000000000E+00  0.47338833844E+02  0.47338833844E+02  0.00000000000E+00 0.  1.
          2   -1    0    0  501    0  0.00000000000E+00 -0.00000000000E+00 -0.48173029958E+03  0.48173029958E+03  0.00000000000E+00 0. -1.
         25    2    1    2    0    0  0.96255866348E+02 -0.11819596047E+02 -0.23766552447E+03  0.28554718732E+03  0.12508956795E+03 0.  0.
          5    1    3    3  502    0  0.10480501641E+03  0.34790583136E+02 -0.17260363420E+03  0.20494868401E+03  0.41800000000E+01 0.  1.
         -5    1    3    3    0  502 -0.85491500646E+01 -0.46610179183E+02 -0.65061890268E+02  0.80598503309E+02  0.41800000000E+01 0.  1.
        -11    1    1    2    0    0 -0.11744691493E+03 -0.24451346468E+01 -0.16905705059E+03  0.20586413691E+03  0.00000000000E+00 0.  1.
         11    1    1    2    0    0  0.21191048584E+02  0.14264730694E+02 -0.27668890676E+02  0.37657809192E+02  0.00000000000E+00 0. -1.
</event>
<event>
 7    1  0.3265282E-009  0.3542231E+02  0.7561462E-02  0.1544882E+00
          2   -1    0    0  501    0  0.00000000000E+00  0.00000000000E+00  0.11226351456E+03  0.11226351456E+03  0.00000000000E+00 0. -1.
         -2   -1    0    0    0  501 -0.00000000000E+00 -0.00000000000E+00 -0.10877119313E+03  0.10877119313E+03  0.00000000000E+00 0.  1.
         25    2    1    2    0    0  0.15296218022E+02 -0.10939357503E+02  0.14675065826E+02  0.12734591706E+03  0.12509189105E+03 0.  0.
          5    1    3    3  502    0  0.60665637518E+01 -0.14050144027E+02 -0.54808653605E+02  0.57058484496E+02  0.41800000000E+01 0.  1.
         -5    1    3    3    0  502  0.92296542700E+01  0.31107865244E+01  0.69483719431E+02  0.70287432566E+02  0.41800000000E+01 0.  1.
        -11    1    1    2    0    0 -0.17294761039E+02 -0.12194256986E+02 -0.46690891058E+02  0.51262539643E+02  0.00000000000E+00 0.  1.
         11    1    1    2    0    0  0.19985430176E+01  0.23133614489E+02  0.35508146666E+02  0.42426250991E+02  0.00000000000E+00 0. -1.
</event>
<event>
 7    1  0.3265282E-009  0.1140763E+03  0.7561462E-02  0.1253202E+00
          2   -1    0    0  501    0  0.00000000000E+00  0.00000000000E+00  0.43972119322E+03  0.43972119322E+03  0.00000000000E+00 0. -1.
         -2   -1    0    0    0  501 -0.00000000000E+00 -0.00000000000E+00 -0.57474456906E+02  0.57474456906E+02  0.00000000000E+00 0.  1.
         25    2    1    2    0    0 -0.71064992634E+02  0.60799782177E+02  0.31233567678E+03  0.34921136445E+03  0.12509258721E+03 0.  0.
          5    1    3    3  502    0 -0.66747882372E+02  0.17800861354E+02  0.29407829839E+03  0.30211201308E+03  0.41800000000E+01 0.  1.
         -5    1    3    3    0  502 -0.43171102624E+01  0.42998920823E+02  0.18257378397E+02  0.47099351364E+02  0.41800000000E+01 0.  1.
        -11    1    1    2    0    0  0.84612663726E+02 -0.53938635363E+02  0.81183772079E+02  0.12907162390E+03  0.00000000000E+00 0. -1.
         11    1    1    2    0    0 -0.13547671091E+02 -0.68611468140E+01 -0.11272712545E+02  0.18912661783E+02  0.00000000000E+00 0.  1.
</event>
<event>
 7    1  0.3265282E-009  0.1104166E+03  0.7561462E-02  0.1259800E+00
          1   -1    0    0  501    0  0.00000000000E+00  0.00000000000E+00  0.43609266038E+02  0.43609266038E+02  0.00000000000E+00 0. -1.
         -1   -1    0    0    0  501 -0.00000000000E+00 -0.00000000000E+00 -0.44037513015E+03  0.44037513015E+03  0.00000000000E+00 0.  1.
         25    2    1    2    0    0 -0.76701548078E+02 -0.13971545735E+02 -0.15271724137E+03  0.21224576209E+03  0.12508947256E+03 0.  0.
          5    1    3    3  502    0  0.33114760935E+01 -0.52540430930E+02 -0.30121665007E+02  0.60796791519E+02  0.41800000000E+01 0.  1.
         -5    1    3    3    0  502 -0.80013024172E+02  0.38568885195E+02 -0.12259557636E+03  0.15144897057E+03  0.41800000000E+01 0.  1.
        -11    1    1    2    0    0  0.22689900570E+02  0.10432595727E+02 -0.35503143491E+01  0.25224499469E+02  0.00000000000E+00 0. -1.
         11    1    1    2    0    0  0.54011647508E+02  0.35389500078E+01 -0.24049830839E+03  0.24651413463E+03  0.00000000000E+00 0.  1.
</event>
<event>
 7    1  0.3265282E-009  0.1856227E+03  0.7561462E-02  0.1162470E+00
          1   -1    0    0  501    0  0.00000000000E+00  0.00000000000E+00  0.61070847060E+03  0.61070847060E+03  0.00000000000E+00 0. -1.
         -1   -1    0    0    0  501 -0.00000000000E+00 -0.00000000000E+00 -0.86371066999E+02  0.86371066999E+02  0.00000000000E+00 0.  1.
         25    2    1    2    0    0 -0.12494229059E+03 -0.10830097930E+03  0.95295247864E+02  0.22818397616E+03  0.12508822732E+03 0.  0.
          5    1    3    3  502    0 -0.11961951255E+03 -0.60952222141E+02  0.11464071432E+03  0.17658982685E+03  0.41800000000E+01 0. -1.
         -5    1    3    3    0  502 -0.53227780397E+01 -0.47348757158E+02 -0.19345466456E+02  0.51594149308E+02  0.41800000000E+01 0. -1.
        -11    1    1    2    0    0  0.49370502574E+02  0.10192979745E+03  0.25047524441E+03  0.27489084778E+03  0.00000000000E+00 0.  1.
         11    1    1    2    0    0  0.75571788014E+02  0.63711818492E+01  0.17856691133E+03  0.19400471367E+03  0.00000000000E+00 0. -1.
</event>
<event>
 7    1  0.3265282E-009  0.1216136E+03  0.7561462E-02  0.1240459E+00
         -1   -1    0    0    0  501 -0.00000000000E+00  0.00000000000E+00  0.35970853162E+02  0.35970853162E+02  0.00000000000E+00 0.  1.
          1   -1    0    0  501    0  0.00000000000E+00 -0.00000000000E+00 -0.44312939049E+03  0.44312939049E+03  0.00000000000E+00 0. -1.
         25    2    1    2    0    0 -0.43031629350E+02  0.41629459065E+02 -0.18109963908E+03  0.22809830530E+03  0.12508806744E+03 0.  0.
          5    1    3    3  502    0 -0.62116638602E+01 -0.42123745550E+02 -0.86083040106E+02  0.96128855714E+02  0.41800000000E+01 0. -1.
         -5    1    3    3    0  502 -0.36819965490E+02  0.83753204615E+02 -0.95016598976E+02  0.13196944958E+03  0.41800000000E+01 0. -1.
        -11    1    1    2    0    0  0.32876127340E+02  0.25098875988E+02 -0.93839141533E+02  0.10255036718E+03  0.00000000000E+00 0. -1.
         11    1    1    2    0    0  0.10155502010E+02 -0.66728335053E+02 -0.13221975672E+03  0.14845157118E+03  0.00000000000E+00 0.  1.
</event>
<event>
 7    1  0.3265282E-009  0.1204437E+03  0.7561462E-02  0.1242367E+00
          2   -1    0    0  501    0  0.00000000000E+00  0.00000000000E+00  0.55105918311E+03  0.55105918311E+03  0.00000000000E+00 0. -1.
         -2   -1    0    0    0  501 -0.00000000000E+00 -0.00000000000E+00 -0.58279039997E+02  0.58279039997E+02  0.00000000000E+00 0.  1.
         25    2    1    2    0    0  0.10138655292E+03 -0.97941785254E-02  0.43251698408E+03  0.46151644046E+03  0.12508896866E+03 0.  0.
          5    1    3    3  502    0  0.32532437457E+02  0.24469470828E+02  0.26045733107E+02  0.48507392247E+02  0.41800000000E+01 0. -1.
         -5    1    3    3    0  502  0.68854115466E+02 -0.24479265006E+02  0.40647125098E+03  0.41300904821E+03  0.41800000000E+01 0. -1.
        -11    1    1    2    0    0  0.12090368670E+02  0.52302950461E+01  0.26038635359E+02  0.29181218826E+02  0.00000000000E+00 0. -1.
         11    1    1    2    0    0 -0.11347692159E+03 -0.52205008676E+01  0.34224523667E+02  0.11864056382E+03  0.00000000000E+00 0.  1.
</event>
<event>
 7    1  0.3265282E-009  0.1029035E+03  0.7561462E-02  0.1274306E+00
         -1   -1    0    0    0  501 -0.00000000000E+00  0.00000000000E+00  0.45912012984E+02  0.45912012984E+02  0.00000000000E+00 0.  1.
          1   -1    0    0  501    0  0.00000000000E+00 -0.00000000000E+00 -0.41355479194E+03  0.41355479194E+03  0.00000000000E+00 0. -1.
         25    2    1    2    0    0 -0.19645083137E+02 -0.22082638163E+02 -0.33982617518E+03  0.36332576345E+03  0.12510079476E+03 0.  0.
          5    1    3    3  502    0  0.41435746669E+02 -0.37113030084E+02 -0.23023100970E+03  0.23689256707E+03  0.41800000000E+01 0. -1.
         -5    1    3    3    0  502 -0.61080829806E+02  0.15030391921E+02 -0.10959516548E+03  0.12643319639E+03  0.41800000000E+01 0. -1.
        -11    1    1    2    0    0 -0.12493233245E+02  0.45521380944E+02  0.67984041514E+00  0.47209524282E+02  0.00000000000E+00 0.  1.
         11    1    1    2    0    0  0.32138316382E+02 -0.23438742781E+02 -0.28496444189E+02  0.48931517189E+02  0.00000000000E+00 0. -1.
</event>
<event>
 7    1  0.3265282E-009  0.1392194E+03  0.7561462E-02  0.1214383E+00
         -2   -1    0    0    0  501 -0.00000000000E+00  0.00000000000E+00  0.15408032719E+03  0.15408032719E+03  0.00000000000E+00 0.  1.
          2   -1    0    0  501    0  0.00000000000E+00 -0.00000000000E+00 -0.19393243283E+03  0.19393243283E+03  0.00000000000E+00 0. -1.
         25    2    1    2    0    0 -0.80345269149E+02  0.64338511264E+02 -0.10838602124E+03  0.19491052146E+03  0.12509106871E+03 0.  0.
          5    1    3    3  502    0 -0.96303216025E+02  0.18735125608E+01 -0.54289815323E+02  0.11064662631E+03  0.41800000000E+01 0.  1.
         -5    1    3    3    0  502  0.15957946876E+02  0.62464998704E+02 -0.54096205915E+02  0.84263895150E+02  0.41800000000E+01 0.  1.
        -11    1    1    2    0    0  0.42313066197E+01 -0.35928795323E+02 -0.12576607077E+02  0.38300826814E+02  0.00000000000E+00 0. -1.
         11    1    1    2    0    0  0.76113962529E+02 -0.28409715941E+02  0.81110522665E+02  0.11480141175E+03  0.00000000000E+00 0.  1.
</event>
<event>
 7    1  0.3265282E-009  0.1273519E+03  0.7561462E-02  0.1231439E+00
          1   -1    0    0  501    0  0.00000000000E+00  0.00000000000E+00  0.57229209413E+02  0.57229209413E+02  0.00000000000E+00 0. -1.
         -1   -1    0    0    0  501 -0.00000000000E+00 -0.00000000000E+00 -0.44317825529E+03  0.44317825529E+03  0.00000000000E+00 0.  1.
         25    2    1    2    0    0  0.65777783040E+02  0.21511634926E+02 -0.59999671359E+02  0.15504613020E+03  0.12509945942E+03 0.  0.
          5    1    3    3  502    0  0.97423828241E+02 -0.74169841841E+01 -0.53520759144E+02  0.11148254582E+03  0.41800000000E+01 0. -1.
         -5    1    3    3    0  502 -0.31646045201E+02  0.28928619110E+02 -0.64789122144E+01  0.43563584379E+02  0.41800000000E+01 0. -1.
        -11    1    1    2    0    0 -0.18514235159E+02  0.35340916584E+02 -0.12696563800E+03  0.13308655275E+03  0.00000000000E+00 0.  1.
         11    1    1    2    0    0 -0.47263547881E+02 -0.56852551510E+02 -0.19898373651E+03  0.21227478175E+03  0.00000000000E+00 0. -1.
</event>
<event>
 7    1  0.3265282E-009  0.9345124E+02  0.7561462E-02  0.1294703E+00
         -2   -1    0    0    0  501 -0.00000000000E+00  0.00000000000E+00  0.12719649091E+03  0.12719649091E+03  0.00000000000E+00 0.  1.
          2   -1    0    0  501    0  0.00000000000E+00 -0.00000000000E+00 -0.98907839174E+02  0.98907839174E+02  0.00000000000E+00 0. -1.
         25    2    1    2    0    0 -0.26957930904E+02 -0.43808323925E+01  0.34892648982E+02  0.13270612321E+03  0.12508995344E+03 0.  0.
          5    1    3    3  502    0 -0.51295571834E+02 -0.28950916394E+02  0.64167910816E+02  0.87203121666E+02  0.41800000000E+01 0. -1.
         -5    1    3    3    0  502  0.24337640930E+02  0.24570084001E+02 -0.29275261834E+02  0.45503001541E+02  0.41800000000E+01 0. -1.
        -11    1    1    2    0    0 -0.31655386757E+02  0.12118822713E+02 -0.49310218069E+01  0.34252654652E+02  0.00000000000E+00 0. -1.
         11    1    1    2    0    0  0.58613317660E+02 -0.77379903204E+01 -0.16729754386E+01  0.59145552226E+02  0.00000000000E+00 0.  1.
</event>
<event>
 7    1  0.3265282E-009  0.1113431E+03  0.7561462E-02  0.1258103E+00
          2   -1    0    0  501    0  0.00000000000E+00  0.00000000000E+00  0.86474633795E+02  0.86474633795E+02  0.00000000000E+00 0. -1.
         -2   -1    0    0    0  501 -0.00000000000E+00 -0.00000000000E+00 -0.16786109704E+03  0.16786109704E+03  0.00000000000E+00 0.  1.
         25    2    1    2    0    0 -0.46660660992E+02  0.22527425392E+02 -0.33037046699E+02  0.13936965614E+03  0.12509097657E+03 0.  0.
          5    1    3    3  502    0 -0.51310619503E+02  0.60780246193E+02  0.11332252284E+02  0.80454399152E+02  0.41800000000E+01 0. -1.
         -5    1    3    3    0  502  0.46499585115E+01 -0.38252820800E+02 -0.44369298983E+02  0.58915256985E+02  0.41800000000E+01 0. -1.
        -11    1    1    2    0    0 -0.18903579220E+02 -0.32850786298E+02 -0.16217838076E+02  0.41225450144E+02  0.00000000000E+00 0.  1.
         11    1    1    2    0    0  0.65564240212E+02  0.10323360906E+02 -0.32131578474E+02  0.73740624558E+02  0.00000000000E+00 0. -1.
</event>
<event>
 7    1  0.3265282E-009  0.2975182E+03  0.7561462E-02  0.1086488E+00
         -1   -1    0    0    0  501 -0.00000000000E+00  0.00000000000E+00  0.41311508147E+03  0.41311508147E+03  0.00000000000E+00 0.  1.
          1   -1    0    0  501    0  0.00000000000E+00 -0.00000000000E+00 -0.24871774089E+03  0.24871774089E+03  0.00000000000E+00 0. -1.
         25    2    1    2    0    0  0.24275536980E+03 -0.14891380523E+03  0.18604068901E+03  0.36244211406E+03  0.12509059565E+03 0.  0.
          5    1    3    3  502    0  0.12857702840E+03 -0.14650834545E+03  0.98214932499E+02  0.21831260359E+03  0.41800000000E+01 0.  1.
         -5    1    3    3    0  502  0.11417834140E+03 -0.24054597767E+01  0.87825756515E+02  0.14412951047E+03  0.41800000000E+01 0.  1.
        -11    1    1    2    0    0 -0.19446185211E+03  0.13002845485E+03  0.17259854921E+02  0.23456494535E+03  0.00000000000E+00 0.  1.
         11    1    1    2    0    0 -0.48293517696E+02  0.18885350381E+02 -0.38903203359E+02  0.64825762950E+02  0.00000000000E+00 0. -1.
</event>
<event>
 7    1  0.3265282E-009  0.2408368E+03  0.7561462E-02  0.1119237E+00
          2   -1    0    0  501    0  0.00000000000E+00  0.00000000000E+00  0.38075943903E+03  0.38075943903E+03  0.00000000000E+00 0. -1.
         -2   -1    0    0    0  501 -0.00000000000E+00 -0.00000000000E+00 -0.17940031713E+03  0.17940031713E+03  0.00000000000E+00 0.  1.
         25    2    1    2    0    0  0.68944745650E+02  0.22307454587E+03  0.14937097532E+03  0.30409804073E+03  0.12509316185E+03 0.  0.
          5    1    3    3  502    0  0.60599617316E+02  0.19208465971E+03  0.17176230747E+03  0.26474250279E+03  0.41800000000E+01 0. -1.
         -5    1    3    3    0  502  0.83451283339E+01  0.30989886159E+02 -0.22391332153E+02  0.39355537941E+02  0.41800000000E+01 0. -1.
        -11    1    1    2    0    0 -0.31524499604E+02 -0.20290321980E+03  0.57396195709E+02  0.21320842845E+03  0.00000000000E+00 0. -1.
         11    1    1    2    0    0 -0.37420246046E+02 -0.20171326069E+02 -0.54080491279E+01  0.42853286979E+02  0.00000000000E+00 0.  1.
</event>
<event>
 7    1  0.3265282E-009  0.1018144E+03  0.7561462E-02  0.1276526E+00
         -1   -1    0    0    0  501 -0.00000000000E+00  0.00000000000E+00  0.31873761314E+02  0.31873761314E+02  0.00000000000E+00 0.  1.
          1   -1    0    0  501    0  0.00000000000E+00 -0.00000000000E+00 -0.46495758063E+03  0.46495758063E+03  0.00000000000E+00 0. -1.
         25    2    1    2    0    0  0.20956234459E+02 -0.35965815733E+02 -0.32078535207E+03  0.34681837107E+03  0.12508811593E+03 0.  0.
          5    1    3    3  502    0  0.72204712787E+02 -0.34615621372E+02 -0.18568551552E+03  0.20225811446E+03  0.41800000000E+01 0.  1.
         -5    1    3    3    0  502 -0.51248478328E+02 -0.13501943608E+01 -0.13509983655E+03  0.14456025661E+03  0.41800000000E+01 0.  1.
        -11    1    1    2    0    0 -0.40100992473E+02  0.34342077106E+02 -0.21172661948E+02  0.56883648540E+02  0.00000000000E+00 0.  1.
         11    1    1    2    0    0  0.19144758014E+02  0.16237386267E+01 -0.91125805305E+02  0.93129322337E+02  0.00000000000E+00 0. -1.
</event>
<event>
 7    1  0.3265282E-009  0.2689068E+02  0.7561462E-02  0.1635242E+00
         -1   -1    0    0    0  501 -0.00000000000E+00  0.00000000000E+00  0.42664998007E+02  0.42664998007E+02  0.00000000000E+00 0.  1.
          1   -1    0    0  501    0  0.00000000000E+00 -0.00000000000E+00 -0.28213968361E+03  0.28213968361E+03  0.00000000000E+00 0. -1.
         25    2    1    2    0    0  0.52027360613E+01 -0.32839259249E+01 -0.16586644622E+03  0.20784159756E+03  0.12509436064E+03 0.  0.
          5    1    3    3  502    0 -0.86934615524E+01 -0.28632846281E+01  0.19481172533E+02  0.21926311954E+02  0.41800000000E+01 0.  1.
         -5    1    3    3    0  502  0.13896197614E+02 -0.42064129678E+00 -0.18534761875E+03  0.18591528561E+03  0.41800000000E+01 0.  1.
        -11    1    1    2    0    0 -0.11545895781E+02  0.13133145768E+02 -0.92824553048E+02  0.94457317745E+02  0.00000000000E+00 0. -1.
         11    1    1    2    0    0  0.63431597196E+01 -0.98492198429E+01  0.19216313657E+02  0.22505766313E+02  0.00000000000E+00 0.  1.
</event>
<event>
 7    1  0.3265282E-009  0.2077396E+03  0.7561462E-02  0.1143369E+00
          1   -1    0    0  501    0  0.00000000000E+00  0.00000000000E+00  0.34708870389E+03  0.34708870389E+03  0.00000000000E+00 0. -1.
         -1   -1    0    0    0  501 -0.00000000000E+00 -0.00000000000E+00 -0.12948573976E+03  0.12948573976E+03  0.00000000000E+00 0.  1.
         25    2    1    2    0    0 -0.11405215862E+03 -0.14069001062E+03  0.10002984391E+03  0.24177380003E+03  0.12508807590E+03 0.  0.
          5    1    3    3  502    0 -0.49087574211E+02 -0.14266385869E+03  0.47892783912E+02  0.15834695346E+03  0.41800000000E+01 0.  1.
         -5    1    3    3    0  502 -0.64964584406E+02  0.19738480702E+01  0.52137060000E+02  0.83426846571E+02  0.41800000000E+01 0.  1.
        -11    1    1    2    0    0  0.88670346722E+02  0.43113676672E+02  0.80818673263E+02  0.12748677364E+03  0.00000000000E+00 0. -1.
         11    1    1    2    0    0  0.25381811895E+02  0.97576333950E+02  0.36754446954E+02  0.10731386999E+03  0.00000000000E+00 0.  1.
</event>
<event>
 7    1  0.3265282E-009  0.1055970E+03  0.7561462E-02  0.1268948E+00
          1   -1    0    0  501    0  0.00000000000E+00  0.00000000000E+00  0.33598163978E+03  0.33598163978E+03  0.00000000000E+00 0. -1.
         -1   -1    0    0    0  501 -0.00000000000E+00 -0.00000000000E+00 -0.47835995162E+02  0.47835995162E+02  0.00000000000E+00 0.  1.
         25    2    1    2    0    0 -0.58557409927E+02 -0.25494977848E+02  0.18886983896E+03  0.23536800679E+03  0.12508924173E+03 0.  0.
          5    1    3    3  502    0 -0.35202485929E+02  0.38233956650E+02  0.24745622775E+02  0.57713678649E+02  0.41800000000E+01 0. -1.
         -5    1    3    3    0  502 -0.23354923999E+02 -0.63728934498E+02  0.16412421619E+03  0.17765432814E+03  0.41800000000E+01 0. -1.
        -11    1    1    2    0    0  0.60187059167E+02 -0.51104302732E+01  0.20280899482E+02  0.63717450299E+02  0.00000000000E+00 0.  1.
         11    1    1    2    0    0 -0.16296492396E+01  0.30605408121E+02  0.78994906179E+02  0.84732177861E+02  0.00000000000E+00 0. -1.
</event>
<event>
 7    1  0.3265282E-009  0.1163744E+03  0.7561462E-02  0.1249201E+00
          1   -1    0    0  501    0  0.00000000000E+00  0.00000000000E+00  0.11460256031E+03  0.11460256031E+03  0.00000000000E+00 0. -1.
         -1   -1    0    0    0  501 -0.00000000000E+00 -0.00000000000E+00 -0.11973795713E+03  0.11973795713E+03  0.00000000000E+00 0.  1.
         25    2    1    2    0    0 -0.22352798747E+02 -0.37648759593E+02 -0.17258194591E-01  0.13255179478E+03  0.12511155539E+03 0.  0.
          5    1    3    3  502    0 -0.67752021873E+02 -0.49494881089E+02 -0.93601338873E+01  0.84529073272E+02  0.41800000000E+01 0.  1.
         -5    1    3    3    0  502  0.45399223125E+02  0.11846121496E+02  0.93428756927E+01  0.48022721509E+02  0.41800000000E+01 0.  1.
        -11    1    1    2    0    0 -0.18903939746E+02  0.54032280595E+02 -0.40127351675E+01  0.57384216713E+02  0.00000000000E+00 0.  1.
         11    1    1    2    0    0  0.41256738493E+02 -0.16383521002E+02 -0.11054034586E+01  0.44404505946E+02  0.00000000000E+00 0. -1.
</event>
<event>
 7    1  0.3265282E-009  0.1004035E+03  0.7561462E-02  0.1279450E+00
          1   -1    0    0  501    0  0.00000000000E+00  0.00000000000E+00  0.30790596215E+03  0.30790596215E+03  0.00000000000E+00 0. -1.
         -1   -1    0    0    0  501 -0.00000000000E+00 -0.00000000000E+00 -0.93029413253E+02  0.93029413253E+02  0.00000000000E+00 0.  1.
         25    2    1    2    0    0  0.31745435275E+00 -0.78095959344E+02  0.23664770898E+03  0.27883240686E+03  0.12508514423E+03 0.  0.
          5    1    3    3  502    0 -0.19208937364E+02  0.14097671734E+02  0.12347226898E+00  0.24191222962E+02  0.41800000000E+01 0. -1.
         -5    1    3    3    0  502  0.19526391717E+02 -0.92193631078E+02  0.23652423671E+03  0.25464118390E+03  0.41800000000E+01 0. -1.
        -11    1    1    2    0    0 -0.97495881227E+01  0.67069410493E+02 -0.54066237529E+02  0.86697856565E+02  0.00000000000E+00 0.  1.
         11    1    1    2    0    0  0.94321337700E+01  0.11026548851E+02  0.32295077448E+02  0.35405111981E+02  0.00000000000E+00 0. -1.
</event>
<event>
 7    1  0.3265282E-009  0.9950941E+02  0.7561462E-02  0.1281331E+00
         -1   -1    0    0    0  501 -0.00000000000E+00  0.00000000000E+00  0.66957091399E+02  0.66957091399E+02  0.00000000000E+00 0.  1.
          1   -1    0    0  501    0  0.00000000000E+00 -0.00000000000E+00 -0.25842806584E+03  0.25842806584E+03  0.00000000000E+00 0. -1.
         25    2    1    2    0    0  0.27630600849E+02 -0.13620884838E+02 -0.13394759549E+02  0.12952693451E+03  0.12509527798E+03 0.  0.
          5    1    3    3  502    0 -0.31435149168E+02  0.38256310684E+02 -0.11731929786E+00  0.49691046218E+02  0.41800000000E+01 0. -1.
         -5    1    3    3    0  502  0.59065750017E+02 -0.51877195522E+02 -0.13277440251E+02  0.79835888296E+02  0.41800000000E+01 0. -1.
        -11    1    1    2    0    0 -0.40098111202E+02 -0.12214753664E+02 -0.53200910717E+02  0.67730315445E+02  0.00000000000E+00 0. -1.
         11    1    1    2    0    0  0.12467510353E+02  0.25835638502E+02 -0.12487530417E+03  0.12812790728E+03  0.00000000000E+00 0.  1.
</event>
<event>
 7    1  0.3265282E-009  0.1156040E+03  0.7561462E-02  0.1250531E+00
          2   -1    0    0  501    0  0.00000000000E+00  0.00000000000E+00  0.14511018792E+03  0.14511018792E+03  0.00000000000E+00 0. -1.
         -2   -1    0    0    0  501 -0.00000000000E+00 -0.00000000000E+00 -0.14384994293E+03  0.14384994293E+03  0.00000000000E+00 0.  1.
         25    2    1    2    0    0 -0.78707140367E+02  0.50838469989E+02 -0.11874520312E+02  0.15675089519E+03  0.12510185824E+03 0.  0.
          5    1    3    3  502    0  0.10656341970E+02  0.58220907639E+00 -0.46935999226E+02  0.48315184103E+02  0.41800000000E+01 0.  1.
         -5    1    3    3    0  502 -0.89363482337E+02  0.50256260913E+02  0.35061478914E+02  0.10843571109E+03  0.41800000000E+01 0.  1.
        -11    1    1    2    0    0  0.68719047058E+02 -0.35576455843E+01  0.37201636964E+02  0.78223564630E+02  0.00000000000E+00 0. -1.
         11    1    1    2    0    0  0.99880933090E+01 -0.47280824405E+02 -0.24066871668E+02  0.53985671027E+02  0.00000000000E+00 0.  1.
</event>
<event>
 7    1  0.3265282E-009  0.1056181E+03  0.7561462E-02  0.1268907E+00
         -1   -1    0    0    0  501 -0.00000000000E+00  0.00000000000E+00  0.26846758386E+02  0.26846758386E+02  0.00000000000E+00 0.  1.
          1   -1    0    0  501    0  0.00000000000E+00 -0.00000000000E+00 -0.75193800742E+03  0.75193800742E+03  0.00000000000E+00 0. -1.
         25    2    1    2    0    0 -0.88590837971E+02  0.19059679477E+02 -0.41504491832E+03  0.44285553686E+03  0.12508850605E+03 0.  0.
          5    1    3    3  502    0 -0.40115012192E+02 -0.20562397984E+01 -0.21497445560E+02  0.45749916840E+02  0.41800000000E+01 0. -1.
         -5    1    3    3    0  502 -0.48475825779E+02  0.21115919275E+02 -0.39354747276E+03  0.39710562002E+03  0.41800000000E+01 0. -1.
        -11    1    1    2    0    0 -0.12630494919E+02  0.53042983403E+01 -0.67711638246E+01  0.15281153174E+02  0.00000000000E+00 0.  1.
         11    1    1    2    0    0  0.10122133289E+03 -0.24363977817E+02 -0.30327516689E+03  0.32064807578E+03  0.00000000000E+00 0. -1.
</event>
<event>
 7    1  0.3265282E-009  0.1421308E+03  0.7561462E-02  0.1210490E+00
         -2   -1    0    0    0  501 -0.00000000000E+00  0.00000000000E+00  0.21355969399E+02  0.21355969399E+02  0.00000000000E+00 0.  1.
          2   -1    0    0  501    0  0.00000000000E+00 -0.00000000000E+00 -0.12328286371E+04  0.12328286371E+04  0.00000000000E+00 0. -1.
         25    2    1    2    0    0 -0.58908167397E+02  0.91281821798E+02 -0.84022336381E+03  0.85640132249E+03  0.12508149697E+03 0.  0.
          5    1    3    3  502    0 -0.33353103625E+02  0.11075847948E+03 -0.44344281289E+03  0.45829997928E+03  0.41800000000E+01 0. -1.
         -5    1    3    3    0  502 -0.25555063771E+02 -0.19476657681E+02 -0.39678055092E+03  0.39810134321E+03  0.41800000000E+01 0. -1.
        -11    1    1    2    0    0  0.60436280169E+02 -0.18343627025E+02 -0.11328808679E+03  0.12970436855E+03  0.00000000000E+00 0.  1.
         11    1    1    2    0    0 -0.15281127728E+01 -0.72938194773E+02 -0.25796121705E+03  0.26807891541E+03  0.00000000000E+00 0. -1.
</event>
<event>
 7    1  0.3265282E-009  0.8745652E+02  0.7561462E-02  0.1309131E+00
          1   -1    0    0  501    0  0.00000000000E+00  0.00000000000E+00  0.11035822014E+04  0.11035822014E+04  0.00000000000E+00 0. -1.
         -1   -1    0    0    0  501 -0.00000000000E+00 -0.00000000000E+00 -0.16184810806E+02  0.16184810806E+02  0.00000000000E+00 0.  1.
         25    2    1    2    0    0  0.35487832528E+02 -0.50876948657E+02  0.79789570729E+03  0.81001951495E+03  0.12508479011E+03 0.  0.
          5    1    3    3  502    0  0.38823161857E+02 -0.37647743301E+02  0.11686148367E+03  0.12883582281E+03  0.41800000000E+01 0.  1.
         -5    1    3    3    0  502 -0.33353293287E+01 -0.13229205356E+02  0.68103422362E+03  0.68118369214E+03  0.41800000000E+01 0.  1.
        -11    1    1    2    0    0 -0.64147918457E+02  0.29267037468E+02  0.15068875163E+03  0.16636891174E+03  0.00000000000E+00 0.  1.
         11    1    1    2    0    0  0.28660085929E+02  0.21609911189E+02  0.13881293165E+03  0.14337858550E+03  0.00000000000E+00 0. -1.
</event>
<event>
 7    1  0.3265282E-009  0.9413374E+02  0.7561462E-02  0.1293139E+00
         -1   -1    0    0    0  501 -0.00000000000E+00  0.00000000000E+00  0.13860980608E+03  0.13860980608E+03  0.00000000000E+00 0.  1.
          1   -1    0    0  501    0  0.00000000000E+00 -0.00000000000E+00 -0.10365259216E+03  0.10365259216E+03  0.00000000000E+00 0. -1.
         25    2    1    2    0    0 -0.23007810772E+02  0.12576558843E+02  0.67496699598E+02  0.14453693550E+03  0.12509033567E+03 0.  0.
          5    1    3    3  502    0 -0.20192643813E+02 -0.42506354126E+02 -0.11001698500E+02  0.48508172251E+02  0.41800000000E+01 0. -1.
         -5    1    3    3    0  502 -0.28151669591E+01  0.55082912969E+02  0.78498398098E+02  0.96028763244E+02  0.41800000000E+01 0. -1.
        -11    1    1    2    0    0  0.26149498832E+01 -0.46260475307E+02 -0.35305367706E+02  0.58252369286E+02  0.00000000000E+00 0. -1.
         11    1    1    2    0    0  0.20392860889E+02  0.33683916465E+02  0.27658820299E+01  0.39473093457E+02  0.00000000000E+00 0.  1.
</event>
<event>
 6    1  0.3265282E-009  0.1074859E+03  0.7561462E-02  0.1265298E+00
         -2   -1    0    0    0  501 -0.00000000000E+00  0.00000000000E+00  0.16783267071E+02  0.16783267071E+02  0.00000000000E+00 0. -1.
          2   -1    0    0  501    0  0.00000000000E+00 -0.00000000000E+00 -0.14450844432E+04  0.14450844432E+04  0.00000000000E+00 0.  1.
          5    1    1    2  502    0  0.96761868374E+02  0.21957797642E+02 -0.54901613384E+03  0.55792579405E+03  0.41800000000E+01 0.  1.
         -5    1    1    2    0  502 -0.24877213022E+02  0.89537853232E+01 -0.59250241534E+03  0.59310676154E+03  0.41800000000E+01 0.  1.
        -11    1    1    2    0    0 -0.75047456757E+02 -0.20190437283E+02 -0.28914774567E+03  0.29940974157E+03  0.00000000000E+00 0. -1.
         11    1    1    2    0    0  0.31628014045E+01 -0.10721145683E+02  0.23651187451E+01  0.11425413085E+02  0.00000000000E+00 0.  1.
</event>
<event>
 7    1  0.3265282E-009  0.1106561E+03  0.7561462E-02  0.1259360E+00
         -2   -1    0    0    0  501 -0.00000000000E+00  0.00000000000E+00  0.83775086521E+02  0.83775086521E+02  0.00000000000E+00 0.  1.
          2   -1    0    0  501    0  0.00000000000E+00 -0.00000000000E+00 -0.18697328787E+03  0.18697328787E+03  0.00000000000E+00 0. -1.
         25    2    1    2    0    0  0.21910460458E+02 -0.18690580128E+02 -0.11532909796E+03  0.17256309010E+03  0.12509121939E+03 0.  0.
          5    1    3    3  502    0 -0.86007031732E+01 -0.66965106291E+02 -0.42376265984E+02  0.79821788218E+02  0.41800000000E+01 0.  1.
         -5    1    3    3    0  502  0.30511163631E+02  0.48274526163E+02 -0.72952831974E+02  0.92741301885E+02  0.41800000000E+01 0.  1.
        -11    1    1    2    0    0  0.69485721099E+01 -0.34875604959E+02 -0.23555297277E+01  0.35639009468E+02  0.00000000000E+00 0. -1.
         11    1    1    2    0    0 -0.28859032568E+02  0.53566185087E+02  0.14486426337E+02  0.62546274818E+02  0.00000000000E+00 0.  1.
</event>
<event>
 7    1  0.3265282E-009  0.1579784E+03  0.7561462E-02  0.1190998E+00
         -2   -1    0    0    0  501 -0.00000000000E+00  0.00000000000E+00  0.13748253600E+03  0.13748253600E+03  0.00000000000E+00 0. -1.
          2   -1    0    0  501    0  0.00000000000E+00 -0.00000000000E+00 -0.20912421529E+03  0.20912421529E+03  0.00000000000E+00 0.  1.
         25    2    1    2    0    0 -0.57315848525E+02  0.11123344978E+03 -0.74018228394E+02  0.19179150730E+03  0.12508915739E+03 0.  0.
          5    1    3    3  502    0 -0.74663227055E+02  0.29782158604E+02 -0.29833110426E+00  0.80493079497E+02  0.41800000000E+01 0. -1.
         -5    1    3    3    0  502  0.17347378531E+02  0.81451291175E+02 -0.73719897289E+02  0.11129842781E+03  0.41800000000E+01 0. -1.
        -11    1    1    2    0    0 -0.14969965956E+02 -0.64009991464E+02 -0.13274756111E+02  0.67064133766E+02  0.00000000000E+00 0.  1.
         11    1    1    2    0    0  0.72285814481E+02 -0.47223458315E+02  0.15651305219E+02  0.87751110223E+02  0.00000000000E+00 0. -1.
</event>
<event>
 7    1  0.3265282E-009  0.1051794E+03  0.7561462E-02  0.1269767E+00
         -3   -1    0    0    0  501 -0.00000000000E+00  0.00000000000E+00  0.19946433987E+03  0.19946433987E+03  0.00000000000E+00 0.  1.
          3   -1    0    0  501    0  0.00000000000E+00 -0.00000000000E+00 -0.85309054980E+02  0.85309054980E+02  0.00000000000E+00 0. -1.
         25    2    1    2    0    0  0.59039195174E+02  0.34937731891E+02  0.39620742745E+02  0.14806286324E+03  0.12508611649E+03 0.  0.
          5    1    3    3  502    0  0.52711518752E+02  0.57266381006E+02  0.73268063720E+02  0.10697487632E+03  0.41800000000E+01 0. -1.
         -5    1    3    3    0  502  0.63276764212E+01 -0.22328649114E+02 -0.33647320975E+02  0.41087986918E+02  0.41800000000E+01 0. -1.
        -11    1    1    2    0    0  0.21981065445E+02 -0.58176904278E+01  0.35552978000E+02  0.42202215637E+02  0.00000000000E+00 0.  1.
         11    1    1    2    0    0 -0.81020260618E+02 -0.29120041464E+02  0.38981564149E+02  0.94508315978E+02  0.00000000000E+00 0. -1.
</event>
<event>
 7    1  0.3265282E-009  0.1100851E+03  0.7561462E-02  0.1260412E+00
          2   -1    0    0  501    0  0.00000000000E+00  0.00000000000E+00  0.44081668409E+03  0.44081668409E+03  0.00000000000E+00 0. -1.
         -2   -1    0    0    0  501 -0.00000000000E+00 -0.00000000000E+00 -0.31316194321E+02  0.31316194321E+02  0.00000000000E+00 0.  1.
         25    2    1    2    0    0 -0.28280350952E+02  0.24074690202E+02  0.17784096883E+03  0.22057607791E+03  0.12508807694E+03 0.  0.
          5    1    3    3  502    0 -0.62046223211E+02  0.49661866569E+02  0.14971540668E+03  0.16955297167E+03  0.41800000000E+01 0.  1.
         -5    1    3    3    0  502  0.33765872260E+02 -0.25587176367E+02  0.28125562153E+02  0.51023106239E+02  0.41800000000E+01 0.  1.
        -11    1    1    2    0    0  0.32447409817E+02  0.29754917801E+02  0.10759062198E+03  0.11624943645E+03  0.00000000000E+00 0. -1.
         11    1    1    2    0    0 -0.41670588657E+01 -0.53829608002E+02  0.12406889896E+03  0.13530736405E+03  0.00000000000E+00 0.  1.
</event>
<event>
 7    1  0.3265282E-009  0.1796601E+03  0.7561462E-02  0.1168132E+00
         -3   -1    0    0    0  501 -0.00000000000E+00  0.00000000000E+00  0.29580630773E+03  0.29580630773E+03  0.00000000000E+00 0.  1.
          3   -1    0    0  501    0  0.00000000000E+00 -0.00000000000E+00 -0.14042162852E+03  0.14042162852E+03  0.00000000000E+00 0. -1.
         25    2    1    2    0    0  0.13379679982E+03  0.76529652367E+02  0.16495719884E+03  0.25810155671E+03  0.12508862775E+03 0.  0.
          5    1    3    3  502    0  0.47270859788E+02 -0.33251733254E+02  0.58573108632E+02  0.82392313988E+02  0.41800000000E+01 0.  1.
         -5    1    3    3    0  502  0.86525940028E+02  0.10978138562E+03  0.10638409021E+03  0.17570924272E+03  0.41800000000E+01 0.  1.
        -11    1    1    2    0    0 -0.82606012071E+02 -0.72965286507E+02  0.28956872684E+02  0.11395695126E+03  0.00000000000E+00 0.  1.
         11    1    1    2    0    0 -0.51190787745E+02 -0.35643658605E+01 -0.38529392320E+02  0.64169428286E+02  0.00000000000E+00 0. -1.
</event>
<event>
 7    1  0.3265282E-009  0.1078222E+03  0.7561462E-02  0.1264657E+00
         -1   -1    0    0    0  501 -0.00000000000E+00  0.00000000000E+00  0.29207417417E+03  0.29207417417E+03  0.00000000000E+00 0.  1.
          1   -1    0    0  501    0  0.00000000000E+00 -0.00000000000E+00 -0.88780856630E+02  0.88780856630E+02  0.00000000000E+00 0. -1.
         25    2    1    2    0    0  0.55973489816E+02  0.44482810070E+02  0.22065512003E+03  0.26353027262E+03  0.12509104940E+03 0.  0.
          5    1    3    3  502    0  0.83930131398E+02  0.64794184032E+01  0.18791918640E+03  0.20595471064E+03  0.41800000000E+01 0. -1.
         -5    1    3    3    0  502 -0.27956641582E+02  0.38003391667E+02  0.32735933627E+02  0.57575561979E+02  0.41800000000E+01 0. -1.
        -11    1    1    2    0    0 -0.22788312980E+02  0.60173761929E+01  0.31690136877E+02  0.39494060313E+02  0.00000000000E+00 0.  1.
         11    1    1    2    0    0 -0.33185176836E+02 -0.50500186263E+02 -0.49051939366E+02  0.77830697863E+02  0.00000000000E+00 0. -1.
</event>
<event>
 7    1  0.3265282E-009  0.1461231E+03  0.7561462E-02  0.1205319E+00
         -1   -1    0    0    0  501 -0.00000000000E+00  0.00000000000E+00  0.51356121664E+03  0.51356121664E+03  0.00000000000E+00 0.  1.
          1   -1    0    0  501    0  0.00000000000E+00 -0.00000000000E+00 -0.46630745037E+02  0.46630745037E+02  0.00000000000E+00 0. -1.
         25    2    1    2    0    0  0.90994052404E+02  0.59184961494E+02  0.29064983891E+03  0.33452673856E+03  0.12509209691E+03 0.  0.
          5    1    3    3  502    0 -0.10353686651E+02  0.54179531283E+02  0.55389601657E+02  0.78282187048E+02  0.41800000000E+01 0.  1.
         -5    1    3    3    0  502  0.10134773906E+03  0.50054302111E+01  0.23526023726E+03  0.25624455151E+03  0.41800000000E+01 0.  1.
        -11    1    1    2    0    0 -0.73656119074E+02  0.44210133429E-01  0.12647691828E+03  0.14636132238E+03  0.00000000000E+00 0.  1.
         11    1    1    2    0    0 -0.17337933330E+02 -0.59229171628E+02  0.49803714416E+02  0.79303900746E+02  0.00000000000E+00 0. -1.
</event>
<event>
 7    1  0.3265282E-009  0.9486699E+02  0.7561462E-02  0.1291476E+00
         -1   -1    0    0    0  501 -0.00000000000E+00  0.00000000000E+00  0.15934142649E+03  0.15934142649E+03  0.00000000000E+00 0.  1.
          1   -1    0    0  501    0  0.00000000000E+00 -0.00000000000E+00 -0.12066965642E+03  0.12066965642E+03  0.00000000000E+00 0. -1.
         25    2    1    2    0    0  0.73395123055E+02  0.11609451688E+02  0.65178015488E+02  0.15944223438E+03  0.12510806906E+03 0.  0.
          5    1    3    3  502    0  0.14377859494E+02 -0.34917683287E+02  0.74471190020E+02  0.83602619533E+02  0.41800000000E+01 0.  1.
         -5    1    3    3    0  502  0.59017263561E+02  0.46527134975E+02 -0.92931745325E+01  0.75839614846E+02  0.41800000000E+01 0.  1.
        -11    1    1    2    0    0 -0.55314329983E+02 -0.16536326154E+02 -0.59322607037E+02  0.82778601642E+02  0.00000000000E+00 0. -1.
         11    1    1    2    0    0 -0.18080793071E+02  0.49268744660E+01  0.32816361616E+02  0.37790246887E+02  0.00000000000E+00 0.  1.
</event>
<event>
 7    1  0.3265282E-009  0.9949957E+02  0.7561462E-02  0.1281352E+00
          1   -1    0    0  501    0  0.00000000000E+00  0.00000000000E+00  0.19119557171E+03  0.19119557171E+03  0.00000000000E+00 0.  1.
         -1   -1    0    0    0  501 -0.00000000000E+00 -0.00000000000E+00 -0.11968168477E+03  0.11968168477E+03  0.00000000000E+00 0. -1.
         25    2    1    2    0    0  0.21968664597E+02 -0.29570744398E+02  0.13949343690E+03  0.19095324588E+03  0.12509065523E+03 0.  0.
          5    1    3    3  502    0  0.35439949133E+02  0.34829532710E+02  0.10569549669E+03  0.11686786027E+03  0.41800000000E+01 0. -1.
         -5    1    3    3    0  502 -0.13471284536E+02 -0.64400277108E+02  0.33797940213E+02  0.74085385612E+02  0.41800000000E+01 0. -1.
        -11    1    1    2    0    0 -0.13907027126E+02  0.54895667540E+02 -0.73493888022E+02  0.92780877851E+02  0.00000000000E+00 0. -1.
         11    1    1    2    0    0 -0.80616374710E+01 -0.25324923142E+02  0.55143380629E+01  0.27143132744E+02  0.00000000000E+00 0.  1.
</event>
<event>
 7    1  0.3265282E-009  0.4344535E+03  0.7561462E-02  0.1032462E+00
         -1   -1    0    0    0  501 -0.00000000000E+00  0.00000000000E+00  0.23746825025E+03  0.23746825025E+03  0.00000000000E+00 0.  1.
          1   -1    0    0  501    0  0.00000000000E+00 -0.00000000000E+00 -0.12001620362E+04  0.12001620362E+04  0.00000000000E+00 0. -1.
         25    2    1    2    0    0 -0.42166630443E+03 -0.52496709869E+02 -0.75599946548E+02  0.44935751626E+03  0.12509375950E+03 0.  0.
          5    1    3    3  502    0 -0.16401511601E+03  0.24435904485E+02 -0.70892644037E+02  0.18039210372E+03  0.41800000000E+01 0. -1.
         -5    1    3    3    0  502 -0.25765118842E+03 -0.76932614354E+02 -0.47073025112E+01  0.26896541254E+03  0.41800000000E+01 0. -1.
        -11    1    1    2    0    0  0.28110503861E+03 -0.76653722434E+01 -0.61284935307E+03  0.67428712743E+03  0.00000000000E+00 0.  1.
         11    1    1    2    0    0  0.14056126581E+03  0.60162082113E+02 -0.27424448631E+03  0.31398564273E+03  0.00000000000E+00 0. -1.
</event>
<event>
 7    1  0.3265282E-009  0.1771088E+03  0.7561462E-02  0.1170631E+00
         -1   -1    0    0    0  501 -0.00000000000E+00  0.00000000000E+00  0.11512432194E+04  0.11512432194E+04  0.00000000000E+00 0.  1.
          1   -1    0    0  501    0  0.00000000000E+00 -0.00000000000E+00 -0.30515774333E+02  0.30515774333E+02  0.00000000000E+00 0. -1.
         25    2    1    2    0    0 -0.37345044184E+02  0.14790748139E+03  0.56997855159E+03  0.60315366829E+03  0.12509005923E+03 0.  0.
          5    1    3    3  502    0 -0.80016573810E+02  0.10085796119E+03  0.31433472706E+03  0.33970394972E+03  0.41800000000E+01 0. -1.
         -5    1    3    3    0  502  0.42671529626E+02  0.47049520198E+02  0.25564382453E+03  0.26344971857E+03  0.41800000000E+01 0. -1.
        -11    1    1    2    0    0 -0.68050276990E+01 -0.82837692921E+02  0.16305442691E+03  0.18301676946E+03  0.00000000000E+00 0. -1.
         11    1    1    2    0    0  0.44150071883E+02 -0.65069788465E+02  0.38769446658E+03  0.39558855600E+03  0.00000000000E+00 0.  1.
</event>
<event>
 7    1  0.3265282E-009  0.9576696E+02  0.7561462E-02  0.1289458E+00
          4   -1    0    0  501    0  0.00000000000E+00  0.00000000000E+00  0.11564737039E+03  0.11564737039E+03  0.00000000000E+00 0. -1.
         -4   -1    0    0    0  501 -0.00000000000E+00 -0.00000000000E+00 -0.17746956663E+03  0.17746956663E+03  0.00000000000E+00 0.  1.
         25    2    1    2    0    0 -0.62534404676E+01 -0.65142192332E+02  0.36047445440E+02  0.14570537250E+03  0.12509207215E+03 0.  0.
          5    1    3    3  502    0 -0.29601354058E+02 -0.49584073820E+02  0.76721334816E+02  0.96116887978E+02  0.41800000000E+01 0. -1.
         -5    1    3    3    0  502  0.23347913590E+02 -0.15558118512E+02 -0.40673889376E+02  0.49588484527E+02  0.41800000000E+01 0. -1.
        -11    1    1    2    0    0  0.11433862552E+02 -0.18347322419E+02 -0.40720486984E+02  0.46103313471E+02  0.00000000000E+00 0.  1.
         11    1    1    2    0    0 -0.51804220842E+01  0.83489514751E+02 -0.57149154701E+02  0.10130825104E+03  0.00000000000E+00 0. -1.
</event>
<event>
 7    1  0.3412770E-009  0.1461641E+03  0.7561462E-02  0.1205267E+00
          2   -1    0    0  501    0  0.00000000000E+00  0.00000000000E+00  0.10450678666E+04  0.10450678666E+04  0.00000000000E+00 0.  1.
         -2   -1    0    0    0  501 -0.00000000000E+00 -0.00000000000E+00 -0.25442341721E+02  0.25442341721E+02  0.00000000000E+00 0. -1.
         25    2    1    2    0    0 -0.88789372241E+02  0.82618547773E+02  0.56654994024E+03  0.59273592604E+03  0.12509063186E+03 0.  0.
          5    1    3    3  502    0 -0.15005175259E+02 -0.17390005379E+02  0.27216775228E+03  0.27316721134E+03  0.41800000000E+01 0.  1.
         -5    1    3    3    0  502 -0.73784196982E+02  0.10000855315E+03  0.29438218796E+03  0.31956871470E+03  0.41800000000E+01 0.  1.
        -11    1    1    2    0    0  0.56959959848E+02 -0.94761932740E+02  0.39748417147E+03  0.41257475383E+03  0.00000000000E+00 0.  1.
         11    1    1    2    0    0  0.31829412393E+02  0.12143384967E+02  0.55591413124E+02  0.65199528410E+02  0.00000000000E+00 0. -1.
</event>
<event>
 7    1  0.3265282E-009  0.1550835E+03  0.7561462E-02  0.1194362E+00
          2   -1    0    0  501    0  0.00000000000E+00  0.00000000000E+00  0.53773463074E+03  0.53773463074E+03  0.00000000000E+00 0. -1.
         -2   -1    0    0    0  501 -0.00000000000E+00 -0.00000000000E+00 -0.48859473947E+02  0.48859473947E+02  0.00000000000E+00 0.  1.
         25    2    1    2    0    0 -0.23789580946E+02  0.11005584679E+03  0.18695895190E+03  0.25155400098E+03  0.12509009610E+03 0.  0.
          5    1    3    3  502    0  0.34202759816E+02 -0.62278473845E+01  0.62135445836E+02  0.71322513215E+02  0.41800000000E+01 0.  1.
         -5    1    3    3    0  502 -0.57992340762E+02  0.11628369417E+03  0.12482350606E+03  0.18023148777E+03  0.41800000000E+01 0.  1.
        -11    1    1    2    0    0 -0.32928574759E+01 -0.11710966207E+03  0.23838534999E+03  0.26561831817E+03  0.00000000000E+00 0.  1.
         11    1    1    2    0    0  0.27082438422E+02  0.70538152808E+01  0.63530854902E+02  0.69421785525E+02  0.00000000000E+00 0. -1.
</event>
<event>
 7    1  0.3265282E-009  0.9339873E+02  0.7561462E-02  0.1294824E+00
         -2   -1    0    0    0  501 -0.00000000000E+00  0.00000000000E+00  0.30086777255E+02  0.30086777255E+02  0.00000000000E+00 0.  1.
          2   -1    0    0  501    0  0.00000000000E+00 -0.00000000000E+00 -0.44499808992E+03  0.44499808992E+03  0.00000000000E+00 0. -1.
         25    2    1    2    0    0  0.38352205184E+02 -0.87786501093E+01 -0.21289092888E+03  0.25003454378E+03  0.12508704627E+03 0.  0.
          5    1    3    3  502    0  0.56771845293E+02 -0.26218648414E+02 -0.21527837771E+03  0.22421577164E+03  0.41800000000E+01 0. -1.
         -5    1    3    3    0  502 -0.18419640109E+02  0.17439998305E+02  0.23874488358E+01  0.25818772135E+02  0.41800000000E+01 0. -1.
        -11    1    1    2    0    0  0.29335230512E+02 -0.37660875598E+01 -0.74071884010E+02  0.79758279604E+02  0.00000000000E+00 0.  1.
         11    1    1    2    0    0 -0.67687435696E+02  0.12544737669E+02 -0.12794849978E+03  0.14529204380E+03  0.00000000000E+00 0. -1.
</event>
<event>
 7    1  0.3265282E-009  0.1024200E+03  0.7561462E-02  0.1275288E+00
         -1   -1    0    0    0  501 -0.00000000000E+00  0.00000000000E+00  0.33461586730E+02  0.33461586730E+02  0.00000000000E+00 0.  1.
          1   -1    0    0  501    0  0.00000000000E+00 -0.00000000000E+00 -0.60307938765E+03  0.60307938765E+03  0.00000000000E+00 0. -1.
         25    2    1    2    0    0  0.90021234928E+01 -0.83909676373E+02 -0.23616764320E+03  0.28025842609E+03  0.12509099761E+03 0.  0.
          5    1    3    3  502    0 -0.30420243754E+02 -0.20723333175E+02 -0.18765742404E+03  0.19127892975E+03  0.41800000000E+01 0. -1.
         -5    1    3    3    0  502  0.39422367247E+02 -0.63186343199E+02 -0.48510219155E+02  0.88979496338E+02  0.41800000000E+01 0. -1.
        -11    1    1    2    0    0 -0.24764691121E+02  0.53309194977E+02 -0.30778060464E+03  0.31334335925E+03  0.00000000000E+00 0. -1.
         11    1    1    2    0    0  0.15762567628E+02  0.30600481396E+02 -0.25669553084E+02  0.42939189040E+02  0.00000000000E+00 0.  1.
</event>
<event>
 7    1  0.3265282E-009  0.9991615E+02  0.7561462E-02  0.1280472E+00
         -2   -1    0    0    0  501 -0.00000000000E+00  0.00000000000E+00  0.45187012361E+02  0.45187012361E+02  0.00000000000E+00 0.  1.
          2   -1    0    0  501    0  0.00000000000E+00 -0.00000000000E+00 -0.38217395712E+03  0.38217395712E+03  0.00000000000E+00 0. -1.
         25    2    1    2    0    0 -0.64515049698E+02  0.28256897734E+02 -0.22075558567E+03  0.26332699615E+03  0.12508970537E+03 0.  0.
          5    1    3    3  502    0 -0.26428512699E+01  0.27105831331E+02 -0.19371529352E+03  0.19566501501E+03  0.41800000000E+01 0. -1.
         -5    1    3    3    0  502 -0.61872198428E+02  0.11510664036E+01 -0.27040292149E+02  0.67661981139E+02  0.41800000000E+01 0. -1.
        -11    1    1    2    0    0  0.53806359472E+02 -0.57718008656E+02 -0.58103265115E+02  0.97992256122E+02  0.00000000000E+00 0.  1.
         11    1    1    2    0    0  0.10708690226E+02  0.29461110921E+02 -0.58128093968E+02  0.66041717205E+02  0.00000000000E+00 0. -1.
</event>
<event>
 7    1  0.3265282E-009  0.1192503E+03  0.7561462E-02  0.1244339E+00
          2   -1    0    0  501    0  0.00000000000E+00  0.00000000000E+00  0.23987373179E+03  0.23987373179E+03  0.00000000000E+00 0. -1.
         -2   -1    0    0    0  501 -0.00000000000E+00 -0.00000000000E+00 -0.60305476763E+02  0.60305476763E+02  0.00000000000E+00 0.  1.
         25    2    1    2    0    0  0.39299046082E+02  0.32625797792E+02  0.98173408483E+02  0.16701170277E+03  0.12508410380E+03 0.  0.
          5    1    3    3  502    0  0.24084963423E+02 -0.47495565485E+02  0.40645375865E+02  0.67122523664E+02  0.41800000000E+01 0.  1.
         -5    1    3    3    0  502  0.15214082659E+02  0.80121363278E+02  0.57528032618E+02  0.99889179102E+02  0.41800000000E+01 0.  1.
        -11    1    1    2    0    0 -0.54263563368E+02  0.12667092514E+02  0.56523597067E+02  0.79371950761E+02  0.00000000000E+00 0.  1.
         11    1    1    2    0    0  0.14964517286E+02 -0.45292890306E+02  0.24871249474E+02  0.53795555024E+02  0.00000000000E+00 0. -1.
</event>
<event>
 7    1  0.3265282E-009  0.9967862E+02  0.7561462E-02  0.1280973E+00
         -2   -1    0    0    0  501 -0.00000000000E+00  0.00000000000E+00  0.94539120652E+03  0.94539120652E+03  0.00000000000E+00 0.  1.
          2   -1    0    0  501    0  0.00000000000E+00 -0.00000000000E+00 -0.20860006341E+02  0.20860006341E+02  0.00000000000E+00 0. -1.
         25    2    1    2    0    0 -0.52842941044E+02  0.29119636784E+02  0.74544331017E+03  0.75827051673E+03  0.12509243860E+03 0.  0.
          5    1    3    3  502    0 -0.27928544853E+01  0.70097324494E+02  0.47481389452E+03  0.47998660582E+03  0.41800000000E+01 0. -1.
         -5    1    3    3    0  502 -0.50050086558E+02 -0.40977687709E+02  0.27062941565E+03  0.27828391090E+03  0.41800000000E+01 0. -1.
        -11    1    1    2    0    0  0.57007523469E+01 -0.13405785321E+02 -0.64295428683E+01  0.15923337555E+02  0.00000000000E+00 0. -1.
         11    1    1    2    0    0  0.47142188697E+02 -0.15713851463E+02  0.18551743287E+03  0.19205735857E+03  0.00000000000E+00 0.  1.
</event>
<event>
 7    1  0.3265282E-009  0.1070369E+03  0.7561462E-02  0.1266158E+00
         -3   -1    0    0    0  501 -0.00000000000E+00  0.00000000000E+00  0.62054013097E+02  0.62054013097E+02  0.00000000000E+00 0. -1.
          3   -1    0    0  501    0  0.00000000000E+00 -0.00000000000E+00 -0.35129796949E+03  0.35129796949E+03  0.00000000000E+00 0.  1.
         25    2    1    2    0    0  0.58373271684E+02 -0.22604584244E+02 -0.26497013909E+03  0.29962646158E+03  0.12509370806E+03 0.  0.
          5    1    3    3  502    0  0.40599201388E+02 -0.71631217085E+02 -0.12074530863E+03  0.14620611605E+03  0.41800000000E+01 0. -1.
         -5    1    3    3    0  502  0.17774070296E+02  0.49026632840E+02 -0.14422483046E+03  0.15342034553E+03  0.41800000000E+01 0. -1.
        -11    1    1    2    0    0 -0.54726447426E+01 -0.13968615930E+02  0.27391457670E+02  0.31230818509E+02  0.00000000000E+00 0. -1.
         11    1    1    2    0    0 -0.52900626941E+02  0.36573200174E+02 -0.51665274977E+02  0.82494702498E+02  0.00000000000E+00 0.  1.
</event>
<event>
 7    1  0.3265282E-009  0.8497261E+02  0.7561462E-02  0.1315504E+00
          2   -1    0    0  501    0  0.00000000000E+00  0.00000000000E+00  0.48801172546E+02  0.48801172546E+02  0.00000000000E+00 0. -1.
         -2   -1    0    0    0  501 -0.00000000000E+00 -0.00000000000E+00 -0.29457094086E+03  0.29457094086E+03  0.00000000000E+00 0.  1.
         25    2    1    2    0    0  0.23934117230E+02 -0.25768910945E+02 -0.91529919933E+02  0.15894038061E+03  0.12508972622E+03 0.  0.
          5    1    3    3  502    0 -0.26854835858E+02 -0.13701412603E+02  0.19522171836E+02  0.36159348853E+02  0.41800000000E+01 0.  1.
         -5    1    3    3    0  502  0.50788953088E+02 -0.12067498342E+02 -0.11105209177E+03  0.12278103175E+03  0.41800000000E+01 0.  1.
        -11    1    1    2    0    0 -0.46168600582E+02  0.39708544132E+02 -0.14384711348E+03  0.15620595448E+03  0.00000000000E+00 0.  1.
         11    1    1    2    0    0  0.22234483352E+02 -0.13939633187E+02 -0.10392734899E+02  0.28225778324E+02  0.00000000000E+00 0. -1.
</event>
<event>
 7    1  0.3265282E-009  0.2016930E+03  0.7561462E-02  0.1148318E+00
          1   -1    0    0  501    0  0.00000000000E+00  0.00000000000E+00  0.67092877133E+03  0.67092877133E+03  0.00000000000E+00 0. -1.
         -1   -1    0    0    0  501 -0.00000000000E+00 -0.00000000000E+00 -0.69512002400E+02  0.69512002400E+02  0.00000000000E+00 0.  1.
         25    2    1    2    0    0  0.17957332731E+03  0.97769906971E+01  0.39420156037E+03  0.45098194234E+03  0.12509065790E+03 0.  0.
          5    1    3    3  502    0  0.16212551505E+03 -0.32011734098E+02  0.24943529932E+03  0.29924049642E+03  0.41800000000E+01 0.  1.
         -5    1    3    3    0  502  0.17447812255E+02  0.41788724795E+02  0.14476626105E+03  0.15174144592E+03  0.41800000000E+01 0.  1.
        -11    1    1    2    0    0 -0.14003527918E+03  0.22155817184E+02  0.10886121808E+03  0.17874989357E+03  0.00000000000E+00 0.  1.
         11    1    1    2    0    0 -0.39538048126E+02 -0.31932807881E+02  0.98353990479E+02  0.11070893781E+03  0.00000000000E+00 0. -1.
</event>
<event>
 7    1  0.3265282E-009  0.1318039E+03  0.7561462E-02  0.1224803E+00
          2   -1    0    0  501    0  0.00000000000E+00  0.00000000000E+00  0.42036306254E+03  0.42036306254E+03  0.00000000000E+00 0. -1.
         -2   -1    0    0    0  501 -0.00000000000E+00 -0.00000000000E+00 -0.81205429508E+02  0.81205429508E+02  0.00000000000E+00 0.  1.
         25    2    1    2    0    0 -0.31196196880E+02 -0.12699736302E+03  0.77930436042E+02  0.19704185558E+03  0.12510318571E+03 0.  0.
          5    1    3    3  502    0 -0.42243937363E+00 -0.25719784157E+02 -0.34060869741E+02  0.42887072639E+02  0.41800000000E+01 0.  1.
         -5    1    3    3    0  502 -0.30773757506E+02 -0.10127757886E+03  0.11199130578E+03  0.15415478294E+03  0.41800000000E+01 0.  1.
        -11    1    1    2    0    0  0.29648751245E+02  0.93642776487E+02  0.10111197263E+03  0.14096683669E+03  0.00000000000E+00 0.  1.
         11    1    1    2    0    0  0.15474456345E+01  0.33354586534E+02  0.16011522436E+03  0.16355979978E+03  0.00000000000E+00 0. -1.
</event>
<event>
 7    1  0.3265282E-009  0.1059523E+03  0.7561462E-02  0.1268255E+00
         -2   -1    0    0    0  501 -0.00000000000E+00  0.00000000000E+00  0.26393561987E+02  0.26393561987E+02  0.00000000000E+00 0.  1.
          2   -1    0    0  501    0  0.00000000000E+00 -0.00000000000E+00 -0.65815402026E+03  0.65815402026E+03  0.00000000000E+00 0. -1.
         25    2    1    2    0    0 -0.57575843091E+00 -0.75475388846E+02 -0.35235125489E+03  0.38143867430E+03  0.12508872696E+03 0.  0.
          5    1    3    3  502    0 -0.71692546810E+01 -0.84014186219E+02 -0.10927841016E+03  0.13809064061E+03  0.41800000000E+01 0. -1.
         -5    1    3    3    0  502  0.65934962500E+01  0.85387973730E+01 -0.24307284473E+03  0.24334803369E+03  0.41800000000E+01 0. -1.
        -11    1    1    2    0    0  0.44230684673E+02  0.35422509455E+02 -0.16148404610E+03  0.17113797003E+03  0.00000000000E+00 0.  1.
         11    1    1    2    0    0 -0.43654926242E+02  0.40052879391E+02 -0.11792515729E+03  0.13197093792E+03  0.00000000000E+00 0. -1.
</event>
<event>
 7    1  0.3265282E-009  0.8111035E+02  0.7561462E-02  0.1325930E+00
         -1   -1    0    0    0  501 -0.00000000000E+00  0.00000000000E+00  0.11311940378E+03  0.11311940378E+03  0.00000000000E+00 0. -1.
          1   -1    0    0  501    0  0.00000000000E+00 -0.00000000000E+00 -0.13220615741E+03  0.13220615741E+03  0.00000000000E+00 0.  1.
         25    2    1    2    0    0 -0.38996641803E+01 -0.52609738495E+02  0.14152270852E+01  0.13576601786E+03  0.12508963495E+03 0.  0.
          5    1    3    3  502    0 -0.19192814106E+02  0.16361828010E+01  0.54668725162E+02  0.58113536446E+02  0.41800000000E+01 0.  1.
         -5    1    3    3    0  502  0.15293149925E+02 -0.54245921296E+02 -0.53253498077E+02  0.77652481411E+02  0.41800000000E+01 0.  1.
        -11    1    1    2    0    0  0.30320987040E+02  0.51238573010E+02 -0.44112779233E+02  0.74099196425E+02  0.00000000000E+00 0.  1.
         11    1    1    2    0    0 -0.26421322860E+02  0.13711654856E+01  0.23610798521E+02  0.35460346914E+02  0.00000000000E+00 0. -1.
</event>
<event>
 7    1  0.3265282E-009  0.8654810E+02  0.7561462E-02  0.1311433E+00
         -1   -1    0    0    0  501 -0.00000000000E+00  0.00000000000E+00  0.25516186533E+03  0.25516186533E+03  0.00000000000E+00 0.  1.
          1   -1    0    0  501    0  0.00000000000E+00 -0.00000000000E+00 -0.51448615139E+02  0.51448615139E+02  0.00000000000E+00 0. -1.
         25    2    1    2    0    0  0.31181059901E+02  0.16409313677E+02  0.98395916230E+02  0.16300611056E+03  0.12509081372E+03 0.  0.
          5    1    3    3  502    0  0.12293831820E+02  0.54541857433E+02  0.10568012457E+03  0.11963157461E+03  0.41800000000E+01 0.  1.
         -5    1    3    3    0  502  0.18887228081E+02 -0.38132543756E+02 -0.72842083428E+01  0.43374535952E+02  0.41800000000E+01 0.  1.
        -11    1    1    2    0    0 -0.22477921019E+02  0.24031066966E+02  0.27622934138E+01  0.33020893050E+02  0.00000000000E+00 0. -1.
         11    1    1    2    0    0 -0.87031388814E+01 -0.40440380643E+02  0.10255504055E+03  0.11058347687E+03  0.00000000000E+00 0.  1.
</event>
<event>
 7    1  0.3265282E-009  0.1010281E+03  0.7561462E-02  0.1278149E+00
          2   -1    0    0  501    0  0.00000000000E+00  0.00000000000E+00  0.22478245654E+03  0.22478245654E+03  0.00000000000E+00 0. -1.
         -2   -1    0    0    0  501 -0.00000000000E+00 -0.00000000000E+00 -0.73885054792E+02  0.73885054792E+02  0.00000000000E+00 0.  1.
         25    2    1    2    0    0  0.63566691264E+02 -0.22768407680E+02  0.82565513002E+02  0.16439577889E+03  0.12509909493E+03 0.  0.
          5    1    3    3  502    0  0.64512273414E+02 -0.12241543699E+01  0.11100324068E+03  0.12846214935E+03  0.41800000000E+01 0.  1.
         -5    1    3    3    0  502 -0.94558214995E+00 -0.21544253310E+02 -0.28437727675E+02  0.35933629536E+02  0.41800000000E+01 0.  1.
        -11    1    1    2    0    0 -0.58674302430E+02 -0.27588485864E+02  0.34940644101E+02  0.73652202466E+02  0.00000000000E+00 0.  1.
         11    1    1    2    0    0 -0.48923888339E+01  0.50356893544E+02  0.33391244643E+02  0.60619529978E+02  0.00000000000E+00 0. -1.
</event>
<event>
 7    1  0.3265282E-009  0.8118480E+02  0.7561462E-02  0.1325722E+00
          2   -1    0    0  501    0  0.00000000000E+00  0.00000000000E+00  0.25774869690E+03  0.25774869690E+03  0.00000000000E+00 0. -1.
         -2   -1    0    0    0  501 -0.00000000000E+00 -0.00000000000E+00 -0.62086522788E+02  0.62086522788E+02  0.00000000000E+00 0.  1.
         25    2    1    2    0    0 -0.45918791184E+02 -0.27559532169E+00  0.52602117806E+02  0.14325789246E+03  0.12508888687E+03 0.  0.
          5    1    3    3  502    0 -0.35616360316E+02  0.20050736108E+02  0.90187748414E+02  0.99105295038E+02  0.41800000000E+01 0. -1.
         -5    1    3    3    0  502 -0.10302430868E+02 -0.20326331430E+02 -0.37585630607E+02  0.44152597424E+02  0.41800000000E+01 0. -1.
        -11    1    1    2    0    0  0.55717686182E+02 -0.32090842720E+02  0.64626046255E+02  0.91163636360E+02  0.00000000000E+00 0.  1.
         11    1    1    2    0    0 -0.97988949980E+01  0.32366438041E+02  0.78434010054E+02  0.85413690868E+02  0.00000000000E+00 0. -1.
</event>
<event>
 7    1  0.3557146E-009  0.1113080E+03  0.7561462E-02  0.1258167E+00
         -2   -1    0    0    0  501 -0.00000000000E+00  0.00000000000E+00  0.25027942540E+02  0.25027942540E+02  0.00000000000E+00 0. -1.
          2   -1    0    0  501    0  0.00000000000E+00 -0.00000000000E+00 -0.58634415205E+03  0.58634415205E+03  0.00000000000E+00 0.  1.
         25    2    1    2    0    0 -0.51959196804E+02  0.12814357754E+02 -0.30113546196E+03  0.33044982474E+03  0.12510217552E+03 0.  0.
          5    1    3    3  502    0 -0.81819921537E+02  0.28767967598E+02 -0.13262425797E+03  0.15852054038E+03  0.41800000000E+01 0.  1.
         -5    1    3    3    0  502  0.29860724734E+02 -0.15953609844E+02 -0.16851120399E+03  0.17192928435E+03  0.41800000000E+01 0.  1.
        -11    1    1    2    0    0  0.55414576473E+02  0.27046398822E+02 -0.19423803973E+03  0.20379082180E+03  0.00000000000E+00 0.  1.
         11    1    1    2    0    0 -0.34553796694E+01 -0.39860756576E+02 -0.65942707828E+02  0.77131448056E+02  0.00000000000E+00 0. -1.
</event>
<event>
 7    1  0.3265282E-009  0.1077505E+03  0.7561462E-02  0.1264793E+00
         -1   -1    0    0    0  501 -0.00000000000E+00  0.00000000000E+00  0.13042132848E+03  0.13042132848E+03  0.00000000000E+00 0.  1.
          1   -1    0    0  501    0  0.00000000000E+00 -0.00000000000E+00 -0.12339716441E+03  0.12339716441E+03  0.00000000000E+00 0. -1.
         25    2    1    2    0    0 -0.19389700948E+02  0.57534524591E+02  0.32122244087E+02  0.14270727957E+03  0.12508935627E+03 0.  0.
          5    1    3    3  502    0 -0.56283276797E+02 -0.14262183118E+02  0.12962868163E+02  0.59638288585E+02  0.41800000000E+01 0.  1.
         -5    1    3    3    0  502  0.36893575849E+02  0.71796707709E+02  0.19159375924E+02  0.83068990981E+02  0.41800000000E+01 0.  1.
        -11    1    1    2    0    0 -0.12857099530E+02 -0.34534938950E+02  0.26987661420E+02  0.45676042796E+02  0.00000000000E+00 0.  1.
         11    1    1    2    0    0  0.32246800478E+02 -0.22999585642E+02 -0.52085741442E+02  0.65435170530E+02  0.00000000000E+00 0. -1.
</event>
<event>
 7    1  0.3265282E-009  0.1202550E+03  0.7561462E-02  0.1242677E+00
         -1   -1    0    0    0  501 -0.00000000000E+00  0.00000000000E+00  0.25595589936E+03  0.25595589936E+03  0.00000000000E+00 0.  1.
          1   -1    0    0  501    0  0.00000000000E+00 -0.00000000000E+00 -0.93460412732E+02  0.93460412732E+02  0.00000000000E+00 0. -1.
         25    2    1    2    0    0  0.66617737322E+02  0.61948982388E+02  0.15571684441E+03  0.21947975962E+03  0.12509208569E+03 0.  0.
          5    1    3    3  502    0  0.73417253804E+02  0.71171321771E+02  0.51524824699E+02  0.11457630715E+03  0.41800000000E+01 0. -1.
         -5    1    3    3    0  502 -0.67995164824E+01 -0.92223393838E+01  0.10419201972E+03  0.10490345247E+03  0.41800000000E+01 0. -1.
        -11    1    1    2    0    0  0.74943280829E+01 -0.50418587917E+02 -0.12524667138E+02  0.52488724960E+02  0.00000000000E+00 0. -1.
         11    1    1    2    0    0 -0.74112065405E+02 -0.11530394471E+02  0.19303309355E+02  0.77447827518E+02  0.00000000000E+00 0.  1.
</event>
<event>
 7    1  0.3265282E-009  0.1035680E+03  0.7561462E-02  0.1272967E+00
          2   -1    0    0  501    0  0.00000000000E+00  0.00000000000E+00  0.30625878052E+03  0.30625878052E+03  0.00000000000E+00 0. -1.
         -2   -1    0    0    0  501 -0.00000000000E+00 -0.00000000000E+00 -0.47413924082E+02  0.47413924082E+02  0.00000000000E+00 0.  1.
         25    2    1    2    0    0 -0.16381976753E+02 -0.29188897098E+02  0.20282304788E+03  0.24063695326E+03  0.12509433899E+03 0.  0.
          5    1    3    3  502    0  0.32692610312E+02 -0.54824156986E+02  0.61244631370E+02  0.88559992264E+02  0.41800000000E+01 0.  1.
         -5    1    3    3    0  502 -0.49074587064E+02  0.25635259888E+02  0.14157841651E+03  0.15207696100E+03  0.41800000000E+01 0.  1.
        -11    1    1    2    0    0 -0.14595178220E+02 -0.22831637543E+02 -0.44532401060E+01  0.27461504831E+02  0.00000000000E+00 0.  1.
         11    1    1    2    0    0  0.30977154972E+02  0.52020534641E+02  0.60475048665E+02  0.85574246509E+02  0.00000000000E+00 0. -1.
</event>
<event>
 7    1  0.3265282E-009  0.2303254E+03  0.7561462E-02  0.1126411E+00
          3   -1    0    0  501    0  0.00000000000E+00  0.00000000000E+00  0.22493280501E+03  0.22493280501E+03  0.00000000000E+00 0. -1.
         -3   -1    0    0    0  501 -0.00000000000E+00 -0.00000000000E+00 -0.24626591769E+03  0.24626591769E+03  0.00000000000E+00 0.  1.
         25    2    1    2    0    0  0.90484723315E+02 -0.18761585727E+03 -0.16341922222E+02  0.24351942335E+03  0.12508979204E+03 0.  0.
          5    1    3    3  502    0 -0.22940136487E+02 -0.65420943490E+02  0.21110458989E+02  0.72589762280E+02  0.41800000000E+01 0.  1.
         -5    1    3    3    0  502  0.11342485980E+03 -0.12219491378E+03 -0.37452381211E+02  0.17092966107E+03  0.41800000000E+01 0.  1.
        -11    1    1    2    0    0 -0.63929612288E+02  0.42200093536E+02 -0.19798244836E+02  0.79118984576E+02  0.00000000000E+00 0.  1.
         11    1    1    2    0    0 -0.26555111027E+02  0.14541576374E+03  0.14807054380E+02  0.14856031477E+03  0.00000000000E+00 0. -1.
</event>
<event>
 7    1  0.3265282E-009  0.9111212E+02  0.7561462E-02  0.1300181E+00
          1   -1    0    0  501    0  0.00000000000E+00  0.00000000000E+00  0.29016137397E+03  0.29016137397E+03  0.00000000000E+00 0. -1.
         -1   -1    0    0    0  501 -0.00000000000E+00 -0.00000000000E+00 -0.54882869596E+02  0.54882869596E+02  0.00000000000E+00 0.  1.
         25    2    1    2    0    0 -0.43217414769E+02  0.31188859803E+02  0.18285515827E+03  0.22786993113E+03  0.12509279234E+03 0.  0.
          5    1    3    3  502    0 -0.90193052271E+01  0.61692218145E+02  0.16842721492E+03  0.17964541957E+03  0.41800000000E+01 0.  1.
         -5    1    3    3    0  502 -0.34198109542E+02 -0.30503358342E+02  0.14427943349E+02  0.48224511565E+02  0.41800000000E+01 0.  1.
        -11    1    1    2    0    0  0.17803251300E+02  0.13478167605E+02 -0.18907210123E+02  0.29259175543E+02  0.00000000000E+00 0.  1.
         11    1    1    2    0    0  0.25414163470E+02 -0.44667027407E+02  0.71330556227E+02  0.87915136887E+02  0.00000000000E+00 0. -1.
</event>
<event>
 7    1  0.3265282E-009  0.3739794E+03  0.7561462E-02  0.1053182E+00
         -2   -1    0    0    0  501 -0.00000000000E+00  0.00000000000E+00  0.18562769676E+03  0.18562769676E+03  0.00000000000E+00 0.  1.
          2   -1    0    0  501    0  0.00000000000E+00 -0.00000000000E+00 -0.18430997535E+04  0.18430997535E+04  0.00000000000E+00 0. -1.
         25    2    1    2    0    0 -0.25584633994E+03  0.25333660183E+03 -0.56652055385E+02  0.38534962852E+03  0.12509235521E+03 0.  0.
          5    1    3    3  502    0 -0.24293316153E+03  0.16974210168E+03 -0.47427238322E+02  0.30015948659E+03  0.41800000000E+01 0.  1.
         -5    1    3    3    0  502 -0.12913178408E+02  0.83594500151E+02 -0.92248170627E+01  0.85190141929E+02  0.41800000000E+01 0.  1.
        -11    1    1    2    0    0  0.11773324439E+03 -0.16585192654E+03 -0.75586668011E+03  0.78275310058E+03  0.00000000000E+00 0.  1.
         11    1    1    2    0    0  0.13811309554E+03 -0.87484675298E+02 -0.84495332129E+03  0.86062472119E+03  0.00000000000E+00 0. -1.
</event>
<event>
 7    1  0.3265282E-009  0.1160575E+03  0.7561462E-02  0.1249746E+00
          1   -1    0    0  501    0  0.00000000000E+00  0.00000000000E+00  0.49708792722E+02  0.49708792722E+02  0.00000000000E+00 0. -1.
         -1   -1    0    0    0  501 -0.00000000000E+00 -0.00000000000E+00 -0.29832725101E+03  0.29832725101E+03  0.00000000000E+00 0.  1.
         25    2    1    2    0    0 -0.48534514791E+02  0.22457416438E+02 -0.16204726396E+03  0.21158200294E+03  0.12509074119E+03 0.  0.
          5    1    3    3  502    0 -0.47813616548E+02  0.69055253812E+02 -0.74658269927E+02  0.11245487840E+03  0.41800000000E+01 0. -1.
         -5    1    3    3    0  502 -0.72089824287E+00 -0.46597837374E+02 -0.87388994032E+02  0.99127124543E+02  0.41800000000E+01 0. -1.
        -11    1    1    2    0    0 -0.74727067155E+01  0.26071147506E+02 -0.76192416086E+01  0.28170887821E+02  0.00000000000E+00 0. -1.
         11    1    1    2    0    0  0.56007221506E+02 -0.48528563943E+02 -0.78951952718E+02  0.10828315297E+03  0.00000000000E+00 0.  1.
</event>
<event>
 7    1  0.3265282E-009  0.1200400E+03  0.7561462E-02  0.1243031E+00
          1   -1    0    0  501    0  0.00000000000E+00  0.00000000000E+00  0.64982927481E+02  0.64982927481E+02  0.00000000000E+00 0. -1.
         -1   -1    0    0    0  501 -0.00000000000E+00 -0.00000000000E+00 -0.23104072551E+03  0.23104072551E+03  0.00000000000E+00 0.  1.
         25    2    1    2    0    0 -0.52659625980E+02  0.19498675473E+02 -0.11313640123E+03  0.17776217393E+03  0.12508521354E+03 0.  0.
          5    1    3    3  502    0 -0.89952484680E+02 -0.69837325864E+01 -0.65354156594E+02  0.11148479809E+03  0.41800000000E+01 0. -1.
         -5    1    3    3    0  502  0.37292858699E+02  0.26482408059E+02 -0.47782244636E+02  0.66277375846E+02  0.41800000000E+01 0. -1.
        -11    1    1    2    0    0  0.36097783914E+02  0.32921682765E+02 -0.36182215310E+02  0.60795064802E+02  0.00000000000E+00 0.  1.
         11    1    1    2    0    0  0.16561842066E+02 -0.52420358238E+02 -0.16739181492E+02  0.57466414256E+02  0.00000000000E+00 0. -1.
</event>
<event>
 7    1  0.3265282E-009  0.1162847E+03  0.7561462E-02  0.1249355E+00
         -2   -1    0    0    0  501 -0.00000000000E+00  0.00000000000E+00  0.10063218692E+03  0.10063218692E+03  0.00000000000E+00 0. -1.
          2   -1    0    0  501    0  0.00000000000E+00 -0.00000000000E+00 -0.22166175310E+03  0.22166175310E+03  0.00000000000E+00 0.  1.
         25    2    1    2    0    0  0.66895002020E+02 -0.54731879645E+02 -0.12520407978E+03  0.19696294910E+03  0.12509125381E+03 0.  0.
          5    1    3    3  502    0 -0.89100876762E+01  0.89667021044E+01  0.18259352392E+02  0.22597959174E+02  0.41800000000E+01 0.  1.
         -5    1    3    3    0  502  0.75805089696E+02 -0.63698581750E+02 -0.14346343217E+03  0.17436498992E+03  0.41800000000E+01 0.  1.
        -11    1    1    2    0    0 -0.85519792291E+02  0.54719378065E+02 -0.98673976514E+01  0.10200593486E+03  0.00000000000E+00 0. -1.
         11    1    1    2    0    0  0.18624790271E+02  0.12501579952E-01  0.14041911251E+02  0.23325056067E+02  0.00000000000E+00 0.  1.
</event>
<event>
 7    1  0.3265282E-009  0.3060723E+03  0.7561462E-02  0.1082244E+00
          2   -1    0    0  501    0  0.00000000000E+00  0.00000000000E+00  0.59610899739E+02  0.59610899739E+02  0.00000000000E+00 0. -1.
         -2   -1    0    0    0  501 -0.00000000000E+00 -0.00000000000E+00 -0.19611475597E+04  0.19611475597E+04  0.00000000000E+00 0.  1.
         25    2    1    2    0    0  0.14252223443E+03 -0.25777088080E+03 -0.56739907930E+03  0.65141969257E+03  0.12508991318E+03 0.  0.
          5    1    3    3  502    0  0.57854981091E+02 -0.21490624110E+03 -0.43264106876E+03  0.48654666588E+03  0.41800000000E+01 0.  1.
         -5    1    3    3    0  502  0.84667253341E+02 -0.42864639705E+02 -0.13475801054E+03  0.16487302669E+03  0.41800000000E+01 0.  1.
        -11    1    1    2    0    0 -0.11386995973E+03  0.20409558364E+03 -0.11924898035E+04  0.12151762450E+04  0.00000000000E+00 0.  1.
         11    1    1    2    0    0 -0.28652274701E+02  0.53675297161E+02 -0.14164777715E+03  0.15416252185E+03  0.00000000000E+00 0. -1.
</event>
<event>
 7    1  0.3265282E-009  0.7869678E+02  0.7561462E-02  0.1332791E+00
          1   -1    0    0  501    0  0.00000000000E+00  0.00000000000E+00  0.15564924915E+03  0.15564924915E+03  0.00000000000E+00 0. -1.
         -1   -1    0    0    0  501 -0.00000000000E+00 -0.00000000000E+00 -0.88534604825E+02  0.88534604825E+02  0.00000000000E+00 0.  1.
         25    2    1    2    0    0 -0.28436981231E+02  0.28847461988E+02  0.64233446966E+02  0.14633959027E+03  0.12509397270E+03 0.  0.
          5    1    3    3  502    0 -0.12235877318E+02 -0.17590452412E+02 -0.31677848505E+02  0.38472057336E+02  0.41800000000E+01 0.  1.
         -5    1    3    3    0  502 -0.16201103913E+02  0.46437914400E+02  0.95911295471E+02  0.10786753293E+03  0.41800000000E+01 0.  1.
        -11    1    1    2    0    0  0.54819225996E+02 -0.20573052118E+02 -0.20084159748E+02  0.61901304388E+02  0.00000000000E+00 0.  1.
         11    1    1    2    0    0 -0.26382244765E+02 -0.82744098706E+01  0.22965357106E+02  0.35942959318E+02  0.00000000000E+00 0. -1.
</event>
<event>
 7    1  0.3265282E-009  0.1130194E+03  0.7561462E-02  0.1255078E+00
          4   -1    0    0  501    0  0.00000000000E+00  0.00000000000E+00  0.14787192067E+04  0.14787192067E+04  0.00000000000E+00 0.  1.
         -4   -1    0    0    0  501 -0.00000000000E+00 -0.00000000000E+00 -0.89424794540E+01  0.89424794540E+01  0.00000000000E+00 0. -1.
         25    2    1    2    0    0  0.21803219332E+02  0.96088705962E+01  0.93588125165E+03  0.94450454747E+03  0.12508961686E+03 0.  0.
          5    1    3    3  502    0 -0.18683575575E+02  0.59392762220E+02  0.41401052284E+03  0.41868694942E+03  0.41800000000E+01 0.  1.
         -5    1    3    3    0  502  0.40486794906E+02 -0.49783891624E+02  0.52187072881E+03  0.52581759805E+03  0.41800000000E+01 0.  1.
        -11    1    1    2    0    0 -0.54774391010E+01  0.43462468399E+02  0.26391903966E+03  0.26752990112E+03  0.00000000000E+00 0. -1.
         11    1    1    2    0    0 -0.16325780231E+02 -0.53071338996E+02  0.26997643596E+03  0.27562723758E+03  0.00000000000E+00 0.  1.
</event>
<event>
 7    1  0.3265282E-009  0.1087642E+03  0.7561462E-02  0.1262876E+00
         -2   -1    0    0    0  501 -0.00000000000E+00  0.00000000000E+00  0.25602720152E+03  0.25602720152E+03  0.00000000000E+00 0. -1.
          2   -1    0    0  501    0  0.00000000000E+00 -0.00000000000E+00 -0.55018435889E+02  0.55018435889E+02  0.00000000000E+00 0.  1.
         25    2    1    2    0    0 -0.42391776928E+02  0.11389512944E+02  0.89208401058E+02  0.15978513030E+03  0.12508543197E+03 0.  0.
          5    1    3    3  502    0 -0.17151765169E+01 -0.53794222845E+02  0.24662907227E+02  0.59350582431E+02  0.41800000000E+01 0.  1.
         -5    1    3    3    0  502 -0.40676600412E+02  0.65183735789E+02  0.64545493831E+02  0.10043454787E+03  0.41800000000E+01 0.  1.
        -11    1    1    2    0    0 -0.29434839202E+01  0.27019018727E+02  0.30668621038E+01  0.27351364019E+02  0.00000000000E+00 0.  1.
         11    1    1    2    0    0  0.45335260849E+02 -0.38408531670E+02  0.10873350247E+03  0.12390914308E+03  0.00000000000E+00 0. -1.
</event>
<event>
 7    1  0.3265282E-009  0.8267533E+02  0.7561462E-02  0.1321626E+00
          2   -1    0    0  501    0  0.00000000000E+00  0.00000000000E+00  0.62563367797E+02  0.62563367797E+02  0.00000000000E+00 0. -1.
         -2   -1    0    0    0  501 -0.00000000000E+00 -0.00000000000E+00 -0.23067224776E+03  0.23067224776E+03  0.00000000000E+00 0.  1.
         25    2    1    2    0    0  0.45847217547E+02 -0.11282781963E+02 -0.58430284726E+02  0.14591301364E+03  0.12508893176E+03 0.  0.
          5    1    3    3  502    0 -0.27330475455E+02  0.95477333456E+01 -0.63121314853E+02  0.69569295593E+02  0.41800000000E+01 0.  1.
         -5    1    3    3    0  502  0.73177693001E+02 -0.20830515309E+02  0.46910301272E+01  0.76343718043E+02  0.41800000000E+01 0.  1.
        -11    1    1    2    0    0 -0.24535898712E+01  0.16058760685E+02  0.10579141683E+02  0.19386132589E+02  0.00000000000E+00 0. -1.
         11    1    1    2    0    0 -0.43393627675E+02 -0.47759787218E+01 -0.12025773692E+03  0.12793646933E+03  0.00000000000E+00 0.  1.
</event>
<event>
 7    1  0.3265282E-009  0.1399942E+03  0.7561462E-02  0.1213337E+00
          1   -1    0    0  501    0  0.00000000000E+00  0.00000000000E+00  0.27150584030E+03  0.27150584030E+03  0.00000000000E+00 0. -1.
         -1   -1    0    0    0  501 -0.00000000000E+00 -0.00000000000E+00 -0.88065989401E+02  0.88065989401E+02  0.00000000000E+00 0.  1.
         25    2    1    2    0    0  0.34274532237E+02  0.91974050279E+02  0.14879492196E+03  0.21776064383E+03  0.12508317120E+03 0.  0.
          5    1    3    3  502    0  0.63497967319E+02  0.96721675595E+02  0.14792655576E+03  0.18784784450E+03  0.41800000000E+01 0.  1.
         -5    1    3    3    0  502 -0.29223435082E+02 -0.47476253164E+01  0.86836619842E+00  0.29912799333E+02  0.41800000000E+01 0.  1.
        -11    1    1    2    0    0  0.15097889660E+02  0.11949708714E+02  0.16452125965E+02  0.25326157610E+02  0.00000000000E+00 0. -1.
         11    1    1    2    0    0 -0.49372421898E+02 -0.10392375899E+03  0.18192802969E+02  0.11648502825E+03  0.00000000000E+00 0.  1.
</event>
<event>
 7    1  0.3265282E-009  0.1238658E+03  0.7561462E-02  0.1236853E+00
          3   -1    0    0  501    0  0.00000000000E+00  0.00000000000E+00  0.33566472239E+03  0.33566472239E+03  0.00000000000E+00 0. -1.
         -3   -1    0    0    0  501 -0.00000000000E+00 -0.00000000000E+00 -0.69510710662E+02  0.69510710662E+02  0.00000000000E+00 0.  1.
         25    2    1    2    0    0  0.84899082528E+02  0.64233471159E+02  0.14657583025E+03  0.22015065029E+03  0.12509213316E+03 0.  0.
          5    1    3    3  502    0  0.31562832835E+02  0.27145438967E+02  0.14924414646E+03  0.15499798362E+03  0.41800000000E+01 0. -1.
         -5    1    3    3    0  502  0.53336249693E+02  0.37088032192E+02 -0.26683162110E+01  0.65152666673E+02  0.41800000000E+01 0. -1.
        -11    1    1    2    0    0 -0.78245019723E+02 -0.20670823587E+01  0.59538928542E+02  0.98343479463E+02  0.00000000000E+00 0.  1.
         11    1    1    2    0    0 -0.66540628044E+01 -0.62166388800E+02  0.60039252940E+02  0.86681303300E+02  0.00000000000E+00 0. -1.
</event>
<event>
 7    1  0.3265282E-009  0.1462130E+03  0.7561462E-02  0.1205205E+00
         -2   -1    0    0    0  501 -0.00000000000E+00  0.00000000000E+00  0.16461551326E+04  0.16461551326E+04  0.00000000000E+00 0.  1.
          2   -1    0    0  501    0  0.00000000000E+00 -0.00000000000E+00 -0.16776301591E+02  0.16776301591E+02  0.00000000000E+00 0. -1.
         25    2    1    2    0    0  0.10385491720E+03  0.65669123925E+02  0.10285786936E+04  0.10434189538E+04  0.12510278385E+03 0.  0.
          5    1    3    3  502    0  0.83332062180E+02  0.11383581030E+02  0.87736296961E+03  0.88139495764E+03  0.41800000000E+01 0. -1.
         -5    1    3    3    0  502  0.20522855017E+02  0.54285542896E+02  0.15121572396E+03  0.16202399612E+03  0.41800000000E+01 0. -1.
        -11    1    1    2    0    0 -0.11871053312E+03 -0.51161135427E+02  0.54029953281E+03  0.55554769156E+03  0.00000000000E+00 0. -1.
         11    1    1    2    0    0  0.14855615923E+02 -0.14507988499E+02  0.60500604672E+02  0.63964788911E+02  0.00000000000E+00 0.  1.
</event>
<event>
 7    1  0.3265282E-009  0.1172257E+03  0.7561462E-02  0.1247745E+00
          1   -1    0    0  501    0  0.00000000000E+00  0.00000000000E+00  0.68100196580E+03  0.68100196580E+03  0.00000000000E+00 0. -1.
         -1   -1    0    0    0  501 -0.00000000000E+00 -0.00000000000E+00 -0.31981049531E+02  0.31981049531E+02  0.00000000000E+00 0.  1.
         25    2    1    2    0    0 -0.34906719113E+02  0.77534598494E+02  0.22516756671E+03  0.27125260542E+03  0.12508976715E+03 0.  0.
          5    1    3    3  502    0  0.30108675048E+02  0.71572249243E+01  0.56982545184E+01  0.31744301635E+02  0.41800000000E+01 0.  1.
         -5    1    3    3    0  502 -0.65015394161E+02  0.70377373570E+02  0.21946931219E+03  0.23950830378E+03  0.41800000000E+01 0.  1.
        -11    1    1    2    0    0 -0.13309043826E+02 -0.50115580116E+02  0.94978816536E+02  0.10821126378E+03  0.00000000000E+00 0.  1.
         11    1    1    2    0    0  0.48215762939E+02 -0.27419018378E+02  0.32887453303E+03  0.33351914614E+03  0.00000000000E+00 0. -1.
</event>
<event>
 7    1  0.3265282E-009  0.2876037E+03  0.7561462E-02  0.1091607E+00
          2   -1    0    0  501    0  0.00000000000E+00  0.00000000000E+00  0.24217849064E+04  0.24217849064E+04  0.00000000000E+00 0. -1.
         -2   -1    0    0    0  501 -0.00000000000E+00 -0.00000000000E+00 -0.37219792351E+02  0.37219792351E+02  0.00000000000E+00 0.  1.
         25    2    1    2    0    0  0.26354335286E+03 -0.88424447856E+02  0.11136456171E+04  0.11546125362E+04  0.12509822727E+03 0.  0.
          5    1    3    3  502    0  0.53644059898E+02  0.90415241038E-01  0.44443952974E+03  0.44768477899E+03  0.41800000000E+01 0. -1.
         -5    1    3    3    0  502  0.20989929296E+03 -0.88514863097E+02  0.66920608732E+03  0.70692775719E+03  0.41800000000E+01 0. -1.
        -11    1    1    2    0    0 -0.13755796366E+03  0.95372269922E+02  0.71399227634E+03  0.73335055322E+03  0.00000000000E+00 0.  1.
         11    1    1    2    0    0 -0.12598538919E+03 -0.69478220661E+01  0.55692722060E+03  0.57104160932E+03  0.00000000000E+00 0. -1.
</event>
<event>
 7    1  0.3265282E-009  0.1402466E+03  0.7561462E-02  0.1212998E+00
          2   -1    0    0  501    0  0.00000000000E+00  0.00000000000E+00  0.31181407764E+03  0.31181407764E+03  0.00000000000E+00 0. -1.
         -2   -1    0    0    0  501 -0.00000000000E+00 -0.00000000000E+00 -0.73254006606E+02  0.73254006606E+02  0.00000000000E+00 0.  1.
         25    2    1    2    0    0  0.50337460429E+02 -0.84426756568E+02  0.17478623695E+03  0.23634334745E+03  0.12508481967E+03 0.  0.
          5    1    3    3  502    0  0.92171322333E+01 -0.10207853827E+03  0.75531062923E+02  0.12738680217E+03  0.41800000000E+01 0.  1.
         -5    1    3    3    0  502  0.41120328195E+02  0.17651781701E+02  0.99255174023E+02  0.10895654528E+03  0.41800000000E+01 0.  1.
        -11    1    1    2    0    0  0.23636165346E+02  0.40626844760E+02  0.32934444162E+02  0.57392390085E+02  0.00000000000E+00 0.  1.
         11    1    1    2    0    0 -0.73973625775E+02  0.43799911808E+02  0.30839389926E+02  0.91332346711E+02  0.00000000000E+00 0. -1.
</event>
<event>
 7    1  0.3265282E-009  0.8687062E+02  0.7561462E-02  0.1310612E+00
          2   -1    0    0  501    0  0.00000000000E+00  0.00000000000E+00  0.29754406858E+03  0.29754406858E+03  0.00000000000E+00 0. -1.
         -2   -1    0    0    0  501 -0.00000000000E+00 -0.00000000000E+00 -0.53876167030E+02  0.53876167030E+02  0.00000000000E+00 0.  1.
         25    2    1    2    0    0 -0.31226391327E+02 -0.48696892263E+02  0.17591670753E+03  0.22347324397E+03  0.12508848049E+03 0.  0.
          5    1    3    3  502    0 -0.54846321599E+02 -0.20657637385E+02  0.17706158775E+03  0.18655598418E+03  0.41800000000E+01 0. -1.
         -5    1    3    3    0  502  0.23619930272E+02 -0.28039254878E+02 -0.11448802167E+01  0.36917259796E+02  0.41800000000E+01 0. -1.
        -11    1    1    2    0    0 -0.13686066022E+02  0.29973630796E+01  0.62057914407E+02  0.63619787245E+02  0.00000000000E+00 0. -1.
         11    1    1    2    0    0  0.44912457349E+02  0.45699529183E+02  0.56932796140E+01  0.64327204396E+02  0.00000000000E+00 0.  1.
</event>
<event>
 7    1  0.3265282E-009  0.1269018E+03  0.7561462E-02  0.1232127E+00
          4   -1    0    0  501    0  0.00000000000E+00  0.00000000000E+00  0.12676011287E+03  0.12676011287E+03  0.00000000000E+00 0. -1.
         -4   -1    0    0    0  501 -0.00000000000E+00 -0.00000000000E+00 -0.18293899714E+03  0.18293899714E+03  0.00000000000E+00 0.  1.
         25    2    1    2    0    0  0.10100368442E+03 -0.47302637311E+02 -0.28404730490E+02  0.16998154945E+03  0.12509042599E+03 0.  0.
          5    1    3    3  502    0  0.78116053342E+01  0.13802711687E+02  0.37159805388E+02  0.40618463342E+02  0.41800000000E+01 0. -1.
         -5    1    3    3    0  502  0.93192079091E+02 -0.61105348998E+02 -0.65564535879E+02  0.12936308610E+03  0.41800000000E+01 0. -1.
        -11    1    1    2    0    0 -0.90157896465E+02  0.60670355019E+02 -0.19578624734E+01  0.10868841474E+03  0.00000000000E+00 0. -1.
         11    1    1    2    0    0 -0.10845787960E+02 -0.13367717708E+02 -0.25816291310E+02  0.31029145819E+02  0.00000000000E+00 0.  1.
</event>
<event>
 7    1  0.3265282E-009  0.1099096E+03  0.7561462E-02  0.1260737E+00
          2   -1    0    0  501    0  0.00000000000E+00  0.00000000000E+00  0.11922183393E+03  0.11922183393E+03  0.00000000000E+00 0. -1.
         -2   -1    0    0    0  501 -0.00000000000E+00 -0.00000000000E+00 -0.23108382185E+03  0.23108382185E+03  0.00000000000E+00 0.  1.
         25    2    1    2    0    0  0.37236284832E+02  0.50603510401E+02 -0.16893628615E+03  0.21939274650E+03  0.12508577964E+03 0.  0.
          5    1    3    3  502    0  0.73041938667E+02  0.32319061371E+02 -0.15866980202E+03  0.17768856183E+03  0.41800000000E+01 0.  1.
         -5    1    3    3    0  502 -0.35805653836E+02  0.18284449030E+02 -0.10266484124E+02  0.41704184673E+02  0.41800000000E+01 0.  1.
        -11    1    1    2    0    0 -0.61404479541E+02 -0.36063099790E+02  0.46257259036E+01  0.71361436465E+02  0.00000000000E+00 0.  1.
         11    1    1    2    0    0  0.24168194709E+02 -0.14540410610E+02  0.52448572323E+02  0.59551472819E+02  0.00000000000E+00 0. -1.
</event>
<event>
 7    1  0.3828086E-009  0.1770984E+03  0.7561462E-02  0.1170641E+00
         -4   -1    0    0    0  501 -0.00000000000E+00  0.00000000000E+00  0.12226476186E+03  0.12226476186E+03  0.00000000000E+00 0.  1.
          4   -1    0    0  501    0  0.00000000000E+00 -0.00000000000E+00 -0.30499304793E+03  0.30499304793E+03  0.00000000000E+00 0. -1.
         25    2    1    2    0    0  0.15644007864E+03 -0.88595318961E+01 -0.12966951217E+03  0.23877963404E+03  0.12509812843E+03 0.  0.
          5    1    3    3  502    0 -0.14436898339E+02  0.17041239102E+02 -0.34853974026E+02  0.41606487105E+02  0.41800000000E+01 0. -1.
         -5    1    3    3    0  502  0.17087697698E+03 -0.25900770999E+02 -0.94815538140E+02  0.19717314693E+03  0.41800000000E+01 0. -1.
        -11    1    1    2    0    0 -0.77082154738E+02 -0.79034236505E+01  0.19222908182E+02  0.79835098067E+02  0.00000000000E+00 0.  1.
         11    1    1    2    0    0 -0.79357923900E+02  0.16762955547E+02 -0.72281682084E+02  0.10864307769E+03  0.00000000000E+00 0. -1.
</event>
<event>
 7    1  0.3265282E-009  0.1266196E+03  0.7561462E-02  0.1232560E+00
         -1   -1    0    0    0  501 -0.00000000000E+00  0.00000000000E+00  0.79881258552E+02  0.79881258552E+02  0.00000000000E+00 0.  1.
          1   -1    0    0  501    0  0.00000000000E+00 -0.00000000000E+00 -0.32630946046E+03  0.32630946046E+03  0.00000000000E+00 0. -1.
         25    2    1    2    0    0  0.11261616666E+02  0.10179101027E+03 -0.53569471612E+02  0.17030928370E+03  0.12508928829E+03 0.  0.
          5    1    3    3  502    0  0.36961649582E+02  0.18775748118E+02 -0.70292190477E+02  0.81713870911E+02  0.41800000000E+01 0. -1.
         -5    1    3    3    0  502 -0.25700032916E+02  0.83015262147E+02  0.16722718864E+02  0.88595412790E+02  0.41800000000E+01 0. -1.
        -11    1    1    2    0    0 -0.39482776060E+02 -0.78913791239E+02 -0.17365765265E+03  0.19479028820E+03  0.00000000000E+00 0.  1.
         11    1    1    2    0    0  0.28221159394E+02 -0.22877219026E+02 -0.19201077642E+02  0.41091147107E+02  0.00000000000E+00 0. -1.
</event>
<event>
 7    1  0.3265282E-009  0.9061819E+02  0.7561462E-02  0.1301362E+00
         -1   -1    0    0    0  501 -0.00000000000E+00  0.00000000000E+00  0.23148010153E+02  0.23148010153E+02  0.00000000000E+00 0.  1.
          1   -1    0    0  501    0  0.00000000000E+00 -0.00000000000E+00 -0.60054499604E+03  0.60054499604E+03  0.00000000000E+00 0. -1.
         25    2    1    2    0    0 -0.32865665835E+02 -0.26704418184E+02 -0.30376645378E+03  0.33123114588E+03  0.12508691224E+03 0.  0.
          5    1    3    3  502    0 -0.66922573980E+02 -0.43070010376E+02 -0.26585430912E+03  0.27754214595E+03  0.41800000000E+01 0.  1.
         -5    1    3    3    0  502  0.34056908145E+02  0.16365592192E+02 -0.37912144662E+02  0.53688999926E+02  0.41800000000E+01 0.  1.
        -11    1    1    2    0    0  0.83563594271E+01 -0.13830119573E+02 -0.14872042322E+01  0.16226913653E+02  0.00000000000E+00 0.  1.
         11    1    1    2    0    0  0.24509306408E+02  0.40534537757E+02 -0.27214332788E+03  0.27623494667E+03  0.00000000000E+00 0. -1.
</event>
<event>
 7    1  0.3265282E-009  0.1056243E+03  0.7561462E-02  0.1268895E+00
         -2   -1    0    0    0  501 -0.00000000000E+00  0.00000000000E+00  0.72096014044E+03  0.72096014044E+03  0.00000000000E+00 0.  1.
          2   -1    0    0  501    0  0.00000000000E+00 -0.00000000000E+00 -0.20594463055E+02  0.20594463055E+02  0.00000000000E+00 0. -1.
         25    2    1    2    0    0 -0.19164345609E+02  0.39772177367E+02  0.48082249203E+03  0.49878559225E+03  0.12509076686E+03 0.  0.
          5    1    3    3  502    0  0.78118468197E+01 -0.43646191193E+02  0.14526049614E+03  0.15193452239E+03  0.41800000000E+01 0. -1.
         -5    1    3    3    0  502 -0.26976192429E+02  0.83418368560E+02  0.33556199589E+03  0.34685106985E+03  0.41800000000E+01 0. -1.
        -11    1    1    2    0    0  0.35300436516E+02 -0.48970215607E+02  0.21545315165E+03  0.22375044892E+03  0.00000000000E+00 0.  1.
         11    1    1    2    0    0 -0.16136090907E+02  0.91980382400E+01  0.40900336967E+01  0.19018562324E+02  0.00000000000E+00 0. -1.
</event>
<event>
 7    1  0.3265282E-009  0.1021939E+03  0.7561462E-02  0.1275749E+00
         -2   -1    0    0    0  501 -0.00000000000E+00  0.00000000000E+00  0.70777719355E+02  0.70777719355E+02  0.00000000000E+00 0.  1.
          2   -1    0    0  501    0  0.00000000000E+00 -0.00000000000E+00 -0.27106577291E+03  0.27106577291E+03  0.00000000000E+00 0. -1.
         25    2    1    2    0    0  0.60542523104E+02 -0.41781547088E+02 -0.16483181725E+03  0.21960560981E+03  0.12508397618E+03 0.  0.
          5    1    3    3  502    0  0.62998797342E+02  0.68302602231E+00 -0.16520869026E+03  0.17686350310E+03  0.41800000000E+01 0.  1.
         -5    1    3    3    0  502 -0.24562742378E+01 -0.42464573111E+02  0.37687300410E+00  0.42742106708E+02  0.41800000000E+01 0.  1.
        -11    1    1    2    0    0 -0.19600075126E+01  0.39843639179E+02  0.17202764601E+02  0.43442977826E+02  0.00000000000E+00 0.  1.
         11    1    1    2    0    0 -0.58582515591E+02  0.19379079090E+01 -0.52659000898E+02  0.78794904630E+02  0.00000000000E+00 0. -1.
</event>
<event>
 7    1  0.3265282E-009  0.1095660E+03  0.7561462E-02  0.1261376E+00
          2   -1    0    0  501    0  0.00000000000E+00  0.00000000000E+00  0.15468227429E+04  0.15468227429E+04  0.00000000000E+00 0.  1.
         -2   -1    0    0    0  501 -0.00000000000E+00 -0.00000000000E+00 -0.10136989453E+02  0.10136989453E+02  0.00000000000E+00 0. -1.
         25    2    1    2    0    0 -0.58738857847E+01 -0.17413127771E+02  0.12181265968E+04  0.12246705496E+04  0.12509128543E+03 0.  0.
          5    1    3    3  502    0 -0.55553200559E+02 -0.42414737313E+02  0.61608253839E+03  0.62004865499E+03  0.41800000000E+01 0.  1.
         -5    1    3    3    0  502  0.49679314775E+02  0.25001609541E+02  0.60204405838E+03  0.60462189460E+03  0.41800000000E+01 0.  1.
        -11    1    1    2    0    0 -0.42789889088E+02  0.47259369941E+01  0.17344442276E+03  0.17870723789E+03  0.00000000000E+00 0. -1.
         11    1    1    2    0    0  0.48663774872E+02  0.12687190777E+02  0.14511473393E+03  0.15358194490E+03  0.00000000000E+00 0.  1.
</event>
<event>
 7    1  0.3265282E-009  0.5935217E+02  0.7561462E-02  0.1400571E+00
          3   -1    0    0  501    0  0.00000000000E+00  0.00000000000E+00  0.57314380534E+03  0.57314380534E+03  0.00000000000E+00 0. -1.
         -3   -1    0    0    0  501 -0.00000000000E+00 -0.00000000000E+00 -0.20381799626E+02  0.20381799626E+02  0.00000000000E+00 0.  1.
         25    2    1    2    0    0  0.54459063621E+01  0.23176746690E+01  0.27538994237E+03  0.30252415402E+03  0.12508482681E+03 0.  0.
          5    1    3    3  502    0 -0.29714843303E+01  0.15264262393E+02  0.28393209437E+03  0.28438835074E+03  0.41800000000E+01 0.  1.
         -5    1    3    3    0  502  0.84173906924E+01 -0.12946587724E+02 -0.85421520009E+01  0.18135803279E+02  0.41800000000E+01 0.  1.
        -11    1    1    2    0    0  0.38944350771E+02 -0.12797054518E+02  0.10561178515E+03  0.11328846465E+03  0.00000000000E+00 0.  1.
         11    1    1    2    0    0 -0.44390257133E+02  0.10479379849E+02  0.17176027821E+03  0.17771298630E+03  0.00000000000E+00 0. -1.
</event>
<event>
 7    1  0.3265282E-009  0.2026950E+03  0.7561462E-02  0.1147485E+00
          1   -1    0    0  501    0  0.00000000000E+00  0.00000000000E+00  0.61972354485E+03  0.61972354485E+03  0.00000000000E+00 0. -1.
         -1   -1    0    0    0  501 -0.00000000000E+00 -0.00000000000E+00 -0.75976159978E+02  0.75976159978E+02  0.00000000000E+00 0.  1.
         25    2    1    2    0    0  0.18878319820E+02  0.18443453416E+03  0.31757285998E+03  0.38842322778E+03  0.12509034389E+03 0.  0.
          5    1    3    3  502    0 -0.43944158100E+02  0.56874667103E+02  0.16390855727E+03  0.17902319497E+03  0.41800000000E+01 0. -1.
         -5    1    3    3    0  502  0.62822477919E+02  0.12755986706E+03  0.15366430271E+03  0.20940003281E+03  0.41800000000E+01 0. -1.
        -11    1    1    2    0    0  0.15045045312E+02 -0.77836310648E+02  0.36964863112E+02  0.87471399604E+02  0.00000000000E+00 0.  1.
         11    1    1    2    0    0 -0.33923365131E+02 -0.10659822351E+03  0.18920966179E+03  0.21980507745E+03  0.00000000000E+00 0. -1.
</event>
<event>
 7    1  0.3265282E-009  0.1209419E+03  0.7561462E-02  0.1241551E+00
         -2   -1    0    0    0  501 -0.00000000000E+00  0.00000000000E+00  0.70254692910E+02  0.70254692910E+02  0.00000000000E+00 0.  1.
          2   -1    0    0  501    0  0.00000000000E+00 -0.00000000000E+00 -0.22419329252E+03  0.22419329252E+03  0.00000000000E+00 0. -1.
         25    2    1    2    0    0  0.68554711227E+02 -0.57272428136E+01 -0.70864871572E+02  0.15938018636E+03  0.12509062331E+03 0.  0.
          5    1    3    3  502    0 -0.28047006338E+02  0.23115096453E+02 -0.39215397890E+02  0.53630794141E+02  0.41800000000E+01 0. -1.
         -5    1    3    3    0  502  0.96601717565E+02 -0.28842339267E+02 -0.31649473682E+02  0.10574939222E+03  0.41800000000E+01 0. -1.
        -11    1    1    2    0    0 -0.86015098339E+02 -0.20552922316E-01 -0.57081221025E+02  0.10323208493E+03  0.00000000000E+00 0.  1.
         11    1    1    2    0    0  0.17460387112E+02  0.57477957359E+01 -0.25992507014E+02  0.31835714140E+02  0.00000000000E+00 0. -1.
</event>
<event>
 7    1  0.3265282E-009  0.1324657E+03  0.7561462E-02  0.1223842E+00
         -3   -1    0    0    0  501 -0.00000000000E+00  0.00000000000E+00  0.37175177807E+03  0.37175177807E+03  0.00000000000E+00 0.  1.
          3   -1    0    0  501    0  0.00000000000E+00 -0.00000000000E+00 -0.66289242853E+02  0.66289242853E+02  0.00000000000E+00 0. -1.
         25    2    1    2    0    0 -0.36827057392E+02 -0.10901869209E+03  0.15487722004E+03  0.22994893262E+03  0.12509296920E+03 0.  0.
          5    1    3    3  502    0  0.27141742482E+02 -0.52793097485E+02  0.79033944110E+01  0.60031003409E+02  0.41800000000E+01 0.  1.
         -5    1    3    3    0  502 -0.63968799874E+02 -0.56225594605E+02  0.14697382563E+03  0.16991792921E+03  0.41800000000E+01 0.  1.
        -11    1    1    2    0    0 -0.54116306876E+01  0.30680363897E+02  0.10208911370E+03  0.10673686154E+03  0.00000000000E+00 0.  1.
         11    1    1    2    0    0  0.42238688080E+02  0.78338328193E+02  0.48496201470E+02  0.10135522676E+03  0.00000000000E+00 0. -1.
</event>
<event>
 7    1  0.3265282E-009  0.1410869E+03  0.7561462E-02  0.1211874E+00
          2   -1    0    0  501    0  0.00000000000E+00  0.00000000000E+00  0.11094901587E+03  0.11094901587E+03  0.00000000000E+00 0. -1.
         -2   -1    0    0    0  501 -0.00000000000E+00 -0.00000000000E+00 -0.26649734216E+03  0.26649734216E+03  0.00000000000E+00 0.  1.
         25    2    1    2    0    0 -0.81291857675E+02  0.82421789666E+02 -0.29218332323E+02  0.17292354333E+03  0.12508846213E+03 0.  0.
          5    1    3    3  502    0 -0.98953069981E+02  0.20221195683E+02 -0.37043826201E+02  0.10765836834E+03  0.41800000000E+01 0.  1.
         -5    1    3    3    0  502  0.17661212306E+02  0.62200593982E+02  0.78254938784E+01  0.65265174989E+02  0.41800000000E+01 0.  1.
        -11    1    1    2    0    0  0.21221220327E+02 -0.28792809861E+02 -0.11830894776E+03  0.12359762624E+03  0.00000000000E+00 0.  1.
         11    1    1    2    0    0  0.60070637348E+02 -0.53628979805E+02 -0.80210462047E+01  0.80925188468E+02  0.00000000000E+00 0. -1.
</event>
<event>
 7    1  0.3265282E-009  0.1307376E+03  0.7561462E-02  0.1226365E+00
          2   -1    0    0  501    0  0.00000000000E+00  0.00000000000E+00  0.46797097750E+03  0.46797097750E+03  0.00000000000E+00 0.  1.
         -2   -1    0    0    0  501 -0.00000000000E+00 -0.00000000000E+00 -0.57596470616E+02  0.57596470616E+02  0.00000000000E+00 0. -1.
         25    2    1    2    0    0  0.90616164337E+02  0.36853945038E+02  0.99709832390E+02  0.18750907552E+03  0.12509236676E+03 0.  0.
          5    1    3    3  502    0  0.29218746227E+02  0.58819851605E+02  0.10283710142E+03  0.12209198132E+03  0.41800000000E+01 0.  1.
         -5    1    3    3    0  502  0.61397418109E+02 -0.21965906567E+02 -0.31272690301E+01  0.65417094199E+02  0.41800000000E+01 0.  1.
        -11    1    1    2    0    0  0.17007019399E+02 -0.85739022700E+01  0.24588228593E+02  0.31101953223E+02  0.00000000000E+00 0. -1.
         11    1    1    2    0    0 -0.10762318374E+03 -0.28280042768E+02  0.28607644590E+03  0.30695641937E+03  0.00000000000E+00 0.  1.
</event>
<event>
 7    1  0.3265282E-009  0.1235297E+03  0.7561462E-02  0.1237385E+00
         -2   -1    0    0    0  501 -0.00000000000E+00  0.00000000000E+00  0.21927771205E+02  0.21927771205E+02  0.00000000000E+00 0.  1.
          2   -1    0    0  501    0  0.00000000000E+00 -0.00000000000E+00 -0.70406395364E+03  0.70406395364E+03  0.00000000000E+00 0. -1.
         25    2    1    2    0    0  0.20231617626E+02  0.56841223392E+02 -0.34991257844E+03  0.37646588216E+03  0.12508998700E+03 0.  0.
          5    1    3    3  502    0 -0.12971117926E+02  0.90189980286E+02 -0.24408985037E+03  0.26057591964E+03  0.41800000000E+01 0. -1.
         -5    1    3    3    0  502  0.33202735552E+02 -0.33348756893E+02 -0.10582272808E+03  0.11588996252E+03  0.41800000000E+01 0. -1.
        -11    1    1    2    0    0 -0.45217520994E+02 -0.67655820090E+02 -0.24717584782E+03  0.26022650508E+03  0.00000000000E+00 0. -1.
         11    1    1    2    0    0  0.24985903368E+02  0.10814596698E+02 -0.85047756166E+02  0.89299337611E+02  0.00000000000E+00 0.  1.
</event>
<event>
 7    1  0.3265282E-009  0.9874534E+02  0.7561462E-02  0.1282957E+00
         -1   -1    0    0    0  501 -0.00000000000E+00  0.00000000000E+00  0.42143540336E+03  0.42143540336E+03  0.00000000000E+00 0.  1.
          1   -1    0    0  501    0  0.00000000000E+00 -0.00000000000E+00 -0.32473137294E+02  0.32473137294E+02  0.00000000000E+00 0. -1.
         25    2    1    2    0    0  0.29802470958E+02  0.16843027273E+02  0.27989710241E+03  0.30848002601E+03  0.12508262734E+03 0.  0.
          5    1    3    3  502    0  0.61395727720E+02 -0.71491420816E+01  0.25274232486E+03  0.26022432783E+03  0.41800000000E+01 0.  1.
         -5    1    3    3    0  502 -0.31593256762E+02  0.23992169355E+02  0.27154777546E+02  0.48255698179E+02  0.41800000000E+01 0.  1.
        -11    1    1    2    0    0  0.27784999792E+02  0.13126464258E+02  0.42521600846E+02  0.52463290174E+02  0.00000000000E+00 0.  1.
         11    1    1    2    0    0 -0.57587470750E+02 -0.29969491531E+02  0.66543562807E+02  0.92965224472E+02  0.00000000000E+00 0. -1.
</event>
<event>
 7    1  0.3265282E-009  0.1258226E+03  0.7561462E-02  0.1233789E+00
         -1   -1    0    0    0  501 -0.00000000000E+00  0.00000000000E+00  0.47181050016E+02  0.47181050016E+02  0.00000000000E+00 0.  1.
          1   -1    0    0  501    0  0.00000000000E+00 -0.00000000000E+00 -0.43079057890E+03  0.43079057890E+03  0.00000000000E+00 0. -1.
         25    2    1    2    0    0 -0.40095528982E+02  0.75958905990E+02 -0.14555138139E+03  0.21025351096E+03  0.12507568669E+03 0.  0.
          5    1    3    3  502    0 -0.37512169128E+02 -0.13252114919E+02 -0.63516908953E+00  0.40008214436E+02  0.41800000000E+01 0.  1.
         -5    1    3    3    0  502 -0.25833598537E+01  0.89211020909E+02 -0.14491621230E+03  0.17024529652E+03  0.41800000000E+01 0.  1.
        -11    1    1    2    0    0  0.11442303634E+02 -0.89763966067E+02 -0.16953578593E+03  0.19217408417E+03  0.00000000000E+00 0.  1.
         11    1    1    2    0    0  0.28653225349E+02  0.13805060077E+02 -0.68522361565E+02  0.75544033788E+02  0.00000000000E+00 0. -1.
</event>
<event>
 7    1  0.3265282E-009  0.1423981E+03  0.7561462E-02  0.1210138E+00
          2   -1    0    0  501    0  0.00000000000E+00  0.00000000000E+00  0.44827154896E+03  0.44827154896E+03  0.00000000000E+00 0. -1.
         -2   -1    0    0    0  501 -0.00000000000E+00 -0.00000000000E+00 -0.58812528462E+02  0.58812528462E+02  0.00000000000E+00 0.  1.
         25    2    1    2    0    0  0.55975020892E+02 -0.93525740777E+02  0.29143983035E+03  0.33535958430E+03  0.12509440003E+03 0.  0.
          5    1    3    3  502    0  0.20005765981E+02 -0.11725864477E+03  0.17989565333E+03  0.21570753100E+03  0.41800000000E+01 0. -1.
         -5    1    3    3    0  502  0.35969254911E+02  0.23732903997E+02  0.11154417702E+03  0.11965205330E+03  0.41800000000E+01 0. -1.
        -11    1    1    2    0    0 -0.57773328536E+01  0.63952440150E+02  0.82983589563E+01  0.64746852722E+02  0.00000000000E+00 0.  1.
         11    1    1    2    0    0 -0.50197688039E+02  0.29573300627E+02  0.89720831192E+02  0.10697764039E+03  0.00000000000E+00 0. -1.
</event>
<event>
 7    1  0.3265282E-009  0.1449366E+03  0.7561462E-02  0.1206837E+00
         -1   -1    0    0    0  501 -0.00000000000E+00  0.00000000000E+00  0.94124731310E+02  0.94124731310E+02  0.00000000000E+00 0.  1.
          1   -1    0    0  501    0  0.00000000000E+00 -0.00000000000E+00 -0.40023062758E+03  0.40023062758E+03  0.00000000000E+00 0. -1.
         25    2    1    2    0    0 -0.11231159074E+03  0.66717542562E+02 -0.41693857295E+02  0.18560998546E+03  0.12509022771E+03 0.  0.
          5    1    3    3  502    0 -0.14170958488E+02  0.28608682180E+02 -0.69537315622E+02  0.76630173068E+02  0.41800000000E+01 0. -1.
         -5    1    3    3    0  502 -0.98140632252E+02  0.38108860382E+02  0.27843458327E+02  0.10897981240E+03  0.41800000000E+01 0. -1.
        -11    1    1    2    0    0  0.53109459583E+02  0.11376188844E+02 -0.53793830046E+02  0.76444807023E+02  0.00000000000E+00 0.  1.
         11    1    1    2    0    0  0.59202131158E+02 -0.78093731406E+02 -0.21061820893E+03  0.23230056640E+03  0.00000000000E+00 0. -1.
</event>
<event>
 7    1  0.3265282E-009  0.1173843E+03  0.7561462E-02  0.1247476E+00
         -2   -1    0    0    0  501 -0.00000000000E+00  0.00000000000E+00  0.12984652638E+02  0.12984652638E+02  0.00000000000E+00 0.  1.
          2   -1    0    0  501    0  0.00000000000E+00 -0.00000000000E+00 -0.12561100819E+04  0.12561100819E+04  0.00000000000E+00 0. -1.
         25    2    1    2    0    0 -0.34146165575E+02  0.29739020260E+02 -0.92885721090E+03  0.93833549434E+03  0.12508961482E+03 0.  0.
          5    1    3    3  502    0 -0.83963143572E+01 -0.49050632213E+02 -0.33169677131E+03  0.33543506542E+03  0.41800000000E+01 0.  1.
         -5    1    3    3    0  502 -0.25749851217E+02  0.78789652473E+02 -0.59716043959E+03  0.60290042891E+03  0.41800000000E+01 0.  1.
        -11    1    1    2    0    0  0.23716026251E+02  0.31658289391E+02 -0.97389921193E+02  0.10511657309E+03  0.00000000000E+00 0.  1.
         11    1    1    2    0    0  0.10430139324E+02 -0.61397309651E+02 -0.21687829716E+03  0.22564266710E+03  0.00000000000E+00 0. -1.
</event>
<event>
 7    1  0.3265282E-009  0.1063363E+03  0.7561462E-02  0.1267509E+00
         -1   -1    0    0    0  501 -0.00000000000E+00  0.00000000000E+00  0.70290147682E+02  0.70290147682E+02  0.00000000000E+00 0.  1.
          1   -1    0    0  501    0  0.00000000000E+00 -0.00000000000E+00 -0.26206156130E+03  0.26206156130E+03  0.00000000000E+00 0. -1.
         25    2    1    2    0    0 -0.69139932731E+02  0.32781856877E+02 -0.73970877327E+02  0.16423854795E+03  0.12509048526E+03 0.  0.
          5    1    3    3  502    0  0.30892519345E+02  0.12336422087E+02  0.65254314873E+01  0.34155361475E+02  0.41800000000E+01 0.  1.
         -5    1    3    3    0  502 -0.10003245208E+03  0.20445434790E+02 -0.80496308815E+02  0.13008318648E+03  0.41800000000E+01 0.  1.
        -11    1    1    2    0    0  0.55602774251E+02 -0.22594559007E+02 -0.13264263004E+03  0.14558931934E+03  0.00000000000E+00 0. -1.
         11    1    1    2    0    0  0.13537158480E+02 -0.10187297869E+02  0.14842093750E+02  0.22523841690E+02  0.00000000000E+00 0.  1.
</event>
<event>
 7    1  0.3265282E-009  0.1100894E+03  0.7561462E-02  0.1260404E+00
         -3   -1    0    0    0  501 -0.00000000000E+00  0.00000000000E+00  0.41568103435E+03  0.41568103435E+03  0.00000000000E+00 0.  1.
          3   -1    0    0  501    0  0.00000000000E+00 -0.00000000000E+00 -0.45143628114E+02  0.45143628114E+02  0.00000000000E+00 0. -1.
         25    2    1    2    0    0 -0.71634120405E+01 -0.77435694697E+02  0.14372478998E+03  0.20579700188E+03  0.12509192398E+03 0.  0.
          5    1    3    3  502    0 -0.42413780899E+01  0.25563780134E+02  0.80876836004E+02  0.85029589820E+02  0.41800000000E+01 0. -1.
         -5    1    3    3    0  502 -0.29220339507E+01 -0.10299947483E+03  0.62847953974E+02  0.12076741206E+03  0.41800000000E+01 0. -1.
        -11    1    1    2    0    0 -0.15587218466E+02  0.60411460862E+02  0.62623957620E+02  0.88398337377E+02  0.00000000000E+00 0. -1.
         11    1    1    2    0    0  0.22750630506E+02  0.17024233835E+02  0.16418865864E+03  0.16662932320E+03  0.00000000000E+00 0.  1.
</event>
<event>
 7    1  0.3265282E-009  0.1795425E+03  0.7561462E-02  0.1168247E+00
         -2   -1    0    0    0  501 -0.00000000000E+00  0.00000000000E+00  0.33325178617E+02  0.33325178617E+02  0.00000000000E+00 0.  1.
          2   -1    0    0  501    0  0.00000000000E+00 -0.00000000000E+00 -0.10930956759E+04  0.10930956759E+04  0.00000000000E+00 0. -1.
         25    2    1    2    0    0 -0.15562728432E+02 -0.14652609361E+03 -0.70896774903E+03  0.73484383603E+03  0.12509236411E+03 0.  0.
          5    1    3    3  502    0 -0.63699679213E+02 -0.11984028204E+03 -0.55196516372E+03  0.56842093266E+03  0.41800000000E+01 0. -1.
         -5    1    3    3    0  502  0.48136950781E+02 -0.26685811564E+02 -0.15700258532E+03  0.16642290337E+03  0.41800000000E+01 0. -1.
        -11    1    1    2    0    0 -0.33065033639E+02  0.70321438103E+02 -0.11271361342E+03  0.13690419919E+03  0.00000000000E+00 0.  1.
         11    1    1    2    0    0  0.48627762071E+02  0.76204655502E+02 -0.23808913485E+03  0.25467281931E+03  0.00000000000E+00 0. -1.
</event>
<event>
 7    1  0.3265282E-009  0.3196552E+03  0.7561462E-02  0.1075808E+00
         -2   -1    0    0    0  501 -0.00000000000E+00  0.00000000000E+00  0.18515477967E+03  0.18515477967E+03  0.00000000000E+00 0.  1.
          2   -1    0    0  501    0  0.00000000000E+00 -0.00000000000E+00 -0.76245938363E+03  0.76245938363E+03  0.00000000000E+00 0. -1.
         25    2    1    2    0    0 -0.29598505071E+03  0.73592758180E+02 -0.53244315328E+03  0.62623182384E+03  0.12509013316E+03 0.  0.
          5    1    3    3  502    0 -0.30254076446E+03  0.54079324807E+02 -0.48291237409E+03  0.57243106221E+03  0.41800000000E+01 0. -1.
         -5    1    3    3    0  502  0.65557137511E+01  0.19513433373E+02 -0.49530779190E+02  0.53800761630E+02  0.41800000000E+01 0. -1.
        -11    1    1    2    0    0  0.24427802276E+03 -0.83768184878E+02 -0.10469292442E+02  0.25845399453E+03  0.00000000000E+00 0. -1.
         11    1    1    2    0    0  0.51707027944E+02  0.10175426698E+02 -0.34392158240E+02  0.62928344930E+02  0.00000000000E+00 0.  1.
</event>
<event>
 7    1  0.3265282E-009  0.1223337E+03  0.7561462E-02  0.1239296E+00
         -1   -1    0    0    0  501 -0.00000000000E+00  0.00000000000E+00  0.51230460496E+02  0.51230460496E+02  0.00000000000E+00 0.  1.
          1   -1    0    0  501    0  0.00000000000E+00 -0.00000000000E+00 -0.45623741978E+03  0.45623741978E+03  0.00000000000E+00 0. -1.
         25    2    1    2    0    0 -0.30214316100E+02  0.89994987506E+02 -0.13939925087E+03  0.20998211103E+03  0.12509329772E+03 0.  0.
          5    1    3    3  502    0 -0.55087222824E+02  0.68600405567E+02 -0.25969096157E+02  0.91828558290E+02  0.41800000000E+01 0. -1.
         -5    1    3    3    0  502  0.24872906724E+02  0.21394581939E+02 -0.11343015472E+03  0.11815355274E+03  0.41800000000E+01 0. -1.
        -11    1    1    2    0    0 -0.25494765421E+02 -0.45742989989E+02 -0.17270593734E+03  0.18047089790E+03  0.00000000000E+00 0. -1.
         11    1    1    2    0    0  0.55709081521E+02 -0.44251997517E+02 -0.92901771067E+02  0.11701487134E+03  0.00000000000E+00 0.  1.
</event>
<event>
 7    1  0.3265282E-009  0.8923241E+02  0.7561462E-02  0.1304721E+00
          3   -1    0    0  501    0  0.00000000000E+00  0.00000000000E+00  0.10932971889E+03  0.10932971889E+03  0.00000000000E+00 0. -1.
         -3   -1    0    0    0  501 -0.00000000000E+00 -0.00000000000E+00 -0.12866565881E+03  0.12866565881E+03  0.00000000000E+00 0.  1.
         25    2    1    2    0    0 -0.45852049970E+01  0.41165434289E+02  0.13786795804E+02  0.13249581781E+03  0.12509775743E+03 0.  0.
          5    1    3    3  502    0  0.32108208313E+02 -0.29942308277E+02 -0.16141616792E+02  0.46962783762E+02  0.41800000000E+01 0. -1.
         -5    1    3    3    0  502 -0.36693413309E+02  0.71107742566E+02  0.29928412596E+02  0.85533034049E+02  0.41800000000E+01 0. -1.
        -11    1    1    2    0    0 -0.13988238981E+02 -0.28525592304E+02  0.26761430406E+02  0.41539793012E+02  0.00000000000E+00 0. -1.
         11    1    1    2    0    0  0.18573443978E+02 -0.12639841984E+02 -0.59884166132E+02  0.63959766885E+02  0.00000000000E+00 0.  1.
</event>
<event>
 7    1  0.3265282E-009  0.1687198E+03  0.7561462E-02  0.1179190E+00
          1   -1    0    0  501    0  0.00000000000E+00  0.00000000000E+00  0.25151458737E+03  0.25151458737E+03  0.00000000000E+00 0. -1.
         -1   -1    0    0    0  501 -0.00000000000E+00 -0.00000000000E+00 -0.13500782625E+03  0.13500782625E+03  0.00000000000E+00 0.  1.
         25    2    1    2    0    0  0.12745535481E+03 -0.62940512879E+02  0.10747034795E+03  0.21772493999E+03  0.12509155916E+03 0.  0.
          5    1    3    3  502    0  0.13378009683E+03 -0.90517003535E+01  0.67305626497E+02  0.15008853169E+03  0.41800000000E+01 0.  1.
         -5    1    3    3    0  502 -0.63247420245E+01 -0.53888812525E+02  0.40164721456E+02  0.67636408292E+02  0.41800000000E+01 0.  1.
        -11    1    1    2    0    0 -0.12238479872E+03  0.45276098276E+02  0.36728904664E+02  0.13556170724E+03  0.00000000000E+00 0.  1.
         11    1    1    2    0    0 -0.50705560878E+01  0.17664414602E+02 -0.27692491496E+02  0.33235766390E+02  0.00000000000E+00 0. -1.
</event>
<event>
 7    1  0.3265282E-009  0.1208610E+03  0.7561462E-02  0.1241683E+00
          2   -1    0    0  501    0  0.00000000000E+00  0.00000000000E+00  0.88078951337E+02  0.88078951337E+02  0.00000000000E+00 0. -1.
         -2   -1    0    0    0  501 -0.00000000000E+00 -0.00000000000E+00 -0.18791969757E+03  0.18791969757E+03  0.00000000000E+00 0.  1.
         25    2    1    2    0    0  0.42192168484E+02 -0.34113403109E+02 -0.10402289323E+02  0.13674617645E+03  0.12508959108E+03 0.  0.
          5    1    3    3  502    0 -0.39097409435E+02 -0.37875553261E+02  0.45481484067E-01  0.54595232648E+02  0.41800000000E+01 0. -1.
         -5    1    3    3    0  502  0.81289577919E+02  0.37621501514E+01 -0.10447770807E+02  0.82150943798E+02  0.41800000000E+01 0. -1.
        -11    1    1    2    0    0  0.28890188287E+02  0.91510488650E+01 -0.17043520517E+02  0.34768754165E+02  0.00000000000E+00 0. -1.
         11    1    1    2    0    0 -0.71082356770E+02  0.24962354244E+02 -0.72394936392E+02  0.10448371829E+03  0.00000000000E+00 0.  1.
</event>
<event>
 7    1  0.3265282E-009  0.1530888E+03  0.7561462E-02  0.1196728E+00
          2   -1    0    0  501    0  0.00000000000E+00  0.00000000000E+00  0.18239217860E+04  0.18239217860E+04  0.00000000000E+00 0. -1.
         -2   -1    0    0    0  501 -0.00000000000E+00 -0.00000000000E+00 -0.21921314725E+02  0.21921314725E+02  0.00000000000E+00 0.  1.
         25    2    1    2    0    0  0.68111139791E+02  0.11108679476E+03  0.14282395975E+04  0.14396162552E+04  0.12508881320E+03 0.  0.
          5    1    3    3  502    0  0.64065130235E+02  0.12062598234E+03  0.82251084713E+03  0.83378446530E+03  0.41800000000E+01 0.  1.
         -5    1    3    3    0  502  0.40460095568E+01 -0.95391875851E+01  0.60572875036E+03  0.60583178995E+03  0.41800000000E+01 0.  1.
        -11    1    1    2    0    0 -0.90092502053E+02 -0.81406076967E+02  0.26865394682E+03  0.29481952350E+03  0.00000000000E+00 0.  1.
         11    1    1    2    0    0  0.21981362261E+02 -0.29680717792E+02  0.10510692694E+03  0.11140732196E+03  0.00000000000E+00 0. -1.
</event>
<event>
 7    1  0.3265282E-009  0.1021232E+03  0.7561462E-02  0.1275893E+00
          2   -1    0    0  501    0  0.00000000000E+00  0.00000000000E+00  0.17489504300E+03  0.17489504300E+03  0.00000000000E+00 0. -1.
         -2   -1    0    0    0  501 -0.00000000000E+00 -0.00000000000E+00 -0.80433794933E+02  0.80433794933E+02  0.00000000000E+00 0.  1.
         25    2    1    2    0    0  0.39036195303E+01 -0.45091867094E+02  0.70989999258E+02  0.15078508521E+03  0.12509215484E+03 0.  0.
          5    1    3    3  502    0  0.40027704694E+02 -0.64532244136E+02  0.93523689919E+01  0.76626150119E+02  0.41800000000E+01 0. -1.
         -5    1    3    3    0  502 -0.36124085164E+02  0.19440377042E+02  0.61637630266E+02  0.74158935088E+02  0.41800000000E+01 0. -1.
        -11    1    1    2    0    0  0.29444730506E+02  0.44797832003E+02 -0.12960623772E+02  0.55152657917E+02  0.00000000000E+00 0.  1.
         11    1    1    2    0    0 -0.33348350036E+02  0.29403509134E+00  0.36431872584E+02  0.49391094812E+02  0.00000000000E+00 0. -1.
</event>
<event>
 7    1  0.3265282E-009  0.7174483E+02  0.7561462E-02  0.1354258E+00
         -2   -1    0    0    0  501 -0.00000000000E+00  0.00000000000E+00  0.14083377339E+03  0.14083377339E+03  0.00000000000E+00 0.  1.
          2   -1    0    0  501    0  0.00000000000E+00 -0.00000000000E+00 -0.11886641577E+03  0.11886641577E+03  0.00000000000E+00 0. -1.
         25    2    1    2    0    0 -0.18904223175E+02 -0.47308956874E+02 -0.40778299250E+02  0.14109511129E+03  0.12509777650E+03 0.  0.
          5    1    3    3  502    0 -0.82490846938E+01  0.45367731680E+01 -0.76443429212E+02  0.77134298329E+02  0.41800000000E+01 0. -1.
         -5    1    3    3    0  502 -0.10655138481E+02 -0.51845730042E+02  0.35665129962E+02  0.63960812962E+02  0.41800000000E+01 0. -1.
        -11    1    1    2    0    0 -0.21797529077E+02  0.72109591977E+01  0.56673722568E+02  0.61147698535E+02  0.00000000000E+00 0.  1.
         11    1    1    2    0    0  0.40701752252E+02  0.40097997676E+02  0.60719342948E+01  0.57457379335E+02  0.00000000000E+00 0. -1.
</event>
<event>
 7    1  0.3265282E-009  0.1277525E+03  0.7561462E-02  0.1230829E+00
          2   -1    0    0  501    0  0.00000000000E+00  0.00000000000E+00  0.57353536474E+03  0.57353536474E+03  0.00000000000E+00 0. -1.
         -2   -1    0    0    0  501 -0.00000000000E+00 -0.00000000000E+00 -0.33394174481E+02  0.33394174481E+02  0.00000000000E+00 0.  1.
         25    2    1    2    0    0 -0.63654440869E+02 -0.19024714264E+02  0.21574985498E+03  0.25808640908E+03  0.12508703783E+03 0.  0.
          5    1    3    3  502    0 -0.74613607264E+02  0.29062595050E+02  0.78616175089E+02  0.11229336670E+03  0.41800000000E+01 0.  1.
         -5    1    3    3    0  502  0.10959166396E+02 -0.48087309313E+02  0.13713367989E+03  0.14579304238E+03  0.41800000000E+01 0.  1.
        -11    1    1    2    0    0  0.93669772598E+02  0.86547701599E+01  0.26927111853E+03  0.28522949816E+03  0.00000000000E+00 0. -1.
         11    1    1    2    0    0 -0.30015331729E+02  0.10369944104E+02  0.55120216746E+02  0.63613631979E+02  0.00000000000E+00 0.  1.
</event>
<event>
 6    1  0.3265282E-009  0.2372283E+03  0.7561462E-02  0.1121653E+00
         -2   -1    0    0    0  501 -0.00000000000E+00  0.00000000000E+00  0.34792019498E+02  0.34792019498E+02  0.00000000000E+00 0.  1.
          2   -1    0    0  501    0  0.00000000000E+00 -0.00000000000E+00 -0.20876270085E+04  0.20876270085E+04  0.00000000000E+00 0. -1.
          5    1    1    2  502    0  0.72901748306E+02  0.76874751460E+02 -0.42934351611E+03  0.44224169810E+03  0.41800000000E+01 0. -1.
         -5    1    1    2    0  502  0.13190307323E+03 -0.14568578491E+01 -0.10704748171E+04  0.10785797836E+04  0.41800000000E+01 0. -1.
        -11    1    1    2    0    0 -0.99729724627E+02 -0.84867788056E+02 -0.28910505060E+03  0.31738035495E+03  0.00000000000E+00 0.  1.
         11    1    1    2    0    0 -0.10507509691E+03  0.94498944444E+01 -0.26391160518E+03  0.28421719132E+03  0.00000000000E+00 0. -1.
</event>
<event>
 7    1  0.3265282E-009  0.1066526E+03  0.7561462E-02  0.1266897E+00
          2   -1    0    0  501    0  0.00000000000E+00  0.00000000000E+00  0.19015768068E+03  0.19015768068E+03  0.00000000000E+00 0.  1.
         -2   -1    0    0    0  501 -0.00000000000E+00 -0.00000000000E+00 -0.11997086060E+03  0.11997086060E+03  0.00000000000E+00 0. -1.
         25    2    1    2    0    0 -0.81382915512E+02  0.56603480165E+02  0.36842953524E+01  0.15964448870E+03  0.12508259606E+03 0.  0.
          5    1    3    3  502    0 -0.68065755364E+02  0.42751220633E+02  0.59743286037E+02  0.10023645318E+03  0.41800000000E+01 0.  1.
         -5    1    3    3    0  502 -0.13317160148E+02  0.13852259533E+02 -0.56058990685E+02  0.59408035527E+02  0.41800000000E+01 0.  1.
        -11    1    1    2    0    0  0.72252655268E+02 -0.19351474203E+02  0.80283704854E+02  0.10972875199E+03  0.00000000000E+00 0.  1.
         11    1    1    2    0    0  0.91302602437E+01 -0.37252005962E+02 -0.13781180123E+02  0.40755300587E+02  0.00000000000E+00 0. -1.
</event>
<event>
 6    1  0.6837809E-009  0.1162664E+03  0.7561462E-02  0.1249387E+00
          2   -1    0    0  501    0  0.00000000000E+00  0.00000000000E+00  0.95330770918E+03  0.95330770918E+03  0.00000000000E+00 0. -1.
         -2   -1    0    0    0  501 -0.00000000000E+00 -0.00000000000E+00 -0.25231596939E+02  0.25231596939E+02  0.00000000000E+00 0.  1.
          5    1    1    2  502    0 -0.34573945223E+02  0.36721288290E+02  0.40908496235E+03  0.41220357777E+03  0.41800000000E+01 0.  1.
         -5    1    1    2    0  502 -0.14818066370E+02  0.61727716428E+02  0.67898532247E+02  0.93046059281E+02  0.41800000000E+01 0.  1.
        -11    1    1    2    0    0  0.33656377794E+02 -0.96798699553E+02  0.44447970088E+03  0.45614136459E+03  0.00000000000E+00 0. -1.
         11    1    1    2    0    0  0.15735633799E+02 -0.16503051655E+01  0.66129167586E+01  0.17148304472E+02  0.00000000000E+00 0.  1.
</event>
<event>
 7    1  0.3265282E-009  0.1141687E+03  0.7561462E-02  0.1253039E+00
         -1   -1    0    0    0  501 -0.00000000000E+00  0.00000000000E+00  0.84912543529E+02  0.84912543529E+02  0.00000000000E+00 0.  1.
          1   -1    0    0  501    0  0.00000000000E+00 -0.00000000000E+00 -0.29913922465E+03  0.29913922465E+03  0.00000000000E+00 0. -1.
         25    2    1    2    0    0 -0.59995040167E+02 -0.68036172169E+02 -0.20616320870E+03  0.25765034080E+03  0.12510836874E+03 0.  0.
          5    1    3    3  502    0 -0.43577774737E+02  0.19475572166E+02 -0.21332452873E+02  0.52448701679E+02  0.41800000000E+01 0.  1.
         -5    1    3    3    0  502 -0.16417265430E+02 -0.87511744336E+02 -0.18483075582E+03  0.20520163913E+03  0.41800000000E+01 0.  1.
        -11    1    1    2    0    0  0.27906420307E+02  0.24050401742E+02  0.39566268170E+02  0.54061813650E+02  0.00000000000E+00 0.  1.
         11    1    1    2    0    0  0.32088619860E+02  0.43985770427E+02 -0.47629740589E+02  0.72339613720E+02  0.00000000000E+00 0. -1.
</event>
<event>
 7    1  0.3265282E-009  0.9847212E+02  0.7561462E-02  0.1283542E+00
         -1   -1    0    0    0  501 -0.00000000000E+00  0.00000000000E+00  0.23088257157E+02  0.23088257157E+02  0.00000000000E+00 0.  1.
          1   -1    0    0  501    0  0.00000000000E+00 -0.00000000000E+00 -0.51763051020E+03  0.51763051020E+03  0.00000000000E+00 0. -1.
         25    2    1    2    0    0 -0.12702849081E+02  0.94841264811E+01 -0.27254692798E+03  0.30030079575E+03  0.12508968364E+03 0.  0.
          5    1    3    3  502    0  0.37761315322E+02 -0.25277558625E+02 -0.20049576468E+03  0.20562318925E+03  0.41800000000E+01 0. -1.
         -5    1    3    3    0  502 -0.50464164403E+02  0.34761685106E+02 -0.72051163298E+02  0.94677606502E+02  0.41800000000E+01 0. -1.
        -11    1    1    2    0    0 -0.96796286936E+01 -0.46029444598E+02 -0.88650877944E+02  0.10035628103E+03  0.00000000000E+00 0.  1.
         11    1    1    2    0    0  0.22382477775E+02  0.36545318117E+02 -0.13334444712E+03  0.14006169057E+03  0.00000000000E+00 0. -1.
</event>
<event>
 7    1  0.3265282E-009  0.7776399E+02  0.7561462E-02  0.1335519E+00
         -1   -1    0    0    0  501 -0.00000000000E+00  0.00000000000E+00  0.37183362036E+02  0.37183362036E+02  0.00000000000E+00 0.  1.
          1   -1    0    0  501    0  0.00000000000E+00 -0.00000000000E+00 -0.33270792935E+03  0.33270792935E+03  0.00000000000E+00 0. -1.
         25    2    1    2    0    0 -0.87259600532E+01  0.13576498502E+02 -0.20096422208E+03  0.23726536033E+03  0.12509104270E+03 0.  0.
          5    1    3    3  502    0  0.74841010490E+01  0.58458279685E+02 -0.17062159044E+03  0.18056185022E+03  0.41800000000E+01 0. -1.
         -5    1    3    3    0  502 -0.16210061102E+02 -0.44881781184E+02 -0.30342631643E+02  0.56703510105E+02  0.41800000000E+01 0. -1.
        -11    1    1    2    0    0  0.24958278591E+02 -0.19065490935E+02  0.48237954623E+01  0.31775424741E+02  0.00000000000E+00 0.  1.
         11    1    1    2    0    0 -0.16232318537E+02  0.54889924331E+01 -0.99384140695E+02  0.10085050632E+03  0.00000000000E+00 0. -1.
</event>
<event>
 7    1  0.3265282E-009  0.1185561E+03  0.7561462E-02  0.1245498E+00
         -2   -1    0    0    0  501 -0.00000000000E+00  0.00000000000E+00  0.32077387926E+03  0.32077387926E+03  0.00000000000E+00 0. -1.
          2   -1    0    0  501    0  0.00000000000E+00 -0.00000000000E+00 -0.73943541662E+02  0.73943541662E+02  0.00000000000E+00 0.  1.
         25    2    1    2    0    0  0.65684380292E+02 -0.43468000157E+02  0.22605700880E+03  0.27009924656E+03  0.12509167403E+03 0.  0.
          5    1    3    3  502    0 -0.31768652942E+02 -0.17227948362E+02  0.11191894226E+03  0.11768335290E+03  0.41800000000E+01 0. -1.
         -5    1    3    3    0  502  0.97453033235E+02 -0.26240051795E+02  0.11413806655E+03  0.15241589366E+03  0.41800000000E+01 0. -1.
        -11    1    1    2    0    0  0.16309606627E+01  0.31266938262E+02 -0.26863613602E+02  0.41254517288E+02  0.00000000000E+00 0.  1.
         11    1    1    2    0    0 -0.67315340955E+02  0.12201061895E+02  0.47636942391E+02  0.83363657067E+02  0.00000000000E+00 0. -1.
</event>
<event>
 7    1  0.3265282E-009  0.5528408E+02  0.7561462E-02  0.1418760E+00
         -1   -1    0    0    0  501 -0.00000000000E+00  0.00000000000E+00  0.54714797687E+02  0.54714797687E+02  0.00000000000E+00 0.  1.
          1   -1    0    0  501    0  0.00000000000E+00 -0.00000000000E+00 -0.24558025706E+03  0.24558025706E+03  0.00000000000E+00 0. -1.
         25    2    1    2    0    0  0.35551057155E+02 -0.68040063641E+01 -0.88896721052E+02  0.15766810958E+03  0.12508570501E+03 0.  0.
          5    1    3    3  502    0  0.32515848935E+02  0.14978947707E+01 -0.12034262594E+03  0.12473710009E+03  0.41800000000E+01 0.  1.
         -5    1    3    3    0  502  0.30352082196E+01 -0.83019011349E+01  0.31445904891E+02  0.32931009487E+02  0.41800000000E+01 0.  1.
        -11    1    1    2    0    0 -0.50186039884E+02  0.13363702910E+02 -0.11217693575E+03  0.12361590540E+03  0.00000000000E+00 0. -1.
         11    1    1    2    0    0  0.14634982729E+02 -0.65596965456E+01  0.10208197427E+02  0.19011039765E+02  0.00000000000E+00 0.  1.
</event>
<event>
 7    1  0.3265282E-009  0.1380658E+03  0.7561462E-02  0.1215955E+00
         -2   -1    0    0    0  501 -0.00000000000E+00  0.00000000000E+00  0.34329572390E+03  0.34329572390E+03  0.00000000000E+00 0.  1.
          2   -1    0    0  501    0  0.00000000000E+00 -0.00000000000E+00 -0.63696284563E+02  0.63696284563E+02  0.00000000000E+00 0. -1.
         25    2    1    2    0    0 -0.98748538201E+02  0.18754740348E+02  0.16570182048E+03  0.23066975849E+03  0.12509368525E+03 0.  0.
          5    1    3    3  502    0 -0.45491652933E+02  0.64995568379E+02  0.12783093307E+03  0.15050625982E+03  0.41800000000E+01 0. -1.
         -5    1    3    3    0  502 -0.53256885268E+02 -0.46240828032E+02  0.37870887403E+02  0.80163498665E+02  0.41800000000E+01 0. -1.
        -11    1    1    2    0    0  0.77191072292E+02 -0.47096875048E+02  0.50400443441E+02  0.10352189131E+03  0.00000000000E+00 0.  1.
         11    1    1    2    0    0  0.21557465909E+02  0.28342134701E+02  0.63497175417E+02  0.72800358665E+02  0.00000000000E+00 0. -1.
</event>
<event>
 7    1  0.3265282E-009  0.9816062E+02  0.7561462E-02  0.1284212E+00
         -2   -1    0    0    0  501 -0.00000000000E+00  0.00000000000E+00  0.42250527923E+02  0.42250527923E+02  0.00000000000E+00 0.  1.
          2   -1    0    0  501    0  0.00000000000E+00 -0.00000000000E+00 -0.40849083853E+03  0.40849083853E+03  0.00000000000E+00 0. -1.
         25    2    1    2    0    0  0.74008615335E+02  0.12213996548E+01 -0.21593320411E+03  0.26029421124E+03  0.12508861182E+03 0.  0.
          5    1    3    3  502    0  0.28235488855E+02  0.13942339438E+02 -0.20982173543E+03  0.21221278171E+03  0.41800000000E+01 0.  1.
         -5    1    3    3    0  502  0.45773126480E+02 -0.12720939783E+02 -0.61114686780E+01  0.48081429535E+02  0.41800000000E+01 0.  1.
        -11    1    1    2    0    0 -0.90979982638E+02 -0.18282479222E+02 -0.12229550828E+03  0.15351806940E+03  0.00000000000E+00 0. -1.
         11    1    1    2    0    0  0.16971367304E+02  0.17061079567E+02 -0.28011598221E+02  0.36929085813E+02  0.00000000000E+00 0.  1.
</event>
<event>
 7    1  0.3265282E-009  0.6810224E+02  0.7561462E-02  0.1366668E+00
          2   -1    0    0  501    0  0.00000000000E+00  0.00000000000E+00  0.29250221403E+03  0.29250221403E+03  0.00000000000E+00 0. -1.
         -2   -1    0    0    0  501 -0.00000000000E+00 -0.00000000000E+00 -0.63509994833E+02  0.63509994833E+02  0.00000000000E+00 0.  1.
         25    2    1    2    0    0  0.26231836755E+02 -0.81958986643E+01  0.22609173428E+03  0.25984767639E+03  0.12509220840E+03 0.  0.
          5    1    3    3  502    0  0.27970885362E+02 -0.32683946002E+02  0.23053476043E+03  0.23455139932E+03  0.41800000000E+01 0.  1.
         -5    1    3    3    0  502 -0.17390486070E+01  0.24488047338E+02 -0.44430261525E+01  0.25296277075E+02  0.41800000000E+01 0.  1.
        -11    1    1    2    0    0  0.14793949674E+02 -0.14902581544E+02  0.33840922855E+02  0.39826573331E+02  0.00000000000E+00 0. -1.
         11    1    1    2    0    0 -0.41025786429E+02  0.23098480209E+02 -0.30940437938E+02  0.56337959138E+02  0.00000000000E+00 0.  1.
</event>
<event>
 7    1  0.3265282E-009  0.2117744E+03  0.7561462E-02  0.1140169E+00
          1   -1    0    0  501    0  0.00000000000E+00  0.00000000000E+00  0.16518536644E+03  0.16518536644E+03  0.00000000000E+00 0. -1.
         -1   -1    0    0    0  501 -0.00000000000E+00 -0.00000000000E+00 -0.30671326827E+03  0.30671326827E+03  0.00000000000E+00 0.  1.
         25    2    1    2    0    0  0.30401421482E+02  0.19396285501E+03 -0.84268885449E+02  0.24757650535E+03  0.12508815050E+03 0.  0.
          5    1    3    3  502    0  0.47305940691E+02  0.87345817081E+02 -0.96874419481E+02  0.13881379375E+03  0.41800000000E+01 0. -1.
         -5    1    3    3    0  502 -0.16904519208E+02  0.10661703793E+03  0.12605534032E+02  0.10876271160E+03  0.41800000000E+01 0. -1.
        -11    1    1    2    0    0 -0.62702834378E+02 -0.12018149918E+03 -0.26591900271E+02  0.13813894217E+03  0.00000000000E+00 0.  1.
         11    1    1    2    0    0  0.32301412896E+02 -0.73781355829E+02 -0.30667116116E+02  0.86183187188E+02  0.00000000000E+00 0. -1.
</event>
<event>
 7    1  0.3265282E-009  0.2335786E+03  0.7561462E-02  0.1124146E+00
          3   -1    0    0  501    0  0.00000000000E+00  0.00000000000E+00  0.70744361609E+02  0.70744361609E+02  0.00000000000E+00 0. -1.
         -3   -1    0    0    0  501 -0.00000000000E+00 -0.00000000000E+00 -0.95809816926E+03  0.95809816926E+03  0.00000000000E+00 0.  1.
         25    2    1    2    0    0 -0.14133792171E+03  0.18212283012E+03 -0.35079905488E+03  0.43801359458E+03  0.12510315252E+03 0.  0.
          5    1    3    3  502    0 -0.17465792701E+02  0.31527491208E+02  0.40506689829E+00  0.36285990351E+02  0.41800000000E+01 0.  1.
         -5    1    3    3    0  502 -0.12387212901E+03  0.15059533891E+03 -0.35120412178E+03  0.40172760423E+03  0.41800000000E+01 0.  1.
        -11    1    1    2    0    0  0.92924381709E+02 -0.79217096596E+02 -0.36602890839E+03  0.38585936672E+03  0.00000000000E+00 0.  1.
         11    1    1    2    0    0  0.48413540000E+02 -0.10290573352E+03 -0.17052584437E+03  0.20496956956E+03  0.00000000000E+00 0. -1.
</event>
<event>
 7    1  0.3265282E-009  0.1085676E+03  0.7561462E-02  0.1263246E+00
         -2   -1    0    0    0  501 -0.00000000000E+00  0.00000000000E+00  0.58601575379E+02  0.58601575379E+02  0.00000000000E+00 0.  1.
          2   -1    0    0  501    0  0.00000000000E+00 -0.00000000000E+00 -0.23393310275E+03  0.23393310275E+03  0.00000000000E+00 0. -1.
         25    2    1    2    0    0 -0.41702569456E+02 -0.82441161231E+01 -0.10618112672E+03  0.16949812864E+03  0.12509242259E+03 0.  0.
          5    1    3    3  502    0 -0.59900942635E+02  0.37253644648E+02 -0.96118832393E+02  0.11929903314E+03  0.41800000000E+01 0.  1.
         -5    1    3    3    0  502  0.18198373179E+02 -0.45497760771E+02 -0.10062294329E+02  0.50199095497E+02  0.41800000000E+01 0.  1.
        -11    1    1    2    0    0  0.45646194137E+02  0.42762645392E+02 -0.26251519618E+02  0.67833333711E+02  0.00000000000E+00 0.  1.
         11    1    1    2    0    0 -0.39436246809E+01 -0.34518529269E+02 -0.42898881034E+02  0.55203215781E+02  0.00000000000E+00 0. -1.
</event>
<event>
 7    1  0.3265282E-009  0.1272877E+03  0.7561462E-02  0.1231537E+00
          2   -1    0    0  501    0  0.00000000000E+00  0.00000000000E+00  0.20587798887E+03  0.20587798887E+03  0.00000000000E+00 0. -1.
         -2   -1    0    0    0  501 -0.00000000000E+00 -0.00000000000E+00 -0.84254953750E+02  0.84254953750E+02  0.00000000000E+00 0.  1.
         25    2    1    2    0    0 -0.39930432934E+02 -0.58720682459E+02  0.92283255295E+02  0.17089479592E+03  0.12508506723E+03 0.  0.
          5    1    3    3  502    0 -0.42653256213E+02 -0.94544670090E+02  0.84612569480E+02  0.13392070125E+03  0.41800000000E+01 0. -1.
         -5    1    3    3    0  502  0.27228232797E+01  0.35823987631E+02  0.76706858150E+01  0.36974094678E+02  0.41800000000E+01 0. -1.
        -11    1    1    2    0    0  0.68920175779E+02  0.46503741048E+02  0.14276083530E+02  0.84358728783E+02  0.00000000000E+00 0. -1.
         11    1    1    2    0    0 -0.28989742846E+02  0.12216941410E+02  0.15063696291E+02  0.34879417909E+02  0.00000000000E+00 0.  1.
</event>
<event>
 7    1  0.3265282E-009  0.1013253E+03  0.7561462E-02  0.1277534E+00
          2   -1    0    0  501    0  0.00000000000E+00  0.00000000000E+00  0.55007646692E+03  0.55007646692E+03  0.00000000000E+00 0. -1.
         -2   -1    0    0    0  501 -0.00000000000E+00 -0.00000000000E+00 -0.36022920397E+02  0.36022920397E+02  0.00000000000E+00 0.  1.
         25    2    1    2    0    0  0.63185465441E+02 -0.38247768543E+02  0.17192514968E+03  0.22507856373E+03  0.12508720126E+03 0.  0.
          5    1    3    3  502    0  0.23581441581E+02 -0.42884528972E+02  0.59748243743E+00  0.49122261730E+02  0.41800000000E+01 0.  1.
         -5    1    3    3    0  502  0.39604023860E+02  0.46367604287E+01  0.17132766724E+03  0.17595630200E+03  0.41800000000E+01 0.  1.
        -11    1    1    2    0    0 -0.99025325021E+01 -0.27256901011E+02  0.62080902372E+02  0.68520341812E+02  0.00000000000E+00 0.  1.
         11    1    1    2    0    0 -0.53282932939E+02  0.65504669554E+02  0.28004749447E+03  0.29250048177E+03  0.00000000000E+00 0. -1.
</event>
<event>
 7    1  0.3265282E-009  0.1327331E+03  0.7561462E-02  0.1223456E+00
          2   -1    0    0  501    0  0.00000000000E+00  0.00000000000E+00  0.38500159324E+03  0.38500159324E+03  0.00000000000E+00 0. -1.
         -2   -1    0    0    0  501 -0.00000000000E+00 -0.00000000000E+00 -0.53547364057E+02  0.53547364057E+02  0.00000000000E+00 0.  1.
         25    2    1    2    0    0  0.13811278485E+02 -0.88058994192E+02  0.14208490974E+03  0.20924046854E+03  0.12509322214E+03 0.  0.
          5    1    3    3  502    0  0.66872046778E+01 -0.11354302288E+03  0.14259210741E+03  0.18244648050E+03  0.41800000000E+01 0.  1.
         -5    1    3    3    0  502  0.71240738070E+01  0.25484028686E+02 -0.50719766884E+00  0.26793988041E+02  0.41800000000E+01 0.  1.
        -11    1    1    2    0    0  0.88337795268E+01  0.99221260619E+02  0.12286338282E+03  0.15817175809E+03  0.00000000000E+00 0. -1.
         11    1    1    2    0    0 -0.22645058012E+02 -0.11162266427E+02  0.66505936625E+02  0.71136730671E+02  0.00000000000E+00 0.  1.
</event>
<event>
 7    1  0.3265282E-009  0.2328062E+03  0.7561462E-02  0.1124680E+00
          1   -1    0    0  501    0  0.00000000000E+00  0.00000000000E+00  0.14706315503E+04  0.14706315503E+04  0.00000000000E+00 0. -1.
         -1   -1    0    0    0  501 -0.00000000000E+00 -0.00000000000E+00 -0.42372056645E+02  0.42372056645E+02  0.00000000000E+00 0.  1.
         25    2    1    2    0    0  0.16749177197E+03  0.13454712792E+03  0.53682723647E+03  0.59159595627E+03  0.12508345351E+03 0.  0.
          5    1    3    3  502    0  0.95038722079E+02  0.91960158494E+01  0.29074078553E+03  0.30604673201E+03  0.41800000000E+01 0.  1.
         -5    1    3    3    0  502  0.72453049890E+02  0.12535111207E+03  0.24608645094E+03  0.28554922426E+03  0.41800000000E+01 0.  1.
        -11    1    1    2    0    0 -0.10184569456E+03 -0.38549255917E+02  0.55103067258E+03  0.56168798524E+03  0.00000000000E+00 0. -1.
         11    1    1    2    0    0 -0.65646077408E+02 -0.95997872007E+02  0.34040158461E+03  0.35971966546E+03  0.00000000000E+00 0.  1.
</event>
<event>
 7    1  0.3265282E-009  0.1202203E+03  0.7561462E-02  0.1242734E+00
         -1   -1    0    0    0  501 -0.00000000000E+00  0.00000000000E+00  0.46148017889E+02  0.46148017889E+02  0.00000000000E+00 0.  1.
          1   -1    0    0  501    0  0.00000000000E+00 -0.00000000000E+00 -0.45001847956E+03  0.45001847956E+03  0.00000000000E+00 0. -1.
         25    2    1    2    0    0 -0.51052302039E+01 -0.93932450827E+02 -0.23392170298E+03  0.28145359571E+03  0.12508954680E+03 0.  0.
          5    1    3    3  502    0 -0.19157449708E+02  0.18574614895E+02 -0.11072524198E+03  0.11397182024E+03  0.41800000000E+01 0. -1.
         -5    1    3    3    0  502  0.14052219505E+02 -0.11250706572E+03 -0.12319646100E+03  0.16748177546E+03  0.41800000000E+01 0. -1.
        -11    1    1    2    0    0  0.16509049419E+02  0.24078972256E+02 -0.13041342990E+03  0.13364134209E+03  0.00000000000E+00 0. -1.
         11    1    1    2    0    0 -0.11403819215E+02  0.69853478571E+02 -0.39535328792E+02  0.81071559649E+02  0.00000000000E+00 0.  1.
</event>
<event>
 7    1  0.3265282E-009  0.2447442E+03  0.7561462E-02  0.1116672E+00
         -1   -1    0    0    0  501 -0.00000000000E+00  0.00000000000E+00  0.16431355913E+04  0.16431355913E+04  0.00000000000E+00 0.  1.
          1   -1    0    0  501    0  0.00000000000E+00 -0.00000000000E+00 -0.51665563881E+02  0.51665563881E+02  0.00000000000E+00 0. -1.
         25    2    1    2    0    0  0.20189612275E+03 -0.12120343561E+03  0.11996071134E+04  0.12288881170E+04  0.12512577841E+03 0.  0.
          5    1    3    3  502    0  0.12331213878E+03 -0.33537355409E+02  0.38182274616E+03  0.40266204150E+03  0.41800000000E+01 0.  1.
         -5    1    3    3    0  502  0.78583983969E+02 -0.87666080198E+02  0.81778436721E+03  0.82622607549E+03  0.41800000000E+01 0.  1.
        -11    1    1    2    0    0 -0.16226977732E+03  0.12381270310E+03  0.36426654877E+03  0.41755381046E+03  0.00000000000E+00 0.  1.
         11    1    1    2    0    0 -0.39626345429E+02 -0.26092674972E+01  0.27596365238E+02  0.48359227695E+02  0.00000000000E+00 0. -1.
</event>
<event>
 7    1  0.3265282E-009  0.1772207E+03  0.7561462E-02  0.1170520E+00
          2   -1    0    0  501    0  0.00000000000E+00  0.00000000000E+00  0.21503716603E+03  0.21503716603E+03  0.00000000000E+00 0. -1.
         -2   -1    0    0    0  501 -0.00000000000E+00 -0.00000000000E+00 -0.16565578728E+03  0.16565578728E+03  0.00000000000E+00 0.  1.
         25    2    1    2    0    0  0.14226123347E+02  0.10189195110E+03 -0.40536997011E+02  0.16695880330E+03  0.12509053356E+03 0.  0.
          5    1    3    3  502    0  0.68729621195E+02  0.66685939076E+02 -0.14618926649E+02  0.96963708244E+02  0.41800000000E+01 0.  1.
         -5    1    3    3    0  502 -0.54503497848E+02  0.35206012025E+02 -0.25918070362E+02  0.69995095054E+02  0.41800000000E+01 0.  1.
        -11    1    1    2    0    0 -0.30652402888E+02 -0.14459742882E+03  0.73905707537E+02  0.16525749553E+03  0.00000000000E+00 0.  1.
         11    1    1    2    0    0  0.16426279541E+02  0.42705477715E+02  0.16012668227E+02  0.48476654486E+02  0.00000000000E+00 0. -1.
</event>
<event>
 7    1  0.3657529E-009  0.1013266E+03  0.7561462E-02  0.1277531E+00
         -1   -1    0    0    0  501 -0.00000000000E+00  0.00000000000E+00  0.83714456259E+02  0.83714456259E+02  0.00000000000E+00 0.  1.
          1   -1    0    0  501    0  0.00000000000E+00 -0.00000000000E+00 -0.22258624449E+03  0.22258624449E+03  0.00000000000E+00 0. -1.
         25    2    1    2    0    0 -0.12314839133E+02  0.11023155004E+02 -0.16695102694E+03  0.20926894666E+03  0.12509069282E+03 0.  0.
          5    1    3    3  502    0 -0.68740929675E+02  0.70934351413E+01 -0.98004542167E+02  0.11999164521E+03  0.41800000000E+01 0. -1.
         -5    1    3    3    0  502  0.56426090541E+02  0.39297198632E+01 -0.68946484776E+02  0.89277301454E+02  0.41800000000E+01 0. -1.
        -11    1    1    2    0    0  0.43502835757E+02 -0.13140716378E+02  0.42847792836E+02  0.62458854430E+02  0.00000000000E+00 0.  1.
         11    1    1    2    0    0 -0.31187996623E+02  0.21175613737E+01 -0.14768554120E+02  0.34572899652E+02  0.00000000000E+00 0. -1.
</event>
<event>
 7    1  0.3265282E-009  0.1421490E+03  0.7561462E-02  0.1210466E+00
         -1   -1    0    0    0  501 -0.00000000000E+00  0.00000000000E+00  0.66236272148E+03  0.66236272148E+03  0.00000000000E+00 0.  1.
          1   -1    0    0  501    0  0.00000000000E+00 -0.00000000000E+00 -0.31771988462E+02  0.31771988462E+02  0.00000000000E+00 0. -1.
         25    2    1    2    0    0 -0.33853251713E+02 -0.86572583861E+02  0.28642310038E+03  0.32607913207E+03  0.12509417656E+03 0.  0.
          5    1    3    3  502    0  0.45297594602E+02 -0.49096649393E+02  0.10392053873E+03  0.12360948114E+03  0.41800000000E+01 0.  1.
         -5    1    3    3    0  502 -0.79150846315E+02 -0.37475934468E+02  0.18250256166E+03  0.20246965093E+03  0.41800000000E+01 0.  1.
        -11    1    1    2    0    0  0.61803229499E+02  0.79798879021E+02  0.28310643202E+03  0.30056072951E+03  0.00000000000E+00 0.  1.
         11    1    1    2    0    0 -0.27949977786E+02  0.67737048398E+01  0.61061200615E+02  0.67494848367E+02  0.00000000000E+00 0. -1.
</event>
<event>
 7    1  0.3265282E-009  0.9570088E+02  0.7561462E-02  0.1289605E+00
          2   -1    0    0  501    0  0.00000000000E+00  0.00000000000E+00  0.22953152854E+02  0.22953152854E+02  0.00000000000E+00 0.  1.
         -2   -1    0    0    0  501 -0.00000000000E+00 -0.00000000000E+00 -0.64524394419E+03  0.64524394419E+03  0.00000000000E+00 0. -1.
         25    2    1    2    0    0 -0.50325808310E+02  0.18113723317E+02 -0.36738794288E+03  0.39176586583E+03  0.12508316875E+03 0.  0.
          5    1    3    3  502    0  0.24129264991E+02  0.34940129643E+02 -0.23541410020E+03  0.23924946199E+03  0.41800000000E+01 0. -1.
         -5    1    3    3    0  502 -0.74455073300E+02 -0.16826406325E+02 -0.13197384267E+03  0.15251640384E+03  0.41800000000E+01 0. -1.
        -11    1    1    2    0    0  0.88837744587E+01  0.16204801167E+02 -0.28494325741E+01  0.18698563995E+02  0.00000000000E+00 0.  1.
         11    1    1    2    0    0  0.41442033851E+02 -0.34318524485E+02 -0.25205341589E+03  0.25773266722E+03  0.00000000000E+00 0. -1.
</event>
<event>
 7    1  0.3265282E-009  0.1124240E+03  0.7561462E-02  0.1256146E+00
          1   -1    0    0  501    0  0.00000000000E+00  0.00000000000E+00  0.52047637831E+03  0.52047637831E+03  0.00000000000E+00 0. -1.
         -1   -1    0    0    0  501 -0.00000000000E+00 -0.00000000000E+00 -0.26058740618E+02  0.26058740618E+02  0.00000000000E+00 0.  1.
         25    2    1    2    0    0 -0.19944621307E+02 -0.33124626958E+02  0.23993409795E+03  0.27333383901E+03  0.12509191566E+03 0.  0.
          5    1    3    3  502    0 -0.32721835251E+02 -0.75496749108E+02  0.18607358121E+03  0.20349773377E+03  0.41800000000E+01 0. -1.
         -5    1    3    3    0  502  0.12777213943E+02  0.42372122150E+02  0.53860516742E+02  0.69836105242E+02  0.41800000000E+01 0. -1.
        -11    1    1    2    0    0 -0.34291360271E+02  0.26558218171E+02  0.13555098123E+03  0.14232113285E+03  0.00000000000E+00 0.  1.
         11    1    1    2    0    0  0.54235981578E+02  0.65664087867E+01  0.11893255851E+03  0.13088014707E+03  0.00000000000E+00 0. -1.
</event>
<event>
 7    1  0.3265282E-009  0.1441638E+03  0.7561462E-02  0.1207834E+00
         -1   -1    0    0    0  501 -0.00000000000E+00  0.00000000000E+00  0.14911658288E+04  0.14911658288E+04  0.00000000000E+00 0.  1.
          1   -1    0    0  501    0  0.00000000000E+00 -0.00000000000E+00 -0.17658045163E+02  0.17658045163E+02  0.00000000000E+00 0. -1.
         25    2    1    2    0    0  0.86842545194E+02  0.76139528012E+02  0.92092016113E+03  0.93652645693E+03  0.12509598700E+03 0.  0.
          5    1    3    3  502    0  0.21140406315E+01  0.51877924703E+02  0.63905011220E+03  0.64116948348E+03  0.41800000000E+01 0.  1.
         -5    1    3    3    0  502  0.84728504563E+02  0.24261603309E+02  0.28187004893E+03  0.29535697345E+03  0.41800000000E+01 0.  1.
        -11    1    1    2    0    0  0.16679591541E+02 -0.30724603101E+02  0.10560859069E+03  0.11124470521E+03  0.00000000000E+00 0. -1.
         11    1    1    2    0    0 -0.10352213674E+03 -0.45414924911E+02  0.44697903178E+03  0.46105271179E+03  0.00000000000E+00 0.  1.
</event>
<event>
 7    1  0.3265282E-009  0.1007077E+03  0.7561462E-02  0.1278815E+00
         -1   -1    0    0    0  501 -0.00000000000E+00  0.00000000000E+00  0.32285796931E+02  0.32285796931E+02  0.00000000000E+00 0.  1.
          1   -1    0    0  501    0  0.00000000000E+00 -0.00000000000E+00 -0.51762575894E+03  0.51762575894E+03  0.00000000000E+00 0. -1.
         25    2    1    2    0    0  0.22695144666E+02  0.10847822617E+02 -0.41549080038E+03  0.43464130507E+03  0.12509082311E+03 0.  0.
          5    1    3    3  502    0  0.64142509588E+02  0.19597112164E+02 -0.35096208491E+03  0.35733760758E+03  0.41800000000E+01 0.  1.
         -5    1    3    3    0  502 -0.41447364921E+02 -0.87492895476E+01 -0.64528715470E+02  0.77303697497E+02  0.41800000000E+01 0.  1.
        -11    1    1    2    0    0  0.59930066557E+00 -0.47888722679E+02 -0.34643446277E+02  0.59108859666E+02  0.00000000000E+00 0. -1.
         11    1    1    2    0    0 -0.23294445332E+02  0.37040900062E+02 -0.35205715351E+02  0.56161391134E+02  0.00000000000E+00 0.  1.
</event>
<event>
 7    1  0.3265282E-009  0.8120076E+02  0.7561462E-02  0.1325678E+00
         -2   -1    0    0    0  501 -0.00000000000E+00  0.00000000000E+00  0.24852585761E+02  0.24852585761E+02  0.00000000000E+00 0.  1.
          2   -1    0    0  501    0  0.00000000000E+00 -0.00000000000E+00 -0.63626389036E+03  0.63626389036E+03  0.00000000000E+00 0. -1.
         25    2    1    2    0    0  0.34901226239E+02 -0.57569473463E+02 -0.39158522491E+03  0.41655574282E+03  0.12508940259E+03 0.  0.
          5    1    3    3  502    0  0.64675822122E+01 -0.97601805677E+01  0.68771683301E+01  0.14207694698E+02  0.41800000000E+01 0.  1.
         -5    1    3    3    0  502  0.28433644027E+02 -0.47809292895E+02 -0.39846239324E+03  0.40234804812E+03  0.41800000000E+01 0.  1.
        -11    1    1    2    0    0 -0.34942008652E+02 -0.16369776105E+01 -0.31241265578E+02  0.46900323444E+02  0.00000000000E+00 0.  1.
         11    1    1    2    0    0  0.40782412795E-01  0.59206451073E+02 -0.18858481411E+03  0.19766040985E+03  0.00000000000E+00 0. -1.
</event>
<event>
 7    1  0.3265282E-009  0.7881919E+02  0.7561462E-02  0.1332436E+00
          1   -1    0    0  501    0  0.00000000000E+00  0.00000000000E+00  0.32217922261E+03  0.32217922261E+03  0.00000000000E+00 0. -1.
         -1   -1    0    0    0  501 -0.00000000000E+00 -0.00000000000E+00 -0.52621850657E+02  0.52621850657E+02  0.00000000000E+00 0.  1.
         25    2    1    2    0    0  0.15951653948E+02 -0.45795806501E+01  0.49948301620E+02  0.13569381885E+03  0.12507018756E+03 0.  0.
          5    1    3    3  502    0  0.25961757652E+02  0.23591231382E+02 -0.32431930383E+02  0.47956871946E+02  0.41800000000E+01 0. -1.
         -5    1    3    3    0  502 -0.10010103704E+02 -0.28170812032E+02  0.82380232003E+02  0.87736946901E+02  0.41800000000E+01 0. -1.
        -11    1    1    2    0    0 -0.53448245402E+02  0.95641102891E+01  0.15505439300E+03  0.16428649345E+03  0.00000000000E+00 0. -1.
         11    1    1    2    0    0  0.37496591454E+02 -0.49845296389E+01  0.64554677332E+02  0.74820760968E+02  0.00000000000E+00 0.  1.
</event>
<event>
 7    1  0.3265282E-009  0.3015558E+03  0.7561462E-02  0.1084465E+00
         -1   -1    0    0    0  501 -0.00000000000E+00  0.00000000000E+00  0.67795379436E+02  0.67795379436E+02  0.00000000000E+00 0.  1.
          1   -1    0    0  501    0  0.00000000000E+00 -0.00000000000E+00 -0.13808594959E+04  0.13808594959E+04  0.00000000000E+00 0. -1.
         25    2    1    2    0    0 -0.43385100689E+02  0.28294347949E+03 -0.68359003157E+03  0.75158615742E+03  0.12508853351E+03 0.  0.
          5    1    3    3  502    0 -0.29911714118E+02  0.17258760641E+01 -0.80737854224E+02  0.86219271595E+02  0.41800000000E+01 0. -1.
         -5    1    3    3    0  502 -0.13473386571E+02  0.28121760342E+03 -0.60285217735E+03  0.66536688583E+03  0.41800000000E+01 0. -1.
        -11    1    1    2    0    0  0.48734245439E+02 -0.13990192593E+03 -0.40063522276E+03  0.42714887015E+03  0.00000000000E+00 0.  1.
         11    1    1    2    0    0 -0.53491447506E+01 -0.14304155356E+03 -0.22883886214E+03  0.26991984777E+03  0.00000000000E+00 0. -1.
</event>
<event>
 7    1  0.3265282E-009  0.1083709E+03  0.7561462E-02  0.1263617E+00
          1   -1    0    0  501    0  0.00000000000E+00  0.00000000000E+00  0.14661000800E+03  0.14661000800E+03  0.00000000000E+00 0. -1.
         -1   -1    0    0    0  501 -0.00000000000E+00 -0.00000000000E+00 -0.14065249792E+03  0.14065249792E+03  0.00000000000E+00 0.  1.
         25    2    1    2    0    0  0.48753400340E+02 -0.79222940785E+02 -0.73486782768E+01  0.15605911497E+03  0.12508907187E+03 0.  0.
          5    1    3    3  502    0  0.35393097733E+02 -0.43822950484E+02  0.57664808443E+02  0.80720659618E+02  0.41800000000E+01 0.  1.
         -5    1    3    3    0  502  0.13360302607E+02 -0.35399990300E+02 -0.65013486720E+02  0.75338455350E+02  0.41800000000E+01 0.  1.
        -11    1    1    2    0    0 -0.49610701530E+02  0.71642700691E+01 -0.17136027806E+02  0.52973502064E+02  0.00000000000E+00 0.  1.
         11    1    1    2    0    0  0.85730118997E+00  0.72058670715E+02  0.30442216165E+02  0.78229888889E+02  0.00000000000E+00 0. -1.
</event>
<event>
 7    1  0.3265282E-009  0.9969206E+02  0.7561462E-02  0.1280945E+00
          2   -1    0    0  501    0  0.00000000000E+00  0.00000000000E+00  0.12342037991E+04  0.12342037991E+04  0.00000000000E+00 0. -1.
         -2   -1    0    0    0  501 -0.00000000000E+00 -0.00000000000E+00 -0.12904829134E+02  0.12904829134E+02  0.00000000000E+00 0.  1.
         25    2    1    2    0    0  0.53225997809E+02 -0.11567627561E+02  0.82191974001E+03  0.83316633706E+03  0.12508904563E+03 0.  0.
          5    1    3    3  502    0  0.28390837033E+02 -0.44193696011E+02  0.13363321394E+03  0.14364689576E+03  0.41800000000E+01 0.  1.
         -5    1    3    3    0  502  0.24835160776E+02  0.32626068450E+02  0.68828652607E+03  0.68951944130E+03  0.41800000000E+01 0.  1.
        -11    1    1    2    0    0 -0.62384802640E+02 -0.25424110705E+02  0.20258601349E+03  0.21349318927E+03  0.00000000000E+00 0.  1.
         11    1    1    2    0    0  0.91588048310E+01  0.36991738266E+02  0.19679321651E+03  0.20044910194E+03  0.00000000000E+00 0. -1.
</event>
<event>
 7    1  0.3265282E-009  0.1158215E+03  0.7561462E-02  0.1250154E+00
          1   -1    0    0  501    0  0.00000000000E+00  0.00000000000E+00  0.11356311326E+04  0.11356311326E+04  0.00000000000E+00 0.  1.
         -1   -1    0    0    0  501 -0.00000000000E+00 -0.00000000000E+00 -0.15989465856E+02  0.15989465856E+02  0.00000000000E+00 0. -1.
         25    2    1    2    0    0  0.11602276213E+02 -0.62565591469E+02  0.55829954620E+03  0.57566901603E+03  0.12508943473E+03 0.  0.
          5    1    3    3  502    0 -0.26238430808E+02 -0.58754156229E+02  0.50995596694E+03  0.51401660163E+03  0.41800000000E+01 0.  1.
         -5    1    3    3    0  502  0.37840707021E+02 -0.38114352401E+01  0.48343579251E+02  0.61652414399E+02  0.41800000000E+01 0.  1.
        -11    1    1    2    0    0  0.37367722155E+02  0.70018140796E+02  0.34464862079E+03  0.35366871294E+03  0.00000000000E+00 0. -1.
         11    1    1    2    0    0 -0.48969998367E+02 -0.74525493271E+01  0.21669349975E+03  0.22228286949E+03  0.00000000000E+00 0.  1.
</event>
<event>
 7    1  0.3265282E-009  0.9408451E+02  0.7561462E-02  0.1293251E+00
         -3   -1    0    0    0  501 -0.00000000000E+00  0.00000000000E+00  0.36512820309E+02  0.36512820309E+02  0.00000000000E+00 0.  1.
          3   -1    0    0  501    0  0.00000000000E+00 -0.00000000000E+00 -0.29827117312E+03  0.29827117312E+03  0.00000000000E+00 0. -1.
         25    2    1    2    0    0 -0.67169123116E+01 -0.42071668150E+02 -0.12642326092E+03  0.18287929370E+03  0.12508738142E+03 0.  0.
          5    1    3    3  502    0 -0.31130506586E+02 -0.79520158841E+02 -0.96476788803E+02  0.12891007439E+03  0.41800000000E+01 0. -1.
         -5    1    3    3    0  502  0.24413594275E+02  0.37448490691E+02 -0.29946472119E+02  0.53969219309E+02  0.41800000000E+01 0. -1.
        -11    1    1    2    0    0 -0.15462088104E+02  0.88167272633E+01 -0.88766483746E+02  0.90533416399E+02  0.00000000000E+00 0. -1.
         11    1    1    2    0    0  0.22179000416E+02  0.33254940887E+02 -0.46568608144E+02  0.61371283328E+02  0.00000000000E+00 0.  1.
</event>
<event>
 7    1  0.3265282E-009  0.1057565E+03  0.7561462E-02  0.1268636E+00
         -2   -1    0    0    0  501 -0.00000000000E+00  0.00000000000E+00  0.36341745954E+02  0.36341745954E+02  0.00000000000E+00 0.  1.
          2   -1    0    0  501    0  0.00000000000E+00 -0.00000000000E+00 -0.49605365283E+03  0.49605365283E+03  0.00000000000E+00 0. -1.
         25    2    1    2    0    0  0.57593433288E+02  0.44565894343E+02 -0.24712183996E+03  0.28639148908E+03  0.12509100183E+03 0.  0.
          5    1    3    3  502    0 -0.82980356633E+01  0.18850436707E+02  0.73308294564E+01  0.22257803585E+02  0.41800000000E+01 0.  1.
         -5    1    3    3    0  502  0.65891468951E+02  0.25715457636E+02 -0.25445266941E+03  0.26413368550E+03  0.41800000000E+01 0.  1.
        -11    1    1    2    0    0 -0.78280667488E+02 -0.94006660809E+01 -0.10783108607E+03  0.13358060693E+03  0.00000000000E+00 0.  1.
         11    1    1    2    0    0  0.20687234200E+02 -0.35165228262E+02 -0.10475898085E+03  0.11242330277E+03  0.00000000000E+00 0. -1.
</event>
<event>
 7    1  0.3265282E-009  0.1076743E+03  0.7561462E-02  0.1264938E+00
         -2   -1    0    0    0  501 -0.00000000000E+00  0.00000000000E+00  0.57902452472E+02  0.57902452472E+02  0.00000000000E+00 0.  1.
          2   -1    0    0  501    0  0.00000000000E+00 -0.00000000000E+00 -0.26835573381E+03  0.26835573381E+03  0.00000000000E+00 0. -1.
         25    2    1    2    0    0 -0.16317262909E+02 -0.29647841352E+02 -0.13264793118E+03  0.18543869514E+03  0.12508712341E+03 0.  0.
          5    1    3    3  502    0 -0.20816769815E+02 -0.76450982541E+02 -0.10171527554E+03  0.12900217175E+03  0.41800000000E+01 0.  1.
         -5    1    3    3    0  502  0.44995069065E+01  0.46803141189E+02 -0.30932655634E+02  0.56436523388E+02  0.41800000000E+01 0.  1.
        -11    1    1    2    0    0 -0.30634355182E+02 -0.41979115284E+01  0.12669147923E+02  0.33415467791E+02  0.00000000000E+00 0.  1.
         11    1    1    2    0    0  0.46951618090E+02  0.33845752880E+02 -0.90474498086E+02  0.10740402336E+03  0.00000000000E+00 0. -1.
</event>
<event>
 7    1  0.3265282E-009  0.1180938E+03  0.7561462E-02  0.1246275E+00
         -2   -1    0    0    0  501 -0.00000000000E+00  0.00000000000E+00  0.41131938825E+03  0.41131938825E+03  0.00000000000E+00 0.  1.
          2   -1    0    0  501    0  0.00000000000E+00 -0.00000000000E+00 -0.45159897828E+02  0.45159897828E+02  0.00000000000E+00 0. -1.
         25    2    1    2    0    0  0.36564190631E+02  0.37349235023E+02  0.30925467395E+03  0.33766444323E+03  0.12508763917E+03 0.  0.
          5    1    3    3  502    0 -0.67447501725E+01  0.76458788621E+02  0.18451999480E+03  0.19989131770E+03  0.41800000000E+01 0.  1.
         -5    1    3    3    0  502  0.43308940804E+02 -0.39109553598E+02  0.12473467915E+03  0.13777312553E+03  0.41800000000E+01 0.  1.
        -11    1    1    2    0    0 -0.57572794045E+02  0.44388280978E+00  0.17143460902E+02  0.60072638512E+02  0.00000000000E+00 0.  1.
         11    1    1    2    0    0  0.21008603414E+02 -0.37793117833E+02  0.39761355574E+02  0.58742204334E+02  0.00000000000E+00 0. -1.
</event>
<event>
 7    1  0.3265282E-009  0.9706709E+02  0.7561462E-02  0.1286587E+00
          1   -1    0    0  501    0  0.00000000000E+00  0.00000000000E+00  0.38871260242E+03  0.38871260242E+03  0.00000000000E+00 0. -1.
         -1   -1    0    0    0  501 -0.00000000000E+00 -0.00000000000E+00 -0.45315640131E+02  0.45315640131E+02  0.00000000000E+00 0.  1.
         25    2    1    2    0    0 -0.24466342718E+02  0.58052692528E+02  0.12242703648E+03  0.18602521911E+03  0.12509310872E+03 0.  0.
          5    1    3    3  502    0  0.10734803852E+02  0.40380074579E+02  0.13740523081E+03  0.14367830835E+03  0.41800000000E+01 0. -1.
         -5    1    3    3    0  502 -0.35201146570E+02  0.17672617949E+02 -0.14978194335E+02  0.42346910756E+02  0.41800000000E+01 0. -1.
        -11    1    1    2    0    0 -0.22639830797E+02 -0.61268546493E+02  0.12416937515E+03  0.14030121330E+03  0.00000000000E+00 0. -1.
         11    1    1    2    0    0  0.47106173515E+02  0.32158539643E+01  0.96800550668E+02  0.10770181015E+03  0.00000000000E+00 0.  1.
</event>
<event>
 7    1  0.3265282E-009  0.1844459E+03  0.7561462E-02  0.1163568E+00
          2   -1    0    0  501    0  0.00000000000E+00  0.00000000000E+00  0.10112587178E+04  0.10112587178E+04  0.00000000000E+00 0.  1.
         -2   -1    0    0    0  501 -0.00000000000E+00 -0.00000000000E+00 -0.12086384739E+03  0.12086384739E+03  0.00000000000E+00 0. -1.
         25    2    1    2    0    0  0.12038634708E+03  0.95170418034E+02  0.92841343810E+03  0.94928886052E+03  0.12509015799E+03 0.  0.
          5    1    3    3  502    0 -0.25952172465E+02  0.20408843181E+02  0.17759918975E+03  0.18069028954E+03  0.41800000000E+01 0.  1.
         -5    1    3    3    0  502  0.14633851955E+03  0.74761574853E+02  0.75081424835E+03  0.76859857097E+03  0.41800000000E+01 0.  1.
        -11    1    1    2    0    0 -0.58653487811E+02 -0.10408469687E+01  0.11629292475E+02  0.59804309529E+02  0.00000000000E+00 0.  1.
         11    1    1    2    0    0 -0.61732859271E+02 -0.94129571065E+02 -0.49647860125E+02  0.12302939518E+03  0.00000000000E+00 0. -1.
</event>
<event>
 7    1  0.3265282E-009  0.8972701E+02  0.7561462E-02  0.1303514E+00
         -2   -1    0    0    0  501 -0.00000000000E+00  0.00000000000E+00  0.25669297307E+02  0.25669297307E+02  0.00000000000E+00 0.  1.
          2   -1    0    0  501    0  0.00000000000E+00 -0.00000000000E+00 -0.79097673819E+03  0.79097673819E+03  0.00000000000E+00 0. -1.
         25    2    1    2    0    0  0.59724327508E+01  0.69198664938E+02 -0.23650636899E+03  0.27641809769E+03  0.12509027532E+03 0.  0.
          5    1    3    3  502    0  0.10381411229E+02  0.24810532930E+02  0.75804060205E+01  0.28253693542E+02  0.41800000000E+01 0.  1.
         -5    1    3    3    0  502 -0.44089784779E+01  0.44388132009E+02 -0.24408677501E+03  0.24816440415E+03  0.41800000000E+01 0.  1.
        -11    1    1    2    0    0  0.37723181457E+02 -0.24830048749E+02 -0.16194975747E+03  0.16812880088E+03  0.00000000000E+00 0.  1.
         11    1    1    2    0    0 -0.43695614208E+02 -0.44368616189E+02 -0.36685131443E+03  0.37209913692E+03  0.00000000000E+00 0. -1.
</event>
<event>
 7    1  0.3265282E-009  0.1046779E+03  0.7561462E-02  0.1270756E+00
          1   -1    0    0  501    0  0.00000000000E+00  0.00000000000E+00  0.55748733713E+03  0.55748733713E+03  0.00000000000E+00 0. -1.
         -1   -1    0    0    0  501 -0.00000000000E+00 -0.00000000000E+00 -0.20371772537E+02  0.20371772537E+02  0.00000000000E+00 0.  1.
         25    2    1    2    0    0  0.10268580497E+02 -0.94877654072E+01  0.30427494385E+03  0.32928304011E+03  0.12509443477E+03 0.  0.
          5    1    3    3  502    0 -0.50277871546E+02  0.24511009362E+02  0.12624706188E+03  0.13814646930E+03  0.41800000000E+01 0.  1.
         -5    1    3    3    0  502  0.60546452043E+02 -0.33998774769E+02  0.17802788197E+03  0.19113657080E+03  0.41800000000E+01 0.  1.
        -11    1    1    2    0    0  0.20740704400E+02  0.36888669635E+02  0.15170440340E+03  0.15749659290E+03  0.00000000000E+00 0. -1.
         11    1    1    2    0    0 -0.31009284897E+02 -0.27400904228E+02  0.81136217348E+02  0.91079476656E+02  0.00000000000E+00 0.  1.
</event>
<event>
 7    1  0.3265282E-009  0.9218645E+02  0.7561462E-02  0.1297642E+00
         -2   -1    0    0    0  501 -0.00000000000E+00  0.00000000000E+00  0.37867556771E+02  0.37867556771E+02  0.00000000000E+00 0.  1.
          2   -1    0    0  501    0  0.00000000000E+00 -0.00000000000E+00 -0.36059735353E+03  0.36059735353E+03  0.00000000000E+00 0. -1.
         25    2    1    2    0    0  0.49904474663E+01 -0.16634636020E+02 -0.25681211297E+03  0.28617925192E+03  0.12507792442E+03 0.  0.
          5    1    3    3  502    0 -0.51931286376E+01 -0.56552190798E+02 -0.22977599673E+03  0.23672684668E+03  0.41800000000E+01 0. -1.
         -5    1    3    3    0  502  0.10183576104E+02  0.39917554778E+02 -0.27036116245E+02  0.49452405233E+02  0.41800000000E+01 0. -1.
        -11    1    1    2    0    0  0.63389743379E+01  0.50198490071E+02 -0.20273155683E+02  0.54507539317E+02  0.00000000000E+00 0. -1.
         11    1    1    2    0    0 -0.11329421804E+02 -0.33563854051E+02 -0.45644528110E+02  0.57778119072E+02  0.00000000000E+00 0.  1.
</event>
<event>
 7    1  0.3265282E-009  0.3588223E+03  0.7561462E-02  0.1059051E+00
         -2   -1    0    0    0  501 -0.00000000000E+00  0.00000000000E+00  0.12734630952E+03  0.12734630952E+03  0.00000000000E+00 0.  1.
          2   -1    0    0  501    0  0.00000000000E+00 -0.00000000000E+00 -0.11615156192E+04  0.11615156192E+04  0.00000000000E+00 0. -1.
         25    2    1    2    0    0 -0.21543876400E+03 -0.26734180070E+03 -0.74904522658E+03  0.83342738456E+03  0.12508778693E+03 0.  0.
          5    1    3    3  502    0 -0.20155808900E+02 -0.11183745994E+03 -0.27673504138E+03  0.29918828454E+03  0.41800000000E+01 0.  1.
         -5    1    3    3    0  502 -0.19528295510E+03 -0.15550434076E+03 -0.47231018520E+03  0.53423910002E+03  0.41800000000E+01 0.  1.
        -11    1    1    2    0    0  0.12326399402E+03  0.84342640590E+02 -0.10448855373E+03  0.18227877305E+03  0.00000000000E+00 0. -1.
         11    1    1    2    0    0  0.92174769982E+02  0.18299916011E+03 -0.18063552935E+03  0.27315577110E+03  0.00000000000E+00 0.  1.
</event>
<event>
 7    1  0.3265282E-009  0.1073544E+03  0.7561462E-02  0.1265549E+00
          3   -1    0    0  501    0  0.00000000000E+00  0.00000000000E+00  0.65037172490E+02  0.65037172490E+02  0.00000000000E+00 0. -1.
         -3   -1    0    0    0  501 -0.00000000000E+00 -0.00000000000E+00 -0.53401513207E+03  0.53401513207E+03  0.00000000000E+00 0.  1.
         25    2    1    2    0    0  0.74170992680E+01 -0.24472978294E+02 -0.48416309342E+03  0.50071723780E+03  0.12509960503E+03 0.  0.
          5    1    3    3  502    0  0.62259718055E+02  0.34607867744E+01 -0.18533721045E+03  0.19559039730E+03  0.41800000000E+01 0.  1.
         -5    1    3    3    0  502 -0.54842618787E+02 -0.27933765068E+02 -0.29882588297E+03  0.30512684051E+03  0.41800000000E+01 0.  1.
        -11    1    1    2    0    0  0.36184130567E+02 -0.68649811319E+01  0.23946543898E+02  0.43930129018E+02  0.00000000000E+00 0. -1.
         11    1    1    2    0    0 -0.43601229835E+02  0.31337959425E+02 -0.87614100608E+01  0.54404937739E+02  0.00000000000E+00 0.  1.
</event>
<event>
 6    1  0.3777674E-009  0.1705640E+03  0.7561462E-02  0.1177261E+00
          2   -1    0    0  501    0  0.00000000000E+00  0.00000000000E+00  0.88205832655E+02  0.88205832655E+02  0.00000000000E+00 0. -1.
         -2   -1    0    0    0  501 -0.00000000000E+00 -0.00000000000E+00 -0.51078467380E+03  0.51078467380E+03  0.00000000000E+00 0.  1.
          5    1    1    2  502    0 -0.11346601771E+03  0.10287051626E+03 -0.19866128157E+03  0.25087976698E+03  0.41800000000E+01 0.  1.
         -5    1    1    2    0  502  0.81433635114E+01  0.12974901737E+02 -0.15323124420E+03  0.15405177390E+03  0.41800000000E+01 0.  1.
        -11    1    1    2    0    0  0.58127303261E+02 -0.11008671326E+03 -0.76566066199E+02  0.14615139518E+03  0.00000000000E+00 0.  1.
         11    1    1    2    0    0  0.47195350935E+02 -0.57587047377E+01  0.58797508227E+01  0.47907570382E+02  0.00000000000E+00 0. -1.
</event>
<event>
 7    1  0.3265282E-009  0.1189384E+03  0.7561462E-02  0.1244859E+00
          1   -1    0    0  501    0  0.00000000000E+00  0.00000000000E+00  0.12088122634E+04  0.12088122634E+04  0.00000000000E+00 0. -1.
         -1   -1    0    0    0  501 -0.00000000000E+00 -0.00000000000E+00 -0.13183629761E+02  0.13183629761E+02  0.00000000000E+00 0.  1.
         25    2    1    2    0    0  0.48019309907E+02 -0.42357447110E+02  0.63839218930E+03  0.65367609221E+03  0.12509132152E+03 0.  0.
          5    1    3    3  502    0 -0.29431994408E+02  0.11665834501E+02  0.63637932291E+02  0.71201073136E+02  0.41800000000E+01 0. -1.
         -5    1    3    3    0  502  0.77451304315E+02 -0.54023281612E+02  0.57475425700E+03  0.58247501907E+03  0.41800000000E+01 0. -1.
        -11    1    1    2    0    0  0.68266545386E+01  0.54763389808E+02  0.29585542820E+03  0.30095857933E+03  0.00000000000E+00 0.  1.
         11    1    1    2    0    0 -0.54845964446E+02 -0.12405942698E+02  0.26138101617E+03  0.26736122165E+03  0.00000000000E+00 0. -1.
</event>
<event>
 7    1  0.3265282E-009  0.9880541E+02  0.7561462E-02  0.1282828E+00
         -2   -1    0    0    0  501 -0.00000000000E+00  0.00000000000E+00  0.44078316944E+02  0.44078316944E+02  0.00000000000E+00 0. -1.
          2   -1    0    0  501    0  0.00000000000E+00 -0.00000000000E+00 -0.39872530855E+03  0.39872530855E+03  0.00000000000E+00 0.  1.
         25    2    1    2    0    0 -0.31220412762E+02 -0.50183893327E+02 -0.27649837687E+03  0.30918435038E+03  0.12510184964E+03 0.  0.
          5    1    3    3  502    0 -0.33887031523E+02  0.24998829850E+02 -0.31201206933E+02  0.52576231449E+02  0.41800000000E+01 0.  1.
         -5    1    3    3    0  502  0.26666187613E+01 -0.75182723177E+02 -0.24529716994E+03  0.25660811893E+03  0.41800000000E+01 0.  1.
        -11    1    1    2    0    0 -0.68450428547E+01  0.39947613363E+02 -0.84477247451E+02  0.93696700913E+02  0.00000000000E+00 0.  1.
         11    1    1    2    0    0  0.38065455617E+02  0.10236279965E+02  0.63286327193E+01  0.39922574202E+02  0.00000000000E+00 0. -1.
</event>
<event>
 7    1  0.3265282E-009  0.2310975E+03  0.7561462E-02  0.1125870E+00
         -2   -1    0    0    0  501 -0.00000000000E+00  0.00000000000E+00  0.54864343823E+03  0.54864343823E+03  0.00000000000E+00 0.  1.
          2   -1    0    0  501    0  0.00000000000E+00 -0.00000000000E+00 -0.12049733152E+03  0.12049733152E+03  0.00000000000E+00 0. -1.
         25    2    1    2    0    0  0.14825672451E+03  0.15559852348E+03  0.33623913524E+03  0.41820490598E+03  0.12509048905E+03 0.  0.
          5    1    3    3  502    0  0.10423164637E+03  0.32812918120E+02  0.99352853699E+02  0.14774770942E+03  0.41800000000E+01 0. -1.
         -5    1    3    3    0  502  0.44025078130E+02  0.12278560536E+03  0.23688628155E+03  0.27045719656E+03  0.41800000000E+01 0. -1.
        -11    1    1    2    0    0 -0.10008646016E+03 -0.63878380337E+02  0.87043081457E+02  0.14722175455E+03  0.00000000000E+00 0.  1.
         11    1    1    2    0    0 -0.48170264341E+02 -0.91720143140E+02  0.48638900115E+01  0.10371410922E+03  0.00000000000E+00 0. -1.
</event>
<event>
 7    1  0.3265282E-009  0.1047906E+03  0.7561462E-02  0.1270533E+00
         -4   -1    0    0    0  501 -0.00000000000E+00  0.00000000000E+00  0.13644984090E+03  0.13644984090E+03  0.00000000000E+00 0.  1.
          4   -1    0    0  501    0  0.00000000000E+00 -0.00000000000E+00 -0.87869605590E+02  0.87869605590E+02  0.00000000000E+00 0. -1.
         25    2    1    2    0    0 -0.16338221785E+01 -0.25881924295E+01  0.10250666739E+02  0.12555413274E+03  0.12509754580E+03 0.  0.
          5    1    3    3  502    0 -0.11674395445E+02  0.59953670689E+02 -0.17733075984E+00  0.61222855081E+02  0.41800000000E+01 0. -1.
         -5    1    3    3    0  502  0.10040573266E+02 -0.62541863119E+02  0.10427997498E+02  0.64331277663E+02  0.41800000000E+01 0. -1.
        -11    1    1    2    0    0 -0.41477667990E+02 -0.19823663240E+01  0.36640750620E+02  0.55379340228E+02  0.00000000000E+00 0.  1.
         11    1    1    2    0    0  0.43111490168E+02  0.45705587535E+01  0.16888179493E+01  0.43385973516E+02  0.00000000000E+00 0. -1.
</event>
<event>
 7    1  0.3265282E-009  0.1327382E+03  0.7561462E-02  0.1223448E+00
         -1   -1    0    0    0  501 -0.00000000000E+00  0.00000000000E+00  0.80892782238E+03  0.80892782238E+03  0.00000000000E+00 0.  1.
          1   -1    0    0  501    0  0.00000000000E+00 -0.00000000000E+00 -0.42332849733E+02  0.42332849733E+02  0.00000000000E+00 0. -1.
         25    2    1    2    0    0 -0.21596770438E+02 -0.98171093732E+02  0.65846207885E+03  0.67773393859E+03  0.12508796144E+03 0.  0.
          5    1    3    3  502    0 -0.33499982428E+02  0.96342612209E+01  0.32866527124E+03  0.33053502194E+03  0.41800000000E+01 0. -1.
         -5    1    3    3    0  502  0.11903211991E+02 -0.10780535495E+03  0.32979680762E+03  0.34719891666E+03  0.41800000000E+01 0. -1.
        -11    1    1    2    0    0 -0.13358523178E+01  0.98875350603E+02  0.11291207522E+03  0.15009082646E+03  0.00000000000E+00 0.  1.
         11    1    1    2    0    0  0.22932622755E+02 -0.70425687164E+00 -0.47791814274E+01  0.23435907051E+02  0.00000000000E+00 0. -1.
</event>
<event>
 7    1  0.3785311E-009  0.1536258E+03  0.7561462E-02  0.1196087E+00
         -2   -1    0    0    0  501 -0.00000000000E+00  0.00000000000E+00  0.43096951752E+02  0.43096951752E+02  0.00000000000E+00 0.  1.
          2   -1    0    0  501    0  0.00000000000E+00 -0.00000000000E+00 -0.78497584044E+03  0.78497584044E+03  0.00000000000E+00 0. -1.
         25    2    1    2    0    0  0.13907262032E+03 -0.37141920329E+02 -0.46760555518E+03  0.50499851698E+03  0.12509129043E+03 0.  0.
          5    1    3    3  502    0  0.92895221515E+01 -0.27779652014E+02 -0.13359484466E+02  0.32464634805E+02  0.41800000000E+01 0.  1.
         -5    1    3    3    0  502  0.12978309817E+03 -0.93622683151E+01 -0.45424607072E+03  0.47253388217E+03  0.41800000000E+01 0.  1.
        -11    1    1    2    0    0 -0.11411684870E+03  0.16938763467E+02 -0.12383426443E+03  0.16924686677E+03  0.00000000000E+00 0.  1.
         11    1    1    2    0    0 -0.24955771622E+02  0.20203156863E+02 -0.15043906908E+03  0.15382740844E+03  0.00000000000E+00 0. -1.
</event>
<event>
 7    1  0.3265282E-009  0.1187089E+03  0.7561462E-02  0.1245242E+00
         -1   -1    0    0    0  501 -0.00000000000E+00  0.00000000000E+00  0.13557328407E+03  0.13557328407E+03  0.00000000000E+00 0.  1.
          1   -1    0    0  501    0  0.00000000000E+00 -0.00000000000E+00 -0.13043523662E+03  0.13043523662E+03  0.00000000000E+00 0. -1.
         25    2    1    2    0    0  0.54208038653E+02  0.31349756268E+02 -0.39864316790E+02  0.14546514161E+03  0.12509846121E+03 0.  0.
          5    1    3    3  502    0 -0.33471279725E+02  0.11407793019E+02  0.16514448807E+02  0.39251289500E+02  0.41800000000E+01 0. -1.
         -5    1    3    3    0  502  0.87679318378E+02  0.19941963249E+02 -0.56378765598E+02  0.10621385211E+03  0.41800000000E+01 0. -1.
        -11    1    1    2    0    0  0.26282516065E+02 -0.29828049404E+01  0.11914918428E+02  0.29010912725E+02  0.00000000000E+00 0.  1.
         11    1    1    2    0    0 -0.80490554718E+02 -0.28366951328E+02  0.33087445814E+02  0.91532466355E+02  0.00000000000E+00 0. -1.
</event>
<event>
 7    1  0.3265282E-009  0.1399981E+03  0.7561462E-02  0.1213331E+00
         -1   -1    0    0    0  501 -0.00000000000E+00  0.00000000000E+00  0.15067746881E+03  0.15067746881E+03  0.00000000000E+00 0.  1.
          1   -1    0    0  501    0  0.00000000000E+00 -0.00000000000E+00 -0.16231713492E+03  0.16231713492E+03  0.00000000000E+00 0. -1.
         25    2    1    2    0    0  0.73038893305E+02  0.68221472060E+02 -0.57426032814E+02  0.17009813466E+03  0.12508707761E+03 0.  0.
          5    1    3    3  502    0  0.99629860423E+02  0.42158453047E+02 -0.71865298484E+02  0.12994436416E+03  0.41800000000E+01 0. -1.
         -5    1    3    3    0  502 -0.26590967119E+02  0.26063019013E+02  0.14439265670E+02  0.40153770501E+02  0.41800000000E+01 0. -1.
        -11    1    1    2    0    0 -0.85423824691E+02 -0.24564386600E+02  0.38788191736E+02  0.96980218251E+02  0.00000000000E+00 0.  1.
         11    1    1    2    0    0  0.12384931386E+02 -0.43657085460E+02  0.69981749688E+01  0.45916250819E+02  0.00000000000E+00 0. -1.
</event>
<event>
 7    1  0.3265282E-009  0.1232976E+03  0.7561462E-02  0.1237754E+00
          1   -1    0    0  501    0  0.00000000000E+00  0.00000000000E+00  0.93452901992E+02  0.93452901992E+02  0.00000000000E+00 0. -1.
         -1   -1    0    0    0  501 -0.00000000000E+00 -0.00000000000E+00 -0.22897781789E+03  0.22897781789E+03  0.00000000000E+00 0.  1.
         25    2    1    2    0    0  0.31776137575E+02 -0.76502041522E+02 -0.17556842745E+02  0.15105995358E+03  0.12509429073E+03 0.  0.
          5    1    3    3  502    0 -0.12886315419E+02  0.28889171623E+02  0.96450055020E+01  0.33333765063E+02  0.41800000000E+01 0. -1.
         -5    1    3    3    0  502  0.44662452994E+02 -0.10539121314E+03 -0.27201848247E+02  0.11772618852E+03  0.41800000000E+01 0. -1.
        -11    1    1    2    0    0 -0.48116383223E+02  0.53829896869E+02 -0.12333437914E+03  0.14291330662E+03  0.00000000000E+00 0.  1.
         11    1    1    2    0    0  0.16340245648E+02  0.22672144653E+02  0.53663059917E+01  0.28457459672E+02  0.00000000000E+00 0. -1.
</event>
<event>
 7    1  0.3265282E-009  0.1415749E+03  0.7561462E-02  0.1211225E+00
         -1   -1    0    0    0  501 -0.00000000000E+00  0.00000000000E+00  0.24645599410E+03  0.24645599410E+03  0.00000000000E+00 0.  1.
          1   -1    0    0  501    0  0.00000000000E+00 -0.00000000000E+00 -0.11322992234E+03  0.11322992234E+03  0.00000000000E+00 0. -1.
         25    2    1    2    0    0 -0.26060032873E+02 -0.10921425173E+03  0.12315069463E+02  0.16855426161E+03  0.12510795369E+03 0.  0.
          5    1    3    3  502    0 -0.45955967252E+02 -0.13061354503E+03  0.84166411556E+01  0.13878098328E+03  0.41800000000E+01 0.  1.
         -5    1    3    3    0  502  0.19895934379E+02  0.21399293306E+02  0.38984283077E+01  0.29773278323E+02  0.41800000000E+01 0.  1.
        -11    1    1    2    0    0 -0.46947220151E+01  0.25365127347E+02  0.94557843303E+02  0.98013345164E+02  0.00000000000E+00 0.  1.
         11    1    1    2    0    0  0.30754754888E+02  0.83849124381E+02  0.26353158994E+02  0.93118309675E+02  0.00000000000E+00 0. -1.
</event>
<event>
 7    1  0.3265282E-009  0.9409177E+02  0.7561462E-02  0.1293235E+00
          1   -1    0    0  501    0  0.00000000000E+00  0.00000000000E+00  0.36210202858E+03  0.36210202858E+03  0.00000000000E+00 0. -1.
         -1   -1    0    0    0  501 -0.00000000000E+00 -0.00000000000E+00 -0.38828489600E+02  0.38828489600E+02  0.00000000000E+00 0.  1.
         25    2    1    2    0    0  0.10339592024E+02 -0.39849346943E+02  0.13591330545E+03  0.18922573865E+03  0.12505629115E+03 0.  0.
          5    1    3    3  502    0 -0.38276281743E+02 -0.23932818809E+02  0.12985795391E+03  0.13754422617E+03  0.41800000000E+01 0. -1.
         -5    1    3    3    0  502  0.48615873767E+02 -0.15916528135E+02  0.60553515355E+01  0.51681512480E+02  0.41800000000E+01 0. -1.
        -11    1    1    2    0    0 -0.40184684033E+02 -0.18683343399E+01  0.12295932872E+03  0.12937270200E+03  0.00000000000E+00 0. -1.
         11    1    1    2    0    0  0.29845092009E+02  0.41717681283E+02  0.64400904821E+02  0.82332077531E+02  0.00000000000E+00 0.  1.
</event>
<event>
 7    1  0.3265282E-009  0.7888093E+02  0.7561462E-02  0.1332258E+00
          2   -1    0    0  501    0  0.00000000000E+00  0.00000000000E+00  0.32924568468E+03  0.32924568468E+03  0.00000000000E+00 0. -1.
         -2   -1    0    0    0  501 -0.00000000000E+00 -0.00000000000E+00 -0.83249048959E+02  0.83249048959E+02  0.00000000000E+00 0.  1.
         25    2    1    2    0    0  0.14746734628E+02 -0.22627154198E+02 -0.20135316512E+02  0.12955845693E+03  0.12510199240E+03 0.  0.
          5    1    3    3  502    0  0.39479861990E+02 -0.15845016470E+02 -0.64950788434E+02  0.77754751417E+02  0.41800000000E+01 0. -1.
         -5    1    3    3    0  502 -0.24733127362E+02 -0.67821377281E+01  0.44815471922E+02  0.51803705513E+02  0.41800000000E+01 0. -1.
        -11    1    1    2    0    0  0.22892450230E+02 -0.21241157248E+02  0.47914676612E+02  0.57193244999E+02  0.00000000000E+00 0.  1.
         11    1    1    2    0    0 -0.37639184857E+02  0.43868311446E+02  0.21821727562E+03  0.22574303171E+03  0.00000000000E+00 0. -1.
</event>
<event>
 7    1  0.3265282E-009  0.2798260E+03  0.7561462E-02  0.1095784E+00
         -2   -1    0    0    0  501 -0.00000000000E+00  0.00000000000E+00  0.44644155371E+02  0.44644155371E+02  0.00000000000E+00 0.  1.
          2   -1    0    0  501    0  0.00000000000E+00 -0.00000000000E+00 -0.29469271387E+04  0.29469271387E+04  0.00000000000E+00 0. -1.
         25    2    1    2    0    0 -0.26570316585E+03  0.79078061150E+01 -0.23693677930E+04  0.23875117123E+04  0.12509089419E+03 0.  0.
          5    1    3    3  502    0 -0.10636837974E+03 -0.57869432092E+02 -0.10204407853E+04  0.10276088615E+04  0.41800000000E+01 0. -1.
         -5    1    3    3    0  502 -0.15933478611E+03  0.65777238207E+02 -0.13489270077E+04  0.13599028508E+04  0.41800000000E+01 0. -1.
        -11    1    1    2    0    0  0.13661191704E+03  0.15718602370E+01 -0.16605335315E+03  0.21503256199E+03  0.00000000000E+00 0.  1.
         11    1    1    2    0    0  0.12909124880E+03 -0.94796663519E+01 -0.36686183714E+03  0.38902701981E+03  0.00000000000E+00 0. -1.
</event>
<event>
 7    1  0.3265282E-009  0.1091553E+03  0.7561462E-02  0.1262142E+00
         -3   -1    0    0    0  501 -0.00000000000E+00  0.00000000000E+00  0.50956159723E+03  0.50956159723E+03  0.00000000000E+00 0.  1.
          3   -1    0    0  501    0  0.00000000000E+00 -0.00000000000E+00 -0.29776731630E+02  0.29776731630E+02  0.00000000000E+00 0. -1.
         25    2    1    2    0    0 -0.33593793456E+02  0.47734781313E+02  0.34802262721E+03  0.37440076217E+03  0.12509608051E+03 0.  0.
          5    1    3    3  502    0  0.16479456506E+02  0.77577834977E+02  0.20996117448E+03  0.22447953170E+03  0.41800000000E+01 0.  1.
         -5    1    3    3    0  502 -0.50073249962E+02 -0.29843053664E+02  0.13806145273E+03  0.14992123046E+03  0.41800000000E+01 0.  1.
        -11    1    1    2    0    0 -0.13585763674E+02 -0.24138220539E+02  0.56944385442E+01  0.28278141660E+02  0.00000000000E+00 0. -1.
         11    1    1    2    0    0  0.47179557131E+02 -0.23596560774E+02  0.12606779985E+03  0.13665942504E+03  0.00000000000E+00 0.  1.
</event>
<event>
 7    1  0.3265282E-009  0.1039902E+03  0.7561462E-02  0.1272122E+00
          1   -1    0    0  501    0  0.00000000000E+00  0.00000000000E+00  0.32190558638E+02  0.32190558638E+02  0.00000000000E+00 0. -1.
         -1   -1    0    0    0  501 -0.00000000000E+00 -0.00000000000E+00 -0.49897314421E+03  0.49897314421E+03  0.00000000000E+00 0.  1.
         25    2    1    2    0    0 -0.11266010875E+02 -0.26930790652E+02 -0.37946113567E+03  0.40061179743E+03  0.12508744248E+03 0.  0.
          5    1    3    3  502    0  0.22644445315E+02 -0.69821956492E+02 -0.22477095358E+03  0.23648959910E+03  0.41800000000E+01 0.  1.
         -5    1    3    3    0  502 -0.33910456190E+02  0.42891165840E+02 -0.15469018209E+03  0.16412219832E+03  0.41800000000E+01 0.  1.
        -11    1    1    2    0    0 -0.20086516014E+02  0.40694806417E+02 -0.84847626734E+02  0.96221905808E+02  0.00000000000E+00 0.  1.
         11    1    1    2    0    0  0.31352526889E+02 -0.13764015765E+02 -0.24738231644E+01  0.34329999612E+02  0.00000000000E+00 0. -1.
</event>
<event>
 6    1  0.3265282E-009  0.2540547E+03  0.7561462E-02  0.1110769E+00
          4   -1    0    0  501    0  0.00000000000E+00  0.00000000000E+00  0.26194301977E+03  0.26194301977E+03  0.00000000000E+00 0. -1.
         -4   -1    0    0    0  501 -0.00000000000E+00 -0.00000000000E+00 -0.25447683688E+03  0.25447683688E+03  0.00000000000E+00 0.  1.
          5    1    1    2  502    0  0.10222867537E+02  0.94348429818E+01 -0.76014453869E+01  0.16394439751E+02  0.41800000000E+01 0. -1.
         -5    1    1    2    0  502 -0.21841072416E+03 -0.11388614233E+03  0.40479450984E+02  0.24965847912E+03  0.41800000000E+01 0. -1.
        -11    1    1    2    0    0  0.56725244766E+02 -0.97244148955E+01  0.68771632038E+01  0.57962168805E+02  0.00000000000E+00 0. -1.
         11    1    1    2    0    0  0.15146261186E+03  0.11417571425E+03 -0.32288985912E+02  0.19240476898E+03  0.00000000000E+00 0.  1.
</event>
<event>
 7    1  0.3265282E-009  0.1049049E+03  0.7561462E-02  0.1270307E+00
          2   -1    0    0  501    0  0.00000000000E+00  0.00000000000E+00  0.61843046366E+02  0.61843046366E+02  0.00000000000E+00 0. -1.
         -2   -1    0    0    0  501 -0.00000000000E+00 -0.00000000000E+00 -0.20566930028E+03  0.20566930028E+03  0.00000000000E+00 0.  1.
         25    2    1    2    0    0  0.11359931127E+02  0.31789692957E+02 -0.77134249173E+02  0.15079108249E+03  0.12509446650E+03 0.  0.
          5    1    3    3  502    0 -0.54499960827E+02  0.57619478248E+01 -0.16271954801E+02  0.57320979457E+02  0.41800000000E+01 0.  1.
         -5    1    3    3    0  502  0.65859891954E+02  0.26027745132E+02 -0.60862294372E+02  0.93470103034E+02  0.41800000000E+01 0.  1.
        -11    1    1    2    0    0  0.76352904115E+01 -0.54082745062E+02 -0.13917335658E+02  0.56364290157E+02  0.00000000000E+00 0. -1.
         11    1    1    2    0    0 -0.18995221538E+02  0.22293052104E+02 -0.52774669086E+02  0.60356974001E+02  0.00000000000E+00 0.  1.
</event>
<event>
 7    1  0.3265282E-009  0.1214033E+03  0.7561462E-02  0.1240800E+00
          1   -1    0    0  501    0  0.00000000000E+00  0.00000000000E+00  0.16089070236E+03  0.16089070236E+03  0.00000000000E+00 0. -1.
         -1   -1    0    0    0  501 -0.00000000000E+00 -0.00000000000E+00 -0.95511958943E+02  0.95511958943E+02  0.00000000000E+00 0.  1.
         25    2    1    2    0    0 -0.41515257143E+02 -0.42754735268E+02  0.52818256134E+02  0.14827981161E+03  0.12508257428E+03 0.  0.
          5    1    3    3  502    0 -0.75822822237E+02 -0.62405298755E+02  0.43264544831E+02  0.10739094433E+03  0.41800000000E+01 0.  1.
         -5    1    3    3    0  502  0.34307565095E+02  0.19650563487E+02  0.95537113027E+01  0.40888867284E+02  0.41800000000E+01 0.  1.
        -11    1    1    2    0    0 -0.15572965602E+02 -0.16354426130E+02  0.12775755267E+02  0.25946183425E+02  0.00000000000E+00 0.  1.
         11    1    1    2    0    0  0.57088222745E+02  0.59109161398E+02 -0.21526798681E+00  0.82176666260E+02  0.00000000000E+00 0. -1.
</event>
<event>
 7    1  0.3265282E-009  0.2935175E+03  0.7561462E-02  0.1088527E+00
         -1   -1    0    0    0  501 -0.00000000000E+00  0.00000000000E+00  0.16375914490E+03  0.16375914490E+03  0.00000000000E+00 0.  1.
          1   -1    0    0  501    0  0.00000000000E+00 -0.00000000000E+00 -0.56472311884E+03  0.56472311884E+03  0.00000000000E+00 0. -1.
         25    2    1    2    0    0  0.68886819100E+02  0.27226521067E+03 -0.15328239335E+03  0.34353675036E+03  0.12509303719E+03 0.  0.
          5    1    3    3  502    0  0.11553583910E+02 -0.17457639877E+01 -0.39360788190E+02  0.41270777071E+02  0.41800000000E+01 0.  1.
         -5    1    3    3    0  502  0.57333235190E+02  0.27401097465E+03 -0.11392160516E+03  0.30226597329E+03  0.41800000000E+01 0.  1.
        -11    1    1    2    0    0 -0.81202712822E+02 -0.14025686982E+03 -0.13904828207E+03  0.21354225541E+03  0.00000000000E+00 0. -1.
         11    1    1    2    0    0  0.12315893722E+02 -0.13200834085E+03 -0.10863329852E+03  0.17140325796E+03  0.00000000000E+00 0.  1.
</event>
<event>
 7    1  0.3265282E-009  0.8552848E+02  0.7561462E-02  0.1314056E+00
         -2   -1    0    0    0  501 -0.00000000000E+00  0.00000000000E+00  0.41267399162E+02  0.41267399162E+02  0.00000000000E+00 0.  1.
          2   -1    0    0  501    0  0.00000000000E+00 -0.00000000000E+00 -0.29452840071E+03  0.29452840071E+03  0.00000000000E+00 0. -1.
         25    2    1    2    0    0  0.55766013979E+01  0.53086830201E+01 -0.12986737134E+03  0.18047782743E+03  0.12508969365E+03 0.  0.
          5    1    3    3  502    0  0.20337302450E+02 -0.52001741298E+02 -0.28026007532E+02  0.62615624785E+02  0.41800000000E+01 0. -1.
         -5    1    3    3    0  502 -0.14760701052E+02  0.57310424318E+02 -0.10184136380E+03  0.11786220265E+03  0.41800000000E+01 0. -1.
        -11    1    1    2    0    0  0.33543341568E+01  0.24443025644E+02 -0.12173550852E+03  0.12421049511E+03  0.00000000000E+00 0. -1.
         11    1    1    2    0    0 -0.89309355547E+01 -0.29751708664E+02 -0.16581216873E+01  0.31107477330E+02  0.00000000000E+00 0.  1.
</event>
<event>
 7    1  0.3265282E-009  0.1062782E+03  0.7561462E-02  0.1267622E+00
         -2   -1    0    0    0  501 -0.00000000000E+00  0.00000000000E+00  0.34118562185E+03  0.34118562185E+03  0.00000000000E+00 0.  1.
          2   -1    0    0  501    0  0.00000000000E+00 -0.00000000000E+00 -0.42100442800E+02  0.42100442800E+02  0.00000000000E+00 0. -1.
         25    2    1    2    0    0 -0.11226675774E+02 -0.39640647073E+02  0.21388947296E+03  0.25118396049E+03  0.12508899318E+03 0.  0.
          5    1    3    3  502    0  0.29429955697E+02 -0.65766113488E+02  0.75080391353E+02  0.10414337013E+03  0.41800000000E+01 0. -1.
         -5    1    3    3    0  502 -0.40656631472E+02  0.26125466415E+02  0.13880908161E+03  0.14704059037E+03  0.41800000000E+01 0. -1.
        -11    1    1    2    0    0  0.17837662093E+02 -0.22877853138E+02  0.38042356753E+01  0.29258341755E+02  0.00000000000E+00 0. -1.
         11    1    1    2    0    0 -0.66109863189E+01  0.62518500211E+02  0.81391470408E+02  0.10284376240E+03  0.00000000000E+00 0.  1.
</event>
<event>
 7    1  0.3265282E-009  0.7450677E+02  0.7561462E-02  0.1345405E+00
          1   -1    0    0  501    0  0.00000000000E+00  0.00000000000E+00  0.10313572480E+03  0.10313572480E+03  0.00000000000E+00 0. -1.
         -1   -1    0    0    0  501 -0.00000000000E+00 -0.00000000000E+00 -0.14196815996E+03  0.14196815996E+03  0.00000000000E+00 0.  1.
         25    2    1    2    0    0  0.46613113709E+02  0.38815666045E+00  0.60345848261E+01  0.13362723683E+03  0.12508752605E+03 0.  0.
          5    1    3    3  502    0  0.47355544892E+02  0.40253100546E+02  0.45678705627E+02  0.77245558341E+02  0.41800000000E+01 0. -1.
         -5    1    3    3    0  502 -0.74243118353E+00 -0.39864943886E+02 -0.39644120801E+02  0.56381678488E+02  0.41800000000E+01 0. -1.
        -11    1    1    2    0    0 -0.16859370820E+02 -0.72995567138E+00  0.28042766104E+02  0.32728702242E+02  0.00000000000E+00 0. -1.
         11    1    1    2    0    0 -0.29753742889E+02  0.34179901092E+00 -0.72909786090E+02  0.78747945688E+02  0.00000000000E+00 0.  1.
</event>
<event>
 7    1  0.3265282E-009  0.1017622E+03  0.7561462E-02  0.1276633E+00
         -4   -1    0    0    0  501 -0.00000000000E+00  0.00000000000E+00  0.16462215697E+03  0.16462215697E+03  0.00000000000E+00 0.  1.
          4   -1    0    0  501    0  0.00000000000E+00 -0.00000000000E+00 -0.10084855001E+03  0.10084855001E+03  0.00000000000E+00 0. -1.
         25    2    1    2    0    0 -0.13839573779E+02 -0.47028623224E+02  0.87082080010E+02  0.16009119893E+03  0.12507069246E+03 0.  0.
          5    1    3    3  502    0 -0.61627498512E+02 -0.51093743232E+02  0.76483916701E+02  0.11079612396E+03  0.41800000000E+01 0. -1.
         -5    1    3    3    0  502  0.47787924733E+02  0.40651200074E+01  0.10598163309E+02  0.49295074972E+02  0.41800000000E+01 0. -1.
        -11    1    1    2    0    0  0.22897598694E+02 -0.41286361926E+01 -0.43748087103E+02  0.49550386356E+02  0.00000000000E+00 0. -1.
         11    1    1    2    0    0 -0.90580249158E+01  0.51157259417E+02  0.20439614055E+02  0.55829121694E+02  0.00000000000E+00 0.  1.
</event>
<event>
 7    1  0.3265282E-009  0.6458532E+02  0.7561462E-02  0.1379538E+00
          2   -1    0    0  501    0  0.00000000000E+00  0.00000000000E+00  0.57079958266E+03  0.57079958266E+03  0.00000000000E+00 0. -1.
         -2   -1    0    0    0  501 -0.00000000000E+00 -0.00000000000E+00 -0.22673937236E+02  0.22673937236E+02  0.00000000000E+00 0.  1.
         25    2    1    2    0    0 -0.16813843337E+02 -0.29379975231E+02  0.28659202058E+03  0.31452887627E+03  0.12509012541E+03 0.  0.
          5    1    3    3  502    0 -0.49281197553E+01 -0.27140600804E+02  0.24936365858E+00  0.27900415025E+02  0.41800000000E+01 0. -1.
         -5    1    3    3    0  502 -0.11885723582E+02 -0.22393744274E+01  0.28634265692E+03  0.28662846124E+03  0.41800000000E+01 0. -1.
        -11    1    1    2    0    0  0.46818101813E+01  0.57582901612E+02  0.21897310656E+03  0.22646618136E+03  0.00000000000E+00 0. -1.
         11    1    1    2    0    0  0.12132033156E+02 -0.28202926381E+02  0.42560518290E+02  0.52478462268E+02  0.00000000000E+00 0.  1.
</event>
<event>
 7    1  0.3265282E-009  0.9956906E+02  0.7561462E-02  0.1281205E+00
         -2   -1    0    0    0  501 -0.00000000000E+00  0.00000000000E+00  0.81403497963E+02  0.81403497963E+02  0.00000000000E+00 0.  1.
          2   -1    0    0  501    0  0.00000000000E+00 -0.00000000000E+00 -0.15246720772E+03  0.15246720772E+03  0.00000000000E+00 0. -1.
         25    2    1    2    0    0  0.13851915827E+02 -0.18570506271E+01 -0.24223514916E+02  0.12818014761E+03  0.12509215546E+03 0.  0.
          5    1    3    3  502    0 -0.40109781644E+02  0.30355500132E+02  0.16586713256E+02  0.53130428461E+02  0.41800000000E+01 0. -1.
         -5    1    3    3    0  502  0.53961697471E+02 -0.32212550759E+02 -0.40810228172E+02  0.75049719145E+02  0.41800000000E+01 0. -1.
        -11    1    1    2    0    0 -0.41228560144E+02 -0.24265249545E+02 -0.32240069051E+01  0.47947791686E+02  0.00000000000E+00 0.  1.
         11    1    1    2    0    0  0.27376644317E+02  0.26122300172E+02 -0.43616187931E+02  0.57742766386E+02  0.00000000000E+00 0. -1.
</event>
<event>
 7    1  0.3265282E-009  0.1288567E+03  0.7561462E-02  0.1229162E+00
         -1   -1    0    0    0  501 -0.00000000000E+00  0.00000000000E+00  0.20220922211E+02  0.20220922211E+02  0.00000000000E+00 0.  1.
          1   -1    0    0  501    0  0.00000000000E+00 -0.00000000000E+00 -0.10926131767E+04  0.10926131767E+04  0.00000000000E+00 0. -1.
         25    2    1    2    0    0  0.80327963732E+02 -0.57456857848E+02 -0.50317181989E+03  0.52781034853E+03  0.12509201178E+03 0.  0.
          5    1    3    3  502    0  0.24057786719E+02 -0.62126130307E+02 -0.43071016191E+03  0.43585221021E+03  0.41800000000E+01 0.  1.
         -5    1    3    3    0  502  0.56270177012E+02  0.46692724588E+01 -0.72461657975E+02  0.91958138318E+02  0.41800000000E+01 0.  1.
        -11    1    1    2    0    0  0.12756918240E+01  0.52577959666E+02 -0.19412448729E+03  0.20112281273E+03  0.00000000000E+00 0.  1.
         11    1    1    2    0    0 -0.81603655556E+02  0.48788981820E+01 -0.37509594726E+03  0.38390093761E+03  0.00000000000E+00 0. -1.
</event>
<event>
 7    1  0.3265282E-009  0.1499474E+03  0.7561462E-02  0.1200538E+00
          1   -1    0    0  501    0  0.00000000000E+00  0.00000000000E+00  0.21936889482E+03  0.21936889482E+03  0.00000000000E+00 0. -1.
         -1   -1    0    0    0  501 -0.00000000000E+00 -0.00000000000E+00 -0.19412197584E+03  0.19412197584E+03  0.00000000000E+00 0.  1.
         25    2    1    2    0    0  0.98600731455E+02 -0.48746678716E+02 -0.12348062455E+03  0.20734542879E+03  0.12508524802E+03 0.  0.
          5    1    3    3  502    0  0.12418303453E+03 -0.30790500718E+02 -0.12027375646E+03  0.17564945173E+03  0.41800000000E+01 0. -1.
         -5    1    3    3    0  502 -0.25582303076E+02 -0.17956177999E+02 -0.32068680900E+01  0.31695977062E+02  0.41800000000E+01 0. -1.
        -11    1    1    2    0    0 -0.13465487770E+02  0.53415641601E+02  0.40530640143E+02  0.68390663975E+02  0.00000000000E+00 0. -1.
         11    1    1    2    0    0 -0.85135243685E+02 -0.46689628850E+01  0.10819690338E+03  0.13775477790E+03  0.00000000000E+00 0.  1.
</event>
<event>
 7    1  0.3265282E-009  0.4016567E+03  0.7561462E-02  0.1043208E+00
          2   -1    0    0  501    0  0.00000000000E+00  0.00000000000E+00  0.89915834445E+03  0.89915834445E+03  0.00000000000E+00 0. -1.
         -2   -1    0    0    0  501 -0.00000000000E+00 -0.00000000000E+00 -0.21177638861E+03  0.21177638861E+03  0.00000000000E+00 0.  1.
         25    2    1    2    0    0  0.26062710221E+03 -0.29295401681E+03  0.14753587273E+03  0.43722187905E+03  0.12509034897E+03 0.  0.
          5    1    3    3  502    0  0.61046419395E+02 -0.15623136450E+03  0.40254714083E+02  0.17254801935E+03  0.41800000000E+01 0.  1.
         -5    1    3    3    0  502  0.19958068281E+03 -0.13672265230E+03  0.10728115865E+03  0.26467385970E+03  0.41800000000E+01 0.  1.
        -11    1    1    2    0    0 -0.11557161400E+03  0.10496446447E+03  0.28790564419E+03  0.32751182684E+03  0.00000000000E+00 0.  1.
         11    1    1    2    0    0 -0.14505548821E+03  0.18798955233E+03  0.25194043892E+03  0.34620102716E+03  0.00000000000E+00 0. -1.
</event>
<event>
 7    1  0.3265282E-009  0.2193694E+03  0.7561462E-02  0.1134354E+00
          1   -1    0    0  501    0  0.00000000000E+00  0.00000000000E+00  0.23680472640E+03  0.23680472640E+03  0.00000000000E+00 0. -1.
         -1   -1    0    0    0  501 -0.00000000000E+00 -0.00000000000E+00 -0.21106547057E+03  0.21106547057E+03  0.00000000000E+00 0.  1.
         25    2    1    2    0    0 -0.14121795650E+03  0.13364095223E+03  0.67794891249E+01  0.23128878873E+03  0.12508447932E+03 0.  0.
          5    1    3    3  502    0 -0.22323001016E+02  0.10523314035E+03 -0.86669046176E+01  0.10800424917E+03  0.41800000000E+01 0. -1.
         -5    1    3    3    0  502 -0.11889495549E+03  0.28407811881E+02  0.15446393742E+02  0.12328453957E+03  0.41800000000E+01 0. -1.
        -11    1    1    2    0    0  0.93376013460E+02 -0.36069634903E+02  0.36416693989E+02  0.10651889059E+03  0.00000000000E+00 0.  1.
         11    1    1    2    0    0  0.47841943044E+02 -0.97571317327E+02 -0.17456927286E+02  0.11006251764E+03  0.00000000000E+00 0. -1.
</event>
<event>
 7    1  0.3265282E-009  0.9050789E+02  0.7561462E-02  0.1301626E+00
         -1   -1    0    0    0  501 -0.00000000000E+00  0.00000000000E+00  0.44969503012E+02  0.44969503012E+02  0.00000000000E+00 0.  1.
          1   -1    0    0  501    0  0.00000000000E+00 -0.00000000000E+00 -0.36936165048E+03  0.36936165048E+03  0.00000000000E+00 0. -1.
         25    2    1    2    0    0 -0.42903077992E+01 -0.33794208364E+02 -0.27989528893E+03  0.30846335844E+03  0.12509122860E+03 0.  0.
          5    1    3    3  502    0 -0.99683439716E+01  0.43841898018E+02 -0.59545029987E+02  0.74729933089E+02  0.41800000000E+01 0. -1.
         -5    1    3    3    0  502  0.56780361724E+01 -0.77636106381E+02 -0.22035025894E+03  0.23373342535E+03  0.41800000000E+01 0. -1.
        -11    1    1    2    0    0 -0.52110805234E+01 -0.10969547604E+02  0.22010158951E+02  0.25138286177E+02  0.00000000000E+00 0.  1.
         11    1    1    2    0    0  0.95013883226E+01  0.44763755968E+02 -0.66507017491E+02  0.80729508880E+02  0.00000000000E+00 0. -1.
</event>
<event>
 7    1  0.3265282E-009  0.1340476E+03  0.7561462E-02  0.1221571E+00
          2   -1    0    0  501    0  0.00000000000E+00  0.00000000000E+00  0.46356365950E+03  0.46356365950E+03  0.00000000000E+00 0. -1.
         -2   -1    0    0    0  501 -0.00000000000E+00 -0.00000000000E+00 -0.49146940560E+02  0.49146940560E+02  0.00000000000E+00 0.  1.
         25    2    1    2    0    0 -0.10016858626E+03  0.24090516343E+02  0.19468722970E+03  0.25330799513E+03  0.12509086432E+03 0.  0.
          5    1    3    3  502    0 -0.22909941414E+02  0.57406081942E+02  0.13940119108E+03  0.15254667526E+03  0.41800000000E+01 0. -1.
         -5    1    3    3    0  502 -0.77258644846E+02 -0.33315565599E+02  0.55286038619E+02  0.10076131986E+03  0.41800000000E+01 0. -1.
        -11    1    1    2    0    0  0.10038279424E+03 -0.26024396949E+01  0.11579955910E+03  0.15327431604E+03  0.00000000000E+00 0.  1.
         11    1    1    2    0    0 -0.21420797672E+00 -0.21488076648E+02  0.10392993014E+03  0.10612828889E+03  0.00000000000E+00 0. -1.
</event>
<event>
 7    1  0.3265282E-009  0.1315101E+03  0.7561462E-02  0.1225232E+00
         -1   -1    0    0    0  501 -0.00000000000E+00  0.00000000000E+00  0.26020502649E+03  0.26020502649E+03  0.00000000000E+00 0.  1.
          1   -1    0    0  501    0  0.00000000000E+00 -0.00000000000E+00 -0.11369394425E+03  0.11369394425E+03  0.00000000000E+00 0. -1.
         25    2    1    2    0    0  0.25311102686E+02  0.12642671813E+03  0.11605824378E+03  0.21387357590E+03  0.12509206028E+03 0.  0.
          5    1    3    3  502    0  0.18844431295E+02  0.71854233472E+02 -0.11156588771E+02  0.75233538610E+02  0.41800000000E+01 0.  1.
         -5    1    3    3    0  502  0.64666713908E+01  0.54572484654E+02  0.12721483255E+03  0.13864003729E+03  0.41800000000E+01 0.  1.
        -11    1    1    2    0    0  0.68121042999E+01 -0.51972304450E+02  0.54330921007E+02  0.75494199593E+02  0.00000000000E+00 0.  1.
         11    1    1    2    0    0 -0.32123206986E+02 -0.74454413676E+02 -0.23878082544E+02  0.84531195241E+02  0.00000000000E+00 0. -1.
</event>
<event>
 7    1  0.3265282E-009  0.1379291E+03  0.7561462E-02  0.1216143E+00
          2   -1    0    0  501    0  0.00000000000E+00  0.00000000000E+00  0.10697164257E+03  0.10697164257E+03  0.00000000000E+00 0. -1.
         -2   -1    0    0    0  501 -0.00000000000E+00 -0.00000000000E+00 -0.24268592227E+03  0.24268592227E+03  0.00000000000E+00 0.  1.
         25    2    1    2    0    0 -0.10953935273E+03 -0.25438948332E+02 -0.12326524806E+03  0.20853596485E+03  0.12508763874E+03 0.  0.
          5    1    3    3  502    0 -0.53204428840E+02  0.29118528976E+02  0.18405107635E+01  0.60823185200E+02  0.41800000000E+01 0.  1.
         -5    1    3    3    0  502 -0.56334923890E+02 -0.54557477309E+02 -0.12510575883E+03  0.14771277965E+03  0.41800000000E+01 0.  1.
        -11    1    1    2    0    0  0.12059065545E+03  0.15347979219E+02  0.14302585837E+00  0.12156351058E+03  0.00000000000E+00 0. -1.
         11    1    1    2    0    0 -0.11051302721E+02  0.10090969113E+02 -0.12592057501E+02  0.19558089416E+02  0.00000000000E+00 0.  1.
</event>
<event>
 7    1  0.3265282E-009  0.1649195E+03  0.7561462E-02  0.1183252E+00
         -1   -1    0    0    0  501 -0.00000000000E+00  0.00000000000E+00  0.98230957488E+02  0.98230957488E+02  0.00000000000E+00 0.  1.
          1   -1    0    0  501    0  0.00000000000E+00 -0.00000000000E+00 -0.31977225233E+03  0.31977225233E+03  0.00000000000E+00 0. -1.
         25    2    1    2    0    0 -0.12340931213E+03  0.65870555950E+02 -0.11912965637E+03  0.22227635831E+03  0.12508443539E+03 0.  0.
          5    1    3    3  502    0 -0.22219703326E+02 -0.34449514810E+02 -0.47031905447E+02  0.62529647501E+02  0.41800000000E+01 0.  1.
         -5    1    3    3    0  502 -0.10118960880E+03  0.10032007076E+03 -0.72097750921E+02  0.15974671081E+03  0.41800000000E+01 0.  1.
        -11    1    1    2    0    0  0.26623661602E+02  0.37088013037E+01  0.12955914705E+02  0.29840078586E+02  0.00000000000E+00 0.  1.
         11    1    1    2    0    0  0.96785650526E+02 -0.69579357254E+02 -0.11536755318E+03  0.16588677292E+03  0.00000000000E+00 0. -1.
</event>
<event>
 7    1  0.3265282E-009  0.8572537E+02  0.7561462E-02  0.1313546E+00
         -1   -1    0    0    0  501 -0.00000000000E+00  0.00000000000E+00  0.22360213875E+02  0.22360213875E+02  0.00000000000E+00 0.  1.
          1   -1    0    0  501    0  0.00000000000E+00 -0.00000000000E+00 -0.59732453147E+03  0.59732453147E+03  0.00000000000E+00 0. -1.
         25    2    1    2    0    0  0.30517431725E+02  0.56886665031E+01 -0.39821112408E+03  0.41854875792E+03  0.12508912363E+03 0.  0.
          5    1    3    3  502    0 -0.36445780930E+02  0.13325746659E+02 -0.47896548789E+02  0.61785291595E+02  0.41800000000E+01 0. -1.
         -5    1    3    3    0  502  0.66963212656E+02 -0.76370801555E+01 -0.35031457530E+03  0.35676346633E+03  0.41800000000E+01 0. -1.
        -11    1    1    2    0    0  0.85721911222E+01  0.17469507061E+02 -0.86957659548E+00  0.19478765388E+02  0.00000000000E+00 0.  1.
         11    1    1    2    0    0 -0.39089622848E+02 -0.23158173564E+02 -0.17588361691E+03  0.18165722203E+03  0.00000000000E+00 0. -1.
</event>
<event>
 7    1  0.3265282E-009  0.6862399E+02  0.7561462E-02  0.1364836E+00
          2   -1    0    0  501    0  0.00000000000E+00  0.00000000000E+00  0.19347007575E+03  0.19347007575E+03  0.00000000000E+00 0. -1.
         -2   -1    0    0    0  501 -0.00000000000E+00 -0.00000000000E+00 -0.68608021805E+02  0.68608021805E+02  0.00000000000E+00 0.  1.
         25    2    1    2    0    0 -0.59828766928E+01 -0.35661227590E+02  0.86947344692E+02  0.15657131975E+03  0.12508884624E+03 0.  0.
          5    1    3    3  502    0  0.68979729577E+01 -0.59333417292E+02  0.10707185653E+03  0.12267799843E+03  0.41800000000E+01 0. -1.
         -5    1    3    3    0  502 -0.12880849651E+02  0.23672189702E+02 -0.20124511840E+02  0.33893321316E+02  0.41800000000E+01 0. -1.
        -11    1    1    2    0    0  0.20355684588E+02  0.24785841126E+02  0.65283286973E+02  0.72736506469E+02  0.00000000000E+00 0. -1.
         11    1    1    2    0    0 -0.14372807895E+02  0.10875386464E+02 -0.27368577715E+02  0.32770271340E+02  0.00000000000E+00 0.  1.
</event>
<event>
 7    1  0.3265282E-009  0.1496807E+03  0.7561462E-02  0.1200866E+00
         -2   -1    0    0    0  501 -0.00000000000E+00  0.00000000000E+00  0.92531060769E+02  0.92531060769E+02  0.00000000000E+00 0.  1.
          2   -1    0    0  501    0  0.00000000000E+00 -0.00000000000E+00 -0.29904272664E+03  0.29904272664E+03  0.00000000000E+00 0. -1.
         25    2    1    2    0    0 -0.66097027851E+02  0.92074190552E+02 -0.17819856058E+03  0.24545608263E+03  0.12508991906E+03 0.  0.
          5    1    3    3  502    0  0.34411248380E+02  0.22421154019E+02 -0.21196699122E+02  0.46407053519E+02  0.41800000000E+01 0. -1.
         -5    1    3    3    0  502 -0.10050827623E+03  0.69653036533E+02 -0.15700186145E+03  0.19904902911E+03  0.41800000000E+01 0. -1.
        -11    1    1    2    0    0  0.82876940063E+02 -0.74814272031E+02 -0.37316846675E+01  0.11171252376E+03  0.00000000000E+00 0.  1.
         11    1    1    2    0    0 -0.16779912213E+02 -0.17259918521E+02 -0.24581420625E+02  0.34405181022E+02  0.00000000000E+00 0. -1.
</event>
<event>
 7    1  0.4197741E-009  0.1200613E+03  0.7561462E-02  0.1242996E+00
         -2   -1    0    0    0  501 -0.00000000000E+00  0.00000000000E+00  0.12597384592E+03  0.12597384592E+03  0.00000000000E+00 0.  1.
          2   -1    0    0  501    0  0.00000000000E+00 -0.00000000000E+00 -0.16065616669E+03  0.16065616669E+03  0.00000000000E+00 0. -1.
         25    2    1    2    0    0 -0.79339627103E+02 -0.30435857893E+02 -0.53369132781E+02  0.16036452988E+03  0.12508956884E+03 0.  0.
          5    1    3    3  502    0 -0.12732208772E+02 -0.69407309790E+02 -0.42065213185E+02  0.82258363422E+02  0.41800000000E+01 0. -1.
         -5    1    3    3    0  502 -0.66607418332E+02  0.38971451897E+02 -0.11303919596E+02  0.78106166453E+02  0.41800000000E+01 0. -1.
        -11    1    1    2    0    0  0.48677378297E+02 -0.37872503149E+00  0.52200392401E+02  0.71375847157E+02  0.00000000000E+00 0.  1.
         11    1    1    2    0    0  0.30662248806E+02  0.30814582924E+02 -0.33513580388E+02  0.54889635571E+02  0.00000000000E+00 0. -1.
</event>
<event>
 7    1  0.3383671E-009  0.9250497E+02  0.7561462E-02  0.1296896E+00
         -2   -1    0    0    0  501 -0.00000000000E+00  0.00000000000E+00  0.22908533770E+02  0.22908533770E+02  0.00000000000E+00 0.  1.
          2   -1    0    0  501    0  0.00000000000E+00 -0.00000000000E+00 -0.61553247088E+03  0.61553247088E+03  0.00000000000E+00 0. -1.
         25    2    1    2    0    0 -0.29851670235E+02 -0.34274165137E+02 -0.29181937638E+03  0.32073699727E+03  0.12509129618E+03 0.  0.
          5    1    3    3  502    0  0.18216561867E+02 -0.52870588794E+02 -0.55761712886E+02  0.79082130153E+02  0.41800000000E+01 0. -1.
         -5    1    3    3    0  502 -0.48068232102E+02  0.18596423656E+02 -0.23605766349E+03  0.24165486712E+03  0.41800000000E+01 0. -1.
        -11    1    1    2    0    0  0.48674584196E+02  0.16665872430E+02 -0.27969589882E+03  0.28438840037E+03  0.00000000000E+00 0. -1.
         11    1    1    2    0    0 -0.18822913961E+02  0.17608292708E+02 -0.21108661910E+02  0.33315606998E+02  0.00000000000E+00 0.  1.
</event>
<event>
 7    1  0.3265282E-009  0.2119934E+03  0.7561462E-02  0.1139997E+00
         -2   -1    0    0    0  501 -0.00000000000E+00  0.00000000000E+00  0.78665590901E+02  0.78665590901E+02  0.00000000000E+00 0.  1.
          2   -1    0    0  501    0  0.00000000000E+00 -0.00000000000E+00 -0.88838015804E+03  0.88838015804E+03  0.00000000000E+00 0. -1.
         25    2    1    2    0    0  0.16908113281E+03  0.75601387542E+02 -0.13513001877E+03  0.26117383437E+03  0.12509056926E+03 0.  0.
          5    1    3    3  502    0 -0.16239318974E+02  0.26552793246E+02 -0.24236846085E+02  0.39669426742E+02  0.41800000000E+01 0. -1.
         -5    1    3    3    0  502  0.18532045178E+03  0.49048594297E+02 -0.11089317269E+03  0.22150440763E+03  0.41800000000E+01 0. -1.
        -11    1    1    2    0    0 -0.40304285030E+02 -0.58337723777E+02 -0.15770188804E+03  0.17290925625E+03  0.00000000000E+00 0.  1.
         11    1    1    2    0    0 -0.12877684778E+03 -0.17263663765E+02 -0.51688266033E+03  0.53296265831E+03  0.00000000000E+00 0. -1.
</event>
<event>
 7    1  0.3265282E-009  0.1051333E+03  0.7561462E-02  0.1269857E+00
         -2   -1    0    0    0  501 -0.00000000000E+00  0.00000000000E+00  0.91282266929E+03  0.91282266929E+03  0.00000000000E+00 0.  1.
          2   -1    0    0  501    0  0.00000000000E+00 -0.00000000000E+00 -0.13433822630E+02  0.13433822630E+02  0.00000000000E+00 0. -1.
         25    2    1    2    0    0 -0.13574566707E+02 -0.84923187121E+01  0.42255356576E+03  0.44097077223E+03  0.12508923887E+03 0.  0.
          5    1    3    3  502    0 -0.58044928015E+02  0.25930681463E+02  0.15582911766E+03  0.16835023083E+03  0.41800000000E+01 0.  1.
         -5    1    3    3    0  502  0.44470361308E+02 -0.34423000175E+02  0.26672444810E+03  0.27262054140E+03  0.41800000000E+01 0.  1.
        -11    1    1    2    0    0  0.19916169625E+02  0.47048217207E+02  0.27258358907E+03  0.27733013105E+03  0.00000000000E+00 0.  1.
         11    1    1    2    0    0 -0.63416029181E+01 -0.38555898495E+02  0.20425169183E+03  0.20795558865E+03  0.00000000000E+00 0. -1.
</event>
<event>
 7    1  0.3265282E-009  0.1064576E+03  0.7561462E-02  0.1267274E+00
          1   -1    0    0  501    0  0.00000000000E+00  0.00000000000E+00  0.15677606087E+03  0.15677606087E+03  0.00000000000E+00 0. -1.
         -1   -1    0    0    0  501 -0.00000000000E+00 -0.00000000000E+00 -0.84771437202E+02  0.84771437202E+02  0.00000000000E+00 0.  1.
         25    2    1    2    0    0 -0.25327295876E+02 -0.37713512227E+01  0.72735422924E+02  0.14696937356E+03  0.12511538678E+03 0.  0.
          5    1    3    3  502    0 -0.74361842230E+02  0.11521464700E+02  0.51229229144E+02  0.91128118862E+02  0.41800000000E+01 0.  1.
         -5    1    3    3    0  502  0.49034546354E+02 -0.15292815922E+02  0.21506193780E+02  0.55841254695E+02  0.41800000000E+01 0.  1.
        -11    1    1    2    0    0  0.53109084529E+02  0.16280263637E+02 -0.19407769255E+02  0.58841170545E+02  0.00000000000E+00 0. -1.
         11    1    1    2    0    0 -0.27781788653E+02 -0.12508912415E+02  0.18676969995E+02  0.35736953966E+02  0.00000000000E+00 0.  1.
</event>
<event>
 7    1  0.3265282E-009  0.1403945E+03  0.7561462E-02  0.1212799E+00
          2   -1    0    0  501    0  0.00000000000E+00  0.00000000000E+00  0.37711297614E+03  0.37711297614E+03  0.00000000000E+00 0.  1.
         -2   -1    0    0    0  501 -0.00000000000E+00 -0.00000000000E+00 -0.85050267013E+02  0.85050267013E+02  0.00000000000E+00 0. -1.
         25    2    1    2    0    0  0.10429503820E+03 -0.20748818470E+02  0.27638146916E+03  0.32146825877E+03  0.12508859435E+03 0.  0.
          5    1    3    3  502    0  0.79471608285E+02 -0.64584816714E+02  0.12373574735E+03  0.16067029173E+03  0.41800000000E+01 0. -1.
         -5    1    3    3    0  502  0.24823429920E+02  0.43835998244E+02  0.15264572181E+03  0.16079796704E+03  0.41800000000E+01 0. -1.
        -11    1    1    2    0    0  0.18219622470E+01  0.21551400310E+02  0.26293083471E+02  0.34045684604E+02  0.00000000000E+00 0.  1.
         11    1    1    2    0    0 -0.10611700045E+03 -0.80258184056E+00 -0.10611843499E+02  0.10664929979E+03  0.00000000000E+00 0. -1.
</event>
<event>
 7    1  0.3265282E-009  0.9999483E+02  0.7561462E-02  0.1280307E+00
         -2   -1    0    0    0  501 -0.00000000000E+00  0.00000000000E+00  0.24024803216E+03  0.24024803216E+03  0.00000000000E+00 0. -1.
          2   -1    0    0  501    0  0.00000000000E+00 -0.00000000000E+00 -0.66024094830E+02  0.66024094830E+02  0.00000000000E+00 0.  1.
         25    2    1    2    0    0  0.23508571113E+02 -0.17497801164E+02  0.27065356513E+02  0.13129438002E+03  0.12508738841E+03 0.  0.
          5    1    3    3  502    0  0.24264971920E+02 -0.70809984476E+02  0.14531049304E+02  0.76364039689E+02  0.41800000000E+01 0.  1.
         -5    1    3    3    0  502 -0.75640080647E+00  0.53312183312E+02  0.12534307209E+02  0.54930340331E+02  0.41800000000E+01 0.  1.
        -11    1    1    2    0    0  0.43177376775E+01  0.37196726790E+02  0.18287903724E+02  0.41673573943E+02  0.00000000000E+00 0.  1.
         11    1    1    2    0    0 -0.27826308791E+02 -0.19698925626E+02  0.12887067709E+03  0.13330417302E+03  0.00000000000E+00 0. -1.
</event>
<event>
 7    1  0.3265282E-009  0.7286958E+02  0.7561462E-02  0.1350598E+00
         -2   -1    0    0    0  501 -0.00000000000E+00  0.00000000000E+00  0.21558238086E+03  0.21558238086E+03  0.00000000000E+00 0.  1.
          2   -1    0    0  501    0  0.00000000000E+00 -0.00000000000E+00 -0.73589323902E+02  0.73589323902E+02  0.00000000000E+00 0. -1.
         25    2    1    2    0    0 -0.10343922687E+02  0.69782164383E+02  0.86627258444E+02  0.16771818195E+03  0.12509420229E+03 0.  0.
          5    1    3    3  502    0 -0.13673130816E+02  0.20991203441E+02 -0.31109331536E+02  0.40160279342E+02  0.41800000000E+01 0. -1.
         -5    1    3    3    0  502  0.33292081292E+01  0.48790960942E+02  0.11773658998E+03  0.12755790260E+03  0.41800000000E+01 0. -1.
        -11    1    1    2    0    0  0.49384905130E+01 -0.92530154187E+01 -0.21229518481E+02  0.23679092842E+02  0.00000000000E+00 0. -1.
         11    1    1    2    0    0  0.54054321739E+01 -0.60529148965E+02  0.76595316994E+02  0.97774429974E+02  0.00000000000E+00 0.  1.
</event>
<event>
 7    1  0.3265282E-009  0.1079484E+03  0.7561462E-02  0.1264417E+00
         -1   -1    0    0    0  501 -0.00000000000E+00  0.00000000000E+00  0.40472958274E+02  0.40472958274E+02  0.00000000000E+00 0.  1.
          1   -1    0    0  501    0  0.00000000000E+00 -0.00000000000E+00 -0.35310451591E+03  0.35310451591E+03  0.00000000000E+00 0. -1.
         25    2    1    2    0    0  0.24870939953E+02 -0.11017090354E+01 -0.10345678342E+03  0.16422739705E+03  0.12509018543E+03 0.  0.
          5    1    3    3  502    0  0.11103690973E+01 -0.59485602262E+02 -0.72493353848E+02  0.93875068831E+02  0.41800000000E+01 0.  1.
         -5    1    3    3    0  502  0.23760570855E+02  0.58383893226E+02 -0.30963429572E+02  0.70352328224E+02  0.41800000000E+01 0.  1.
        -11    1    1    2    0    0 -0.58968439300E+02  0.13402583347E+01 -0.11606021120E+03  0.13018850084E+03  0.00000000000E+00 0.  1.
         11    1    1    2    0    0  0.34097499347E+02 -0.23854929929E+00 -0.93114563017E+02  0.99161576295E+02  0.00000000000E+00 0. -1.
</event>
<event>
 7    1  0.3265282E-009  0.1124905E+03  0.7561462E-02  0.1256026E+00
         -1   -1    0    0    0  501 -0.00000000000E+00  0.00000000000E+00  0.14950356689E+03  0.14950356689E+03  0.00000000000E+00 0.  1.
          1   -1    0    0  501    0  0.00000000000E+00 -0.00000000000E+00 -0.12423376043E+03  0.12423376043E+03  0.00000000000E+00 0. -1.
         25    2    1    2    0    0 -0.12866162715E+02 -0.77042984148E+02  0.43847375120E+02  0.15385519557E+03  0.12509064453E+03 0.  0.
          5    1    3    3  502    0 -0.44565020161E+02  0.14211829206E+02  0.31094851580E+02  0.56323878649E+02  0.41800000000E+01 0.  1.
         -5    1    3    3    0  502  0.31698857446E+02 -0.91254813354E+02  0.12752523540E+02  0.97531316921E+02  0.41800000000E+01 0.  1.
        -11    1    1    2    0    0 -0.65634351601E+01  0.21620345477E+02  0.34155140905E+02  0.40952309701E+02  0.00000000000E+00 0.  1.
         11    1    1    2    0    0  0.19429597875E+02  0.55422638672E+02 -0.52732709563E+02  0.78929822050E+02  0.00000000000E+00 0. -1.
</event>
<event>
 7    1  0.3265282E-009  0.1328837E+03  0.7561462E-02  0.1223239E+00
          2   -1    0    0  501    0  0.00000000000E+00  0.00000000000E+00  0.44261068682E+03  0.44261068682E+03  0.00000000000E+00 0.  1.
         -2   -1    0    0    0  501 -0.00000000000E+00 -0.00000000000E+00 -0.56124090018E+02  0.56124090018E+02  0.00000000000E+00 0. -1.
         25    2    1    2    0    0 -0.57155674204E+02  0.76861609621E+02  0.30796478248E+03  0.34592604942E+03  0.12509215120E+03 0.  0.
          5    1    3    3  502    0  0.49915000361E+01 -0.22127146864E+02  0.87551971244E+01  0.24670864955E+02  0.41800000000E+01 0. -1.
         -5    1    3    3    0  502 -0.62147174240E+02  0.98988756484E+02  0.29920958536E+03  0.32125518446E+03  0.41800000000E+01 0. -1.
        -11    1    1    2    0    0  0.78256624731E+02 -0.57508421030E+02  0.40523154274E+02  0.10523043208E+03  0.00000000000E+00 0. -1.
         11    1    1    2    0    0 -0.21100950528E+02 -0.19353188591E+02  0.37998660049E+02  0.47578295339E+02  0.00000000000E+00 0.  1.
</event>
<event>
 7    1  0.3265282E-009  0.1572721E+03  0.7561462E-02  0.1191811E+00
          4   -1    0    0  501    0  0.00000000000E+00  0.00000000000E+00  0.22326035043E+03  0.22326035043E+03  0.00000000000E+00 0. -1.
         -4   -1    0    0    0  501 -0.00000000000E+00 -0.00000000000E+00 -0.12915221590E+03  0.12915221590E+03  0.00000000000E+00 0.  1.
         25    2    1    2    0    0 -0.12056405261E+03  0.70440824305E+02  0.65295696920E+02  0.19851520691E+03  0.12508860391E+03 0.  0.
          5    1    3    3  502    0 -0.29009099787E+02 -0.23182513039E+02  0.55798426471E+02  0.67155741213E+02  0.41800000000E+01 0. -1.
         -5    1    3    3    0  502 -0.91554952818E+02  0.93623337344E+02  0.94972704498E+01  0.13135946569E+03  0.41800000000E+01 0. -1.
        -11    1    1    2    0    0  0.43605640284E+02 -0.50378694776E+02 -0.63687335293E+01  0.66932992751E+02  0.00000000000E+00 0.  1.
         11    1    1    2    0    0  0.76958412321E+02 -0.20062129529E+02  0.35181171138E+02  0.86964366673E+02  0.00000000000E+00 0. -1.
</event>
<event>
 7    1  0.4480421E-009  0.1084081E+03  0.7561462E-02  0.1263547E+00
          1   -1    0    0  501    0  0.00000000000E+00  0.00000000000E+00  0.62638870386E+03  0.62638870386E+03  0.00000000000E+00 0. -1.
         -1   -1    0    0    0  501 -0.00000000000E+00 -0.00000000000E+00 -0.24840323690E+02  0.24840323690E+02  0.00000000000E+00 0.  1.
         25    2    1    2    0    0  0.14475919837E+02  0.59708602206E+02  0.34604327746E+03  0.37305277251E+03  0.12509097396E+03 0.  0.
          5    1    3    3  502    0  0.58114421744E+02  0.72829673994E+02  0.24404114344E+03  0.26125657795E+03  0.41800000000E+01 0.  1.
         -5    1    3    3    0  502 -0.43638501908E+02 -0.13121071787E+02  0.10200213402E+03  0.11179619456E+03  0.41800000000E+01 0.  1.
        -11    1    1    2    0    0  0.17482858762E+01 -0.61446496342E+02  0.25451066003E+03  0.26182896036E+03  0.00000000000E+00 0. -1.
         11    1    1    2    0    0 -0.16224205713E+02  0.17378941354E+01  0.99444267716E+00  0.16347294678E+02  0.00000000000E+00 0.  1.
</event>
<event>
 7    1  0.3265282E-009  0.1164778E+03  0.7561462E-02  0.1249023E+00
          1   -1    0    0  501    0  0.00000000000E+00  0.00000000000E+00  0.41841561977E+03  0.41841561977E+03  0.00000000000E+00 0. -1.
         -1   -1    0    0    0  501 -0.00000000000E+00 -0.00000000000E+00 -0.39372133470E+02  0.39372133470E+02  0.00000000000E+00 0.  1.
         25    2    1    2    0    0  0.27162704259E+02  0.61846639759E+02  0.24297571408E+03  0.28150875414E+03  0.12508861529E+03 0.  0.
          5    1    3    3  502    0 -0.48104324151E+02  0.42525321019E+02  0.11002712723E+03  0.12745928784E+03  0.41800000000E+01 0. -1.
         -5    1    3    3    0  502  0.75267028410E+02  0.19321318740E+02  0.13294858685E+03  0.15404946630E+03  0.41800000000E+01 0. -1.
        -11    1    1    2    0    0 -0.40217472747E+02 -0.16269263601E+02  0.14417168965E+02  0.45716395453E+02  0.00000000000E+00 0.  1.
         11    1    1    2    0    0  0.13054768488E+02 -0.45577376158E+02  0.12165060326E+03  0.13056260365E+03  0.00000000000E+00 0. -1.
</event>
<event>
 7    1  0.3265282E-009  0.1908040E+03  0.7561462E-02  0.1157738E+00
          2   -1    0    0  501    0  0.00000000000E+00  0.00000000000E+00  0.12849368112E+04  0.12849368112E+04  0.00000000000E+00 0. -1.
         -2   -1    0    0    0  501 -0.00000000000E+00 -0.00000000000E+00 -0.36141121537E+02  0.36141121537E+02  0.00000000000E+00 0.  1.
         25    2    1    2    0    0  0.14023925330E+03  0.12203311717E+03  0.65297341124E+03  0.69034870088E+03  0.12509165908E+03 0.  0.
          5    1    3    3  502    0  0.13760451122E+03  0.95235804982E+02  0.37047470146E+03  0.40653885039E+03  0.41800000000E+01 0.  1.
         -5    1    3    3    0  502  0.26347420788E+01  0.26797312186E+02  0.28249870978E+03  0.28380985049E+03  0.41800000000E+01 0.  1.
        -11    1    1    2    0    0 -0.24314124011E+02 -0.31946191170E+02  0.43357578315E+02  0.59089892148E+02  0.00000000000E+00 0.  1.
         11    1    1    2    0    0 -0.11592512929E+03 -0.90086925998E+02  0.55246470012E+03  0.57163933971E+03  0.00000000000E+00 0. -1.
</event>
<event>
 7    1  0.3265282E-009  0.3673644E+03  0.7561462E-02  0.1055705E+00
          1   -1    0    0  501    0  0.00000000000E+00  0.00000000000E+00  0.41362308029E+03  0.41362308029E+03  0.00000000000E+00 0. -1.
         -1   -1    0    0    0  501 -0.00000000000E+00 -0.00000000000E+00 -0.33630314005E+03  0.33630314005E+03  0.00000000000E+00 0.  1.
         25    2    1    2    0    0  0.35641850806E+03  0.52211762212E+01  0.29603572157E+02  0.37892584072E+03  0.12508799987E+03 0.  0.
          5    1    3    3  502    0  0.41445500381E+02 -0.35458485559E+02  0.27669389995E+02  0.61303354252E+02  0.41800000000E+01 0. -1.
         -5    1    3    3    0  502  0.31497300768E+03  0.40679661780E+02  0.19341821620E+01  0.31762248647E+03  0.41800000000E+01 0. -1.
        -11    1    1    2    0    0 -0.23401476431E+03 -0.34519529746E+02  0.42445674195E+00  0.23654743290E+03  0.00000000000E+00 0. -1.
         11    1    1    2    0    0 -0.12240374375E+03  0.29298353525E+02  0.47291911345E+02  0.13445294672E+03  0.00000000000E+00 0.  1.
</event>
<event>
 7    1  0.3265282E-009  0.1098083E+03  0.7561462E-02  0.1260925E+00
          2   -1    0    0  501    0  0.00000000000E+00  0.00000000000E+00  0.62834168909E+03  0.62834168909E+03  0.00000000000E+00 0. -1.
         -2   -1    0    0    0  501 -0.00000000000E+00 -0.00000000000E+00 -0.20028766451E+02  0.20028766451E+02  0.00000000000E+00 0.  1.
         25    2    1    2    0    0 -0.27638748782E+02 -0.10367650354E+02  0.35809700351E+03  0.38046230451E+03  0.12508682032E+03 0.  0.
          5    1    3    3  502    0  0.32123383304E+02  0.38999015382E+02  0.13129714525E+03  0.14074532925E+03  0.41800000000E+01 0. -1.
         -5    1    3    3    0  502 -0.59762132087E+02 -0.49366665736E+02  0.22679985826E+03  0.23971697525E+03  0.41800000000E+01 0. -1.
        -11    1    1    2    0    0  0.52596733895E+02  0.29076764672E+02  0.19961489377E+03  0.20846577770E+03  0.00000000000E+00 0.  1.
         11    1    1    2    0    0 -0.24957985112E+02 -0.18709114319E+02  0.50601025359E+02  0.59442373328E+02  0.00000000000E+00 0. -1.
</event>
<event>
 7    1  0.3265282E-009  0.1319125E+03  0.7561462E-02  0.1224645E+00
          1   -1    0    0  501    0  0.00000000000E+00  0.00000000000E+00  0.14122729832E+03  0.14122729832E+03  0.00000000000E+00 0. -1.
         -1   -1    0    0    0  501 -0.00000000000E+00 -0.00000000000E+00 -0.15159298203E+03  0.15159298203E+03  0.00000000000E+00 0.  1.
         25    2    1    2    0    0  0.83138784168E+02  0.57290777698E+02 -0.17230225928E+02  0.16167230902E+03  0.12508702642E+03 0.  0.
          5    1    3    3  502    0  0.10416564685E+03  0.58533133390E+01 -0.17928378433E+02  0.10594169346E+03  0.41800000000E+01 0. -1.
         -5    1    3    3    0  502 -0.21026862682E+02  0.51437464359E+02  0.69815250536E+00  0.55730615561E+02  0.41800000000E+01 0. -1.
        -11    1    1    2    0    0 -0.57044221808E+02 -0.25303888100E+02 -0.35666272218E+02  0.71877764076E+02  0.00000000000E+00 0.  1.
         11    1    1    2    0    0 -0.26094562360E+02 -0.31986889598E+02  0.42530814431E+02  0.59270207247E+02  0.00000000000E+00 0. -1.
</event>
<event>
 7    1  0.3265282E-009  0.1033042E+03  0.7561462E-02  0.1273497E+00
         -1   -1    0    0    0  501 -0.00000000000E+00  0.00000000000E+00  0.97965260536E+02  0.97965260536E+02  0.00000000000E+00 0.  1.
          1   -1    0    0  501    0  0.00000000000E+00 -0.00000000000E+00 -0.12030087790E+03  0.12030087790E+03  0.00000000000E+00 0. -1.
         25    2    1    2    0    0  0.10146526797E+02 -0.53847968193E+01 -0.11920328682E+02  0.12618235591E+03  0.12509174499E+03 0.  0.
          5    1    3    3  502    0 -0.93595896033E+01 -0.61693606137E+02 -0.20538974398E+02  0.65825715530E+02  0.41800000000E+01 0. -1.
         -5    1    3    3    0  502  0.19506116401E+02  0.56308809318E+02  0.86186457157E+01  0.60356640379E+02  0.41800000000E+01 0. -1.
        -11    1    1    2    0    0 -0.42298322818E+02  0.22496936919E+02  0.11905939138E+02  0.49366098394E+02  0.00000000000E+00 0. -1.
         11    1    1    2    0    0  0.32151796020E+02 -0.17112140100E+02 -0.22321227816E+02  0.42717684129E+02  0.00000000000E+00 0.  1.
</event>
<event>
 7    1  0.3265282E-009  0.9339810E+02  0.7561462E-02  0.1294825E+00
         -4   -1    0    0    0  501 -0.00000000000E+00  0.00000000000E+00  0.98958714058E+02  0.98958714058E+02  0.00000000000E+00 0.  1.
          4   -1    0    0  501    0  0.00000000000E+00 -0.00000000000E+00 -0.16446756588E+03  0.16446756588E+03  0.00000000000E+00 0. -1.
         25    2    1    2    0    0  0.18399629787E+02 -0.28049829750E+02 -0.95491716009E+02  0.16090640602E+03  0.12508742681E+03 0.  0.
          5    1    3    3  502    0  0.49598219057E+02 -0.28438520061E+02  0.31017838650E+01  0.57409286880E+02  0.41800000000E+01 0. -1.
         -5    1    3    3    0  502 -0.31198589270E+02  0.38869031041E+00 -0.98593499874E+02  0.10349711914E+03  0.41800000000E+01 0. -1.
        -11    1    1    2    0    0  0.32380849241E+02  0.33893671107E+02  0.15920559366E+02  0.49505197194E+02  0.00000000000E+00 0. -1.
         11    1    1    2    0    0 -0.50780479028E+02 -0.58438413569E+01  0.14062304817E+02  0.53014676731E+02  0.00000000000E+00 0.  1.
</event>
<event>
 7    1  0.3265282E-009  0.1107205E+03  0.7561462E-02  0.1259241E+00
          1   -1    0    0  501    0  0.00000000000E+00  0.00000000000E+00  0.15162833771E+03  0.15162833771E+03  0.00000000000E+00 0. -1.
         -1   -1    0    0    0  501 -0.00000000000E+00 -0.00000000000E+00 -0.11040533430E+03  0.11040533430E+03  0.00000000000E+00 0.  1.
         25    2    1    2    0    0 -0.51608804628E+02 -0.26485906615E+02  0.62620102109E+02  0.15143742007E+03  0.12508814111E+03 0.  0.
          5    1    3    3  502    0  0.63142859957E+01 -0.51716657613E+02  0.70358377224E+02  0.87648482747E+02  0.41800000000E+01 0.  1.
         -5    1    3    3    0  502 -0.57923090624E+02  0.25230750998E+02 -0.77382751149E+01  0.63788937325E+02  0.41800000000E+01 0.  1.
        -11    1    1    2    0    0  0.34102838171E+02  0.59446588157E+02 -0.25337493582E+02  0.73067701454E+02  0.00000000000E+00 0.  1.
         11    1    1    2    0    0  0.17505966457E+02 -0.32960681542E+02  0.39403948888E+01  0.37528550481E+02  0.00000000000E+00 0. -1.
</event>
<event>
 7    1  0.3265282E-009  0.1081661E+03  0.7561462E-02  0.1264004E+00
         -2   -1    0    0    0  501 -0.00000000000E+00  0.00000000000E+00  0.13919382089E+02  0.13919382089E+02  0.00000000000E+00 0. -1.
          2   -1    0    0  501    0  0.00000000000E+00 -0.00000000000E+00 -0.88698566286E+03  0.88698566286E+03  0.00000000000E+00 0.  1.
         25    2    1    2    0    0 -0.11006190410E+02  0.22000128474E+02 -0.49633577704E+03  0.51244679517E+03  0.12508945769E+03 0.  0.
          5    1    3    3  502    0 -0.67397985746E+02  0.55879843546E+01 -0.29474992536E+03  0.30243793570E+03  0.41800000000E+01 0. -1.
         -5    1    3    3    0  502  0.56391795336E+02  0.16412144120E+02 -0.20158585168E+03  0.21000885947E+03  0.41800000000E+01 0. -1.
        -11    1    1    2    0    0 -0.33438315870E+02 -0.29535959802E+02 -0.24998270321E+03  0.25393275841E+03  0.00000000000E+00 0.  1.
         11    1    1    2    0    0  0.44444506279E+02  0.75358313275E+01 -0.12674780052E+03  0.13452549137E+03  0.00000000000E+00 0. -1.
</event>
<event>
 6    1  0.5637582E-009  0.1566929E+03  0.7561462E-02  0.1192482E+00
          2   -1    0    0  501    0  0.00000000000E+00  0.00000000000E+00  0.50209829546E+03  0.50209829546E+03  0.00000000000E+00 0. -1.
         -2   -1    0    0    0  501 -0.00000000000E+00 -0.00000000000E+00 -0.70960389122E+02  0.70960389122E+02  0.00000000000E+00 0.  1.
          5    1    1    2  502    0 -0.39290177646E+02 -0.42548735345E+02  0.18604158622E+03  0.19489242454E+03  0.41800000000E+01 0. -1.
         -5    1    1    2    0  502 -0.46294754733E+02 -0.85585132051E+02  0.38439745214E+02  0.10470484973E+03  0.41800000000E+01 0. -1.
        -11    1    1    2    0    0  0.69624883577E+02  0.74505426981E+02  0.64426299082E+02  0.12062102253E+03  0.00000000000E+00 0.  1.
         11    1    1    2    0    0  0.15960048801E+02  0.53628440415E+02  0.14223027582E+03  0.15284038779E+03  0.00000000000E+00 0. -1.
</event>
<event>
 7    1  0.3265282E-009  0.1279552E+03  0.7561462E-02  0.1230522E+00
         -1   -1    0    0    0  501 -0.00000000000E+00  0.00000000000E+00  0.47676532887E+02  0.47676532887E+02  0.00000000000E+00 0.  1.
          1   -1    0    0  501    0  0.00000000000E+00 -0.00000000000E+00 -0.41164076571E+03  0.41164076571E+03  0.00000000000E+00 0. -1.
         25    2    1    2    0    0 -0.28622413228E+02 -0.67796809406E+02 -0.27748444605E+03  0.31314707574E+03  0.12509126005E+03 0.  0.
          5    1    3    3  502    0 -0.51761252874E+02 -0.91181897050E+02 -0.16216117734E+03  0.19315042191E+03  0.41800000000E+01 0. -1.
         -5    1    3    3    0  502  0.23138839646E+02  0.23385087644E+02 -0.11532326871E+03  0.11999665383E+03  0.41800000000E+01 0. -1.
        -11    1    1    2    0    0  0.58796353919E+02  0.21601859413E+02 -0.44400970025E+02  0.76779539615E+02  0.00000000000E+00 0. -1.
         11    1    1    2    0    0 -0.30173940690E+02  0.46194949993E+02 -0.42078816744E+02  0.69390683238E+02  0.00000000000E+00 0.  1.
</event>
<event>
 7    1  0.3265282E-009  0.9420091E+02  0.7561462E-02  0.1292986E+00
          1   -1    0    0  501    0  0.00000000000E+00  0.00000000000E+00  0.12230218449E+03  0.12230218449E+03  0.00000000000E+00 0. -1.
         -1   -1    0    0    0  501 -0.00000000000E+00 -0.00000000000E+00 -0.96339151736E+02  0.96339151736E+02  0.00000000000E+00 0.  1.
         25    2    1    2    0    0 -0.13812521920E+02 -0.14623432263E+02  0.15021905079E+02  0.12758841259E+03  0.12509402409E+03 0.  0.
          5    1    3    3  502    0 -0.24912055590E+02 -0.66792030711E+02  0.19141830821E+02  0.73930156008E+02  0.41800000000E+01 0.  1.
         -5    1    3    3    0  502  0.11099533670E+02  0.52168598448E+02 -0.41199257419E+01  0.53658256586E+02  0.41800000000E+01 0.  1.
        -11    1    1    2    0    0  0.31583322432E+02 -0.99981068182E+01 -0.26801415640E+02  0.42612020324E+02  0.00000000000E+00 0.  1.
         11    1    1    2    0    0 -0.17770800511E+02  0.24621539081E+02  0.37742543319E+02  0.48440903312E+02  0.00000000000E+00 0. -1.
</event>
<event>
 7    1  0.3265282E-009  0.8540281E+02  0.7561462E-02  0.1314383E+00
         -1   -1    0    0    0  501 -0.00000000000E+00  0.00000000000E+00  0.78143974573E+02  0.78143974573E+02  0.00000000000E+00 0.  1.
          1   -1    0    0  501    0  0.00000000000E+00 -0.00000000000E+00 -0.22062803592E+03  0.22062803592E+03  0.00000000000E+00 0. -1.
         25    2    1    2    0    0  0.37263718403E+02  0.10986414107E+02 -0.59606723312E+01  0.13112253337E+03  0.12509317783E+03 0.  0.
          5    1    3    3  502    0 -0.97250508867E+01 -0.28962399033E+02  0.42546558433E+02  0.52545972320E+02  0.41800000000E+01 0.  1.
         -5    1    3    3    0  502  0.46988769290E+02  0.39948813140E+02 -0.48507230764E+02  0.78576561054E+02  0.41800000000E+01 0.  1.
        -11    1    1    2    0    0 -0.43353116448E+01  0.27306691560E+02 -0.68446406758E+01  0.28483318574E+02  0.00000000000E+00 0.  1.
         11    1    1    2    0    0 -0.32928406759E+02 -0.38293105667E+02 -0.12967874834E+03  0.13916615855E+03  0.00000000000E+00 0. -1.
</event>
<event>
 7    1  0.3265282E-009  0.9710536E+02  0.7561462E-02  0.1286503E+00
         -1   -1    0    0    0  501 -0.00000000000E+00  0.00000000000E+00  0.38078521556E+02  0.38078521556E+02  0.00000000000E+00 0.  1.
          1   -1    0    0  501    0  0.00000000000E+00 -0.00000000000E+00 -0.35817800744E+03  0.35817800744E+03  0.00000000000E+00 0. -1.
         25    2    1    2    0    0  0.36985505314E+02  0.89986515585E+01 -0.14389025062E+03  0.19442312713E+03  0.12508814814E+03 0.  0.
          5    1    3    3  502    0  0.75874612075E+02  0.22849376735E+02 -0.12672768061E+03  0.14952066147E+03  0.41800000000E+01 0. -1.
         -5    1    3    3    0  502 -0.38889106761E+02 -0.13850725176E+02 -0.17162570013E+02  0.44902465657E+02  0.41800000000E+01 0. -1.
        -11    1    1    2    0    0 -0.54871952758E+02 -0.55592573293E+01 -0.17510548934E+03  0.18358586258E+03  0.00000000000E+00 0. -1.
         11    1    1    2    0    0  0.17886447445E+02 -0.34393942292E+01 -0.11037459171E+01  0.18247539283E+02  0.00000000000E+00 0.  1.
</event>
<event>
 7    1  0.3265282E-009  0.9355639E+02  0.7561462E-02  0.1294461E+00
         -1   -1    0    0    0  501 -0.00000000000E+00  0.00000000000E+00  0.10515686138E+02  0.10515686138E+02  0.00000000000E+00 0.  1.
          1   -1    0    0  501    0  0.00000000000E+00 -0.00000000000E+00 -0.13113324281E+04  0.13113324281E+04  0.00000000000E+00 0. -1.
         25    2    1    2    0    0  0.34057706112E+02 -0.22679352136E+02 -0.90695351213E+03  0.91645315726E+03  0.12508971149E+03 0.  0.
          5    1    3    3  502    0  0.51393934443E+02  0.11296349223E+02 -0.81640697134E+03  0.81811170341E+03  0.41800000000E+01 0.  1.
         -5    1    3    3    0  502 -0.17336228331E+02 -0.33975701359E+02 -0.90546540784E+02  0.98341453841E+02  0.41800000000E+01 0.  1.
        -11    1    1    2    0    0 -0.34080193463E+02 -0.28712454732E+02 -0.18941999717E+03  0.19459136664E+03  0.00000000000E+00 0. -1.
         11    1    1    2    0    0  0.22487351491E-01  0.51391806868E+02 -0.20444323262E+03  0.21080359030E+03  0.00000000000E+00 0.  1.
</event>
<event>
 7    1  0.3265282E-009  0.3285551E+03  0.7561462E-02  0.1071778E+00
         -1   -1    0    0    0  501 -0.00000000000E+00  0.00000000000E+00  0.49481765478E+03  0.49481765478E+03  0.00000000000E+00 0.  1.
          1   -1    0    0  501    0  0.00000000000E+00 -0.00000000000E+00 -0.36197656599E+03  0.36197656599E+03  0.00000000000E+00 0. -1.
         25    2    1    2    0    0  0.29813960524E+03 -0.13102913870E+03  0.31839604581E+03  0.47231223567E+03  0.12508775549E+03 0.  0.
          5    1    3    3  502    0  0.11412943400E+03 -0.21437938183E+02  0.18955631765E+03  0.22233799239E+03  0.41800000000E+01 0. -1.
         -5    1    3    3    0  502  0.18401017124E+03 -0.10959120052E+03  0.12883972816E+03  0.24997424328E+03  0.41800000000E+01 0. -1.
        -11    1    1    2    0    0 -0.56450784693E+02  0.36249542708E+02 -0.79557368939E+02  0.10406774424E+03  0.00000000000E+00 0.  1.
         11    1    1    2    0    0 -0.24168882055E+03  0.94779595994E+02 -0.10599758808E+03  0.28041424085E+03  0.00000000000E+00 0. -1.
</event>
<event>
 7    1  0.3265282E-009  0.1318246E+03  0.7561462E-02  0.1224773E+00
         -1   -1    0    0    0  501 -0.00000000000E+00  0.00000000000E+00  0.69352618877E+03  0.69352618877E+03  0.00000000000E+00 0.  1.
          1   -1    0    0  501    0  0.00000000000E+00 -0.00000000000E+00 -0.27118676613E+02  0.27118676613E+02  0.00000000000E+00 0. -1.
         25    2    1    2    0    0 -0.78288086924E+02  0.21908266147E+02  0.35616343791E+03  0.38614803336E+03  0.12509561335E+03 0.  0.
          5    1    3    3  502    0 -0.71945971195E+02 -0.39587071189E+02  0.15233025421E+03  0.17310499047E+03  0.41800000000E+01 0.  1.
         -5    1    3    3    0  502 -0.63421157291E+01  0.61495337336E+02  0.20383318370E+03  0.21304304289E+03  0.41800000000E+01 0.  1.
        -11    1    1    2    0    0  0.59166317503E+02  0.28409593046E+02  0.11990865598E+03  0.13669617362E+03  0.00000000000E+00 0. -1.
         11    1    1    2    0    0  0.19121769421E+02 -0.50317859193E+02  0.19033541827E+03  0.19780065841E+03  0.00000000000E+00 0.  1.
</event>
<event>
 7    1  0.3265282E-009  0.1277956E+03  0.7561462E-02  0.1230764E+00
          1   -1    0    0  501    0  0.00000000000E+00  0.00000000000E+00  0.73924101909E+02  0.73924101909E+02  0.00000000000E+00 0. -1.
         -1   -1    0    0    0  501 -0.00000000000E+00 -0.00000000000E+00 -0.37766917697E+03  0.37766917697E+03  0.00000000000E+00 0.  1.
         25    2    1    2    0    0  0.95613699645E+02 -0.47488227079E+01 -0.46923466625E+02  0.16436098024E+03  0.12509272253E+03 0.  0.
          5    1    3    3  502    0  0.44574493147E+02 -0.55727195505E+02 -0.56969169525E+02  0.91407682579E+02  0.41800000000E+01 0.  1.
         -5    1    3    3    0  502  0.51039206498E+02  0.50978372797E+02  0.10045702900E+02  0.72953297662E+02  0.41800000000E+01 0.  1.
        -11    1    1    2    0    0 -0.35487703376E+02  0.30161576240E+02 -0.42007653579E+02  0.62719540268E+02  0.00000000000E+00 0. -1.
         11    1    1    2    0    0 -0.60125996269E+02 -0.25412753532E+02 -0.21481395485E+03  0.22451275837E+03  0.00000000000E+00 0.  1.
</event>
<event>
 7    1  0.3265282E-009  0.9801501E+02  0.7561462E-02  0.1284526E+00
         -1   -1    0    0    0  501 -0.00000000000E+00  0.00000000000E+00  0.61290233030E+03  0.61290233030E+03  0.00000000000E+00 0.  1.
          1   -1    0    0  501    0  0.00000000000E+00 -0.00000000000E+00 -0.40286838349E+02  0.40286838349E+02  0.00000000000E+00 0. -1.
         25    2    1    2    0    0 -0.35175935467E+02 -0.64541696323E+02  0.46415293904E+03  0.48630075082E+03  0.12508993737E+03 0.  0.
          5    1    3    3  502    0  0.45794827093E+01 -0.35201054959E+02  0.41480879488E+03  0.41634588342E+03  0.41800000000E+01 0. -1.
         -5    1    3    3    0  502 -0.39755418177E+02 -0.29340641364E+02  0.49344144158E+02  0.69954867399E+02  0.41800000000E+01 0. -1.
        -11    1    1    2    0    0  0.62284976872E+02  0.50413159338E+02  0.11021847396E+03  0.13626818037E+03  0.00000000000E+00 0.  1.
         11    1    1    2    0    0 -0.27109041405E+02  0.14128536985E+02 -0.17559210525E+01  0.30620237457E+02  0.00000000000E+00 0. -1.
</event>
<event>
 7    1  0.3265282E-009  0.2636771E+03  0.7561462E-02  0.1104954E+00
          1   -1    0    0  501    0  0.00000000000E+00  0.00000000000E+00  0.27120043803E+03  0.27120043803E+03  0.00000000000E+00 0. -1.
         -1   -1    0    0    0  501 -0.00000000000E+00 -0.00000000000E+00 -0.28223635600E+03  0.28223635600E+03  0.00000000000E+00 0.  1.
         25    2    1    2    0    0  0.20476556137E+03  0.14090926482E+03  0.48299044183E+02  0.28242595611E+03  0.12508903620E+03 0.  0.
          5    1    3    3  502    0  0.14965230485E+02  0.76034437557E+02  0.11478083702E+02  0.78450064522E+02  0.41800000000E+01 0. -1.
         -5    1    3    3    0  502  0.18980033089E+03  0.64874827264E+02  0.36820960480E+02  0.20397589158E+03  0.41800000000E+01 0. -1.
        -11    1    1    2    0    0 -0.15582567644E+03 -0.98354396618E+02 -0.82833268448E+02  0.20203113407E+03  0.00000000000E+00 0. -1.
         11    1    1    2    0    0 -0.48939884935E+02 -0.42554868204E+02  0.23498306301E+02  0.68979703858E+02  0.00000000000E+00 0.  1.
</event>
<event>
 7    1  0.3265282E-009  0.8066833E+02  0.7561462E-02  0.1327165E+00
         -2   -1    0    0    0  501 -0.00000000000E+00  0.00000000000E+00  0.30449136108E+02  0.30449136108E+02  0.00000000000E+00 0.  1.
          2   -1    0    0  501    0  0.00000000000E+00 -0.00000000000E+00 -0.42519934812E+03  0.42519934812E+03  0.00000000000E+00 0. -1.
         25    2    1    2    0    0 -0.24514296734E+02 -0.17919117723E+02 -0.19682337261E+03  0.23516638482E+03  0.12506695415E+03 0.  0.
          5    1    3    3  502    0 -0.30361489911E+02 -0.41112400514E+02 -0.20359896100E+03  0.20995727867E+03  0.41800000000E+01 0. -1.
         -5    1    3    3    0  502  0.58471931775E+01  0.23193282791E+02  0.67755883945E+01  0.25209106147E+02  0.41800000000E+01 0. -1.
        -11    1    1    2    0    0  0.40705538670E+02  0.40874081639E+02 -0.76291891652E+02  0.95645617568E+02  0.00000000000E+00 0.  1.
         11    1    1    2    0    0 -0.16191241936E+02 -0.22954963915E+02 -0.12163494775E+03  0.12483648184E+03  0.00000000000E+00 0. -1.
</event>
<event>
 7    1  0.3265282E-009  0.1158589E+03  0.7561462E-02  0.1250089E+00
          2   -1    0    0  501    0  0.00000000000E+00  0.00000000000E+00  0.34986599972E+02  0.34986599972E+02  0.00000000000E+00 0. -1.
         -2   -1    0    0    0  501 -0.00000000000E+00 -0.00000000000E+00 -0.61714198966E+03  0.61714198966E+03  0.00000000000E+00 0.  1.
         25    2    1    2    0    0  0.88456191263E+02 -0.40039534375E+02 -0.35923519301E+03  0.39258808609E+03  0.12509124414E+03 0.  0.
          5    1    3    3  502    0  0.15499450007E+02 -0.13875872851E+02 -0.28299336578E+03  0.28378775568E+03  0.41800000000E+01 0. -1.
         -5    1    3    3    0  502  0.72956741256E+02 -0.26163661524E+02 -0.76241827224E+02  0.10880033041E+03  0.41800000000E+01 0. -1.
        -11    1    1    2    0    0 -0.29497752839E+02 -0.29495141279E+02 -0.67028083093E+02  0.78948367334E+02  0.00000000000E+00 0.  1.
         11    1    1    2    0    0 -0.58958438424E+02  0.69534675654E+02 -0.15589211359E+03  0.18059213621E+03  0.00000000000E+00 0. -1.
</event>
<event>
 7    1  0.3265282E-009  0.1370192E+03  0.7561462E-02  0.1217397E+00
          2   -1    0    0  501    0  0.00000000000E+00  0.00000000000E+00  0.15806812961E+03  0.15806812961E+03  0.00000000000E+00 0. -1.
         -2   -1    0    0    0  501 -0.00000000000E+00 -0.00000000000E+00 -0.14213942474E+03  0.14213942474E+03  0.00000000000E+00 0.  1.
         25    2    1    2    0    0 -0.73594493744E+01  0.10162264482E+03 -0.14423067805E+02  0.16194122806E+03  0.12504244489E+03 0.  0.
          5    1    3    3  502    0  0.33222820436E+02 -0.23619714322E+01 -0.34850217105E+02  0.48387444023E+02  0.41800000000E+01 0.  1.
         -5    1    3    3    0  502 -0.40582269811E+02  0.10398461625E+03  0.20427149300E+02  0.11355378404E+03  0.41800000000E+01 0.  1.
        -11    1    1    2    0    0  0.38639926654E+02 -0.25038817558E+02 -0.85825747881E+01  0.46836384430E+02  0.00000000000E+00 0.  1.
         11    1    1    2    0    0 -0.31280477279E+02 -0.76583827264E+02  0.38934347461E+02  0.91429941865E+02  0.00000000000E+00 0. -1.
</event>
<event>
 7    1  0.3265282E-009  0.8333738E+02  0.7561462E-02  0.1319839E+00
         -1   -1    0    0    0  501 -0.00000000000E+00  0.00000000000E+00  0.47104794781E+02  0.47104794781E+02  0.00000000000E+00 0.  1.
          1   -1    0    0  501    0  0.00000000000E+00 -0.00000000000E+00 -0.24991538231E+03  0.24991538231E+03  0.00000000000E+00 0. -1.
         25    2    1    2    0    0 -0.45145361479E+02  0.83577293813E+01 -0.11178569919E+03  0.17392761578E+03  0.12508724029E+03 0.  0.
          5    1    3    3  502    0  0.90555625481E+00 -0.44694434159E+02 -0.38335648584E+01  0.45061969514E+02  0.41800000000E+01 0. -1.
         -5    1    3    3    0  502 -0.46050917733E+02  0.53052163541E+02 -0.10795213433E+03  0.12886564627E+03  0.41800000000E+01 0. -1.
        -11    1    1    2    0    0  0.13714750052E+02  0.80937937216E+01  0.80598982421E+01  0.17848412408E+02  0.00000000000E+00 0.  1.
         11    1    1    2    0    0  0.31430611426E+02 -0.16451523103E+02 -0.99084786582E+02  0.10524414891E+03  0.00000000000E+00 0. -1.
</event>
<event>
 7    1  0.3265282E-009  0.1182620E+03  0.7561462E-02  0.1245992E+00
         -2   -1    0    0    0  501 -0.00000000000E+00  0.00000000000E+00  0.57967652547E+02  0.57967652547E+02  0.00000000000E+00 0.  1.
          2   -1    0    0  501    0  0.00000000000E+00 -0.00000000000E+00 -0.29848070474E+03  0.29848070474E+03  0.00000000000E+00 0. -1.
         25    2    1    2    0    0  0.66809950162E+02 -0.14954178340E+02 -0.16982077628E+03  0.22175097569E+03  0.12508877757E+03 0.  0.
          5    1    3    3  502    0  0.21748191477E+00  0.37260976029E+02 -0.69119743365E+01  0.38127095644E+02  0.41800000000E+01 0. -1.
         -5    1    3    3    0  502  0.66592468247E+02 -0.52215154369E+02 -0.16290880195E+03  0.18362388005E+03  0.41800000000E+01 0. -1.
        -11    1    1    2    0    0 -0.57898361097E+02  0.51009002101E+02 -0.42697498748E+02  0.88188519164E+02  0.00000000000E+00 0.  1.
         11    1    1    2    0    0 -0.89115890656E+01 -0.36054823760E+02 -0.27994777162E+02  0.46508862429E+02  0.00000000000E+00 0. -1.
</event>
<event>
 7    1  0.3265282E-009  0.1455286E+03  0.7561462E-02  0.1206078E+00
         -1   -1    0    0    0  501 -0.00000000000E+00  0.00000000000E+00  0.37001065888E+02  0.37001065888E+02  0.00000000000E+00 0.  1.
          1   -1    0    0  501    0  0.00000000000E+00 -0.00000000000E+00 -0.60222000923E+03  0.60222000923E+03  0.00000000000E+00 0. -1.
         25    2    1    2    0    0 -0.87760533275E+02  0.52299271060E+02 -0.34005956988E+03  0.37646376605E+03  0.12508929262E+03 0.  0.
          5    1    3    3  502    0 -0.54612234177E+02  0.90174998532E+02 -0.27173439919E+03  0.29149799757E+03  0.41800000000E+01 0. -1.
         -5    1    3    3    0  502 -0.33148299098E+02 -0.37875727472E+02 -0.68325170689E+02  0.84965768485E+02  0.41800000000E+01 0. -1.
        -11    1    1    2    0    0  0.10155682691E+03 -0.25200592979E+02 -0.18250690014E+03  0.21037496898E+03  0.00000000000E+00 0.  1.
         11    1    1    2    0    0 -0.13796293631E+02 -0.27098678081E+02 -0.42652473325E+02  0.52382340081E+02  0.00000000000E+00 0. -1.
</event>
<event>
 7    1  0.3265282E-009  0.6496335E+02  0.7561462E-02  0.1378109E+00
         -1   -1    0    0    0  501 -0.00000000000E+00  0.00000000000E+00  0.37257897778E+02  0.37257897778E+02  0.00000000000E+00 0.  1.
          1   -1    0    0  501    0  0.00000000000E+00 -0.00000000000E+00 -0.34349141159E+03  0.34349141159E+03  0.00000000000E+00 0. -1.
         25    2    1    2    0    0  0.33125254351E+02 -0.51000479459E+02 -0.23387524059E+03  0.27210957662E+03  0.12509061574E+03 0.  0.
          5    1    3    3  502    0  0.64684061442E+00 -0.15510117500E+02  0.12925977324E+02  0.20628510306E+02  0.41800000000E+01 0.  1.
         -5    1    3    3    0  502  0.32478413736E+02 -0.35490361958E+02 -0.24680121791E+03  0.25148106631E+03  0.41800000000E+01 0.  1.
        -11    1    1    2    0    0 -0.36089539335E+02  0.38735045502E+02 -0.78438042780E+02  0.94632896789E+02  0.00000000000E+00 0. -1.
         11    1    1    2    0    0  0.29642849839E+01  0.12265433957E+02  0.60797695601E+01  0.14006835957E+02  0.00000000000E+00 0.  1.
</event>
<event>
 7    1  0.3265282E-009  0.7124636E+02  0.7561462E-02  0.1355905E+00
         -2   -1    0    0    0  501 -0.00000000000E+00  0.00000000000E+00  0.35738099504E+02  0.35738099504E+02  0.00000000000E+00 0.  1.
          2   -1    0    0  501    0  0.00000000000E+00 -0.00000000000E+00 -0.35602581759E+03  0.35602581759E+03  0.00000000000E+00 0. -1.
         25    2    1    2    0    0 -0.57426106307E+01 -0.21813810931E+02 -0.14363930399E+03  0.19180402154E+03  0.12509081943E+03 0.  0.
          5    1    3    3  502    0  0.22084349140E+01 -0.59864790734E+02 -0.14024407041E+03  0.15255996212E+03  0.41800000000E+01 0. -1.
         -5    1    3    3    0  502 -0.79510455447E+01  0.38050979803E+02 -0.33952335744E+01  0.39244059426E+02  0.41800000000E+01 0. -1.
        -11    1    1    2    0    0 -0.25535226507E+01  0.30920437293E+02 -0.18333604539E+03  0.18594273167E+03  0.00000000000E+00 0. -1.
         11    1    1    2    0    0  0.82961332814E+01 -0.91066263616E+01  0.66876312927E+01  0.14017163886E+02  0.00000000000E+00 0.  1.
</event>
<event>
 7    1  0.3265282E-009  0.1495886E+03  0.7561462E-02  0.1200979E+00
         -1   -1    0    0    0  501 -0.00000000000E+00  0.00000000000E+00  0.50807612937E+03  0.50807612937E+03  0.00000000000E+00 0.  1.
          1   -1    0    0  501    0  0.00000000000E+00 -0.00000000000E+00 -0.63756703791E+02  0.63756703791E+02  0.00000000000E+00 0. -1.
         25    2    1    2    0    0 -0.13388882971E+03 -0.45742845834E+02  0.20288223140E+03  0.27717637312E+03  0.12508763060E+03 0.  0.
          5    1    3    3  502    0 -0.12349962749E+03 -0.18533073462E+02  0.74523546446E+02  0.14548836440E+03  0.41800000000E+01 0.  1.
         -5    1    3    3    0  502 -0.10389202221E+02 -0.27209772372E+02  0.12835868496E+03  0.13168800871E+03  0.41800000000E+01 0.  1.
        -11    1    1    2    0    0  0.11524906700E+03  0.50085346441E+02  0.24485211322E+03  0.27521527342E+03  0.00000000000E+00 0.  1.
         11    1    1    2    0    0  0.18639762709E+02 -0.43425006073E+01 -0.34149190473E+01  0.19441186627E+02  0.00000000000E+00 0. -1.
</event>
<event>
 6    1  0.3265282E-009  0.1030813E+03  0.7561462E-02  0.1273947E+00
          2   -1    0    0  501    0  0.00000000000E+00  0.00000000000E+00  0.25439707126E+03  0.25439707126E+03  0.00000000000E+00 0. -1.
         -2   -1    0    0    0  501 -0.00000000000E+00 -0.00000000000E+00 -0.63628585999E+02  0.63628585999E+02  0.00000000000E+00 0.  1.
          5    1    1    2  502    0 -0.51244180906E+02 -0.65481092592E+01  0.32625695093E+02  0.61243384882E+02  0.41800000000E+01 0.  1.
         -5    1    1    2    0  502  0.62140102980E+02 -0.27753638057E+02  0.13921883444E+03  0.15501939584E+03  0.41800000000E+01 0.  1.
        -11    1    1    2    0    0 -0.43065730863E+02  0.32454952335E+02  0.36443438508E+02  0.65085369447E+02  0.00000000000E+00 0. -1.
         11    1    1    2    0    0  0.32169808788E+02  0.18467949810E+01 -0.17519482783E+02  0.36677507087E+02  0.00000000000E+00 0.  1.
</event>
<event>
 7    1  0.3265282E-009  0.1324530E+03  0.7561462E-02  0.1223861E+00
          3   -1    0    0  501    0  0.00000000000E+00  0.00000000000E+00  0.34781462333E+03  0.34781462333E+03  0.00000000000E+00 0. -1.
         -3   -1    0    0    0  501 -0.00000000000E+00 -0.00000000000E+00 -0.11240380607E+03  0.11240380607E+03  0.00000000000E+00 0.  1.
         25    2    1    2    0    0 -0.93457106004E+02  0.45296400097E+02  0.27213825653E+03  0.31700285481E+03  0.12508231195E+03 0.  0.
          5    1    3    3  502    0 -0.72268883768E+02  0.66267009756E+02  0.26946644057E+03  0.28678169944E+03  0.41800000000E+01 0. -1.
         -5    1    3    3    0  502 -0.21188222236E+02 -0.20970609659E+02  0.26718159650E+01  0.30221155364E+02  0.41800000000E+01 0. -1.
        -11    1    1    2    0    0  0.81655130337E+02 -0.71110409335E+02 -0.19522879788E+02  0.11002451300E+03  0.00000000000E+00 0. -1.
         11    1    1    2    0    0  0.11801975667E+02  0.25814009239E+02 -0.17204559479E+02  0.33191061590E+02  0.00000000000E+00 0.  1.
</event>
<event>
 7    1  0.3265282E-009  0.1758449E+03  0.7561462E-02  0.1171886E+00
          1   -1    0    0  501    0  0.00000000000E+00  0.00000000000E+00  0.12834203070E+03  0.12834203070E+03  0.00000000000E+00 0. -1.
         -1   -1    0    0    0  501 -0.00000000000E+00 -0.00000000000E+00 -0.31009384163E+03  0.31009384163E+03  0.00000000000E+00 0.  1.
         25    2    1    2    0    0  0.14891646775E+03  0.75580771848E+02 -0.98976633001E+02  0.23093706498E+03  0.12508791573E+03 0.  0.
          5    1    3    3  502    0  0.65055677658E+02  0.57972737824E+02 -0.11429984906E+03  0.14378806425E+03  0.41800000000E+01 0. -1.
         -5    1    3    3    0  502  0.83860790094E+02  0.17608034024E+02  0.15323216062E+02  0.87149000728E+02  0.41800000000E+01 0. -1.
        -11    1    1    2    0    0 -0.12045571279E+03 -0.28717844670E+02 -0.88742430780E+02  0.15234668479E+03  0.00000000000E+00 0.  1.
         11    1    1    2    0    0 -0.28460754961E+02 -0.46862927178E+02  0.59672528515E+01  0.55152122563E+02  0.00000000000E+00 0. -1.
</event>
<event>
 7    1  0.3265282E-009  0.6363028E+02  0.7561462E-02  0.1383199E+00
          3   -1    0    0  501    0  0.00000000000E+00  0.00000000000E+00  0.57629831227E+03  0.57629831227E+03  0.00000000000E+00 0. -1.
         -3   -1    0    0    0  501 -0.00000000000E+00 -0.00000000000E+00 -0.23996873425E+02  0.23996873425E+02  0.00000000000E+00 0.  1.
         25    2    1    2    0    0 -0.24693565288E+02 -0.17043285137E+02  0.40271609910E+03  0.42276335098E+03  0.12509336004E+03 0.  0.
          5    1    3    3  502    0  0.97916931801E+01 -0.12479762653E+02 -0.20071489322E+01  0.16526426657E+02  0.41800000000E+01 0. -1.
         -5    1    3    3    0  502 -0.34485258468E+02 -0.45635224838E+01  0.40472324803E+03  0.40623692433E+03  0.41800000000E+01 0. -1.
        -11    1    1    2    0    0  0.12519911880E+02  0.44264491749E+02  0.13812905860E+03  0.14558753468E+03  0.00000000000E+00 0. -1.
         11    1    1    2    0    0  0.12173653408E+02 -0.27221206612E+02  0.11456281137E+02  0.31944300027E+02  0.00000000000E+00 0.  1.
</event>
<event>
 7    1  0.3265282E-009  0.1547538E+03  0.7561462E-02  0.1194750E+00
          1   -1    0    0  501    0  0.00000000000E+00  0.00000000000E+00  0.34903310238E+03  0.34903310238E+03  0.00000000000E+00 0. -1.
         -1   -1    0    0    0  501 -0.00000000000E+00 -0.00000000000E+00 -0.78488791077E+02  0.78488791077E+02  0.00000000000E+00 0.  1.
         25    2    1    2    0    0 -0.39820655819E+02 -0.11749140310E+03  0.15573723391E+03  0.23514181901E+03  0.12509066548E+03 0.  0.
          5    1    3    3  502    0  0.32131707893E+02 -0.86509119601E+01  0.21973894188E+01  0.33609311955E+02  0.41800000000E+01 0.  1.
         -5    1    3    3    0  502 -0.71952363712E+02 -0.10884049114E+03  0.15353984449E+03  0.20153250706E+03  0.41800000000E+01 0.  1.
        -11    1    1    2    0    0  0.61695025982E+02  0.99647146607E+02  0.11493252089E+03  0.16415027997E+03  0.00000000000E+00 0. -1.
         11    1    1    2    0    0 -0.21874370163E+02  0.17844256492E+02 -0.12544349311E+00  0.28229794471E+02  0.00000000000E+00 0.  1.
</event>
<event>
 6    1  0.3265282E-009  0.1072615E+03  0.7561462E-02  0.1265727E+00
         -1   -1    0    0    0  501 -0.00000000000E+00  0.00000000000E+00  0.22402838204E+02  0.22402838204E+02  0.00000000000E+00 0.  1.
          1   -1    0    0  501    0  0.00000000000E+00 -0.00000000000E+00 -0.72533635783E+03  0.72533635783E+03  0.00000000000E+00 0. -1.
          5    1    1    2  502    0  0.40847997737E+02 -0.11120094872E+02 -0.39223165634E+02  0.57863153660E+02  0.41800000000E+01 0. -1.
         -5    1    1    2    0  502  0.21128833365E+01  0.59365445831E+02 -0.37488073397E+03  0.37958102894E+03  0.41800000000E+01 0. -1.
        -11    1    1    2    0    0  0.14568279823E+02 -0.52752583080E+02 -0.12040008268E+03  0.13225448843E+03  0.00000000000E+00 0.  1.
         11    1    1    2    0    0 -0.57529160896E+02  0.45072321209E+01 -0.16842953734E+03  0.17804052500E+03  0.00000000000E+00 0. -1.
</event>
<event>
 7    1  0.3265282E-009  0.1035880E+03  0.7561462E-02  0.1272927E+00
         -2   -1    0    0    0  501 -0.00000000000E+00  0.00000000000E+00  0.20150613273E+02  0.20150613273E+02  0.00000000000E+00 0.  1.
          2   -1    0    0  501    0  0.00000000000E+00 -0.00000000000E+00 -0.71013820724E+03  0.71013820724E+03  0.00000000000E+00 0. -1.
         25    2    1    2    0    0  0.34857473554E+02 -0.32935093372E+02 -0.39579573017E+03  0.41785348734E+03  0.12509001968E+03 0.  0.
          5    1    3    3  502    0  0.37437840292E+01  0.31008028421E+02 -0.24853000092E+02  0.40133000872E+02  0.41800000000E+01 0.  1.
         -5    1    3    3    0  502  0.31113689524E+02 -0.63943121793E+02 -0.37094273008E+03  0.37772048647E+03  0.41800000000E+01 0.  1.
        -11    1    1    2    0    0  0.62422619059E+01  0.56641090287E+02 -0.17911445904E+03  0.18796055006E+03  0.00000000000E+00 0. -1.
         11    1    1    2    0    0 -0.41099735459E+02 -0.23705996915E+02 -0.11507740476E+03  0.12447478311E+03  0.00000000000E+00 0.  1.
</event>
<event>
 7    1  0.3265282E-009  0.1218438E+03  0.7561462E-02  0.1240086E+00
         -1   -1    0    0    0  501 -0.00000000000E+00  0.00000000000E+00  0.53532461426E+02  0.53532461426E+02  0.00000000000E+00 0.  1.
          1   -1    0    0  501    0  0.00000000000E+00 -0.00000000000E+00 -0.41340235627E+03  0.41340235627E+03  0.00000000000E+00 0. -1.
         25    2    1    2    0    0 -0.56265361732E+02  0.49815584454E+02 -0.30725766344E+03  0.34014563395E+03  0.12507756461E+03 0.  0.
          5    1    3    3  502    0  0.15128209433E+02  0.69861051933E+02 -0.15492812673E+03  0.17067403479E+03  0.41800000000E+01 0. -1.
         -5    1    3    3    0  502 -0.71393571165E+02 -0.20045467480E+02 -0.15232953670E+03  0.16947159916E+03  0.41800000000E+01 0. -1.
        -11    1    1    2    0    0 -0.89763575804E+01 -0.27392398002E+02 -0.50045952203E+02  0.57753924504E+02  0.00000000000E+00 0. -1.
         11    1    1    2    0    0  0.65241719313E+02 -0.22423186451E+02 -0.25662792039E+01  0.69035259241E+02  0.00000000000E+00 0.  1.
</event>
<event>
 7    1  0.3265282E-009  0.1177666E+03  0.7561462E-02  0.1246828E+00
         -4   -1    0    0    0  501 -0.00000000000E+00  0.00000000000E+00  0.14781601594E+03  0.14781601594E+03  0.00000000000E+00 0. -1.
          4   -1    0    0  501    0  0.00000000000E+00 -0.00000000000E+00 -0.12900423343E+03  0.12900423343E+03  0.00000000000E+00 0.  1.
         25    2    1    2    0    0  0.17023088344E+02 -0.55442064446E+02  0.68944918386E+02  0.15415822610E+03  0.12509096233E+03 0.  0.
          5    1    3    3  502    0  0.52362702060E+02  0.66998260214E+01  0.63003616749E+02  0.82302298627E+02  0.41800000000E+01 0. -1.
         -5    1    3    3    0  502 -0.35339613716E+02 -0.62141890467E+02  0.59413016369E+01  0.71855927477E+02  0.41800000000E+01 0. -1.
        -11    1    1    2    0    0 -0.45786911985E+02 -0.29443389488E+01 -0.28784092851E+02  0.54163035755E+02  0.00000000000E+00 0.  1.
         11    1    1    2    0    0  0.28763823641E+02  0.58386403394E+02 -0.21349043029E+02  0.68498987511E+02  0.00000000000E+00 0. -1.
</event>
<event>
 7    1  0.3265282E-009  0.1021980E+03  0.7561462E-02  0.1275741E+00
         -1   -1    0    0    0  501 -0.00000000000E+00  0.00000000000E+00  0.64178969069E+02  0.64178969069E+02  0.00000000000E+00 0.  1.
          1   -1    0    0  501    0  0.00000000000E+00 -0.00000000000E+00 -0.25229587469E+03  0.25229587469E+03  0.00000000000E+00 0. -1.
         25    2    1    2    0    0 -0.64630400793E+01  0.63236321747E+02 -0.13284582676E+03  0.19322569808E+03  0.12509018122E+03 0.  0.
          5    1    3    3  502    0 -0.38420171463E+02  0.57648473374E+01 -0.11985777251E+03  0.12606625668E+03  0.41800000000E+01 0. -1.
         -5    1    3    3    0  502  0.31957131384E+02  0.57471474410E+02 -0.12988054247E+02  0.67159441408E+02  0.41800000000E+01 0. -1.
        -11    1    1    2    0    0 -0.28828041116E+02 -0.56602508260E+02 -0.82047203445E+01  0.64048554487E+02  0.00000000000E+00 0.  1.
         11    1    1    2    0    0  0.35291081195E+02 -0.66338134873E+01 -0.47066358514E+02  0.59200591189E+02  0.00000000000E+00 0. -1.
</event>
<event>
 7    1  0.3265282E-009  0.2055542E+03  0.7561462E-02  0.1145136E+00
         -1   -1    0    0    0  501 -0.00000000000E+00  0.00000000000E+00  0.41611153175E+02  0.41611153175E+02  0.00000000000E+00 0.  1.
          1   -1    0    0  501    0  0.00000000000E+00 -0.00000000000E+00 -0.15190168716E+04  0.15190168716E+04  0.00000000000E+00 0. -1.
         25    2    1    2    0    0 -0.31869319134E+02 -0.18381270458E+03 -0.11548792894E+04  0.11765189947E+04  0.12509199822E+03 0.  0.
          5    1    3    3  502    0 -0.76834339451E+02 -0.79685256555E+02 -0.53804803967E+03  0.54933270540E+03  0.41800000000E+01 0.  1.
         -5    1    3    3    0  502  0.44965020317E+02 -0.10412744803E+03 -0.61683124973E+03  0.62718628933E+03  0.41800000000E+01 0.  1.
        -11    1    1    2    0    0  0.50504591198E+01  0.56771256810E+02 -0.30783510844E+02  0.64777367012E+02  0.00000000000E+00 0.  1.
         11    1    1    2    0    0  0.26818860014E+02  0.12704144777E+03 -0.29174291820E+03  0.31933166305E+03  0.00000000000E+00 0. -1.
</event>
<event>
 7    1  0.3265282E-009  0.9348778E+02  0.7561462E-02  0.1294619E+00
          2   -1    0    0  501    0  0.00000000000E+00  0.00000000000E+00  0.14898023195E+03  0.14898023195E+03  0.00000000000E+00 0. -1.
         -2   -1    0    0    0  501 -0.00000000000E+00 -0.00000000000E+00 -0.10838853771E+03  0.10838853771E+03  0.00000000000E+00 0.  1.
         25    2    1    2    0    0 -0.45825632791E+02 -0.13397665825E+02  0.75115023639E+02  0.15352198244E+03  0.12508895333E+03 0.  0.
          5    1    3    3  502    0 -0.76086488345E+02 -0.40731233602E+02  0.27460311695E+02  0.90662716801E+02  0.41800000000E+01 0. -1.
         -5    1    3    3    0  502  0.30260855554E+02  0.27333567777E+02  0.47654711943E+02  0.62859265639E+02  0.41800000000E+01 0. -1.
        -11    1    1    2    0    0  0.19990501761E+02 -0.12029449710E+02  0.24974153996E+02  0.34176544425E+02  0.00000000000E+00 0. -1.
         11    1    1    2    0    0  0.25835131030E+02  0.25427115535E+02 -0.59497483399E+02  0.69670242791E+02  0.00000000000E+00 0.  1.
</event>
<event>
 7    1  0.3265282E-009  0.1196190E+03  0.7561462E-02  0.1243727E+00
         -1   -1    0    0    0  501 -0.00000000000E+00  0.00000000000E+00  0.73778957255E+02  0.73778957255E+02  0.00000000000E+00 0.  1.
          1   -1    0    0  501    0  0.00000000000E+00 -0.00000000000E+00 -0.33644865898E+03  0.33644865898E+03  0.00000000000E+00 0. -1.
         25    2    1    2    0    0 -0.69830280477E+02 -0.41866534037E+02 -0.35443972204E+02  0.15340971110E+03  0.12509672079E+03 0.  0.
          5    1    3    3  502    0 -0.97347119190E+02 -0.29538578095E+02 -0.56456851651E+02  0.11642095047E+03  0.41800000000E+01 0.  1.
         -5    1    3    3    0  502  0.27516838713E+02 -0.12327955942E+02  0.21012879447E+02  0.36988760632E+02  0.41800000000E+01 0.  1.
        -11    1    1    2    0    0  0.38513084459E+02 -0.15586561415E+02 -0.36935359165E+02  0.55591540076E+02  0.00000000000E+00 0.  1.
         11    1    1    2    0    0  0.31317196018E+02  0.57453095452E+02 -0.19029037036E+03  0.20122636506E+03  0.00000000000E+00 0. -1.
</event>
<event>
 7    1  0.3265282E-009  0.1943261E+03  0.7561462E-02  0.1154616E+00
         -1   -1    0    0    0  501 -0.00000000000E+00  0.00000000000E+00  0.21259515461E+03  0.21259515461E+03  0.00000000000E+00 0.  1.
          1   -1    0    0  501    0  0.00000000000E+00 -0.00000000000E+00 -0.20427166459E+03  0.20427166459E+03  0.00000000000E+00 0. -1.
         25    2    1    2    0    0 -0.16334199347E+03  0.21661644716E+02 -0.62268073895E+02  0.21604325000E+03  0.12509012416E+03 0.  0.
          5    1    3    3  502    0 -0.15912248301E+03  0.56058006371E+02 -0.36513634635E+02  0.17266494315E+03  0.41800000000E+01 0.  1.
         -5    1    3    3    0  502 -0.42195104558E+01 -0.34396361655E+02 -0.25754439260E+02  0.43378306850E+02  0.41800000000E+01 0.  1.
        -11    1    1    2    0    0  0.10014211611E+03  0.28701797858E+02  0.57400242046E+02  0.11894126452E+03  0.00000000000E+00 0.  1.
         11    1    1    2    0    0  0.63199877363E+02 -0.50363442574E+02  0.13191321873E+02  0.81882304678E+02  0.00000000000E+00 0. -1.
</event>
<event>
 7    1  0.3265282E-009  0.9551879E+02  0.7561462E-02  0.1290012E+00
          2   -1    0    0  501    0  0.00000000000E+00  0.00000000000E+00  0.45186904318E+03  0.45186904318E+03  0.00000000000E+00 0. -1.
         -2   -1    0    0    0  501 -0.00000000000E+00 -0.00000000000E+00 -0.27602806903E+02  0.27602806903E+02  0.00000000000E+00 0.  1.
         25    2    1    2    0    0  0.90413931491E+01 -0.29701337831E+02  0.27269036548E+03  0.30161601292E+03  0.12509303563E+03 0.  0.
          5    1    3    3  502    0  0.25019713609E+02  0.44795703639E+02  0.90987149680E+02  0.10454078123E+03  0.41800000000E+01 0.  1.
         -5    1    3    3    0  502 -0.15978320460E+02 -0.74497041470E+02  0.18170321580E+03  0.19707523168E+03  0.41800000000E+01 0.  1.
        -11    1    1    2    0    0 -0.10682951497E+02 -0.15058209839E+02 -0.13439051946E+01  0.18511650856E+02  0.00000000000E+00 0.  1.
         11    1    1    2    0    0  0.16415583479E+01  0.44759547670E+02  0.15291977600E+03  0.15934418632E+03  0.00000000000E+00 0. -1.
</event>
<event>
 7    1  0.3265282E-009  0.1017125E+03  0.7561462E-02  0.1276736E+00
         -1   -1    0    0    0  501 -0.00000000000E+00  0.00000000000E+00  0.10568897147E+03  0.10568897147E+03  0.00000000000E+00 0.  1.
          1   -1    0    0  501    0  0.00000000000E+00 -0.00000000000E+00 -0.16821261157E+03  0.16821261157E+03  0.00000000000E+00 0. -1.
         25    2    1    2    0    0 -0.44317782517E+02  0.59409403822E+02 -0.59930742756E+02  0.15726625576E+03  0.12508972046E+03 0.  0.
          5    1    3    3  502    0  0.44749280770E+01 -0.54720445770E+01  0.32880123312E+02  0.33890163206E+02  0.41800000000E+01 0. -1.
         -5    1    3    3    0  502 -0.48792710594E+02  0.64881448399E+02 -0.92810866068E+02  0.12337609255E+03  0.41800000000E+01 0. -1.
        -11    1    1    2    0    0  0.23020150174E+02  0.20745157018E+02 -0.11866124438E+02  0.33182732903E+02  0.00000000000E+00 0.  1.
         11    1    1    2    0    0  0.21297632343E+02 -0.80154560840E+02  0.92732270926E+01  0.83452594373E+02  0.00000000000E+00 0. -1.
</event>
<event>
 7    1  0.3265282E-009  0.1394494E+03  0.7561462E-02  0.1214072E+00
          3   -1    0    0  501    0  0.00000000000E+00  0.00000000000E+00  0.55862687435E+03  0.55862687435E+03  0.00000000000E+00 0. -1.
         -3   -1    0    0    0  501 -0.00000000000E+00 -0.00000000000E+00 -0.38596600963E+02  0.38596600963E+02  0.00000000000E+00 0.  1.
         25    2    1    2    0    0  0.30002352027E+02 -0.92020034313E+02  0.28578626331E+03  0.32663092145E+03  0.12508454223E+03 0.  0.
          5    1    3    3  502    0 -0.47390933692E+02 -0.19854406669E+02  0.79541115562E+02  0.94785861420E+02  0.41800000000E+01 0. -1.
         -5    1    3    3    0  502  0.77393285720E+02 -0.72165627644E+02  0.20624514775E+03  0.23184506003E+03  0.41800000000E+01 0. -1.
        -11    1    1    2    0    0  0.42060389635E+01  0.86728740050E+02  0.21289964206E+03  0.22992568953E+03  0.00000000000E+00 0. -1.
         11    1    1    2    0    0 -0.34208390991E+02  0.52912942631E+01  0.21344368006E+02  0.40666864334E+02  0.00000000000E+00 0.  1.
</event>
<event>
 7    1  0.3265282E-009  0.1095706E+03  0.7561462E-02  0.1261367E+00
          4   -1    0    0  501    0  0.00000000000E+00  0.00000000000E+00  0.24881656340E+03  0.24881656340E+03  0.00000000000E+00 0. -1.
         -4   -1    0    0    0  501 -0.00000000000E+00 -0.00000000000E+00 -0.56753275215E+02  0.56753275215E+02  0.00000000000E+00 0.  1.
         25    2    1    2    0    0 -0.34530371841E+02  0.16965438633E+02  0.11459535691E+03  0.17394451173E+03  0.12507767446E+03 0.  0.
          5    1    3    3  502    0  0.26421578097E+02 -0.39392979257E+02  0.45415040211E+02  0.65802012744E+02  0.41800000000E+01 0. -1.
         -5    1    3    3    0  502 -0.60951949937E+02  0.56358417891E+02  0.69180316699E+02  0.10814249899E+03  0.41800000000E+01 0. -1.
        -11    1    1    2    0    0  0.55368385301E+01 -0.46610458123E+02  0.76973576609E+02  0.90156102862E+02  0.00000000000E+00 0.  1.
         11    1    1    2    0    0  0.28993533311E+02  0.29645019490E+02  0.49435466468E+00  0.41469224021E+02  0.00000000000E+00 0. -1.
</event>
<event>
 7    1  0.4660136E-009  0.1434661E+03  0.7561462E-02  0.1208740E+00
         -2   -1    0    0    0  501 -0.00000000000E+00  0.00000000000E+00  0.60001582758E+02  0.60001582758E+02  0.00000000000E+00 0.  1.
          2   -1    0    0  501    0  0.00000000000E+00 -0.00000000000E+00 -0.44570255390E+03  0.44570255390E+03  0.00000000000E+00 0. -1.
         25    2    1    2    0    0  0.31270962409E+01  0.12138382218E+03 -0.22426324520E+03  0.28405047975E+03  0.12508741295E+03 0.  0.
          5    1    3    3  502    0 -0.77535043656E+01  0.14175045155E+03 -0.15178848390E+03  0.20787141119E+03  0.41800000000E+01 0.  1.
         -5    1    3    3    0  502  0.10880600607E+02 -0.20366629368E+02 -0.72474761298E+02  0.76179068559E+02  0.41800000000E+01 0.  1.
        -11    1    1    2    0    0  0.17978119116E+00 -0.26622847281E+02  0.77318520728E+01  0.27723453160E+02  0.00000000000E+00 0.  1.
         11    1    1    2    0    0 -0.33068774320E+01 -0.94760974897E+02 -0.16916957802E+03  0.19393020375E+03  0.00000000000E+00 0. -1.
</event>
<event>
 7    1  0.3265282E-009  0.1525525E+03  0.7561462E-02  0.1197371E+00
          1   -1    0    0  501    0  0.00000000000E+00  0.00000000000E+00  0.19006164524E+03  0.19006164524E+03  0.00000000000E+00 0. -1.
         -1   -1    0    0    0  501 -0.00000000000E+00 -0.00000000000E+00 -0.16594709940E+03  0.16594709940E+03  0.00000000000E+00 0.  1.
         25    2    1    2    0    0  0.70708162015E+02  0.98818751726E+02  0.81042760246E+02  0.19230224672E+03  0.12508970876E+03 0.  0.
          5    1    3    3  502    0  0.72202121444E+02 -0.81006449071E+00  0.18750448187E+02  0.74718500070E+02  0.41800000000E+01 0. -1.
         -5    1    3    3    0  502 -0.14939594290E+01  0.99628816217E+02  0.62292312059E+02  0.11758374665E+03  0.41800000000E+01 0. -1.
        -11    1    1    2    0    0  0.66592682186E+01 -0.25873111150E+02 -0.50557591297E+02  0.57182460349E+02  0.00000000000E+00 0.  1.
         11    1    1    2    0    0 -0.77367430233E+02 -0.72945640576E+02 -0.63706231066E+01  0.10652403756E+03  0.00000000000E+00 0. -1.
</event>
<event>
 7    1  0.3265282E-009  0.1742213E+03  0.7561462E-02  0.1173516E+00
          2   -1    0    0  501    0  0.00000000000E+00  0.00000000000E+00  0.13810709420E+04  0.13810709420E+04  0.00000000000E+00 0. -1.
         -2   -1    0    0    0  501 -0.00000000000E+00 -0.00000000000E+00 -0.28064656973E+02  0.28064656973E+02  0.00000000000E+00 0.  1.
         25    2    1    2    0    0 -0.75972802637E+01  0.15905336210E+03  0.57613952101E+03  0.61068776011E+03  0.12508837681E+03 0.  0.
          5    1    3    3  502    0  0.50125808840E+01  0.18835051364E+01 -0.50567513068E+01  0.84685708651E+01  0.41800000000E+01 0.  1.
         -5    1    3    3    0  502 -0.12609861148E+02  0.15716985696E+03  0.58119627232E+03  0.60221918924E+03  0.41800000000E+01 0.  1.
        -11    1    1    2    0    0 -0.39734382182E+02 -0.10391118479E+03  0.49716593946E+03  0.50946081970E+03  0.00000000000E+00 0.  1.
         11    1    1    2    0    0  0.47331662446E+02 -0.55142177307E+02  0.27970082453E+03  0.28898701914E+03  0.00000000000E+00 0. -1.
</event>
<event>
 7    1  0.3265282E-009  0.1106534E+03  0.7561462E-02  0.1259365E+00
          4   -1    0    0  501    0  0.00000000000E+00  0.00000000000E+00  0.63606295862E+02  0.63606295862E+02  0.00000000000E+00 0. -1.
         -4   -1    0    0    0  501 -0.00000000000E+00 -0.00000000000E+00 -0.27583788057E+03  0.27583788057E+03  0.00000000000E+00 0.  1.
         25    2    1    2    0    0  0.34616217638E+02 -0.37766058632E+02 -0.18821950707E+03  0.23171933411E+03  0.12507081694E+03 0.  0.
          5    1    3    3  502    0  0.41616202388E+02 -0.80556817197E+02 -0.13877854890E+03  0.16582601465E+03  0.41800000000E+01 0.  1.
         -5    1    3    3    0  502 -0.69999847494E+01  0.42790758565E+02 -0.49440958172E+02  0.65893319464E+02  0.41800000000E+01 0.  1.
        -11    1    1    2    0    0 -0.26282450081E+02  0.58771329905E+02 -0.43652836742E+02  0.77784359332E+02  0.00000000000E+00 0.  1.
         11    1    1    2    0    0 -0.83337675576E+01 -0.21005271273E+02  0.19640759112E+02  0.29940482987E+02  0.00000000000E+00 0. -1.
</event>
<event>
 7    1  0.3265282E-009  0.9693714E+02  0.7561462E-02  0.1286872E+00
         -3   -1    0    0    0  501 -0.00000000000E+00  0.00000000000E+00  0.27460453471E+02  0.27460453471E+02  0.00000000000E+00 0.  1.
          3   -1    0    0  501    0  0.00000000000E+00 -0.00000000000E+00 -0.62425167089E+03  0.62425167089E+03  0.00000000000E+00 0. -1.
         25    2    1    2    0    0  0.36818672601E+02 -0.44388603401E+02 -0.45278629049E+03  0.47327471098E+03  0.12509022517E+03 0.  0.
          5    1    3    3  502    0 -0.39090483234E+02 -0.16548680250E+02 -0.69613887653E+02  0.81642454958E+02  0.41800000000E+01 0. -1.
         -5    1    3    3    0  502  0.75909155835E+02 -0.27839923151E+02 -0.38317240284E+03  0.39163225602E+03  0.41800000000E+01 0. -1.
        -11    1    1    2    0    0  0.85094109095E+01  0.11264434853E+02  0.81184117515E+01  0.16285152009E+02  0.00000000000E+00 0.  1.
         11    1    1    2    0    0 -0.45328083510E+02  0.33124168548E+02 -0.15212333868E+03  0.16215226137E+03  0.00000000000E+00 0. -1.
</event>
<event>
 7    1  0.3265282E-009  0.1270007E+03  0.7561462E-02  0.1231975E+00
         -1   -1    0    0    0  501 -0.00000000000E+00  0.00000000000E+00  0.24207275079E+03  0.24207275079E+03  0.00000000000E+00 0.  1.
          1   -1    0    0  501    0  0.00000000000E+00 -0.00000000000E+00 -0.87249056106E+02  0.87249056106E+02  0.00000000000E+00 0. -1.
         25    2    1    2    0    0 -0.86221618105E+02 -0.16060456088E+02  0.35386850173E+02  0.15681651508E+03  0.12508830704E+03 0.  0.
          5    1    3    3  502    0 -0.96853273500E+02 -0.49034615801E+02  0.49231592343E+02  0.11927351852E+03  0.41800000000E+01 0.  1.
         -5    1    3    3    0  502  0.10631655396E+02  0.32974159713E+02 -0.13844742171E+02  0.37542996564E+02  0.41800000000E+01 0.  1.
        -11    1    1    2    0    0  0.82127259882E+02 -0.11210578675E+02  0.11887851550E+03  0.14492296346E+03  0.00000000000E+00 0.  1.
         11    1    1    2    0    0  0.40943582226E+01  0.27271034763E+02  0.55832901025E+00  0.27582328357E+02  0.00000000000E+00 0. -1.
</event>
<event>
 7    1  0.3265282E-009  0.1520415E+03  0.7561462E-02  0.1197987E+00
         -2   -1    0    0    0  501 -0.00000000000E+00  0.00000000000E+00  0.51582443640E+02  0.51582443640E+02  0.00000000000E+00 0.  1.
          2   -1    0    0  501    0  0.00000000000E+00 -0.00000000000E+00 -0.64656446579E+03  0.64656446579E+03  0.00000000000E+00 0. -1.
         25    2    1    2    0    0  0.13530858619E+03 -0.53616281763E+02 -0.35176472196E+03  0.40071096925E+03  0.12509093531E+03 0.  0.
          5    1    3    3  502    0  0.67754241248E+02 -0.11416776735E+02 -0.29471439896E+03  0.30264670716E+03  0.41800000000E+01 0.  1.
         -5    1    3    3    0  502  0.67554344946E+02 -0.42199505027E+02 -0.57050322992E+02  0.98064262089E+02  0.41800000000E+01 0.  1.
        -11    1    1    2    0    0 -0.42967608601E+02 -0.90210470807E+01 -0.13514557298E+03  0.14209827787E+03  0.00000000000E+00 0. -1.
         11    1    1    2    0    0 -0.92340977592E+02  0.62637328843E+02 -0.10807172722E+03  0.15533766231E+03  0.00000000000E+00 0.  1.
</event>
<event>
 7    1  0.3265282E-009  0.1083695E+03  0.7561462E-02  0.1263620E+00
          2   -1    0    0  501    0  0.00000000000E+00  0.00000000000E+00  0.47811084338E+03  0.47811084338E+03  0.00000000000E+00 0. -1.
         -2   -1    0    0    0  501 -0.00000000000E+00 -0.00000000000E+00 -0.27525981180E+02  0.27525981180E+02  0.00000000000E+00 0.  1.
         25    2    1    2    0    0  0.18103870176E+02  0.33349855103E+02  0.25722387363E+03  0.28853642528E+03  0.12509670099E+03 0.  0.
          5    1    3    3  502    0  0.31937935658E+02 -0.38445285580E+02  0.15407687627E+03  0.16203465037E+03  0.41800000000E+01 0.  1.
         -5    1    3    3    0  502 -0.13834065482E+02  0.71795140683E+02  0.10314699736E+03  0.12650177492E+03  0.41800000000E+01 0.  1.
        -11    1    1    2    0    0  0.23417983993E+02  0.16368968782E+02  0.95982878627E+02  0.10014518512E+03  0.00000000000E+00 0. -1.
         11    1    1    2    0    0 -0.41521854169E+02 -0.49718823885E+02  0.97378109943E+02  0.11695521416E+03  0.00000000000E+00 0.  1.
</event>
<event>
 7    1  0.3265282E-009  0.8563047E+02  0.7561462E-02  0.1313792E+00
         -2   -1    0    0    0  501 -0.00000000000E+00  0.00000000000E+00  0.45009294681E+02  0.45009294681E+02  0.00000000000E+00 0. -1.
          2   -1    0    0  501    0  0.00000000000E+00 -0.00000000000E+00 -0.71352193476E+03  0.71352193476E+03  0.00000000000E+00 0.  1.
         25    2    1    2    0    0  0.22301110345E+02 -0.42498216965E+02 -0.63997167397E+03  0.65384606643E+03  0.12508995615E+03 0.  0.
          5    1    3    3  502    0 -0.31421558949E+02 -0.10350101748E+02 -0.47357193873E+02  0.57919039913E+02  0.41800000000E+01 0.  1.
         -5    1    3    3    0  502  0.53722669293E+02 -0.32148115216E+02 -0.59261448010E+03  0.59592702652E+03  0.41800000000E+01 0.  1.
        -11    1    1    2    0    0  0.16182354192E+02  0.31058685630E+02 -0.48521600509E+02  0.59840256151E+02  0.00000000000E+00 0.  1.
         11    1    1    2    0    0 -0.38483464537E+02  0.11439531335E+02  0.19980634406E+02  0.44844906859E+02  0.00000000000E+00 0. -1.
</event>
<event>
 7    1  0.3265282E-009  0.7537805E+02  0.7561462E-02  0.1342704E+00
          1   -1    0    0  501    0  0.00000000000E+00  0.00000000000E+00  0.23391076533E+03  0.23391076533E+03  0.00000000000E+00 0. -1.
         -1   -1    0    0    0  501 -0.00000000000E+00 -0.00000000000E+00 -0.57290675962E+02  0.57290675962E+02  0.00000000000E+00 0.  1.
         25    2    1    2    0    0 -0.37906853410E+02 -0.25907158022E+02  0.93322694498E+02  0.16267923821E+03  0.12508916366E+03 0.  0.
          5    1    3    3  502    0 -0.48859080747E+01 -0.17727722628E+02 -0.29583868665E+02  0.35083071879E+02  0.41800000000E+01 0.  1.
         -5    1    3    3    0  502 -0.33020945335E+02 -0.81794353942E+01  0.12290656316E+03  0.12759616633E+03  0.41800000000E+01 0.  1.
        -11    1    1    2    0    0  0.56183738152E+01 -0.31371724299E+02  0.22949857465E+02  0.39274001165E+02  0.00000000000E+00 0.  1.
         11    1    1    2    0    0  0.32288479594E+02  0.57278882321E+02  0.60347537410E+02  0.89248201920E+02  0.00000000000E+00 0. -1.
</event>
<event>
 7    1  0.3265282E-009  0.1058672E+03  0.7561462E-02  0.1268420E+00
          2   -1    0    0  501    0  0.00000000000E+00  0.00000000000E+00  0.46377368406E+03  0.46377368406E+03  0.00000000000E+00 0. -1.
         -2   -1    0    0    0  501 -0.00000000000E+00 -0.00000000000E+00 -0.30798001223E+02  0.30798001223E+02  0.00000000000E+00 0.  1.
         25    2    1    2    0    0 -0.46043398937E+01 -0.49100021216E+02  0.22244333729E+03  0.25992177968E+03  0.12508509589E+03 0.  0.
          5    1    3    3  502    0 -0.13364123084E+02  0.29511687238E+02  0.11554708765E+02  0.34648566552E+02  0.41800000000E+01 0.  1.
         -5    1    3    3    0  502  0.87597831906E+01 -0.78611708455E+02  0.21088862853E+03  0.22527321312E+03  0.41800000000E+01 0.  1.
        -11    1    1    2    0    0  0.40687529847E+02  0.22824357724E+01  0.56479482799E+02  0.69646367998E+02  0.00000000000E+00 0.  1.
         11    1    1    2    0    0 -0.36083189953E+02  0.46817585444E+02  0.15405286274E+03  0.16500353760E+03  0.00000000000E+00 0. -1.
</event>
<event>
 7    1  0.3265282E-009  0.1664604E+03  0.7561462E-02  0.1181590E+00
         -2   -1    0    0    0  501 -0.00000000000E+00  0.00000000000E+00  0.86375334973E+02  0.86375334973E+02  0.00000000000E+00 0.  1.
          2   -1    0    0  501    0  0.00000000000E+00 -0.00000000000E+00 -0.38554270565E+03  0.38554270565E+03  0.00000000000E+00 0. -1.
         25    2    1    2    0    0 -0.53415494702E+02 -0.11737414716E+03 -0.68586697680E+02  0.19230305876E+03  0.12508567390E+03 0.  0.
          5    1    3    3  502    0  0.25668566490E+02  0.11377699516E+02 -0.84017949547E+01  0.29603883367E+02  0.41800000000E+01 0. -1.
         -5    1    3    3    0  502 -0.79084061192E+02 -0.12875184668E+03 -0.60184902726E+02  0.16269917540E+03  0.41800000000E+01 0. -1.
        -11    1    1    2    0    0 -0.22647464150E+02  0.25678011585E+02 -0.26465336646E+02  0.43274495435E+02  0.00000000000E+00 0.  1.
         11    1    1    2    0    0  0.76062958852E+02  0.91696135579E+02 -0.20411533635E+03  0.23634048642E+03  0.00000000000E+00 0. -1.
</event>
<event>
 7    1  0.3265282E-009  0.1620720E+03  0.7561462E-02  0.1186377E+00
         -1   -1    0    0    0  501 -0.00000000000E+00  0.00000000000E+00  0.11662305875E+03  0.11662305875E+03  0.00000000000E+00 0.  1.
          1   -1    0    0  501    0  0.00000000000E+00 -0.00000000000E+00 -0.27588776498E+03  0.27588776498E+03  0.00000000000E+00 0. -1.
         25    2    1    2    0    0 -0.12236365296E+03 -0.62463230486E+02 -0.12315055727E+03  0.22290915933E+03  0.12509162574E+03 0.  0.
          5    1    3    3  502    0 -0.59806425616E+02 -0.97142624287E+02 -0.75793152022E+02  0.13702398437E+03  0.41800000000E+01 0. -1.
         -5    1    3    3    0  502 -0.62557227342E+02  0.34679393801E+02 -0.47357405246E+02  0.85885174965E+02  0.41800000000E+01 0. -1.
        -11    1    1    2    0    0  0.91257130507E+02  0.38367248200E+02  0.20070954327E+02  0.10100867691E+03  0.00000000000E+00 0.  1.
         11    1    1    2    0    0  0.31106522451E+02  0.24095982287E+02 -0.56185103290E+02  0.68592987492E+02  0.00000000000E+00 0. -1.
</event>
<event>
 7    1  0.3265282E-009  0.9485193E+02  0.7561462E-02  0.1291510E+00
         -3   -1    0    0    0  501 -0.00000000000E+00  0.00000000000E+00  0.22931224567E+03  0.22931224567E+03  0.00000000000E+00 0.  1.
          3   -1    0    0  501    0  0.00000000000E+00 -0.00000000000E+00 -0.51563670231E+02  0.51563670231E+02  0.00000000000E+00 0. -1.
         25    2    1    2    0    0  0.59969282025E+01 -0.18810397336E+02  0.11357965741E+03  0.17011401572E+03  0.12509454653E+03 0.  0.
          5    1    3    3  502    0  0.45754081557E+02 -0.37368086226E+02  0.13474186999E+02  0.60735788153E+02  0.41800000000E+01 0. -1.
         -5    1    3    3    0  502 -0.39757153355E+02  0.18557688890E+02  0.10010547041E+03  0.10937822757E+03  0.41800000000E+01 0. -1.
        -11    1    1    2    0    0  0.96745375801E+01  0.50306492470E+02  0.21752804061E+02  0.55655407164E+02  0.00000000000E+00 0.  1.
         11    1    1    2    0    0 -0.15671465783E+02 -0.31496095134E+02  0.42416113968E+02  0.55106493017E+02  0.00000000000E+00 0. -1.
</event>
<event>
 7    1  0.3265282E-009  0.1082669E+03  0.7561462E-02  0.1263813E+00
          1   -1    0    0  501    0  0.00000000000E+00  0.00000000000E+00  0.84126645062E+02  0.84126645062E+02  0.00000000000E+00 0. -1.
         -1   -1    0    0    0  501 -0.00000000000E+00 -0.00000000000E+00 -0.14785105489E+03  0.14785105489E+03  0.00000000000E+00 0.  1.
         25    2    1    2    0    0 -0.17178870298E+02 -0.51313280003E+01 -0.18291860349E+02  0.12768550690E+03  0.12509017710E+03 0.  0.
          5    1    3    3  502    0  0.47498995735E+02 -0.26359789235E+02 -0.23394918695E+02  0.59294078162E+02  0.41800000000E+01 0. -1.
         -5    1    3    3    0  502 -0.64677866033E+02  0.21228461234E+02  0.51030583458E+01  0.68391428743E+02  0.41800000000E+01 0. -1.
        -11    1    1    2    0    0  0.38226732480E+02  0.38591784583E+02 -0.27524266682E+02  0.60894943713E+02  0.00000000000E+00 0.  1.
         11    1    1    2    0    0 -0.21047862182E+02 -0.33460456583E+02 -0.17908282798E+02  0.43397249336E+02  0.00000000000E+00 0. -1.
</event>
<event>
 7    1  0.3265282E-009  0.1199288E+03  0.7561462E-02  0.1243215E+00
          1   -1    0    0  501    0  0.00000000000E+00  0.00000000000E+00  0.26137491250E+03  0.26137491250E+03  0.00000000000E+00 0. -1.
         -1   -1    0    0    0  501 -0.00000000000E+00 -0.00000000000E+00 -0.94955039669E+02  0.94955039669E+02  0.00000000000E+00 0.  1.
         25    2    1    2    0    0 -0.91853838926E+02 -0.65361311526E+02  0.74048492802E+02  0.18399530479E+03  0.12514736965E+03 0.  0.
          5    1    3    3  502    0 -0.78736270017E+02 -0.57290404424E+02  0.10860907416E+03  0.14592804407E+03  0.41800000000E+01 0. -1.
         -5    1    3    3    0  502 -0.13117568909E+02 -0.80709071019E+01 -0.34560581357E+02  0.38067260727E+02  0.41800000000E+01 0. -1.
        -11    1    1    2    0    0  0.40376820935E+02  0.63095558792E+02  0.94711933995E+02  0.12075465891E+03  0.00000000000E+00 0.  1.
         11    1    1    2    0    0  0.51477017991E+02  0.22657527342E+01 -0.23405539681E+01  0.51579988460E+02  0.00000000000E+00 0. -1.
</event>
<event>
 7    1  0.3265282E-009  0.1394872E+03  0.7561462E-02  0.1214021E+00
          2   -1    0    0  501    0  0.00000000000E+00  0.00000000000E+00  0.78823955462E+02  0.78823955462E+02  0.00000000000E+00 0. -1.
         -2   -1    0    0    0  501 -0.00000000000E+00 -0.00000000000E+00 -0.32621143667E+03  0.32621143667E+03  0.00000000000E+00 0.  1.
         25    2    1    2    0    0 -0.19509092275E+02 -0.10136235659E+03 -0.20317170524E+03  0.25996324285E+03  0.12508882367E+03 0.  0.
          5    1    3    3  502    0 -0.52566375201E+02 -0.38616151540E+01 -0.37344866083E+02  0.64732119509E+02  0.41800000000E+01 0.  1.
         -5    1    3    3    0  502  0.33057282927E+02 -0.97500741436E+02 -0.16582683916E+03  0.19523112334E+03  0.41800000000E+01 0.  1.
        -11    1    1    2    0    0  0.41861525508E+02  0.40581609908E+02 -0.54130152329E+02  0.79557072418E+02  0.00000000000E+00 0.  1.
         11    1    1    2    0    0 -0.22352433233E+02  0.60780746682E+02  0.99143763573E+01  0.65515076870E+02  0.00000000000E+00 0. -1.
</event>
<event>
 7    1  0.3265282E-009  0.9239364E+02  0.7561462E-02  0.1297157E+00
         -2   -1    0    0    0  501 -0.00000000000E+00  0.00000000000E+00  0.43596035787E+02  0.43596035787E+02  0.00000000000E+00 0. -1.
          2   -1    0    0  501    0  0.00000000000E+00 -0.00000000000E+00 -0.33293796459E+03  0.33293796459E+03  0.00000000000E+00 0.  1.
         25    2    1    2    0    0  0.31352299933E+02 -0.28847744279E+02 -0.21403774854E+03  0.25155259511E+03  0.12510552044E+03 0.  0.
          5    1    3    3  502    0  0.50756609041E+02 -0.44423690211E+02 -0.21592227873E+03  0.22625118887E+03  0.41800000000E+01 0. -1.
         -5    1    3    3    0  502 -0.19404309108E+02  0.15575945932E+02  0.18845301862E+01  0.25301406239E+02  0.41800000000E+01 0. -1.
        -11    1    1    2    0    0  0.77346622332E+00  0.52233482600E+02 -0.18010524788E+02  0.55256800103E+02  0.00000000000E+00 0. -1.
         11    1    1    2    0    0 -0.32125766156E+02 -0.23385738321E+02 -0.57293655472E+02  0.69724605164E+02  0.00000000000E+00 0.  1.
</event>
<event>
 7    1  0.3265282E-009  0.1060311E+03  0.7561462E-02  0.1268101E+00
         -1   -1    0    0    0  501 -0.00000000000E+00  0.00000000000E+00  0.57160602460E+02  0.57160602460E+02  0.00000000000E+00 0.  1.
          1   -1    0    0  501    0  0.00000000000E+00 -0.00000000000E+00 -0.26969280977E+03  0.26969280977E+03  0.00000000000E+00 0. -1.
         25    2    1    2    0    0  0.43232095223E+02  0.16109162465E+02 -0.69308020443E+02  0.15027890530E+03  0.12510646869E+03 0.  0.
          5    1    3    3  502    0 -0.11582897744E+02 -0.47602660813E+02 -0.24251677269E+02  0.54825113653E+02  0.41800000000E+01 0.  1.
         -5    1    3    3    0  502  0.54814992966E+02  0.63711823279E+02 -0.45056343174E+02  0.95453791646E+02  0.41800000000E+01 0.  1.
        -11    1    1    2    0    0 -0.59477817063E+02 -0.18573213686E+02 -0.44690020437E+02  0.76679677333E+02  0.00000000000E+00 0.  1.
         11    1    1    2    0    0  0.16245721840E+02  0.24640512206E+01 -0.98534166429E+02  0.99894829598E+02  0.00000000000E+00 0. -1.
</event>
<event>
 7    1  0.3265282E-009  0.1404097E+03  0.7561462E-02  0.1212779E+00
         -2   -1    0    0    0  501 -0.00000000000E+00  0.00000000000E+00  0.75389743043E+02  0.75389743043E+02  0.00000000000E+00 0.  1.
          2   -1    0    0  501    0  0.00000000000E+00 -0.00000000000E+00 -0.43359877202E+03  0.43359877202E+03  0.00000000000E+00 0. -1.
         25    2    1    2    0    0 -0.24283354527E+02  0.11107347563E+03 -0.31447303387E+03  0.35702551280E+03  0.12508768708E+03 0.  0.
          5    1    3    3  502    0 -0.56364362283E+02  0.44063610076E+02 -0.65212738145E+02  0.96895390421E+02  0.41800000000E+01 0. -1.
         -5    1    3    3    0  502  0.32081007756E+02  0.67009865557E+02 -0.24926029573E+03  0.26013012238E+03  0.41800000000E+01 0. -1.
        -11    1    1    2    0    0  0.40632408368E+02 -0.26287031237E+02  0.11130543819E+02  0.49657724744E+02  0.00000000000E+00 0. -1.
         11    1    1    2    0    0 -0.16349053841E+02 -0.84786444396E+02 -0.54866538917E+02  0.10230527752E+03  0.00000000000E+00 0.  1.
</event>
<event>
 7    1  0.3265282E-009  0.2720606E+03  0.7561462E-02  0.1100106E+00
          1   -1    0    0  501    0  0.00000000000E+00  0.00000000000E+00  0.15859596323E+03  0.15859596323E+03  0.00000000000E+00 0. -1.
         -1   -1    0    0    0  501 -0.00000000000E+00 -0.00000000000E+00 -0.50175245064E+03  0.50175245064E+03  0.00000000000E+00 0.  1.
         25    2    1    2    0    0  0.94171829763E+02  0.24070981728E+03 -0.14614834516E+03  0.32220553911E+03  0.12509005150E+03 0.  0.
          5    1    3    3  502    0  0.71242095985E+02  0.37631209678E+02 -0.24417173305E+02  0.84292436994E+02  0.41800000000E+01 0. -1.
         -5    1    3    3    0  502  0.22929733778E+02  0.20307860761E+03 -0.12173117186E+03  0.23791310212E+03  0.41800000000E+01 0. -1.
        -11    1    1    2    0    0 -0.77765614019E+02 -0.17870288250E+03 -0.19236141588E+03  0.27383411996E+03  0.00000000000E+00 0.  1.
         11    1    1    2    0    0 -0.16406215745E+02 -0.62006934785E+02 -0.46467263739E+01  0.64308754789E+02  0.00000000000E+00 0. -1.
</event>
<event>
 7    1  0.3265282E-009  0.1506397E+03  0.7561462E-02  0.1199689E+00
         -2   -1    0    0    0  501 -0.00000000000E+00  0.00000000000E+00  0.17121809040E+03  0.17121809040E+03  0.00000000000E+00 0.  1.
          2   -1    0    0  501    0  0.00000000000E+00 -0.00000000000E+00 -0.14268630548E+03  0.14268630548E+03  0.00000000000E+00 0. -1.
         25    2    1    2    0    0  0.87041479387E+02  0.62629118380E+02  0.49384569759E+02  0.17200203083E+03  0.12508891749E+03 0.  0.
          5    1    3    3  502    0 -0.30350168149E+02  0.85858223617E+01 -0.40902183118E+01  0.32078830061E+02  0.41800000000E+01 0.  1.
         -5    1    3    3    0  502  0.11739164754E+03  0.54043296018E+02  0.53474788071E+02  0.13992320077E+03  0.41800000000E+01 0.  1.
        -11    1    1    2    0    0  0.13325930644E+02 -0.32879088266E+02 -0.85963591630E+01  0.36503592475E+02  0.00000000000E+00 0. -1.
         11    1    1    2    0    0 -0.10036741003E+03 -0.29750030113E+02 -0.12256425682E+02  0.10539877257E+03  0.00000000000E+00 0.  1.
</event>
<event>
 7    1  0.3265282E-009  0.1012197E+03  0.7561462E-02  0.1277752E+00
         -2   -1    0    0    0  501 -0.00000000000E+00  0.00000000000E+00  0.68042845930E+03  0.68042845930E+03  0.00000000000E+00 0.  1.
          2   -1    0    0  501    0  0.00000000000E+00 -0.00000000000E+00 -0.24251484533E+02  0.24251484533E+02  0.00000000000E+00 0. -1.
         25    2    1    2    0    0 -0.63428480795E+02  0.10972552202E+02  0.29612451596E+03  0.32784394403E+03  0.12509337953E+03 0.  0.
          5    1    3    3  502    0 -0.76681203415E+02  0.91158835723E+01  0.30265415374E+03  0.31237816100E+03  0.41800000000E+01 0. -1.
         -5    1    3    3    0  502  0.13252722621E+02  0.18566686299E+01 -0.65296377772E+01  0.15465783031E+02  0.41800000000E+01 0. -1.
        -11    1    1    2    0    0  0.24248437996E+02  0.40011540700E+02  0.16049746765E+03  0.16717759197E+03  0.00000000000E+00 0. -1.
         11    1    1    2    0    0  0.39180042799E+02 -0.50984092902E+02  0.19955499116E+03  0.20965840784E+03  0.00000000000E+00 0.  1.
</event>
<event>
 7    1  0.3265282E-009  0.1071342E+03  0.7561462E-02  0.1265971E+00
          1   -1    0    0  501    0  0.00000000000E+00  0.00000000000E+00  0.53467575859E+03  0.53467575859E+03  0.00000000000E+00 0. -1.
         -1   -1    0    0    0  501 -0.00000000000E+00 -0.00000000000E+00 -0.25844879522E+02  0.25844879522E+02  0.00000000000E+00 0.  1.
         25    2    1    2    0    0  0.12166151917E+02  0.22550971798E+02  0.19923339468E+03  0.23663681988E+03  0.12508588005E+03 0.  0.
          5    1    3    3  502    0 -0.28822471993E+02  0.60795730966E+02  0.78602845999E+02  0.10355064266E+03  0.41800000000E+01 0. -1.
         -5    1    3    3    0  502  0.40988623910E+02 -0.38244759168E+02  0.12063054868E+03  0.13308617722E+03  0.41800000000E+01 0. -1.
        -11    1    1    2    0    0 -0.32838165491E+02 -0.47810139828E+02  0.24150866691E+03  0.24837590619E+03  0.00000000000E+00 0. -1.
         11    1    1    2    0    0  0.20672013574E+02  0.25259168030E+02  0.68088817483E+02  0.75507912043E+02  0.00000000000E+00 0.  1.
</event>
<event>
 7    1  0.3265282E-009  0.9901489E+02  0.7561462E-02  0.1282381E+00
         -3   -1    0    0    0  501 -0.00000000000E+00  0.00000000000E+00  0.27499034863E+03  0.27499034863E+03  0.00000000000E+00 0.  1.
          3   -1    0    0  501    0  0.00000000000E+00 -0.00000000000E+00 -0.62398215840E+02  0.62398215840E+02  0.00000000000E+00 0. -1.
         25    2    1    2    0    0 -0.69239753160E+02 -0.23956857636E+02  0.12837965285E+03  0.19367236089E+03  0.12513821823E+03 0.  0.
          5    1    3    3  502    0 -0.86267231292E+02 -0.39250015442E+02  0.41177316922E+02  0.10341974055E+03  0.41800000000E+01 0. -1.
         -5    1    3    3    0  502  0.17027478131E+02  0.15293157805E+02  0.87202335928E+02  0.90252620341E+02  0.41800000000E+01 0. -1.
        -11    1    1    2    0    0  0.52165311495E+02  0.31812738346E+02  0.38901388322E+01  0.61224204565E+02  0.00000000000E+00 0. -1.
         11    1    1    2    0    0  0.17074441665E+02 -0.78558807102E+01  0.80322341103E+02  0.82491999007E+02  0.00000000000E+00 0.  1.
</event>
<event>
 6    1  0.3265282E-009  0.5286630E+02  0.7561462E-02  0.1430467E+00
         -1   -1    0    0    0  501 -0.00000000000E+00  0.00000000000E+00  0.12641363405E+03  0.12641363405E+03  0.00000000000E+00 0.  1.
          1   -1    0    0  501    0  0.00000000000E+00 -0.00000000000E+00 -0.95424758465E+02  0.95424758465E+02  0.00000000000E+00 0. -1.
          5    1    1    2  502    0  0.14943361463E+02 -0.23607658418E+02  0.49102157231E+02  0.56649093837E+02  0.41800000000E+01 0. -1.
         -5    1    1    2    0  502 -0.11230593522E+02  0.19133408665E+01 -0.71130726046E+02  0.72158434655E+02  0.41800000000E+01 0. -1.
        -11    1    1    2    0    0 -0.31214136663E+02  0.15417570120E+01  0.49787530150E+02  0.58783479829E+02  0.00000000000E+00 0.  1.
         11    1    1    2    0    0  0.27501368722E+02  0.20152560540E+02  0.32299142473E+01  0.34247384192E+02  0.00000000000E+00 0. -1.
</event>
<event>
 7    1  0.3265282E-009  0.1456154E+03  0.7561462E-02  0.1205967E+00
         -1   -1    0    0    0  501 -0.00000000000E+00  0.00000000000E+00  0.95925295337E+02  0.95925295337E+02  0.00000000000E+00 0.  1.
          1   -1    0    0  501    0  0.00000000000E+00 -0.00000000000E+00 -0.32411477761E+03  0.32411477761E+03  0.00000000000E+00 0. -1.
         25    2    1    2    0    0 -0.49085158321E+02  0.10452681664E+03 -0.21210299181E+03  0.27197530574E+03  0.12509068564E+03 0.  0.
          5    1    3    3  502    0  0.71310156786E+01  0.83560197296E+02 -0.46929738901E+02  0.96192675138E+02  0.41800000000E+01 0. -1.
         -5    1    3    3    0  502 -0.56216174000E+02  0.20966619344E+02 -0.16517325291E+03  0.17578263060E+03  0.41800000000E+01 0. -1.
        -11    1    1    2    0    0 -0.90655074718E+01 -0.85434124837E+02 -0.71465620312E+01  0.86210477676E+02  0.00000000000E+00 0. -1.
         11    1    1    2    0    0  0.58150665793E+02 -0.19092691803E+02 -0.89399284289E+01  0.61854289526E+02  0.00000000000E+00 0.  1.
</event>
<event>
 7    1  0.3265282E-009  0.1336213E+03  0.7561462E-02  0.1222179E+00
          1   -1    0    0  501    0  0.00000000000E+00  0.00000000000E+00  0.44267764899E+03  0.44267764899E+03  0.00000000000E+00 0. -1.
         -1   -1    0    0    0  501 -0.00000000000E+00 -0.00000000000E+00 -0.43063456088E+02  0.43063456088E+02  0.00000000000E+00 0.  1.
         25    2    1    2    0    0  0.73733185798E+00 -0.86545830833E+02  0.22872253126E+03  0.27468573797E+03  0.12509010292E+03 0.  0.
          5    1    3    3  502    0  0.57451334793E+02 -0.39237445254E+02  0.66224168531E+02  0.96142320947E+02  0.41800000000E+01 0. -1.
         -5    1    3    3    0  502 -0.56714002935E+02 -0.47308385579E+02  0.16249836273E+03  0.17854341703E+03  0.41800000000E+01 0. -1.
        -11    1    1    2    0    0  0.93834580016E+01 -0.17061524231E+02  0.32413476761E+02  0.37812410250E+02  0.00000000000E+00 0.  1.
         11    1    1    2    0    0 -0.10120789860E+02  0.10360735506E+03  0.13847818489E+03  0.17324295686E+03  0.00000000000E+00 0. -1.
</event>
<event>
 7    1  0.3265282E-009  0.8553556E+02  0.7561462E-02  0.1314038E+00
          1   -1    0    0  501    0  0.00000000000E+00  0.00000000000E+00  0.51690223531E+02  0.51690223531E+02  0.00000000000E+00 0. -1.
         -1   -1    0    0    0  501 -0.00000000000E+00 -0.00000000000E+00 -0.27619593031E+03  0.27619593031E+03  0.00000000000E+00 0.  1.
         25    2    1    2    0    0 -0.43706315202E+02 -0.15402393184E+02 -0.15338450523E+03  0.20327439771E+03  0.12508476572E+03 0.  0.
          5    1    3    3  502    0 -0.12869593308E+02  0.36642842423E+02 -0.13405375421E+03  0.13962881419E+03  0.41800000000E+01 0.  1.
         -5    1    3    3    0  502 -0.30836721894E+02 -0.52045235607E+02 -0.19330751012E+02  0.63645583517E+02  0.41800000000E+01 0.  1.
        -11    1    1    2    0    0  0.20477997563E+02 -0.20262658739E+02 -0.76468280967E+02  0.81714880637E+02  0.00000000000E+00 0.  1.
         11    1    1    2    0    0  0.23228317639E+02  0.35665051924E+02  0.53470794166E+01  0.42896875496E+02  0.00000000000E+00 0. -1.
</event>
<event>
 7    1  0.3265282E-009  0.1203902E+03  0.7561462E-02  0.1242455E+00
          1   -1    0    0  501    0  0.00000000000E+00  0.00000000000E+00  0.96147579894E+03  0.96147579894E+03  0.00000000000E+00 0. -1.
         -1   -1    0    0    0  501 -0.00000000000E+00 -0.00000000000E+00 -0.18350128509E+02  0.18350128509E+02  0.00000000000E+00 0.  1.
         25    2    1    2    0    0 -0.61739273408E+02 -0.39597629483E+02  0.61359119807E+03  0.63049287318E+03  0.12508954648E+03 0.  0.
          5    1    3    3  502    0  0.30506076371E+02 -0.14954710867E+02  0.63286187330E+02  0.71950524525E+02  0.41800000000E+01 0.  1.
         -5    1    3    3    0  502 -0.92245349779E+02 -0.24642918617E+02  0.55030501074E+03  0.55854234866E+03  0.41800000000E+01 0.  1.
        -11    1    1    2    0    0 -0.17261588325E+02  0.25402025351E+02  0.51676654050E+02  0.60114074037E+02  0.00000000000E+00 0.  1.
         11    1    1    2    0    0  0.79000861733E+02  0.14195604132E+02  0.27785781831E+03  0.28921898023E+03  0.00000000000E+00 0. -1.
</event>
<event>
 7    1  0.3265282E-009  0.1830806E+03  0.7561462E-02  0.1164855E+00
          1   -1    0    0  501    0  0.00000000000E+00  0.00000000000E+00  0.25633157412E+03  0.25633157412E+03  0.00000000000E+00 0. -1.
         -1   -1    0    0    0  501 -0.00000000000E+00 -0.00000000000E+00 -0.17870676656E+03  0.17870676656E+03  0.00000000000E+00 0.  1.
         25    2    1    2    0    0 -0.28672446211E+01 -0.16125026928E+03  0.13110704036E+03  0.24258740676E+03  0.12509885472E+03 0.  0.
          5    1    3    3  502    0 -0.15236506253E+02  0.17780597803E+02  0.87417558534E+01  0.25341497123E+02  0.41800000000E+01 0. -1.
         -5    1    3    3    0  502  0.12369261632E+02 -0.17903086708E+03  0.12236528451E+03  0.21724590964E+03  0.41800000000E+01 0. -1.
        -11    1    1    2    0    0 -0.96917120659E+01  0.51659148468E+02 -0.62631578692E+02  0.81763754517E+02  0.00000000000E+00 0.  1.
         11    1    1    2    0    0  0.12558956687E+02  0.10959112081E+03  0.91493458888E+01  0.11068717940E+03  0.00000000000E+00 0. -1.
</event>
<event>
 7    1  0.3265282E-009  0.8918704E+02  0.7561462E-02  0.1304832E+00
          1   -1    0    0  501    0  0.00000000000E+00  0.00000000000E+00  0.38978757146E+03  0.38978757146E+03  0.00000000000E+00 0. -1.
         -1   -1    0    0    0  501 -0.00000000000E+00 -0.00000000000E+00 -0.36588577286E+02  0.36588577286E+02  0.00000000000E+00 0.  1.
         25    2    1    2    0    0  0.14947572099E+02 -0.44801212081E+01  0.26389083403E+03  0.29245534959E+03  0.12509299669E+03 0.  0.
          5    1    3    3  502    0 -0.61055897312E+00 -0.43519906741E+02  0.23996473799E+03  0.24391577019E+03  0.41800000000E+01 0. -1.
         -5    1    3    3    0  502  0.15558131072E+02  0.39039785533E+02  0.23926096033E+02  0.48539579400E+02  0.41800000000E+01 0. -1.
        -11    1    1    2    0    0 -0.50552250469E+02 -0.13787996106E+02  0.74856416499E+02  0.91373529839E+02  0.00000000000E+00 0. -1.
         11    1    1    2    0    0  0.35604678371E+02  0.18268117314E+02  0.14451743646E+02  0.42547269319E+02  0.00000000000E+00 0.  1.
</event>
<event>
 7    1  0.3265282E-009  0.1067838E+03  0.7561462E-02  0.1266644E+00
          1   -1    0    0  501    0  0.00000000000E+00  0.00000000000E+00  0.68462305236E+02  0.68462305236E+02  0.00000000000E+00 0. -1.
         -1   -1    0    0    0  501 -0.00000000000E+00 -0.00000000000E+00 -0.34409068962E+03  0.34409068962E+03  0.00000000000E+00 0.  1.
         25    2    1    2    0    0  0.24762157199E+02  0.61565746001E+02 -0.26229647957E+03  0.29807891298E+03  0.12509232453E+03 0.  0.
          5    1    3    3  502    0 -0.32742607715E+02  0.35988784470E+02 -0.21158177314E+03  0.21714416891E+03  0.41800000000E+01 0.  1.
         -5    1    3    3    0  502  0.57504764913E+02  0.25576961531E+02 -0.50714706437E+02  0.80934744071E+02  0.41800000000E+01 0.  1.
        -11    1    1    2    0    0 -0.35912771256E+02 -0.75622315323E+02  0.10792095266E+02  0.84409306562E+02  0.00000000000E+00 0. -1.
         11    1    1    2    0    0  0.11150614057E+02  0.14056569322E+02 -0.24124000079E+02  0.30064775316E+02  0.00000000000E+00 0.  1.
</event>
<event>
 7    1  0.3265282E-009  0.1589540E+03  0.7561462E-02  0.1189883E+00
         -3   -1    0    0    0  501 -0.00000000000E+00  0.00000000000E+00  0.57042909996E+03  0.57042909996E+03  0.00000000000E+00 0. -1.
          3   -1    0    0  501    0  0.00000000000E+00 -0.00000000000E+00 -0.56466650315E+02  0.56466650315E+02  0.00000000000E+00 0.  1.
         25    2    1    2    0    0  0.78890181752E+02  0.11080081914E+03  0.34946911300E+03  0.39531865706E+03  0.12509075658E+03 0.  0.
          5    1    3    3  502    0 -0.12924105177E+02  0.73036530784E+02  0.21941175275E+03  0.23164705258E+03  0.41800000000E+01 0.  1.
         -5    1    3    3    0  502  0.91814286929E+02  0.37764288360E+02  0.13005736024E+03  0.16367160448E+03  0.41800000000E+01 0.  1.
        -11    1    1    2    0    0 -0.76112181857E+02 -0.70152448828E+02  0.60516899212E+02  0.11990298326E+03  0.00000000000E+00 0.  1.
         11    1    1    2    0    0 -0.27779998948E+01 -0.40648370316E+02  0.10397643744E+03  0.11167410996E+03  0.00000000000E+00 0. -1.
</event>
<event>
 7    1  0.3265282E-009  0.1126009E+03  0.7561462E-02  0.1255828E+00
         -1   -1    0    0    0  501 -0.00000000000E+00  0.00000000000E+00  0.10561954601E+03  0.10561954601E+03  0.00000000000E+00 0.  1.
          1   -1    0    0  501    0  0.00000000000E+00 -0.00000000000E+00 -0.16071641136E+03  0.16071641136E+03  0.00000000000E+00 0. -1.
         25    2    1    2    0    0 -0.72377849461E+02  0.12602850364E+02 -0.21736590007E+02  0.14668811826E+03  0.12509012656E+03 0.  0.
          5    1    3    3  502    0 -0.23417352972E+02  0.59806734959E+02 -0.40459933993E+02  0.76024316014E+02  0.41800000000E+01 0.  1.
         -5    1    3    3    0  502 -0.48960496488E+02 -0.47203884595E+02  0.18723343986E+02  0.70663802241E+02  0.41800000000E+01 0.  1.
        -11    1    1    2    0    0 -0.84658678608E+01 -0.81223532149E+01  0.19638959790E+02  0.22876456937E+02  0.00000000000E+00 0.  1.
         11    1    1    2    0    0  0.80843717322E+02 -0.44804971496E+01 -0.52999235128E+02  0.96771382181E+02  0.00000000000E+00 0. -1.
</event>
<event>
 7    1  0.3265282E-009  0.1251257E+03  0.7561462E-02  0.1234873E+00
         -1   -1    0    0    0  501 -0.00000000000E+00  0.00000000000E+00  0.63155257717E+02  0.63155257717E+02  0.00000000000E+00 0.  1.
          1   -1    0    0  501    0  0.00000000000E+00 -0.00000000000E+00 -0.25764727535E+03  0.25764727535E+03  0.00000000000E+00 0. -1.
         25    2    1    2    0    0  0.19723001859E+02 -0.63977012515E+02 -0.93336854085E+02  0.16982677652E+03  0.12508921121E+03 0.  0.
          5    1    3    3  502    0 -0.50393190320E+02 -0.15641620992E+02 -0.55025077657E+02  0.76350281657E+02  0.41800000000E+01 0.  1.
         -5    1    3    3    0  502  0.70116192179E+02 -0.48335391523E+02 -0.38311776428E+02  0.93476494866E+02  0.41800000000E+01 0.  1.
        -11    1    1    2    0    0 -0.26827095701E+02 -0.16349426808E+02 -0.29674351942E+02  0.43215321170E+02  0.00000000000E+00 0. -1.
         11    1    1    2    0    0  0.71040938418E+01  0.80326439323E+02 -0.71480811602E+02  0.10776043537E+03  0.00000000000E+00 0.  1.
</event>
<event>
 7    1  0.3265282E-009  0.9571546E+02  0.7561462E-02  0.1289573E+00
         -2   -1    0    0    0  501 -0.00000000000E+00  0.00000000000E+00  0.11681180730E+03  0.11681180730E+03  0.00000000000E+00 0.  1.
          2   -1    0    0  501    0  0.00000000000E+00 -0.00000000000E+00 -0.15273366518E+03  0.15273366518E+03  0.00000000000E+00 0. -1.
         25    2    1    2    0    0 -0.35770407425E+02  0.18227903856E+02 -0.46312462932E+02  0.13928781596E+03  0.12507786744E+03 0.  0.
          5    1    3    3  502    0 -0.42795608534E+02  0.27295005128E+02  0.31921080713E+02  0.60107480471E+02  0.41800000000E+01 0. -1.
         -5    1    3    3    0  502  0.70252011086E+01 -0.90671012728E+01 -0.78233543645E+02  0.79180335484E+02  0.41800000000E+01 0. -1.
        -11    1    1    2    0    0 -0.38832752945E+02 -0.34488914726E+02  0.14086306443E+02  0.53813492448E+02  0.00000000000E+00 0. -1.
         11    1    1    2    0    0  0.74603160370E+02  0.16261010870E+02 -0.36957013896E+01  0.76444164071E+02  0.00000000000E+00 0.  1.
</event>
<event>
 6    1  0.3265282E-009  0.1258357E+03  0.7561462E-02  0.1233769E+00
         -2   -1    0    0    0  501 -0.00000000000E+00  0.00000000000E+00  0.98904918881E+02  0.98904918881E+02  0.00000000000E+00 0.  1.
          2   -1    0    0  501    0  0.00000000000E+00 -0.00000000000E+00 -0.22929833375E+03  0.22929833375E+03  0.00000000000E+00 0. -1.
          5    1    1    2  502    0  0.66294071478E+02  0.25893823362E+02 -0.11402562531E+03  0.13447940225E+03  0.41800000000E+01 0. -1.
         -5    1    1    2    0  502 -0.72142532893E+01 -0.63425182519E+02 -0.38852617005E+02  0.74845156665E+02  0.41800000000E+01 0. -1.
        -11    1    1    2    0    0 -0.53962568538E+02  0.67265043226E+02  0.20524654050E+02  0.88644268101E+02  0.00000000000E+00 0.  1.
         11    1    1    2    0    0 -0.51172496503E+01 -0.29733684069E+02  0.19601734038E+01  0.30234425612E+02  0.00000000000E+00 0. -1.
</event>
<event>
 7    1  0.3265282E-009  0.1088840E+03  0.7561462E-02  0.1262651E+00
         -2   -1    0    0    0  501 -0.00000000000E+00  0.00000000000E+00  0.21124228516E+02  0.21124228516E+02  0.00000000000E+00 0.  1.
          2   -1    0    0  501    0  0.00000000000E+00 -0.00000000000E+00 -0.91617367274E+03  0.91617367274E+03  0.00000000000E+00 0. -1.
         25    2    1    2    0    0 -0.35016231307E+02 -0.54502308904E+02 -0.29246222054E+03  0.32461924357E+03  0.12508742831E+03 0.  0.
          5    1    3    3  502    0  0.16162009391E+02 -0.53109133232E+02 -0.25509253347E+03  0.26109665569E+03  0.41800000000E+01 0.  1.
         -5    1    3    3    0  502 -0.51178240698E+02 -0.13931756718E+01 -0.37369687075E+02  0.63522587884E+02  0.41800000000E+01 0.  1.
        -11    1    1    2    0    0  0.45261679069E+02 -0.92178621679E+01 -0.24683107806E+03  0.25111584910E+03  0.00000000000E+00 0. -1.
         11    1    1    2    0    0 -0.10245447762E+02  0.63720171072E+02 -0.35575614562E+03  0.36156280858E+03  0.00000000000E+00 0.  1.
</event>
<event>
 7    1  0.3265282E-009  0.1426648E+03  0.7561462E-02  0.1209788E+00
         -2   -1    0    0    0  501 -0.00000000000E+00  0.00000000000E+00  0.56938580805E+02  0.56938580805E+02  0.00000000000E+00 0.  1.
          2   -1    0    0  501    0  0.00000000000E+00 -0.00000000000E+00 -0.52774788940E+03  0.52774788940E+03  0.00000000000E+00 0. -1.
         25    2    1    2    0    0  0.12716738071E+03  0.43071655383E+02 -0.22209220812E+03  0.28809482149E+03  0.12508783731E+03 0.  0.
          5    1    3    3  502    0  0.80094824442E+02  0.56912984680E+02 -0.52464838326E+02  0.11146434582E+03  0.41800000000E+01 0. -1.
         -5    1    3    3    0  502  0.47072556271E+02 -0.13841329296E+02 -0.16962736980E+03  0.17663047567E+03  0.41800000000E+01 0. -1.
        -11    1    1    2    0    0 -0.81815851528E+02 -0.42918670668E+02 -0.81059537052E+02  0.12290847977E+03  0.00000000000E+00 0.  1.
         11    1    1    2    0    0 -0.45351529186E+02 -0.15298471500E+00 -0.16765756342E+03  0.17368316894E+03  0.00000000000E+00 0. -1.
</event>
<event>
 7    1  0.3265282E-009  0.2472239E+03  0.7561462E-02  0.1115072E+00
         -1   -1    0    0    0  501 -0.00000000000E+00  0.00000000000E+00  0.15098960115E+03  0.15098960115E+03  0.00000000000E+00 0.  1.
          1   -1    0    0  501    0  0.00000000000E+00 -0.00000000000E+00 -0.43516755401E+03  0.43516755401E+03  0.00000000000E+00 0. -1.
         25    2    1    2    0    0 -0.52949433272E+02  0.22628932559E+03 -0.14701080150E+03  0.30211144990E+03  0.12509456839E+03 0.  0.
          5    1    3    3  502    0  0.69049340330E+01  0.15897321706E+03 -0.13944683581E+03  0.21162007058E+03  0.41800000000E+01 0.  1.
         -5    1    3    3    0  502 -0.59854367305E+02  0.67316108530E+02 -0.75639656939E+01  0.90491379314E+02  0.41800000000E+01 0.  1.
        -11    1    1    2    0    0  0.54978701399E+02 -0.71025861473E+02 -0.74140540475E+02  0.11646523235E+03  0.00000000000E+00 0.  1.
         11    1    1    2    0    0 -0.20292681265E+01 -0.15526346412E+03 -0.63026610882E+02  0.16758047291E+03  0.00000000000E+00 0. -1.
</event>
<event>
 7    1  0.3265282E-009  0.2020277E+03  0.7561462E-02  0.1148039E+00
          2   -1    0    0  501    0  0.00000000000E+00  0.00000000000E+00  0.53243484962E+03  0.53243484962E+03  0.00000000000E+00 0.  1.
         -2   -1    0    0    0  501 -0.00000000000E+00 -0.00000000000E+00 -0.91188701462E+02  0.91188701462E+02  0.00000000000E+00 0. -1.
         25    2    1    2    0    0 -0.83889911432E+02 -0.17110806805E+03  0.20053284684E+03  0.30360424331E+03  0.12508647292E+03 0.  0.
          5    1    3    3  502    0 -0.83138312376E+02 -0.96638341621E+02  0.52674091296E+02  0.13799630557E+03  0.41800000000E+01 0. -1.
         -5    1    3    3    0  502 -0.75159905614E+00 -0.74469726427E+02  0.14785875554E+03  0.16560793775E+03  0.41800000000E+01 0. -1.
        -11    1    1    2    0    0  0.69041898892E+02  0.65164136272E+02  0.15984922160E+03  0.18591643851E+03  0.00000000000E+00 0.  1.
         11    1    1    2    0    0  0.14848012540E+02  0.10594393178E+03  0.80864079719E+02  0.13410286927E+03  0.00000000000E+00 0. -1.
</event>
<event>
 7    1  0.3265282E-009  0.1241097E+03  0.7561462E-02  0.1236467E+00
         -1   -1    0    0    0  501 -0.00000000000E+00  0.00000000000E+00  0.64665271031E+02  0.64665271031E+02  0.00000000000E+00 0.  1.
          1   -1    0    0  501    0  0.00000000000E+00 -0.00000000000E+00 -0.40635773953E+03  0.40635773953E+03  0.00000000000E+00 0. -1.
         25    2    1    2    0    0 -0.87598127018E+02 -0.63621221106E+02 -0.10866785215E+03  0.19793307478E+03  0.12509080049E+03 0.  0.
          5    1    3    3  502    0  0.79962341785E+00 -0.61630199900E+01  0.25882942603E+02  0.26944782998E+02  0.41800000000E+01 0.  1.
         -5    1    3    3    0  502 -0.88397750436E+02 -0.57458201116E+02 -0.13455079475E+03  0.17098829178E+03  0.41800000000E+01 0.  1.
        -11    1    1    2    0    0  0.50834856657E+01  0.51577594145E+02 -0.50236183014E+02  0.72178695805E+02  0.00000000000E+00 0.  1.
         11    1    1    2    0    0  0.82514641352E+02  0.12043626961E+02 -0.18278843334E+03  0.20091123998E+03  0.00000000000E+00 0. -1.
</event>
<event>
 7    1  0.3265282E-009  0.1108471E+03  0.7561462E-02  0.1259009E+00
          2   -1    0    0  501    0  0.00000000000E+00  0.00000000000E+00  0.22613383550E+03  0.22613383550E+03  0.00000000000E+00 0. -1.
         -2   -1    0    0    0  501 -0.00000000000E+00 -0.00000000000E+00 -0.73517305912E+02  0.73517305912E+02  0.00000000000E+00 0.  1.
         25    2    1    2    0    0  0.53215271370E+02 -0.17883537166E+02  0.33967477795E+02  0.14125124931E+03  0.12508573011E+03 0.  0.
          5    1    3    3  502    0  0.58823224667E+02 -0.64439873300E+02  0.86000226865E+01  0.87773013058E+02  0.41800000000E+01 0.  1.
         -5    1    3    3    0  502 -0.56079532971E+01  0.46556336133E+02  0.25367455109E+02  0.53478236256E+02  0.41800000000E+01 0.  1.
        -11    1    1    2    0    0 -0.16961863083E+02  0.40930373358E+02  0.10394596201E+03  0.11299452766E+03  0.00000000000E+00 0. -1.
         11    1    1    2    0    0 -0.36253408287E+02 -0.23046836192E+02  0.14703089785E+02  0.45405364442E+02  0.00000000000E+00 0.  1.
</event>
<event>
 7    1  0.3265282E-009  0.1764330E+03  0.7561462E-02  0.1171301E+00
          2   -1    0    0  501    0  0.00000000000E+00  0.00000000000E+00  0.40909185784E+03  0.40909185784E+03  0.00000000000E+00 0. -1.
         -2   -1    0    0    0  501 -0.00000000000E+00 -0.00000000000E+00 -0.15147237935E+03  0.15147237935E+03  0.00000000000E+00 0.  1.
         25    2    1    2    0    0 -0.35020227789E+02 -0.13623867497E+03  0.32846671508E+03  0.37858390424E+03  0.12509195306E+03 0.  0.
          5    1    3    3  502    0 -0.77097482241E+02 -0.11680045731E+03  0.22308094879E+03  0.26337986011E+03  0.41800000000E+01 0.  1.
         -5    1    3    3    0  502  0.42077254452E+02 -0.19438217660E+02  0.10538576629E+03  0.11520404413E+03  0.41800000000E+01 0.  1.
        -11    1    1    2    0    0  0.49691671809E+02  0.14208263973E+03 -0.70425751944E+02  0.16618220511E+03  0.00000000000E+00 0.  1.
         11    1    1    2    0    0 -0.14671444020E+02 -0.58439647610E+01 -0.42148465244E+00  0.15798127834E+02  0.00000000000E+00 0. -1.
</event>
<event>
 7    1  0.3265282E-009  0.1176964E+03  0.7561462E-02  0.1246946E+00
          1   -1    0    0  501    0  0.00000000000E+00  0.00000000000E+00  0.19766590046E+03  0.19766590046E+03  0.00000000000E+00 0. -1.
         -1   -1    0    0    0  501 -0.00000000000E+00 -0.00000000000E+00 -0.10035195357E+03  0.10035195357E+03  0.00000000000E+00 0.  1.
         25    2    1    2    0    0 -0.61534245128E+02  0.65215477714E+02  0.61015635117E+02  0.16555956679E+03  0.12509012978E+03 0.  0.
          5    1    3    3  502    0 -0.44272359623E+02 -0.59857468350E+01  0.78229878393E+02  0.90184573321E+02  0.41800000000E+01 0.  1.
         -5    1    3    3    0  502 -0.17261885506E+02  0.71201224549E+02 -0.17214243276E+02  0.75374993466E+02  0.41800000000E+01 0.  1.
        -11    1    1    2    0    0  0.27853818152E+01  0.16368688147E+02 -0.12425050933E+02  0.20738230257E+02  0.00000000000E+00 0.  1.
         11    1    1    2    0    0  0.58748863313E+02 -0.81584165861E+02  0.48723362702E+02  0.11172005699E+03  0.00000000000E+00 0. -1.
</event>
<event>
 7    1  0.3265282E-009  0.1049372E+03  0.7561462E-02  0.1270243E+00
         -1   -1    0    0    0  501 -0.00000000000E+00  0.00000000000E+00  0.90154418959E+01  0.90154418959E+01  0.00000000000E+00 0.  1.
          1   -1    0    0  501    0  0.00000000000E+00 -0.00000000000E+00 -0.19245408139E+04  0.19245408139E+04  0.00000000000E+00 0. -1.
         25    2    1    2    0    0 -0.55111613671E+02  0.17144104862E+02 -0.14034756642E+04  0.14102208209E+04  0.12509042168E+03 0.  0.
          5    1    3    3  502    0 -0.43752372725E+02  0.50964546727E+02 -0.12762004713E+04  0.12779736971E+04  0.41800000000E+01 0.  1.
         -5    1    3    3    0  502 -0.11359240945E+02 -0.33820441865E+02 -0.12727519293E+03  0.13224712389E+03  0.41800000000E+01 0.  1.
        -11    1    1    2    0    0  0.62333094748E+02  0.22566716792E+02 -0.35798943286E+03  0.36407568642E+03  0.00000000000E+00 0.  1.
         11    1    1    2    0    0 -0.72214810770E+01 -0.39710821653E+02 -0.15406027496E+03  0.15925974842E+03  0.00000000000E+00 0. -1.
</event>
<event>
 7    1  0.3265282E-009  0.1480142E+03  0.7561462E-02  0.1202935E+00
         -1   -1    0    0    0  501 -0.00000000000E+00  0.00000000000E+00  0.29990743526E+02  0.29990743526E+02  0.00000000000E+00 0.  1.
          1   -1    0    0  501    0  0.00000000000E+00 -0.00000000000E+00 -0.81027633680E+03  0.81027633680E+03  0.00000000000E+00 0. -1.
         25    2    1    2    0    0 -0.83558447488E+02 -0.64481962709E+02 -0.33422314101E+03  0.37214470144E+03  0.12508650272E+03 0.  0.
          5    1    3    3  502    0  0.49845059717E+01  0.30014637707E+02 -0.98295760908E+02  0.10298180805E+03  0.41800000000E+01 0. -1.
         -5    1    3    3    0  502 -0.88542953459E+02 -0.94496600416E+02 -0.23592738010E+03  0.26916289339E+03  0.41800000000E+01 0. -1.
        -11    1    1    2    0    0  0.64357258600E+02 -0.41443556902E+01 -0.14422857093E+03  0.15799023100E+03  0.00000000000E+00 0.  1.
         11    1    1    2    0    0  0.19201188887E+02  0.68626318399E+02 -0.30183388133E+03  0.31013214789E+03  0.00000000000E+00 0. -1.
</event>
<event>
 7    1  0.3265282E-009  0.1039224E+03  0.7561462E-02  0.1272257E+00
         -2   -1    0    0    0  501 -0.00000000000E+00  0.00000000000E+00  0.23989046839E+02  0.23989046839E+02  0.00000000000E+00 0.  1.
          2   -1    0    0  501    0  0.00000000000E+00 -0.00000000000E+00 -0.81766795719E+03  0.81766795719E+03  0.00000000000E+00 0. -1.
         25    2    1    2    0    0  0.68125893260E+02  0.60971902250E+02 -0.47369088409E+03  0.49838767720E+03  0.12509401631E+03 0.  0.
          5    1    3    3  502    0  0.45657920038E+02  0.22377181242E+02 -0.47068708370E+02  0.69414116793E+02  0.41800000000E+01 0.  1.
         -5    1    3    3    0  502  0.22467973222E+02  0.38594721008E+02 -0.42662217572E+03  0.42897356041E+03  0.41800000000E+01 0.  1.
        -11    1    1    2    0    0 -0.67209866929E+02 -0.18797930476E+02 -0.11945530974E+03  0.13834774819E+03  0.00000000000E+00 0.  1.
         11    1    1    2    0    0 -0.91602633121E+00 -0.42173971774E+02 -0.20053271652E+03  0.20492157864E+03  0.00000000000E+00 0. -1.
</event>
<event>
 7    1  0.3265282E-009  0.9976907E+02  0.7561462E-02  0.1280782E+00
          2   -1    0    0  501    0  0.00000000000E+00  0.00000000000E+00  0.77722734570E+03  0.77722734570E+03  0.00000000000E+00 0. -1.
         -2   -1    0    0    0  501 -0.00000000000E+00 -0.00000000000E+00 -0.25661724327E+02  0.25661724327E+02  0.00000000000E+00 0.  1.
         25    2    1    2    0    0  0.67518562879E+01 -0.60638788495E+02  0.53262950080E+03  0.55051266774E+03  0.12508941594E+03 0.  0.
          5    1    3    3  502    0  0.40856656047E+02 -0.11196296481E+02  0.57283908541E+02  0.71369054750E+02  0.41800000000E+01 0.  1.
         -5    1    3    3    0  502 -0.34104799759E+02 -0.49442492014E+02  0.47534559226E+03  0.47914361298E+03  0.41800000000E+01 0.  1.
        -11    1    1    2    0    0 -0.14294927775E+02 -0.15014792691E+02  0.12365254331E+00  0.20731720855E+02  0.00000000000E+00 0.  1.
         11    1    1    2    0    0  0.75430714873E+01  0.75653581186E+02  0.21881246802E+03  0.23164468143E+03  0.00000000000E+00 0. -1.
</event>
<event>
 7    1  0.3265282E-009  0.1620345E+03  0.7561462E-02  0.1186419E+00
         -2   -1    0    0    0  501 -0.00000000000E+00  0.00000000000E+00  0.39159904557E+03  0.39159904557E+03  0.00000000000E+00 0.  1.
          2   -1    0    0  501    0  0.00000000000E+00 -0.00000000000E+00 -0.13350872463E+03  0.13350872463E+03  0.00000000000E+00 0. -1.
         25    2    1    2    0    0 -0.78183874639E+02 -0.11413460391E+03 -0.33732305891E+02  0.18954092288E+03  0.12509383247E+03 0.  0.
          5    1    3    3  502    0 -0.16813878441E+02  0.23752147044E+02  0.12040917730E+02  0.31769908675E+02  0.41800000000E+01 0. -1.
         -5    1    3    3    0  502 -0.61369996198E+02 -0.13788675096E+03 -0.45773223622E+02  0.15777101421E+03  0.41800000000E+01 0. -1.
        -11    1    1    2    0    0  0.27285701720E+02  0.73986422827E+02  0.23984345731E+03  0.25247452207E+03  0.00000000000E+00 0.  1.
         11    1    1    2    0    0  0.50898172919E+02  0.40148181088E+02  0.51979169527E+02  0.83092325253E+02  0.00000000000E+00 0. -1.
</event>
<event>
 7    1  0.3265282E-009  0.1056655E+03  0.7561462E-02  0.1268814E+00
         -4   -1    0    0    0  501 -0.00000000000E+00  0.00000000000E+00  0.23040358601E+03  0.23040358601E+03  0.00000000000E+00 0.  1.
          4   -1    0    0  501    0  0.00000000000E+00 -0.00000000000E+00 -0.79485820042E+02  0.79485820042E+02  0.00000000000E+00 0. -1.
         25    2    1    2    0    0  0.57029589407E+02  0.47219172353E+02  0.11996123706E+03  0.18847829029E+03  0.12510532846E+03 0.  0.
          5    1    3    3  502    0  0.23891581748E+02  0.57646674567E+02  0.13622292202E+03  0.14989364113E+03  0.41800000000E+01 0. -1.
         -5    1    3    3    0  502  0.33138007658E+02 -0.10427502214E+02 -0.16261684952E+02  0.38584649169E+02  0.41800000000E+01 0. -1.
        -11    1    1    2    0    0 -0.58625419810E+02  0.74587401935E+01  0.30945769659E+02  0.66709919150E+02  0.00000000000E+00 0.  1.
         11    1    1    2    0    0  0.15958304036E+01 -0.54677912546E+02  0.10759248993E-01  0.54701196613E+02  0.00000000000E+00 0. -1.
</event>
<event>
 7    1  0.3265282E-009  0.1307254E+03  0.7561462E-02  0.1226383E+00
         -2   -1    0    0    0  501 -0.00000000000E+00  0.00000000000E+00  0.35281574654E+02  0.35281574654E+02  0.00000000000E+00 0. -1.
          2   -1    0    0  501    0  0.00000000000E+00 -0.00000000000E+00 -0.57478652547E+03  0.57478652547E+03  0.00000000000E+00 0.  1.
         25    2    1    2    0    0  0.65912252307E+02 -0.51436705492E+02 -0.37734804131E+03  0.40623807906E+03  0.12509065880E+03 0.  0.
          5    1    3    3  502    0 -0.16195594775E+02 -0.61827558089E+02 -0.12217147150E+03  0.13794305013E+03  0.41800000000E+01 0.  1.
         -5    1    3    3    0  502  0.82107847082E+02  0.10390852597E+02 -0.25517656981E+03  0.26829502893E+03  0.41800000000E+01 0.  1.
        -11    1    1    2    0    0 -0.61318449194E+01  0.54336940383E+02 -0.11602083694E+03  0.12826120698E+03  0.00000000000E+00 0.  1.
         11    1    1    2    0    0 -0.59780407387E+02 -0.29002348911E+01 -0.46136072560E+02  0.75568814077E+02  0.00000000000E+00 0. -1.
</event>
<event>
 7    1  0.3265282E-009  0.1058513E+03  0.7561462E-02  0.1268451E+00
          1   -1    0    0  501    0  0.00000000000E+00  0.00000000000E+00  0.79549599070E+02  0.79549599070E+02  0.00000000000E+00 0. -1.
         -1   -1    0    0    0  501 -0.00000000000E+00 -0.00000000000E+00 -0.21695200540E+03  0.21695200540E+03  0.00000000000E+00 0.  1.
         25    2    1    2    0    0  0.13655707576E+01  0.91697315243E+00  0.75231832820E+01  0.12532557419E+03  0.12508875103E+03 0.  0.
          5    1    3    3  502    0  0.22322397439E+02 -0.56910282758E+02 -0.78856368530E+01  0.61779651825E+02  0.41800000000E+01 0. -1.
         -5    1    3    3    0  502 -0.20956826682E+02  0.57827255910E+02  0.15408820135E+02  0.63545922361E+02  0.41800000000E+01 0. -1.
        -11    1    1    2    0    0  0.29966341524E+02 -0.32558323468E+02 -0.53079916764E+02  0.69105018740E+02  0.00000000000E+00 0. -1.
         11    1    1    2    0    0 -0.31331912282E+02  0.31641350315E+02 -0.91845672853E+02  0.10207101155E+03  0.00000000000E+00 0.  1.
</event>
<event>
 7    1  0.3265282E-009  0.1606951E+03  0.7561462E-02  0.1187914E+00
          2   -1    0    0  501    0  0.00000000000E+00  0.00000000000E+00  0.13358570509E+03  0.13358570509E+03  0.00000000000E+00 0. -1.
         -2   -1    0    0    0  501 -0.00000000000E+00 -0.00000000000E+00 -0.30776150311E+03  0.30776150311E+03  0.00000000000E+00 0.  1.
         25    2    1    2    0    0 -0.60147958679E+02  0.11581807718E+03  0.29909598863E+02  0.18322759593E+03  0.12508462683E+03 0.  0.
          5    1    3    3  502    0  0.87622573920E+00 -0.19801009976E+02 -0.17825012999E+02  0.26982424947E+02  0.41800000000E+01 0.  1.
         -5    1    3    3    0  502 -0.61024184418E+02  0.13561908716E+03  0.47734611862E+02  0.15624517098E+03  0.41800000000E+01 0.  1.
        -11    1    1    2    0    0 -0.19404476752E+02 -0.24346189940E+02 -0.17797830307E+02  0.35861308485E+02  0.00000000000E+00 0.  1.
         11    1    1    2    0    0  0.79552435431E+02 -0.91471887242E+02 -0.18628756658E+03  0.22225830379E+03  0.00000000000E+00 0. -1.
</event>
<event>
 7    1  0.3265282E-009  0.6881306E+02  0.7561462E-02  0.1364176E+00
          3   -1    0    0  501    0  0.00000000000E+00  0.00000000000E+00  0.11095931374E+03  0.11095931374E+03  0.00000000000E+00 0. -1.
         -3   -1    0    0    0  501 -0.00000000000E+00 -0.00000000000E+00 -0.24894441230E+03  0.24894441230E+03  0.00000000000E+00 0.  1.
         25    2    1    2    0    0 -0.26536326387E+02 -0.42028824694E+02  0.50844972378E+02  0.14388586796E+03  0.12508930034E+03 0.  0.
          5    1    3    3  502    0  0.16162275177E+02 -0.26301319269E+02  0.82574494817E+02  0.88255300852E+02  0.41800000000E+01 0.  1.
         -5    1    3    3    0  502 -0.42698601564E+02 -0.15727505424E+02 -0.31729522438E+02  0.55630567107E+02  0.41800000000E+01 0.  1.
        -11    1    1    2    0    0  0.12490262905E+02  0.44760245455E+02 -0.19498134163E+03  0.20044253497E+03  0.00000000000E+00 0.  1.
         11    1    1    2    0    0  0.14046063482E+02 -0.27314207614E+01  0.61512707027E+01  0.15575323110E+02  0.00000000000E+00 0. -1.
</event>
<event>
 7    1  0.3265282E-009  0.1247080E+03  0.7561462E-02  0.1235526E+00
          2   -1    0    0  501    0  0.00000000000E+00  0.00000000000E+00  0.74445307222E+03  0.74445307222E+03  0.00000000000E+00 0.  1.
         -2   -1    0    0    0  501 -0.00000000000E+00 -0.00000000000E+00 -0.28890810811E+02  0.28890810811E+02  0.00000000000E+00 0. -1.
         25    2    1    2    0    0  0.55365929400E+02  0.80628582009E+02  0.34802938168E+03  0.38254429154E+03  0.12509728255E+03 0.  0.
          5    1    3    3  502    0  0.53808633570E+02  0.10115259536E+03  0.34198067111E+03  0.36068749411E+03  0.41800000000E+01 0.  1.
         -5    1    3    3    0  502  0.15572958308E+01 -0.20524013350E+02  0.60487105710E+01  0.21856797430E+02  0.41800000000E+01 0.  1.
        -11    1    1    2    0    0 -0.12005369568E+02 -0.67354005563E+02  0.31043799356E+03  0.31788746249E+03  0.00000000000E+00 0.  1.
         11    1    1    2    0    0 -0.43360559832E+02 -0.13274576446E+02  0.57094886167E+02  0.72912128999E+02  0.00000000000E+00 0. -1.
</event>
<event>
 7    1  0.3265282E-009  0.1359850E+03  0.7561462E-02  0.1218836E+00
         -1   -1    0    0    0  501 -0.00000000000E+00  0.00000000000E+00  0.12414568495E+03  0.12414568495E+03  0.00000000000E+00 0.  1.
          1   -1    0    0  501    0  0.00000000000E+00 -0.00000000000E+00 -0.15483863230E+03  0.15483863230E+03  0.00000000000E+00 0. -1.
         25    2    1    2    0    0 -0.12533919695E+02 -0.83937069546E+02  0.44331253806E+01  0.15121541865E+03  0.12507565491E+03 0.  0.
          5    1    3    3  502    0  0.10479649683E+02  0.30788427729E+02  0.91226658357E+01  0.34035948224E+02  0.41800000000E+01 0.  1.
         -5    1    3    3    0  502 -0.23013569378E+02 -0.11472549727E+03 -0.46895404551E+01  0.11717947043E+03  0.41800000000E+01 0.  1.
        -11    1    1    2    0    0 -0.18408776355E+02  0.88873317665E+02 -0.32183483264E+02  0.96297072825E+02  0.00000000000E+00 0.  1.
         11    1    1    2    0    0  0.30942696051E+02 -0.49362481193E+01 -0.29425894636E+01  0.31471825767E+02  0.00000000000E+00 0. -1.
</event>
<event>
 7    1  0.3265282E-009  0.1227930E+03  0.7561462E-02  0.1238559E+00
          1   -1    0    0  501    0  0.00000000000E+00  0.00000000000E+00  0.51219070249E+03  0.51219070249E+03  0.00000000000E+00 0. -1.
         -1   -1    0    0    0  501 -0.00000000000E+00 -0.00000000000E+00 -0.32660051675E+02  0.32660051675E+02  0.00000000000E+00 0.  1.
         25    2    1    2    0    0 -0.53099417351E+02 -0.33501883362E+02  0.20003147676E+03  0.24413834508E+03  0.12509602523E+03 0.  0.
          5    1    3    3  502    0 -0.19280932333E+02  0.47216714827E+02  0.58932057779E+02  0.78048909952E+02  0.41800000000E+01 0.  1.
         -5    1    3    3    0  502 -0.33818485018E+02 -0.80718598190E+02  0.14109941899E+03  0.16608943513E+03  0.41800000000E+01 0.  1.
        -11    1    1    2    0    0  0.23931026919E+02 -0.29133826919E+02  0.62630979232E+02  0.73103443694E+02  0.00000000000E+00 0.  1.
         11    1    1    2    0    0  0.29168390432E+02  0.62635710282E+02  0.21686819482E+03  0.22760896539E+03  0.00000000000E+00 0. -1.
</event>
<event>
 7    1  0.3265282E-009  0.7880484E+02  0.7561462E-02  0.1332478E+00
          2   -1    0    0  501    0  0.00000000000E+00  0.00000000000E+00  0.21375912180E+03  0.21375912180E+03  0.00000000000E+00 0.  1.
         -2   -1    0    0    0  501 -0.00000000000E+00 -0.00000000000E+00 -0.11447486646E+03  0.11447486646E+03  0.00000000000E+00 0. -1.
         25    2    1    2    0    0  0.33229396638E+02  0.39650872049E+02  0.15723577556E+03  0.20747798056E+03  0.12509052261E+03 0.  0.
          5    1    3    3  502    0  0.34407083418E+02  0.87937490726E+01 -0.10186214069E+02  0.37180758050E+02  0.41800000000E+01 0.  1.
         -5    1    3    3    0  502 -0.11776867799E+01  0.30857122976E+02  0.16742198963E+03  0.17029722251E+03  0.41800000000E+01 0.  1.
        -11    1    1    2    0    0 -0.51328381291E+02 -0.48434306915E+02 -0.13345635843E+02  0.71823330529E+02  0.00000000000E+00 0.  1.
         11    1    1    2    0    0  0.18098984652E+02  0.87834348655E+01 -0.44605884374E+02  0.48932677162E+02  0.00000000000E+00 0. -1.
</event>
<event>
 7    1  0.3265282E-009  0.1203828E+03  0.7561462E-02  0.1242467E+00
         -2   -1    0    0    0  501 -0.00000000000E+00  0.00000000000E+00  0.16897904620E+03  0.16897904620E+03  0.00000000000E+00 0.  1.
          2   -1    0    0  501    0  0.00000000000E+00 -0.00000000000E+00 -0.11614656720E+03  0.11614656720E+03  0.00000000000E+00 0. -1.
         25    2    1    2    0    0 -0.42399131699E+02  0.69377418982E+02  0.68390052828E+02  0.16412030664E+03  0.12508942039E+03 0.  0.
          5    1    3    3  502    0  0.43568569005E+02  0.16531002288E+02  0.32362909425E+02  0.56888703170E+02  0.41800000000E+01 0. -1.
         -5    1    3    3    0  502 -0.85967700704E+02  0.52846416694E+02  0.36027143402E+02  0.10723160347E+03  0.41800000000E+01 0. -1.
        -11    1    1    2    0    0  0.32067056971E+02 -0.11312507589E+02 -0.43934679963E+02  0.55556503437E+02  0.00000000000E+00 0. -1.
         11    1    1    2    0    0  0.10332074728E+02 -0.58064911393E+02  0.28377106138E+02  0.65448803320E+02  0.00000000000E+00 0.  1.
</event>
<event>
 7    1  0.3265282E-009  0.1008974E+03  0.7561462E-02  0.1278420E+00
          1   -1    0    0  501    0  0.00000000000E+00  0.00000000000E+00  0.31760793685E+03  0.31760793685E+03  0.00000000000E+00 0. -1.
         -1   -1    0    0    0  501 -0.00000000000E+00 -0.00000000000E+00 -0.47601629456E+02  0.47601629456E+02  0.00000000000E+00 0.  1.
         25    2    1    2    0    0  0.55330940604E+02 -0.51664091563E+01  0.15804647793E+03  0.20907902212E+03  0.12508854277E+03 0.  0.
          5    1    3    3  502    0  0.31041231509E+02  0.59495598919E+02  0.86273357037E+02  0.10937938050E+03  0.41800000000E+01 0. -1.
         -5    1    3    3    0  502  0.24289709095E+02 -0.64662008075E+02  0.71773120897E+02  0.99699641622E+02  0.41800000000E+01 0. -1.
        -11    1    1    2    0    0 -0.30374474509E+02  0.19960790678E+02 -0.40286559366E+01  0.36568728920E+02  0.00000000000E+00 0.  1.
         11    1    1    2    0    0 -0.24956466095E+02 -0.14794381522E+02  0.11598848540E+03  0.11956181526E+03  0.00000000000E+00 0. -1.
</event>
<event>
 7    1  0.3265282E-009  0.1160232E+03  0.7561462E-02  0.1249805E+00
         -1   -1    0    0    0  501 -0.00000000000E+00  0.00000000000E+00  0.56374101830E+02  0.56374101830E+02  0.00000000000E+00 0.  1.
          1   -1    0    0  501    0  0.00000000000E+00 -0.00000000000E+00 -0.37587159070E+03  0.37587159070E+03  0.00000000000E+00 0. -1.
         25    2    1    2    0    0  0.75451975459E+02  0.17364753792E+02 -0.27284271476E+03  0.30997650471E+03  0.12509097169E+03 0.  0.
          5    1    3    3  502    0  0.68596592690E+02 -0.28366574179E+02 -0.70794543963E+02  0.10266204223E+03  0.41800000000E+01 0.  1.
         -5    1    3    3    0  502  0.68553827699E+01  0.45731327971E+02 -0.20204817080E+03  0.20731446248E+03  0.41800000000E+01 0.  1.
        -11    1    1    2    0    0 -0.10953746675E+02  0.29547876018E+02 -0.23216912946E+02  0.39141877703E+02  0.00000000000E+00 0.  1.
         11    1    1    2    0    0 -0.64498228784E+02 -0.46912629810E+02 -0.23437861165E+02  0.83127310121E+02  0.00000000000E+00 0. -1.
</event>
<event>
 7    1  0.3265282E-009  0.1151325E+03  0.7561462E-02  0.1251350E+00
         -3   -1    0    0    0  501 -0.00000000000E+00  0.00000000000E+00  0.34583331330E+02  0.34583331330E+02  0.00000000000E+00 0.  1.
          3   -1    0    0  501    0  0.00000000000E+00 -0.00000000000E+00 -0.72321182359E+03  0.72321182359E+03  0.00000000000E+00 0. -1.
         25    2    1    2    0    0  0.11475584914E+03  0.61911364120E+01 -0.43315154931E+03  0.46526409471E+03  0.12507269117E+03 0.  0.
          5    1    3    3  502    0  0.53787100077E+02  0.32194279989E+01 -0.39638961083E+02  0.67023402533E+02  0.41800000000E+01 0. -1.
         -5    1    3    3    0  502  0.60968749062E+02  0.29717084132E+01 -0.39351258823E+03  0.39824069218E+03  0.41800000000E+01 0. -1.
        -11    1    1    2    0    0 -0.78305408357E+02 -0.18463844320E+01 -0.75297136774E+02  0.10864991910E+03  0.00000000000E+00 0.  1.
         11    1    1    2    0    0 -0.36450440783E+02 -0.43447519801E+01 -0.18017980617E+03  0.18388114111E+03  0.00000000000E+00 0. -1.
</event>
<event>
 7    1  0.3265282E-009  0.1236033E+03  0.7561462E-02  0.1237268E+00
          2   -1    0    0  501    0  0.00000000000E+00  0.00000000000E+00  0.11750165815E+04  0.11750165815E+04  0.00000000000E+00 0. -1.
         -2   -1    0    0    0  501 -0.00000000000E+00 -0.00000000000E+00 -0.14540701389E+02  0.14540701389E+02  0.00000000000E+00 0.  1.
         25    2    1    2    0    0  0.56281841358E+02 -0.31379470967E+02  0.80267445860E+03  0.81491474551E+03  0.12508972420E+03 0.  0.
          5    1    3    3  502    0  0.25507984292E+02 -0.79210761132E+02  0.44748738585E+03  0.45517846482E+03  0.41800000000E+01 0.  1.
         -5    1    3    3    0  502  0.30773857066E+02  0.47831290165E+02  0.35518707274E+03  0.35973628069E+03  0.41800000000E+01 0.  1.
        -11    1    1    2    0    0 -0.50632018795E+02  0.59526561465E+02  0.30125369814E+03  0.31122468329E+03  0.00000000000E+00 0. -1.
         11    1    1    2    0    0 -0.56498225622E+01 -0.28147090498E+02  0.56547723388E+02  0.63417854102E+02  0.00000000000E+00 0.  1.
</event>
<event>
 7    1  0.3265282E-009  0.1521383E+03  0.7561462E-02  0.1197870E+00
         -1   -1    0    0    0  501 -0.00000000000E+00  0.00000000000E+00  0.43797448679E+03  0.43797448679E+03  0.00000000000E+00 0.  1.
          1   -1    0    0  501    0  0.00000000000E+00 -0.00000000000E+00 -0.60191461229E+02  0.60191461229E+02  0.00000000000E+00 0. -1.
         25    2    1    2    0    0 -0.11678452798E+03 -0.48649959774E+02  0.28270249093E+03  0.33402442582E+03  0.12508466776E+03 0.  0.
          5    1    3    3  502    0  0.16886501413E+02  0.18737075451E+02  0.64437129788E+02  0.69324223918E+02  0.41800000000E+01 0. -1.
         -5    1    3    3    0  502 -0.13367102939E+03 -0.67387035225E+02  0.21826536114E+03  0.26470020191E+03  0.41800000000E+01 0. -1.
        -11    1    1    2    0    0  0.56782707391E+02  0.10204229463E+02  0.64664653832E+02  0.86659792366E+02  0.00000000000E+00 0.  1.
         11    1    1    2    0    0  0.60001820587E+02  0.38445730310E+02  0.30415880800E+02  0.77481729832E+02  0.00000000000E+00 0. -1.
</event>
<event>
 7    1  0.3265282E-009  0.1771339E+03  0.7561462E-02  0.1170606E+00
         -1   -1    0    0    0  501 -0.00000000000E+00  0.00000000000E+00  0.17579869906E+02  0.17579869906E+02  0.00000000000E+00 0.  1.
          1   -1    0    0  501    0  0.00000000000E+00 -0.00000000000E+00 -0.30252367673E+04  0.30252367673E+04  0.00000000000E+00 0. -1.
         25    2    1    2    0    0  0.14373203606E+03 -0.11507031588E+02 -0.25009159263E+04  0.25081904270E+04  0.12508971970E+03 0.  0.
          5    1    3    3  502    0 -0.94539057114E+01  0.24710906887E+02 -0.18520018434E+03  0.18712719185E+03  0.41800000000E+01 0.  1.
         -5    1    3    3    0  502  0.15318594177E+03 -0.36217938475E+02 -0.23157157419E+04  0.23210632352E+04  0.41800000000E+01 0.  1.
        -11    1    1    2    0    0 -0.71675481998E+02 -0.39401321863E+02 -0.26189520601E+03  0.27437007456E+03  0.00000000000E+00 0.  1.
         11    1    1    2    0    0 -0.72056554063E+02  0.50908353452E+02 -0.24484576514E+03  0.26025613565E+03  0.00000000000E+00 0. -1.
</event>
<event>
 7    1  0.3265282E-009  0.1797397E+03  0.7561462E-02  0.1168055E+00
         -2   -1    0    0    0  501 -0.00000000000E+00  0.00000000000E+00  0.35524423667E+02  0.35524423667E+02  0.00000000000E+00 0.  1.
          2   -1    0    0  501    0  0.00000000000E+00 -0.00000000000E+00 -0.11508115846E+04  0.11508115846E+04  0.00000000000E+00 0. -1.
         25    2    1    2    0    0  0.16231983460E+03  0.41721115398E+02 -0.67312158642E+03  0.70486077350E+03  0.12509060611E+03 0.  0.
          5    1    3    3  502    0  0.30427654721E+02 -0.15964594747E+02 -0.34236930935E+03  0.34411470012E+03  0.41800000000E+01 0.  1.
         -5    1    3    3    0  502  0.13189217987E+03  0.57685710145E+02 -0.33075227707E+03  0.36074607338E+03  0.41800000000E+01 0.  1.
        -11    1    1    2    0    0 -0.44584861002E+02 -0.44620545101E+02 -0.88221536090E+02  0.10845202767E+03  0.00000000000E+00 0. -1.
         11    1    1    2    0    0 -0.11773497359E+03  0.28994297034E+01 -0.35394403845E+03  0.37302320712E+03  0.00000000000E+00 0.  1.
</event>
<event>
 7    1  0.3265282E-009  0.1178036E+03  0.7561462E-02  0.1246765E+00
         -1   -1    0    0    0  501 -0.00000000000E+00  0.00000000000E+00  0.24283497344E+03  0.24283497344E+03  0.00000000000E+00 0.  1.
          1   -1    0    0  501    0  0.00000000000E+00 -0.00000000000E+00 -0.11267346237E+03  0.11267346237E+03  0.00000000000E+00 0. -1.
         25    2    1    2    0    0 -0.86438850303E+02  0.72839186288E+02  0.12190281040E+03  0.20805838231E+03  0.12510305098E+03 0.  0.
          5    1    3    3  502    0 -0.58905146203E+02  0.20468508921E+02 -0.10128532214E+02  0.63315366787E+02  0.41800000000E+01 0. -1.
         -5    1    3    3    0  502 -0.27533704100E+02  0.52370677368E+02  0.13203134261E+03  0.14474301552E+03  0.41800000000E+01 0. -1.
        -11    1    1    2    0    0  0.67543415114E+02 -0.49376951987E+02  0.48863264242E+02  0.96890736942E+02  0.00000000000E+00 0.  1.
         11    1    1    2    0    0  0.18895435189E+02 -0.23462234301E+02 -0.40604563570E+02  0.50559316571E+02  0.00000000000E+00 0. -1.
</event>
<event>
 7    1  0.3265282E-009  0.1266342E+03  0.7561462E-02  0.1232537E+00
          1   -1    0    0  501    0  0.00000000000E+00  0.00000000000E+00  0.23042541177E+03  0.23042541177E+03  0.00000000000E+00 0. -1.
         -1   -1    0    0    0  501 -0.00000000000E+00 -0.00000000000E+00 -0.12994741275E+03  0.12994741275E+03  0.00000000000E+00 0.  1.
         25    2    1    2    0    0 -0.61319531249E+02 -0.86393705075E+02  0.13906306711E+03  0.21496327735E+03  0.12508683697E+03 0.  0.
          5    1    3    3  502    0 -0.65815622369E+02 -0.72881099739E+02  0.16090831063E+03  0.18855319588E+03  0.41800000000E+01 0. -1.
         -5    1    3    3    0  502  0.44960911195E+01 -0.13512605336E+02 -0.21845243521E+02  0.26410081462E+02  0.41800000000E+01 0. -1.
        -11    1    1    2    0    0  0.75192446126E+02  0.28189997639E+02 -0.24203673037E+02  0.83871316371E+02  0.00000000000E+00 0.  1.
         11    1    1    2    0    0 -0.13872914877E+02  0.58203707436E+02 -0.14381395050E+02  0.61538230801E+02  0.00000000000E+00 0. -1.
</event>
<event>
 7    1  0.3265282E-009  0.2230443E+03  0.7561462E-02  0.1131634E+00
          2   -1    0    0  501    0  0.00000000000E+00  0.00000000000E+00  0.18607745408E+03  0.18607745408E+03  0.00000000000E+00 0. -1.
         -2   -1    0    0    0  501 -0.00000000000E+00 -0.00000000000E+00 -0.33388929400E+03  0.33388929400E+03  0.00000000000E+00 0.  1.
         25    2    1    2    0    0  0.19318239677E+03 -0.11108472424E+03 -0.52225069267E+02  0.26083455349E+03  0.12509177453E+03 0.  0.
          5    1    3    3  502    0  0.11787961108E+03 -0.64893464864E+02 -0.92819817893E+02  0.16352295094E+03  0.41800000000E+01 0.  1.
         -5    1    3    3    0  502  0.75302785698E+02 -0.46191259375E+02  0.40594748626E+02  0.97311602558E+02  0.41800000000E+01 0.  1.
        -11    1    1    2    0    0 -0.20903045196E+02  0.15317487654E+02 -0.50758132325E+02  0.56990795078E+02  0.00000000000E+00 0.  1.
         11    1    1    2    0    0 -0.17227935158E+03  0.95767236585E+02 -0.44828638327E+02  0.20214139951E+03  0.00000000000E+00 0. -1.
</event>
<event>
 7    1  0.3265282E-009  0.8503481E+02  0.7561462E-02  0.1315342E+00
         -2   -1    0    0    0  501 -0.00000000000E+00  0.00000000000E+00  0.68119871887E+02  0.68119871887E+02  0.00000000000E+00 0.  1.
          2   -1    0    0  501    0  0.00000000000E+00 -0.00000000000E+00 -0.21275014719E+03  0.21275014719E+03  0.00000000000E+00 0. -1.
         25    2    1    2    0    0  0.23890437992E+02  0.28902599287E+02 -0.36514678736E+02  0.13559337765E+03  0.12508448756E+03 0.  0.
          5    1    3    3  502    0 -0.15912351619E+02 -0.84834124323E+01  0.38496981135E+02  0.42716052920E+02  0.41800000000E+01 0.  1.
         -5    1    3    3    0  502  0.39802789611E+02  0.37386011719E+02 -0.75011659872E+02  0.92877324734E+02  0.41800000000E+01 0.  1.
        -11    1    1    2    0    0  0.18335996157E+02 -0.47301478594E+02 -0.51490421667E+02  0.72283484667E+02  0.00000000000E+00 0.  1.
         11    1    1    2    0    0 -0.42226434149E+02  0.18398879307E+02 -0.56625174899E+02  0.72993156755E+02  0.00000000000E+00 0. -1.
</event>
<event>
 7    1  0.3265282E-009  0.9204614E+02  0.7561462E-02  0.1297971E+00
          1   -1    0    0  501    0  0.00000000000E+00  0.00000000000E+00  0.36478830162E+03  0.36478830162E+03  0.00000000000E+00 0. -1.
         -1   -1    0    0    0  501 -0.00000000000E+00 -0.00000000000E+00 -0.13443657212E+03  0.13443657212E+03  0.00000000000E+00 0.  1.
         25    2    1    2    0    0 -0.41998741156E+02 -0.47780883011E+02  0.32440647042E+03  0.35345995549E+03  0.12508986788E+03 0.  0.
          5    1    3    3  502    0 -0.49552269856E+02 -0.46610704076E+02  0.65899170868E+02  0.94805898041E+02  0.41800000000E+01 0.  1.
         -5    1    3    3    0  502  0.75535287002E+01 -0.11701789355E+01  0.25850729955E+03  0.25865405745E+03  0.41800000000E+01 0.  1.
        -11    1    1    2    0    0 -0.18784657204E+02 -0.11738836039E+02 -0.52039218086E+01  0.22753997890E+02  0.00000000000E+00 0.  1.
         11    1    1    2    0    0  0.60783398359E+02  0.59519719050E+02 -0.88850819112E+02  0.12301092036E+03  0.00000000000E+00 0. -1.
</event>
<event>
 7    1  0.3265282E-009  0.9086862E+02  0.7561462E-02  0.1300762E+00
          1   -1    0    0  501    0  0.00000000000E+00  0.00000000000E+00  0.11901350322E+03  0.11901350322E+03  0.00000000000E+00 0. -1.
         -1   -1    0    0    0  501 -0.00000000000E+00 -0.00000000000E+00 -0.14823454623E+03  0.14823454623E+03  0.00000000000E+00 0.  1.
         25    2    1    2    0    0 -0.55086150587E+02 -0.96705801607E+00 -0.39364095963E+02  0.14224185868E+03  0.12509114725E+03 0.  0.
          5    1    3    3  502    0 -0.24140729842E+02 -0.89451077713E+01  0.44954934857E+02  0.51973150360E+02  0.41800000000E+01 0. -1.
         -5    1    3    3    0  502 -0.30945420745E+02  0.79780497553E+01 -0.84319030820E+02  0.90268708318E+02  0.41800000000E+01 0. -1.
        -11    1    1    2    0    0  0.50149521603E+02  0.51948850734E+02  0.14334345449E+02  0.73614747633E+02  0.00000000000E+00 0. -1.
         11    1    1    2    0    0  0.49366289835E+01 -0.50981792718E+02 -0.41912924966E+01  0.51391443133E+02  0.00000000000E+00 0.  1.
</event>
<event>
 7    1  0.3265282E-009  0.9825612E+02  0.7561462E-02  0.1284006E+00
         -1   -1    0    0    0  501 -0.00000000000E+00  0.00000000000E+00  0.25812015438E+02  0.25812015438E+02  0.00000000000E+00 0.  1.
          1   -1    0    0  501    0  0.00000000000E+00 -0.00000000000E+00 -0.56582419442E+03  0.56582419442E+03  0.00000000000E+00 0. -1.
         25    2    1    2    0    0  0.34239434801E+02 -0.41092147610E+02 -0.30743559440E+03  0.33619018938E+03  0.12508515198E+03 0.  0.
          5    1    3    3  502    0  0.72088704135E+02 -0.14849632116E+02 -0.10346373494E+03  0.12704136998E+03  0.41800000000E+01 0. -1.
         -5    1    3    3    0  502 -0.37849269335E+02 -0.26242515493E+02 -0.20397185946E+03  0.20914881941E+03  0.41800000000E+01 0. -1.
        -11    1    1    2    0    0 -0.32561463357E+02 -0.27440586870E+01 -0.19489634839E+03  0.19761671328E+03  0.00000000000E+00 0. -1.
         11    1    1    2    0    0 -0.16779714432E+01  0.43836206297E+02 -0.37680236204E+02  0.57829307198E+02  0.00000000000E+00 0.  1.
</event>
<event>
 7    1  0.3265282E-009  0.1870797E+03  0.7561462E-02  0.1161122E+00
          2   -1    0    0  501    0  0.00000000000E+00  0.00000000000E+00  0.39468963078E+03  0.39468963078E+03  0.00000000000E+00 0. -1.
         -2   -1    0    0    0  501 -0.00000000000E+00 -0.00000000000E+00 -0.11690647539E+03  0.11690647539E+03  0.00000000000E+00 0.  1.
         25    2    1    2    0    0  0.39953604621E+02 -0.15731739110E+03  0.24897697372E+03  0.32246233218E+03  0.12508944865E+03 0.  0.
          5    1    3    3  502    0 -0.34368774845E+02 -0.10117734749E+03  0.16704501477E+03  0.19834207242E+03  0.41800000000E+01 0. -1.
         -5    1    3    3    0  502  0.74322379465E+02 -0.56140043613E+02  0.81931958946E+02  0.12412025976E+03  0.41800000000E+01 0. -1.
        -11    1    1    2    0    0  0.12156414151E+02  0.78915066924E+02  0.47851056401E+02  0.93086464061E+02  0.00000000000E+00 0. -1.
         11    1    1    2    0    0 -0.52110018771E+02  0.78402324178E+02 -0.19044874732E+02  0.96047309938E+02  0.00000000000E+00 0.  1.
</event>
<event>
 7    1  0.3265282E-009  0.8633720E+02  0.7561462E-02  0.1311972E+00
          2   -1    0    0  501    0  0.00000000000E+00  0.00000000000E+00  0.14507615150E+04  0.14507615150E+04  0.00000000000E+00 0. -1.
         -2   -1    0    0    0  501 -0.00000000000E+00 -0.00000000000E+00 -0.10713004176E+02  0.10713004176E+02  0.00000000000E+00 0.  1.
         25    2    1    2    0    0  0.27917316017E+02 -0.32870167444E+02  0.11091862990E+04  0.11170500155E+04  0.12508663748E+03 0.  0.
          5    1    3    3  502    0 -0.10526216162E+02 -0.38885523210E+02  0.11203452115E+03  0.11913056480E+03  0.41800000000E+01 0. -1.
         -5    1    3    3    0  502  0.38443532179E+02  0.60153557654E+01  0.99715177782E+03  0.99791945070E+03  0.41800000000E+01 0. -1.
        -11    1    1    2    0    0  0.26384215518E+02 -0.49753502744E+01  0.13608722820E+03  0.13871054257E+03  0.00000000000E+00 0.  1.
         11    1    1    2    0    0 -0.54301531535E+02  0.37845517719E+02  0.19477498369E+03  0.20571396115E+03  0.00000000000E+00 0. -1.
</event>
<event>
 7    1  0.3265282E-009  0.2356515E+03  0.7561462E-02  0.1122724E+00
         -2   -1    0    0    0  501 -0.00000000000E+00  0.00000000000E+00  0.19689330806E+03  0.19689330806E+03  0.00000000000E+00 0. -1.
          2   -1    0    0  501    0  0.00000000000E+00 -0.00000000000E+00 -0.39718221758E+03  0.39718221758E+03  0.00000000000E+00 0.  1.
         25    2    1    2    0    0 -0.20789904352E+03  0.35662967099E+02 -0.25924858751E+03  0.35686318727E+03  0.12509054634E+03 0.  0.
          5    1    3    3  502    0 -0.22323764848E+03  0.36822647774E+02 -0.22513279577E+03  0.31920714782E+03  0.41800000000E+01 0. -1.
         -5    1    3    3    0  502  0.15338604955E+02 -0.11596806751E+01 -0.34115791740E+02  0.37656039452E+02  0.41800000000E+01 0. -1.
        -11    1    1    2    0    0  0.18633368073E+03  0.12285474343E+01  0.40636243824E+02  0.19071721006E+03  0.00000000000E+00 0.  1.
         11    1    1    2    0    0  0.21565362797E+02 -0.36891514533E+02  0.18323434162E+02  0.46495128310E+02  0.00000000000E+00 0. -1.
</event>
<event>
 7    1  0.3265282E-009  0.2418785E+03  0.7561462E-02  0.1118548E+00
          1   -1    0    0  501    0  0.00000000000E+00  0.00000000000E+00  0.77810616923E+03  0.77810616923E+03  0.00000000000E+00 0.  1.
         -1   -1    0    0    0  501 -0.00000000000E+00 -0.00000000000E+00 -0.80279577620E+02  0.80279577620E+02  0.00000000000E+00 0. -1.
         25    2    1    2    0    0 -0.20117909073E+03  0.91460896953E+02  0.28465761119E+03  0.38146445107E+03  0.12508816732E+03 0.  0.
          5    1    3    3  502    0 -0.19465181603E+03  0.11694555915E+03  0.25017166393E+03  0.33788892719E+03  0.41800000000E+01 0.  1.
         -5    1    3    3    0  502 -0.65272746985E+01 -0.25484662197E+02  0.34485947266E+02  0.43575523876E+02  0.41800000000E+01 0.  1.
        -11    1    1    2    0    0  0.15820444988E+03 -0.98631550964E+02  0.37587894191E+03  0.41957336638E+03  0.00000000000E+00 0.  1.
         11    1    1    2    0    0  0.42974640841E+02  0.71706540106E+01  0.37290038514E+02  0.57347929402E+02  0.00000000000E+00 0. -1.
</event>
<event>
 7    1  0.4379305E-009  0.1078310E+03  0.7561462E-02  0.1264640E+00
         -2   -1    0    0    0  501 -0.00000000000E+00  0.00000000000E+00  0.75282623725E+02  0.75282623725E+02  0.00000000000E+00 0.  1.
          2   -1    0    0  501    0  0.00000000000E+00 -0.00000000000E+00 -0.22745995043E+03  0.22745995043E+03  0.00000000000E+00 0. -1.
         25    2    1    2    0    0  0.49544458577E+02  0.49695294774E+02 -0.10477849574E+03  0.17762446780E+03  0.12509053799E+03 0.  0.
          5    1    3    3  502    0  0.31623044695E+02 -0.39017353311E+02 -0.22323390263E+02  0.55119660449E+02  0.41800000000E+01 0. -1.
         -5    1    3    3    0  502  0.17921413882E+02  0.88712648085E+02 -0.82455105475E+02  0.12250480735E+03  0.41800000000E+01 0. -1.
        -11    1    1    2    0    0 -0.30064619866E+02 -0.12269114970E+02  0.25231308286E+02  0.41122153004E+02  0.00000000000E+00 0.  1.
         11    1    1    2    0    0 -0.19479838712E+02 -0.37426179803E+02 -0.72630139250E+02  0.83995953345E+02  0.00000000000E+00 0. -1.
</event>
<event>
 7    1  0.3265282E-009  0.1711508E+03  0.7561462E-02  0.1176653E+00
         -1   -1    0    0    0  501 -0.00000000000E+00  0.00000000000E+00  0.51528560409E+02  0.51528560409E+02  0.00000000000E+00 0.  1.
          1   -1    0    0  501    0  0.00000000000E+00 -0.00000000000E+00 -0.86988228128E+03  0.86988228128E+03  0.00000000000E+00 0. -1.
         25    2    1    2    0    0  0.13130120421E+03 -0.74685111867E+02 -0.64070621842E+03  0.67005205847E+03  0.12508969013E+03 0.  0.
          5    1    3    3  502    0  0.11296597696E+02  0.26104309394E+02 -0.40218118442E+02  0.49437005770E+02  0.41800000000E+01 0. -1.
         -5    1    3    3    0  502  0.12000460652E+03 -0.10078942126E+03 -0.60048809998E+03  0.62061505270E+03  0.41800000000E+01 0. -1.
        -11    1    1    2    0    0 -0.10711509821E+03  0.77811268204E+02 -0.89271801301E+02  0.15967996816E+03  0.00000000000E+00 0.  1.
         11    1    1    2    0    0 -0.24186106007E+02 -0.31261563362E+01 -0.88375701153E+02  0.91678815063E+02  0.00000000000E+00 0. -1.
</event>
<event>
 7    1  0.3265282E-009  0.1077182E+03  0.7561462E-02  0.1264855E+00
         -2   -1    0    0    0  501 -0.00000000000E+00  0.00000000000E+00  0.12634544401E+03  0.12634544401E+03  0.00000000000E+00 0.  1.
          2   -1    0    0  501    0  0.00000000000E+00 -0.00000000000E+00 -0.17679324297E+03  0.17679324297E+03  0.00000000000E+00 0. -1.
         25    2    1    2    0    0 -0.54632018509E+02  0.66346392434E+02 -0.81770125125E+02  0.17240653818E+03  0.12510459548E+03 0.  0.
          5    1    3    3  502    0  0.15923840145E+01  0.59577200618E+02 -0.96722146058E+02  0.11368651837E+03  0.41800000000E+01 0. -1.
         -5    1    3    3    0  502 -0.56224402523E+02  0.67691918163E+01  0.14952020934E+02  0.58720019814E+02  0.41800000000E+01 0. -1.
        -11    1    1    2    0    0  0.14202735657E+02 -0.55159448549E+02  0.57781953146E+02  0.81135914204E+02  0.00000000000E+00 0.  1.
         11    1    1    2    0    0  0.40429282852E+02 -0.11186943885E+02 -0.26459626979E+02  0.49596234588E+02  0.00000000000E+00 0. -1.
</event>
<event>
 7    1  0.3265282E-009  0.1299727E+03  0.7561462E-02  0.1227496E+00
         -1   -1    0    0    0  501 -0.00000000000E+00  0.00000000000E+00  0.36432855797E+02  0.36432855797E+02  0.00000000000E+00 0.  1.
          1   -1    0    0  501    0  0.00000000000E+00 -0.00000000000E+00 -0.80830448587E+03  0.80830448587E+03  0.00000000000E+00 0. -1.
         25    2    1    2    0    0  0.71659215422E+02  0.66440824522E+02 -0.18911711258E+03  0.24690521787E+03  0.12508987977E+03 0.  0.
          5    1    3    3  502    0  0.87957087800E+02  0.65797728569E+02 -0.19902872756E+03  0.22736687792E+03  0.41800000000E+01 0. -1.
         -5    1    3    3    0  502 -0.16297872378E+02  0.64309595282E+00  0.99116149820E+01  0.19538339951E+02  0.41800000000E+01 0. -1.
        -11    1    1    2    0    0 -0.88713442239E+02 -0.73024743669E+02 -0.48981314608E+03  0.50310993440E+03  0.00000000000E+00 0.  1.
         11    1    1    2    0    0  0.17054226818E+02  0.65839191468E+01 -0.92941371414E+02  0.94722189396E+02  0.00000000000E+00 0. -1.
</event>
<event>
 7    1  0.3265282E-009  0.7672092E+02  0.7561462E-02  0.1338623E+00
          1   -1    0    0  501    0  0.00000000000E+00  0.00000000000E+00  0.72456887661E+02  0.72456887661E+02  0.00000000000E+00 0. -1.
         -1   -1    0    0    0  501 -0.00000000000E+00 -0.00000000000E+00 -0.29226549414E+03  0.29226549414E+03  0.00000000000E+00 0.  1.
         25    2    1    2    0    0  0.25397257323E+02  0.32144782378E+02 -0.23730441979E+03  0.27136544361E+03  0.12509000209E+03 0.  0.
          5    1    3    3  502    0  0.42882670804E+02  0.28833629229E+02 -0.24579956519E+03  0.25120748451E+03  0.41800000000E+01 0. -1.
         -5    1    3    3    0  502 -0.17485413481E+02  0.33111531490E+01  0.84951453963E+01  0.20157959100E+02  0.41800000000E+01 0. -1.
        -11    1    1    2    0    0  0.25350785504E+02 -0.52701118620E+01  0.24326012648E+02  0.35527331676E+02  0.00000000000E+00 0. -1.
         11    1    1    2    0    0 -0.50748042828E+02 -0.26874670516E+02 -0.68301993351E+01  0.57829606510E+02  0.00000000000E+00 0.  1.
</event>
<event>
 7    1  0.3265282E-009  0.1945983E+03  0.7561462E-02  0.1154378E+00
         -1   -1    0    0    0  501 -0.00000000000E+00  0.00000000000E+00  0.26134936727E+03  0.26134936727E+03  0.00000000000E+00 0.  1.
          1   -1    0    0  501    0  0.00000000000E+00 -0.00000000000E+00 -0.15504892064E+03  0.15504892064E+03  0.00000000000E+00 0. -1.
         25    2    1    2    0    0  0.13408116521E+03  0.89256707523E+02  0.47390876710E+01  0.20400052255E+03  0.12509690463E+03 0.  0.
          5    1    3    3  502    0  0.15813688036E+03  0.72134139950E+02  0.76968683912E+01  0.17403252932E+03  0.41800000000E+01 0.  1.
         -5    1    3    3    0  502 -0.24055715154E+02  0.17122567573E+02 -0.29577807202E+01  0.29967993237E+02  0.41800000000E+01 0.  1.
        -11    1    1    2    0    0 -0.32335170217E+02  0.18547108032E+02  0.29699493986E+02  0.47661498008E+02  0.00000000000E+00 0. -1.
         11    1    1    2    0    0 -0.10174599499E+03 -0.10780381555E+03  0.71861864968E+02  0.16473626735E+03  0.00000000000E+00 0.  1.
</event>
<event>
 7    1  0.3265282E-009  0.9808830E+02  0.7561462E-02  0.1284368E+00
         -1   -1    0    0    0  501 -0.00000000000E+00  0.00000000000E+00  0.22439447860E+02  0.22439447860E+02  0.00000000000E+00 0.  1.
          1   -1    0    0  501    0  0.00000000000E+00 -0.00000000000E+00 -0.53309815824E+03  0.53309815824E+03  0.00000000000E+00 0. -1.
         25    2    1    2    0    0  0.14497136462E+02  0.80131213865E+01 -0.28974408914E+03  0.31602759421E+03  0.12508967197E+03 0.  0.
          5    1    3    3  502    0 -0.30284290940E+02  0.43378609439E+02 -0.21745012075E+03  0.22383223506E+03  0.41800000000E+01 0. -1.
         -5    1    3    3    0  502  0.44781427401E+02 -0.35365488052E+02 -0.72293968383E+02  0.92195359156E+02  0.41800000000E+01 0. -1.
        -11    1    1    2    0    0 -0.34993574156E+01 -0.46108682690E+02 -0.16218493320E+03  0.16864818018E+03  0.00000000000E+00 0. -1.
         11    1    1    2    0    0 -0.10997779046E+02  0.38095561303E+02 -0.58729688039E+02  0.70861831702E+02  0.00000000000E+00 0.  1.
</event>
<event>
 7    1  0.3265282E-009  0.1086399E+03  0.7561462E-02  0.1263109E+00
         -1   -1    0    0    0  501 -0.00000000000E+00  0.00000000000E+00  0.32998491504E+03  0.32998491504E+03  0.00000000000E+00 0.  1.
          1   -1    0    0  501    0  0.00000000000E+00 -0.00000000000E+00 -0.54813046236E+02  0.54813046236E+02  0.00000000000E+00 0. -1.
         25    2    1    2    0    0 -0.13501036444E+02 -0.36413123834E+02  0.52335441845E+02  0.14105049075E+03  0.12509216160E+03 0.  0.
          5    1    3    3  502    0  0.20062577539E+02  0.36899471191E+02  0.42186983646E+02  0.59676561403E+02  0.41800000000E+01 0. -1.
         -5    1    3    3    0  502 -0.33563613983E+02 -0.73312595025E+02  0.10148458199E+02  0.81373929343E+02  0.41800000000E+01 0. -1.
        -11    1    1    2    0    0  0.24130190171E+02  0.62051620738E+02  0.12000690325E+03  0.13723821094E+03  0.00000000000E+00 0.  1.
         11    1    1    2    0    0 -0.10629153727E+02 -0.25638496904E+02  0.10282952370E+03  0.10650925958E+03  0.00000000000E+00 0. -1.
</event>
<event>
 7    1  0.3265282E-009  0.1211872E+03  0.7561462E-02  0.1241151E+00
          1   -1    0    0  501    0  0.00000000000E+00  0.00000000000E+00  0.10486330821E+03  0.10486330821E+03  0.00000000000E+00 0. -1.
         -1   -1    0    0    0  501 -0.00000000000E+00 -0.00000000000E+00 -0.19043115859E+03  0.19043115859E+03  0.00000000000E+00 0.  1.
         25    2    1    2    0    0  0.69001934752E+02 -0.40584860146E+02 -0.78810171090E+02  0.16812716170E+03  0.12508917444E+03 0.  0.
          5    1    3    3  502    0  0.91485749038E+02  0.49057144000E+01 -0.72326994815E+02  0.11680057744E+03  0.41800000000E+01 0. -1.
         -5    1    3    3    0  502 -0.22483814286E+02 -0.45490574546E+02 -0.64831762745E+01  0.51326584262E+02  0.41800000000E+01 0. -1.
        -11    1    1    2    0    0 -0.11821242045E+02 -0.15605856826E+02 -0.36695190612E+02  0.41591123390E+02  0.00000000000E+00 0.  1.
         11    1    1    2    0    0 -0.57180692707E+02  0.56190716972E+02  0.29937511322E+02  0.85576181712E+02  0.00000000000E+00 0. -1.
</event>
<event>
 7    1  0.3265282E-009  0.1974178E+03  0.7561462E-02  0.1151936E+00
          1   -1    0    0  501    0  0.00000000000E+00  0.00000000000E+00  0.47385128734E+03  0.47385128734E+03  0.00000000000E+00 0. -1.
         -1   -1    0    0    0  501 -0.00000000000E+00 -0.00000000000E+00 -0.86657127570E+02  0.86657127570E+02  0.00000000000E+00 0.  1.
         25    2    1    2    0    0 -0.10222146746E+03  0.13606192618E+03  0.22347014537E+03  0.30748697394E+03  0.12508899673E+03 0.  0.
          5    1    3    3  502    0 -0.80702291510E+02  0.12888289198E+02  0.59203081880E+02  0.10100220373E+03  0.41800000000E+01 0.  1.
         -5    1    3    3    0  502 -0.21519175946E+02  0.12317363698E+03  0.16426706349E+03  0.20648477021E+03  0.41800000000E+01 0.  1.
        -11    1    1    2    0    0  0.10623183976E+03 -0.83342428243E+02  0.14174817662E+03  0.19576442398E+03  0.00000000000E+00 0. -1.
         11    1    1    2    0    0 -0.40103722991E+01 -0.52719497933E+02  0.21975837775E+02  0.57257016987E+02  0.00000000000E+00 0.  1.
</event>
<event>
 7    1  0.3265282E-009  0.1630600E+03  0.7561462E-02  0.1185285E+00
         -1   -1    0    0    0  501 -0.00000000000E+00  0.00000000000E+00  0.10562252147E+03  0.10562252147E+03  0.00000000000E+00 0.  1.
          1   -1    0    0  501    0  0.00000000000E+00 -0.00000000000E+00 -0.36569118293E+03  0.36569118293E+03  0.00000000000E+00 0. -1.
         25    2    1    2    0    0 -0.73121270314E+01 -0.13611343007E+03 -0.24416599870E+03  0.30634203702E+03  0.12509226865E+03 0.  0.
          5    1    3    3  502    0  0.57567685813E+01 -0.15721262219E+03 -0.22559968992E+03  0.27506661276E+03  0.41800000000E+01 0. -1.
         -5    1    3    3    0  502 -0.13068895613E+02  0.21099192125E+02 -0.18566308778E+02  0.31275424258E+02  0.41800000000E+01 0. -1.
        -11    1    1    2    0    0 -0.13636477938E+02  0.10612441281E+03  0.25224024740E+02  0.10992995929E+03  0.00000000000E+00 0.  1.
         11    1    1    2    0    0  0.20948604969E+02  0.29989017254E+02 -0.41126687501E+02  0.55041708102E+02  0.00000000000E+00 0. -1.
</event>
<event>
 7    1  0.3265282E-009  0.9522815E+02  0.7561462E-02  0.1290663E+00
          4   -1    0    0  501    0  0.00000000000E+00  0.00000000000E+00  0.89602238788E+02  0.89602238788E+02  0.00000000000E+00 0. -1.
         -4   -1    0    0    0  501 -0.00000000000E+00 -0.00000000000E+00 -0.22278399632E+03  0.22278399632E+03  0.00000000000E+00 0.  1.
         25    2    1    2    0    0  0.39083141289E+01  0.32696796307E+02  0.19130413769E+02  0.13076256428E+03  0.12509404493E+03 0.  0.
          5    1    3    3  502    0  0.42538029560E+02  0.49781782419E+02 -0.24362100767E+02  0.69990672046E+02  0.41800000000E+01 0.  1.
         -5    1    3    3    0  502 -0.38629715432E+02 -0.17084986112E+02  0.43492514536E+02  0.60771892232E+02  0.41800000000E+01 0.  1.
        -11    1    1    2    0    0  0.18001879527E+02 -0.50850643428E+02 -0.43927748572E+02  0.69566534326E+02  0.00000000000E+00 0. -1.
         11    1    1    2    0    0 -0.21910193656E+02  0.18153847121E+02 -0.10838442273E+03  0.11205713650E+03  0.00000000000E+00 0.  1.
</event>
<event>
 7    1  0.3265282E-009  0.1667568E+03  0.7561462E-02  0.1181273E+00
         -2   -1    0    0    0  501 -0.00000000000E+00  0.00000000000E+00  0.31118975532E+02  0.31118975532E+02  0.00000000000E+00 0.  1.
          2   -1    0    0  501    0  0.00000000000E+00 -0.00000000000E+00 -0.96782836751E+03  0.96782836751E+03  0.00000000000E+00 0. -1.
         25    2    1    2    0    0 -0.54002568781E+02 -0.12260643235E+03 -0.50518297968E+03  0.53740679133E+03  0.12509037422E+03 0.  0.
          5    1    3    3  502    0  0.86447892085E+01  0.17329956095E+02 -0.18423155833E+02  0.27054478919E+02  0.41800000000E+01 0.  1.
         -5    1    3    3    0  502 -0.62647357990E+02 -0.13993638845E+03 -0.48675982385E+03  0.51035231241E+03  0.41800000000E+01 0.  1.
        -11    1    1    2    0    0 -0.42777235573E+01  0.96278610911E+02 -0.21176942826E+03  0.23266748931E+03  0.00000000000E+00 0.  1.
         11    1    1    2    0    0  0.58280292339E+02  0.26327821440E+02 -0.21975698404E+03  0.22887306240E+03  0.00000000000E+00 0. -1.
</event>
<event>
 7    1  0.3265282E-009  0.2222480E+03  0.7561462E-02  0.1132218E+00
          2   -1    0    0  501    0  0.00000000000E+00  0.00000000000E+00  0.22067473856E+04  0.22067473856E+04  0.00000000000E+00 0. -1.
         -2   -1    0    0    0  501 -0.00000000000E+00 -0.00000000000E+00 -0.25872678195E+02  0.25872678195E+02  0.00000000000E+00 0.  1.
         25    2    1    2    0    0  0.14265867613E+03 -0.15473752117E+03  0.12032520749E+04  0.12279081584E+04  0.12509073261E+03 0.  0.
          5    1    3    3  502    0  0.72615792184E+01 -0.28602902463E+02  0.49411494836E+03  0.49501304140E+03  0.41800000000E+01 0. -1.
         -5    1    3    3    0  502  0.13539709691E+03 -0.12613461871E+03  0.70913712654E+03  0.73289511700E+03  0.41800000000E+01 0. -1.
        -11    1    1    2    0    0 -0.12129622077E+03  0.65526365483E+02  0.51854274564E+03  0.53655666691E+03  0.00000000000E+00 0. -1.
         11    1    1    2    0    0 -0.21362455361E+02  0.89211155689E+02  0.45907988685E+03  0.46815523847E+03  0.00000000000E+00 0.  1.
</event>
<event>
 7    1  0.3265282E-009  0.8914218E+02  0.7561462E-02  0.1304942E+00
          1   -1    0    0  501    0  0.00000000000E+00  0.00000000000E+00  0.17685547016E+03  0.17685547016E+03  0.00000000000E+00 0. -1.
         -1   -1    0    0    0  501 -0.00000000000E+00 -0.00000000000E+00 -0.94099744730E+02  0.94099744730E+02  0.00000000000E+00 0.  1.
         25    2    1    2    0    0  0.59131256044E+02  0.24697433658E+02  0.71169907056E+02  0.15753413528E+03  0.12508149118E+03 0.  0.
          5    1    3    3  502    0  0.77216627876E+02 -0.53316604795E+01  0.88968066015E+02  0.11799840420E+03  0.41800000000E+01 0. -1.
         -5    1    3    3    0  502 -0.18085371832E+02  0.30029094138E+02 -0.17798158959E+02  0.39535731072E+02  0.41800000000E+01 0. -1.
        -11    1    1    2    0    0 -0.15689672286E+02 -0.13269343405E+02 -0.40030102500E+02  0.44996115355E+02  0.00000000000E+00 0.  1.
         11    1    1    2    0    0 -0.43441583758E+02 -0.11428090254E+02  0.51615920872E+02  0.68424964258E+02  0.00000000000E+00 0. -1.
</event>
<event>
 7    1  0.3265282E-009  0.1385470E+03  0.7561462E-02  0.1215298E+00
          2   -1    0    0  501    0  0.00000000000E+00  0.00000000000E+00  0.18704301253E+03  0.18704301253E+03  0.00000000000E+00 0. -1.
         -2   -1    0    0    0  501 -0.00000000000E+00 -0.00000000000E+00 -0.14128781043E+03  0.14128781043E+03  0.00000000000E+00 0.  1.
         25    2    1    2    0    0  0.17111539392E+02 -0.11867506073E+03  0.84365360956E+01  0.17348121976E+03  0.12509190082E+03 0.  0.
          5    1    3    3  502    0 -0.22165394433E+01  0.48776824467E+01  0.43108685413E+02  0.43640989805E+02  0.41800000000E+01 0.  1.
         -5    1    3    3    0  502  0.19328078835E+02 -0.12355274317E+03 -0.34672149317E+02  0.12984022996E+03  0.41800000000E+01 0.  1.
        -11    1    1    2    0    0  0.29191029605E+02  0.78919886022E+02  0.41215797846E+02  0.93697420515E+02  0.00000000000E+00 0.  1.
         11    1    1    2    0    0 -0.46302568996E+02  0.39755174703E+02 -0.38971318396E+01  0.61152182691E+02  0.00000000000E+00 0. -1.
</event>
<event>
 7    1  0.3265282E-009  0.1107293E+03  0.7561462E-02  0.1259225E+00
         -1   -1    0    0    0  501 -0.00000000000E+00  0.00000000000E+00  0.28750999984E+02  0.28750999984E+02  0.00000000000E+00 0.  1.
          1   -1    0    0  501    0  0.00000000000E+00 -0.00000000000E+00 -0.48409969344E+03  0.48409969344E+03  0.00000000000E+00 0. -1.
         25    2    1    2    0    0  0.33310043860E+02  0.21518000501E+02 -0.29705274109E+03  0.32474780436E+03  0.12509285384E+03 0.  0.
          5    1    3    3  502    0  0.63476894327E+02 -0.21730021432E+02 -0.22836370105E+03  0.23805243604E+03  0.41800000000E+01 0. -1.
         -5    1    3    3    0  502 -0.30166850466E+02  0.43248021933E+02 -0.68689040039E+02  0.86695368329E+02  0.41800000000E+01 0. -1.
        -11    1    1    2    0    0  0.28425546594E+01 -0.53196290757E+02 -0.76318484944E+02  0.93072211811E+02  0.00000000000E+00 0.  1.
         11    1    1    2    0    0 -0.36152598520E+02  0.31678290255E+02 -0.81977467417E+02  0.95030677243E+02  0.00000000000E+00 0. -1.
</event>
<event>
 7    1  0.3265282E-009  0.1197523E+03  0.7561462E-02  0.1243506E+00
         -2   -1    0    0    0  501 -0.00000000000E+00  0.00000000000E+00  0.18899480757E+02  0.18899480757E+02  0.00000000000E+00 0.  1.
          2   -1    0    0  501    0  0.00000000000E+00 -0.00000000000E+00 -0.16569945916E+04  0.16569945916E+04  0.00000000000E+00 0. -1.
         25    2    1    2    0    0 -0.27720766597E+02 -0.88441648299E+02 -0.13637867630E+04  0.13726448096E+04  0.12509625192E+03 0.  0.
          5    1    3    3  502    0  0.23335327407E+02 -0.52357483357E+02 -0.22805636142E+03  0.23518720193E+03  0.41800000000E+01 0. -1.
         -5    1    3    3    0  502 -0.51056094004E+02 -0.36084164942E+02 -0.11357304016E+04  0.11374576077E+04  0.41800000000E+01 0. -1.
        -11    1    1    2    0    0 -0.22030418394E+02  0.55897083919E+01 -0.11253810219E+03  0.11481031582E+03  0.00000000000E+00 0. -1.
         11    1    1    2    0    0  0.49751184991E+02  0.82851939907E+02 -0.16177024564E+03  0.18843894695E+03  0.00000000000E+00 0.  1.
</event>
<event>
 7    1  0.3265282E-009  0.1049649E+03  0.7561462E-02  0.1270189E+00
          3   -1    0    0  501    0  0.00000000000E+00  0.00000000000E+00  0.25914999712E+02  0.25914999712E+02  0.00000000000E+00 0. -1.
         -3   -1    0    0    0  501 -0.00000000000E+00 -0.00000000000E+00 -0.46970331618E+03  0.46970331618E+03  0.00000000000E+00 0.  1.
         25    2    1    2    0    0 -0.92946213490E+01 -0.12267859028E+02 -0.27593035894E+03  0.30335198354E+03  0.12509185658E+03 0.  0.
          5    1    3    3  502    0  0.16666380936E+01  0.56021985444E+02 -0.10971732050E+03  0.12327450407E+03  0.41800000000E+01 0. -1.
         -5    1    3    3    0  502 -0.10961259443E+02 -0.68289844471E+02 -0.16621303844E+03  0.18007747947E+03  0.41800000000E+01 0. -1.
        -11    1    1    2    0    0 -0.33478487819E+02 -0.11629705907E+02 -0.11434302483E+03  0.11970959249E+03  0.00000000000E+00 0.  1.
         11    1    1    2    0    0  0.42773109168E+02  0.23897564935E+02 -0.53514932701E+02  0.72556739864E+02  0.00000000000E+00 0. -1.
</event>
<event>
 7    1  0.3265282E-009  0.1706221E+03  0.7561462E-02  0.1177201E+00
          2   -1    0    0  501    0  0.00000000000E+00  0.00000000000E+00  0.24799465403E+03  0.24799465403E+03  0.00000000000E+00 0. -1.
         -2   -1    0    0    0  501 -0.00000000000E+00 -0.00000000000E+00 -0.14392694361E+03  0.14392694361E+03  0.00000000000E+00 0.  1.
         25    2    1    2    0    0 -0.13546971428E+03  0.14389527250E+02  0.13056458124E+03  0.22639073940E+03  0.12508619041E+03 0.  0.
          5    1    3    3  502    0 -0.15785846760E+03  0.18217462153E+02  0.12601752773E+03  0.20285231429E+03  0.41800000000E+01 0.  1.
         -5    1    3    3    0  502  0.22388753319E+02 -0.38279349035E+01  0.45470535081E+01  0.23538425105E+02  0.41800000000E+01 0.  1.
        -11    1    1    2    0    0  0.12308240164E+03  0.18110193887E+02 -0.35933238246E+02  0.12949306671E+03  0.00000000000E+00 0.  1.
         11    1    1    2    0    0  0.12387312637E+02 -0.32499721136E+02  0.94363674218E+01  0.36037791531E+02  0.00000000000E+00 0. -1.
</event>
<event>
 7    1  0.3265282E-009  0.1660787E+03  0.7561462E-02  0.1182000E+00
         -2   -1    0    0    0  501 -0.00000000000E+00  0.00000000000E+00  0.13937542869E+03  0.13937542869E+03  0.00000000000E+00 0.  1.
          2   -1    0    0  501    0  0.00000000000E+00 -0.00000000000E+00 -0.25042195659E+03  0.25042195659E+03  0.00000000000E+00 0. -1.
         25    2    1    2    0    0 -0.50547676203E+02 -0.14192675809E+03 -0.73050291494E+02  0.20900370204E+03  0.12509168696E+03 0.  0.
          5    1    3    3  502    0 -0.12023362814E+02 -0.13700613032E+03 -0.14141569637E+02  0.13832099404E+03  0.41800000000E+01 0. -1.
         -5    1    3    3    0  502 -0.38524313389E+02 -0.49206277666E+01 -0.58908721857E+02  0.70682708002E+02  0.41800000000E+01 0. -1.
        -11    1    1    2    0    0  0.55751611424E+02  0.11183478218E+03  0.84065288657E+01  0.12524348450E+03  0.00000000000E+00 0.  1.
         11    1    1    2    0    0 -0.52039352213E+01  0.30091975912E+02 -0.46402765267E+02  0.55550198745E+02  0.00000000000E+00 0. -1.
</event>
<event>
 7    1  0.3265282E-009  0.1056877E+03  0.7561462E-02  0.1268771E+00
          2   -1    0    0  501    0  0.00000000000E+00  0.00000000000E+00  0.15399303113E+03  0.15399303113E+03  0.00000000000E+00 0. -1.
         -2   -1    0    0    0  501 -0.00000000000E+00 -0.00000000000E+00 -0.14024305548E+03  0.14024305548E+03  0.00000000000E+00 0.  1.
         25    2    1    2    0    0 -0.87071988036E+02  0.44893902316E+02 -0.78344644208E+01  0.15907977476E+03  0.12509197552E+03 0.  0.
          5    1    3    3  502    0 -0.79052831429E+02  0.15894255608E+02 -0.58705844984E+02  0.99828984536E+02  0.41800000000E+01 0. -1.
         -5    1    3    3    0  502 -0.80191566080E+01  0.28999646708E+02  0.50871380563E+02  0.59250790224E+02  0.41800000000E+01 0. -1.
        -11    1    1    2    0    0  0.17207953397E+02  0.45674163100E-02  0.45573193117E+02  0.48713751773E+02  0.00000000000E+00 0. -1.
         11    1    1    2    0    0  0.69864034639E+02 -0.44898469732E+02 -0.23988753050E+02  0.86442560080E+02  0.00000000000E+00 0.  1.
</event>
<event>
 7    1  0.3265282E-009  0.9710057E+02  0.7561462E-02  0.1286514E+00
         -1   -1    0    0    0  501 -0.00000000000E+00  0.00000000000E+00  0.55729482499E+03  0.55729482499E+03  0.00000000000E+00 0.  1.
          1   -1    0    0  501    0  0.00000000000E+00 -0.00000000000E+00 -0.34604488291E+02  0.34604488291E+02  0.00000000000E+00 0. -1.
         25    2    1    2    0    0  0.77524301254E+02  0.32758821173E+02  0.33758656685E+03  0.36973195659E+03  0.12511543454E+03 0.  0.
          5    1    3    3  502    0  0.23319411261E+02  0.17245731312E+02  0.30092793533E+03  0.30235129378E+03  0.41800000000E+01 0.  1.
         -5    1    3    3    0  502  0.54204889993E+02  0.15513089861E+02  0.36658631526E+02  0.67380662816E+02  0.41800000000E+01 0.  1.
        -11    1    1    2    0    0 -0.32912020802E+02 -0.50560799795E+02  0.48633211488E+02  0.77490546835E+02  0.00000000000E+00 0. -1.
         11    1    1    2    0    0 -0.44612280452E+02  0.17801978621E+02  0.13647055836E+03  0.14467680985E+03  0.00000000000E+00 0.  1.
</event>
<event>
 7    1  0.3265282E-009  0.9028809E+02  0.7561462E-02  0.1302156E+00
         -2   -1    0    0    0  501 -0.00000000000E+00  0.00000000000E+00  0.54126037153E+02  0.54126037153E+02  0.00000000000E+00 0.  1.
          2   -1    0    0  501    0  0.00000000000E+00 -0.00000000000E+00 -0.22766926108E+03  0.22766926108E+03  0.00000000000E+00 0. -1.
         25    2    1    2    0    0  0.15890232567E+02  0.60586551001E+01 -0.11927901761E+03  0.17367932046E+03  0.12509122879E+03 0.  0.
          5    1    3    3  502    0  0.37935108288E+01 -0.56140830899E+02 -0.29382684778E+02  0.63616021435E+02  0.41800000000E+01 0.  1.
         -5    1    3    3    0  502  0.12096721738E+02  0.62199485999E+02 -0.89896332828E+02  0.11006329902E+03  0.41800000000E+01 0.  1.
        -11    1    1    2    0    0  0.59544565579E+01 -0.28627625712E+02  0.14411149934E+02  0.32598738460E+02  0.00000000000E+00 0.  1.
         11    1    1    2    0    0 -0.21844689125E+02  0.22568970612E+02 -0.68675356252E+02  0.75517239316E+02  0.00000000000E+00 0. -1.
</event>
<event>
 7    1  0.3265282E-009  0.1973820E+03  0.7561462E-02  0.1151967E+00
         -1   -1    0    0    0  501 -0.00000000000E+00  0.00000000000E+00  0.27743466236E+02  0.27743466236E+02  0.00000000000E+00 0.  1.
          1   -1    0    0  501    0  0.00000000000E+00 -0.00000000000E+00 -0.17579213461E+04  0.17579213461E+04  0.00000000000E+00 0. -1.
         25    2    1    2    0    0 -0.11052734120E+02 -0.19316627262E+03 -0.93002404625E+03  0.95813872546E+03  0.12509883618E+03 0.  0.
          5    1    3    3  502    0 -0.84757765387E+01 -0.16725145757E+03 -0.50019328059E+03  0.52749945895E+03  0.41800000000E+01 0. -1.
         -5    1    3    3    0  502 -0.25769575810E+01 -0.25914815045E+02 -0.42983076566E+03  0.43063926651E+03  0.41800000000E+01 0. -1.
        -11    1    1    2    0    0  0.32287894640E+02  0.13874133508E+03 -0.66824538139E+03  0.68325950849E+03  0.00000000000E+00 0.  1.
         11    1    1    2    0    0 -0.21235160520E+02  0.54424937542E+02 -0.13190845219E+03  0.14426657834E+03  0.00000000000E+00 0. -1.
</event>
<event>
 7    1  0.3265282E-009  0.1018639E+03  0.7561462E-02  0.1276425E+00
          2   -1    0    0  501    0  0.00000000000E+00  0.00000000000E+00  0.28806490312E+03  0.28806490312E+03  0.00000000000E+00 0. -1.
         -2   -1    0    0    0  501 -0.00000000000E+00 -0.00000000000E+00 -0.45174526461E+02  0.45174526461E+02  0.00000000000E+00 0.  1.
         25    2    1    2    0    0  0.17043232206E+02 -0.94630398227E+01  0.18372378256E+03  0.22312948506E+03  0.12510922403E+03 0.  0.
          5    1    3    3  502    0 -0.28334694410E+02 -0.47176662996E+02  0.13716584962E+03  0.14785274817E+03  0.41800000000E+01 0. -1.
         -5    1    3    3    0  502  0.45377926616E+02  0.37713623173E+02  0.46557932936E+02  0.75276736885E+02  0.41800000000E+01 0. -1.
        -11    1    1    2    0    0 -0.72967181179E+01 -0.39140312494E+02  0.11749517858E+02  0.41512134700E+02  0.00000000000E+00 0.  1.
         11    1    1    2    0    0 -0.97465140885E+01  0.48603352317E+02  0.47417076239E+02  0.68597809822E+02  0.00000000000E+00 0. -1.
</event>
<event>
 7    1  0.3265282E-009  0.1217229E+03  0.7561462E-02  0.1240282E+00
          1   -1    0    0  501    0  0.00000000000E+00  0.00000000000E+00  0.54379069676E+03  0.54379069676E+03  0.00000000000E+00 0. -1.
         -1   -1    0    0    0  501 -0.00000000000E+00 -0.00000000000E+00 -0.49546687495E+02  0.49546687495E+02  0.00000000000E+00 0.  1.
         25    2    1    2    0    0  0.30105239346E+02  0.10539141142E+03  0.16254621994E+03  0.23255556284E+03  0.12508853327E+03 0.  0.
          5    1    3    3  502    0 -0.22116838371E+02  0.93279210622E+01  0.10720030969E+03  0.10993426877E+03  0.41800000000E+01 0. -1.
         -5    1    3    3    0  502  0.52222077717E+02  0.96063490354E+02  0.55345910245E+02  0.12262129408E+03  0.41800000000E+01 0. -1.
        -11    1    1    2    0    0 -0.16024572600E+02 -0.49851105877E+02  0.27582738562E+03  0.28075374680E+03  0.00000000000E+00 0. -1.
         11    1    1    2    0    0 -0.14080666746E+02 -0.55540305540E+02  0.55870403698E+02  0.80028074604E+02  0.00000000000E+00 0.  1.
</event>
<event>
 7    1  0.3265282E-009  0.1731327E+03  0.7561462E-02  0.1174620E+00
         -2   -1    0    0    0  501 -0.00000000000E+00  0.00000000000E+00  0.65021065068E+02  0.65021065068E+02  0.00000000000E+00 0. -1.
          2   -1    0    0  501    0  0.00000000000E+00 -0.00000000000E+00 -0.58023118363E+03  0.58023118363E+03  0.00000000000E+00 0.  1.
         25    2    1    2    0    0  0.14091147290E+03 -0.54154633482E+02 -0.17853406997E+03  0.26516150226E+03  0.12508973028E+03 0.  0.
          5    1    3    3  502    0  0.15701158250E+03 -0.23295761040E+02 -0.16036601983E+03  0.22567689788E+03  0.41800000000E+01 0. -1.
         -5    1    3    3    0  502 -0.16100109599E+02 -0.30858872441E+02 -0.18168050143E+02  0.39484604385E+02  0.41800000000E+01 0. -1.
        -11    1    1    2    0    0 -0.44155037494E+02  0.27667640179E+02 -0.36562683847E+02  0.63655286499E+02  0.00000000000E+00 0.  1.
         11    1    1    2    0    0 -0.96756435403E+02  0.26486993303E+02 -0.30011336474E+03  0.31643545993E+03  0.00000000000E+00 0. -1.
</event>
<event>
 7    1  0.3265282E-009  0.1488187E+03  0.7561462E-02  0.1201932E+00
         -2   -1    0    0    0  501 -0.00000000000E+00  0.00000000000E+00  0.14772050952E+03  0.14772050952E+03  0.00000000000E+00 0.  1.
          2   -1    0    0  501    0  0.00000000000E+00 -0.00000000000E+00 -0.21516207166E+03  0.21516207166E+03  0.00000000000E+00 0. -1.
         25    2    1    2    0    0 -0.56927742920E+02  0.10985909709E+03  0.33870496361E+02  0.17917452580E+03  0.12508601459E+03 0.  0.
          5    1    3    3  502    0 -0.63510934466E+02  0.29101510072E+01  0.33404737438E+02  0.71940646779E+02  0.41800000000E+01 0. -1.
         -5    1    3    3    0  502  0.65831915464E+01  0.10694894608E+03  0.46575892326E+00  0.10723387902E+03  0.41800000000E+01 0. -1.
        -11    1    1    2    0    0  0.22798505897E+02 -0.72905022107E+02 -0.10871004641E+03  0.13286379609E+03  0.00000000000E+00 0. -1.
         11    1    1    2    0    0  0.34129237023E+02 -0.36954074984E+02  0.73979879169E+01  0.50844259292E+02  0.00000000000E+00 0.  1.
</event>
<event>
 7    1  0.3265282E-009  0.1140245E+03  0.7561462E-02  0.1253293E+00
         -1   -1    0    0    0  501 -0.00000000000E+00  0.00000000000E+00  0.91104148934E+02  0.91104148934E+02  0.00000000000E+00 0.  1.
          1   -1    0    0  501    0  0.00000000000E+00 -0.00000000000E+00 -0.16078177002E+03  0.16078177002E+03  0.00000000000E+00 0. -1.
         25    2    1    2    0    0  0.39088735034E+02 -0.10810960748E+02 -0.38743493418E+02  0.13709016165E+03  0.12509135885E+03 0.  0.
          5    1    3    3  502    0  0.24410640064E+01  0.52626163540E+02 -0.35446692825E+02  0.63634992847E+02  0.41800000000E+01 0.  1.
         -5    1    3    3    0  502  0.36647671027E+02 -0.63437124288E+02 -0.32968005928E+01  0.73455168802E+02  0.41800000000E+01 0.  1.
        -11    1    1    2    0    0  0.29187641027E+02  0.16109102575E+02  0.10257426132E+02  0.34880314869E+02  0.00000000000E+00 0.  1.
         11    1    1    2    0    0 -0.68276376061E+02 -0.52981418269E+01 -0.41191553796E+02  0.79915442431E+02  0.00000000000E+00 0. -1.
</event>
<event>
 7    1  0.3265282E-009  0.9233047E+02  0.7561462E-02  0.1297304E+00
         -2   -1    0    0    0  501 -0.00000000000E+00  0.00000000000E+00  0.12279617627E+03  0.12279617627E+03  0.00000000000E+00 0.  1.
          2   -1    0    0  501    0  0.00000000000E+00 -0.00000000000E+00 -0.15345041683E+03  0.15345041683E+03  0.00000000000E+00 0. -1.
         25    2    1    2    0    0 -0.57371781899E+02 -0.15009329467E+02  0.42571365373E+02  0.14483499059E+03  0.12509217409E+03 0.  0.
          5    1    3    3  502    0 -0.38283223678E+02 -0.38751510381E+02  0.79699371141E+02  0.96626843746E+02  0.41800000000E+01 0. -1.
         -5    1    3    3    0  502 -0.19088558221E+02  0.23742180914E+02 -0.37128005768E+02  0.48208146841E+02  0.41800000000E+01 0. -1.
        -11    1    1    2    0    0  0.53659644323E+02 -0.24929201081E+02 -0.69280046084E+02  0.91107339336E+02  0.00000000000E+00 0. -1.
         11    1    1    2    0    0  0.37121375764E+01  0.39938530548E+02 -0.39455598451E+01  0.40304263177E+02  0.00000000000E+00 0.  1.
</event>
<event>
 7    1  0.3265282E-009  0.1374131E+03  0.7561462E-02  0.1216853E+00
          1   -1    0    0  501    0  0.00000000000E+00  0.00000000000E+00  0.67139695838E+02  0.67139695838E+02  0.00000000000E+00 0. -1.
         -1   -1    0    0    0  501 -0.00000000000E+00 -0.00000000000E+00 -0.30451293107E+03  0.30451293107E+03  0.00000000000E+00 0.  1.
         25    2    1    2    0    0  0.15941918920E+02 -0.90663839325E+02 -0.11602198147E+03  0.19385646096E+03  0.12508057696E+03 0.  0.
          5    1    3    3  502    0  0.47002326440E+02  0.78880285377E+01 -0.58318673482E+02  0.75431954513E+02  0.41800000000E+01 0.  1.
         -5    1    3    3    0  502 -0.31060407521E+02 -0.98551867863E+02 -0.57703307991E+02  0.11842450645E+03  0.41800000000E+01 0.  1.
        -11    1    1    2    0    0 -0.49069089837E+02  0.41391219106E+02 -0.35332399115E+02  0.73276101313E+02  0.00000000000E+00 0. -1.
         11    1    1    2    0    0  0.33127170917E+02  0.49272620220E+02 -0.86018854639E+02  0.10452006463E+03  0.00000000000E+00 0.  1.
</event>
<event>
 7    1  0.4022344E-009  0.1492524E+03  0.7561462E-02  0.1201395E+00
          4   -1    0    0  501    0  0.00000000000E+00  0.00000000000E+00  0.20036678545E+03  0.20036678545E+03  0.00000000000E+00 0.  1.
         -4   -1    0    0    0  501 -0.00000000000E+00 -0.00000000000E+00 -0.16821634733E+03  0.16821634733E+03  0.00000000000E+00 0. -1.
         25    2    1    2    0    0 -0.47428168345E+02 -0.12499656628E+03  0.79823390902E+02  0.19973437323E+03  0.12509385828E+03 0.  0.
          5    1    3    3  502    0 -0.34599986980E+02  0.36662810464E+01 -0.16216261551E+02  0.38613990397E+02  0.41800000000E+01 0. -1.
         -5    1    3    3    0  502 -0.12828181365E+02 -0.12866284733E+03  0.96039652453E+02  0.16112038283E+03  0.41800000000E+01 0. -1.
        -11    1    1    2    0    0  0.18510996924E+02  0.63379156005E+02  0.23767270468E+02  0.70174479467E+02  0.00000000000E+00 0. -1.
         11    1    1    2    0    0  0.28917171421E+02  0.61617410278E+02 -0.71440223250E+02  0.98674280086E+02  0.00000000000E+00 0.  1.
</event>
<event>
 7    1  0.3265282E-009  0.1196174E+03  0.7561462E-02  0.1243730E+00
          2   -1    0    0  501    0  0.00000000000E+00  0.00000000000E+00  0.28823802311E+03  0.28823802311E+03  0.00000000000E+00 0.  1.
         -2   -1    0    0    0  501 -0.00000000000E+00 -0.00000000000E+00 -0.53329287078E+02  0.53329287078E+02  0.00000000000E+00 0. -1.
         25    2    1    2    0    0  0.38618220354E+02  0.40698965563E+02  0.14390280333E+03  0.19874954510E+03  0.12508234140E+03 0.  0.
          5    1    3    3  502    0  0.82316913997E+02  0.14068601001E+02  0.10558375492E+03  0.13468259564E+03  0.41800000000E+01 0. -1.
         -5    1    3    3    0  502 -0.43698693643E+02  0.26630364562E+02  0.38319048408E+02  0.64066949464E+02  0.41800000000E+01 0. -1.
        -11    1    1    2    0    0 -0.28058164656E+02 -0.68775517464E+02  0.41918820003E+02  0.85290795967E+02  0.00000000000E+00 0.  1.
         11    1    1    2    0    0 -0.10560055699E+02  0.28076551901E+02  0.49087112699E+02  0.57526969120E+02  0.00000000000E+00 0. -1.
</event>
<event>
 7    1  0.5155145E-009  0.1746765E+03  0.7561462E-02  0.1173057E+00
          1   -1    0    0  501    0  0.00000000000E+00  0.00000000000E+00  0.31039787099E+03  0.31039787099E+03  0.00000000000E+00 0. -1.
         -1   -1    0    0    0  501 -0.00000000000E+00 -0.00000000000E+00 -0.11317149822E+03  0.11317149822E+03  0.00000000000E+00 0.  1.
         25    2    1    2    0    0 -0.12340662082E+01  0.14935257122E+03  0.71114780479E+02  0.20737572422E+03  0.12505864842E+03 0.  0.
          5    1    3    3  502    0 -0.25239226052E+02  0.14857932888E+03  0.21759461681E+02  0.15232787688E+03  0.41800000000E+01 0.  1.
         -5    1    3    3    0  502  0.24005159844E+02  0.77324233869E+00  0.49355318798E+02  0.55047847338E+02  0.41800000000E+01 0.  1.
        -11    1    1    2    0    0 -0.42254723178E+02 -0.99214486414E+02  0.64628795229E+02  0.12572134711E+03  0.00000000000E+00 0.  1.
         11    1    1    2    0    0  0.43488789386E+02 -0.50138084807E+02  0.61482797058E+02  0.90472297884E+02  0.00000000000E+00 0. -1.
</event>
<event>
 7    1  0.3265282E-009  0.1001301E+03  0.7561462E-02  0.1280023E+00
          1   -1    0    0  501    0  0.00000000000E+00  0.00000000000E+00  0.25603728551E+03  0.25603728551E+03  0.00000000000E+00 0. -1.
         -1   -1    0    0    0  501 -0.00000000000E+00 -0.00000000000E+00 -0.62721892066E+02  0.62721892066E+02  0.00000000000E+00 0.  1.
         25    2    1    2    0    0  0.46495424501E+02 -0.43584472005E+02  0.70933640385E+02  0.15728689620E+03  0.12508459409E+03 0.  0.
          5    1    3    3  502    0  0.24826744478E+02  0.23457058668E+02 -0.21810709912E+02  0.40740401441E+02  0.41800000000E+01 0. -1.
         -5    1    3    3    0  502  0.21668680023E+02 -0.67041530672E+02  0.92744350297E+02  0.11654649476E+03  0.41800000000E+01 0. -1.
        -11    1    1    2    0    0  0.18349795598E+02  0.17556369184E+02  0.69046804478E+02  0.73569030889E+02  0.00000000000E+00 0. -1.
         11    1    1    2    0    0 -0.64845220098E+02  0.26028102821E+02  0.53334948585E+02  0.87903250490E+02  0.00000000000E+00 0.  1.
</event>
<event>
 7    1  0.3265282E-009  0.1122142E+03  0.7561462E-02  0.1256524E+00
          1   -1    0    0  501    0  0.00000000000E+00  0.00000000000E+00  0.95756826756E+02  0.95756826756E+02  0.00000000000E+00 0. -1.
         -1   -1    0    0    0  501 -0.00000000000E+00 -0.00000000000E+00 -0.16446229405E+03  0.16446229405E+03  0.00000000000E+00 0.  1.
         25    2    1    2    0    0  0.16940029087E+02  0.54759071588E+02 -0.97624947302E+01  0.13794100829E+03  0.12508754917E+03 0.  0.
          5    1    3    3  502    0 -0.51419262706E+00 -0.38928070267E+02 -0.16108670091E+02  0.42339351683E+02  0.41800000000E+01 0.  1.
         -5    1    3    3    0  502  0.17454221714E+02  0.93687141855E+02  0.63461753605E+01  0.95601656609E+02  0.41800000000E+01 0.  1.
        -11    1    1    2    0    0 -0.11659847240E+02  0.15516324702E+02 -0.46933866422E+02  0.50788740753E+02  0.00000000000E+00 0.  1.
         11    1    1    2    0    0 -0.52801818469E+01 -0.70275396290E+02 -0.12009106137E+02  0.71489371757E+02  0.00000000000E+00 0. -1.
</event>
<event>
 7    1  0.3265282E-009  0.1164412E+03  0.7561462E-02  0.1249086E+00
         -2   -1    0    0    0  501 -0.00000000000E+00  0.00000000000E+00  0.31682750941E+03  0.31682750941E+03  0.00000000000E+00 0.  1.
          2   -1    0    0  501    0  0.00000000000E+00 -0.00000000000E+00 -0.49332245083E+02  0.49332245083E+02  0.00000000000E+00 0. -1.
         25    2    1    2    0    0  0.61368066923E+02  0.71045711959E+01  0.14059156557E+03  0.19806200808E+03  0.12508419631E+03 0.  0.
          5    1    3    3  502    0 -0.30604599687E+02  0.51421389313E+01  0.16291989214E+01  0.31356176487E+02  0.41800000000E+01 0. -1.
         -5    1    3    3    0  502  0.91972666610E+02  0.19624322646E+01  0.13896236664E+03  0.16670583159E+03  0.41800000000E+01 0. -1.
        -11    1    1    2    0    0 -0.64318805666E+02 -0.40465231635E+02  0.96821150023E+02  0.12307996923E+03  0.00000000000E+00 0.  1.
         11    1    1    2    0    0  0.29507387433E+01  0.33360660439E+02  0.30082548744E+02  0.45017777188E+02  0.00000000000E+00 0. -1.
</event>
<event>
 7    1  0.3265282E-009  0.7994253E+02  0.7561462E-02  0.1329215E+00
         -1   -1    0    0    0  501 -0.00000000000E+00  0.00000000000E+00  0.26681894112E+02  0.26681894112E+02  0.00000000000E+00 0.  1.
          1   -1    0    0  501    0  0.00000000000E+00 -0.00000000000E+00 -0.58050612829E+03  0.58050612829E+03  0.00000000000E+00 0. -1.
         25    2    1    2    0    0 -0.38479435067E+02  0.20243071193E+02 -0.41304888440E+03  0.43375982457E+03  0.12509098949E+03 0.  0.
          5    1    3    3  502    0  0.77349796972E+01 -0.42951029373E+01 -0.35638341258E+03  0.35651772324E+03  0.41800000000E+01 0.  1.
         -5    1    3    3    0  502 -0.46214414764E+02  0.24538174131E+02 -0.56665471818E+02  0.77242101331E+02  0.41800000000E+01 0.  1.
        -11    1    1    2    0    0 -0.25349362926E+02 -0.22277227474E+02 -0.72340420592E+02  0.79824817670E+02  0.00000000000E+00 0. -1.
         11    1    1    2    0    0  0.63828797992E+02  0.20341562801E+01 -0.68434929184E+02  0.93603380160E+02  0.00000000000E+00 0.  1.
</event>
<event>
 7    1  0.3265282E-009  0.1064112E+03  0.7561462E-02  0.1267364E+00
          1   -1    0    0  501    0  0.00000000000E+00  0.00000000000E+00  0.19784195378E+03  0.19784195378E+03  0.00000000000E+00 0. -1.
         -1   -1    0    0    0  501 -0.00000000000E+00 -0.00000000000E+00 -0.88257870588E+02  0.88257870588E+02  0.00000000000E+00 0.  1.
         25    2    1    2    0    0  0.73056790317E+02 -0.20673670123E+02  0.58275811230E+02  0.15751081259E+03  0.12509552614E+03 0.  0.
          5    1    3    3  502    0  0.74438488433E+02  0.40097587114E+01  0.90087544946E+02  0.11700600360E+03  0.41800000000E+01 0.  1.
         -5    1    3    3    0  502 -0.13816981166E+01 -0.24683428834E+02 -0.31811733716E+02  0.40504808982E+02  0.41800000000E+01 0.  1.
        -11    1    1    2    0    0 -0.17178333217E+01 -0.27147365057E+02 -0.23784364207E+01  0.27305445256E+02  0.00000000000E+00 0.  1.
         11    1    1    2    0    0 -0.71338956995E+02  0.47821035179E+02  0.53686708383E+02  0.10128356652E+03  0.00000000000E+00 0. -1.
</event>
<event>
 7    1  0.3265282E-009  0.1132841E+03  0.7561462E-02  0.1254606E+00
         -2   -1    0    0    0  501 -0.00000000000E+00  0.00000000000E+00  0.37412070486E+02  0.37412070486E+02  0.00000000000E+00 0.  1.
          2   -1    0    0  501    0  0.00000000000E+00 -0.00000000000E+00 -0.40518719675E+03  0.40518719675E+03  0.00000000000E+00 0. -1.
         25    2    1    2    0    0 -0.47690258314E+02 -0.27000533722E+02 -0.24632870896E+03  0.28165336356E+03  0.12508954707E+03 0.  0.
          5    1    3    3  502    0  0.92173716375E+01  0.41286784816E+02 -0.11854562660E+03  0.12593687516E+03  0.41800000000E+01 0.  1.
         -5    1    3    3    0  502 -0.56907629951E+02 -0.68287318538E+02 -0.12778308236E+03  0.15571648839E+03  0.41800000000E+01 0.  1.
        -11    1    1    2    0    0 -0.15966532327E+02 -0.12391043513E+02 -0.62433529328E+02  0.65623271011E+02  0.00000000000E+00 0. -1.
         11    1    1    2    0    0  0.63656790640E+02  0.39391577235E+02 -0.59012887980E+02  0.95322632671E+02  0.00000000000E+00 0.  1.
</event>
<event>
 7    1  0.3265282E-009  0.1663962E+03  0.7561462E-02  0.1181659E+00
         -1   -1    0    0    0  501 -0.00000000000E+00  0.00000000000E+00  0.11284590201E+03  0.11284590201E+03  0.00000000000E+00 0.  1.
          1   -1    0    0  501    0  0.00000000000E+00 -0.00000000000E+00 -0.30346734109E+03  0.30346734109E+03  0.00000000000E+00 0. -1.
         25    2    1    2    0    0 -0.28060019591E+02 -0.14675110003E+03 -0.83313245498E+02  0.21192757819E+03  0.12509576916E+03 0.  0.
          5    1    3    3  502    0 -0.46543543478E+02 -0.20098670224E+02 -0.65035942293E+02  0.82567573382E+02  0.41800000000E+01 0. -1.
         -5    1    3    3    0  502  0.18483523888E+02 -0.12665242980E+03 -0.18277303205E+02  0.12936000480E+03  0.41800000000E+01 0. -1.
        -11    1    1    2    0    0 -0.77428993540E+01  0.10897044387E+02 -0.51513064757E+02  0.53219300141E+02  0.00000000000E+00 0. -1.
         11    1    1    2    0    0  0.35802918945E+02  0.13585405564E+03 -0.55795128830E+02  0.15116636478E+03  0.00000000000E+00 0.  1.
</event>
<event>
 7    1  0.3265282E-009  0.1005856E+03  0.7561462E-02  0.1279069E+00
         -2   -1    0    0    0  501 -0.00000000000E+00  0.00000000000E+00  0.15690658769E+02  0.15690658769E+02  0.00000000000E+00 0.  1.
          2   -1    0    0  501    0  0.00000000000E+00 -0.00000000000E+00 -0.84054330677E+03  0.84054330677E+03  0.00000000000E+00 0. -1.
         25    2    1    2    0    0  0.14289394915E+02  0.21950599486E+02 -0.52793679565E+03  0.54318616516E+03  0.12509170313E+03 0.  0.
          5    1    3    3  502    0  0.15595552508E+02 -0.42122396858E+02 -0.36926170858E+03  0.37200698837E+03  0.41800000000E+01 0. -1.
         -5    1    3    3    0  502 -0.13061575929E+01  0.64072996344E+02 -0.15867508707E+03  0.17117917679E+03  0.41800000000E+01 0. -1.
        -11    1    1    2    0    0  0.17501702636E+02 -0.47774926209E+02 -0.10334155835E+03  0.11518780687E+03  0.00000000000E+00 0.  1.
         11    1    1    2    0    0 -0.31791097551E+02  0.25824326723E+02 -0.19357429400E+03  0.19785999351E+03  0.00000000000E+00 0. -1.
</event>
<event>
 7    1  0.3265282E-009  0.2432373E+03  0.7561462E-02  0.1117655E+00
          1   -1    0    0  501    0  0.00000000000E+00  0.00000000000E+00  0.12481690400E+04  0.12481690400E+04  0.00000000000E+00 0. -1.
         -1   -1    0    0    0  501 -0.00000000000E+00 -0.00000000000E+00 -0.64719538456E+02  0.64719538456E+02  0.00000000000E+00 0.  1.
         25    2    1    2    0    0 -0.19827961822E+03  0.98659244436E+02  0.92950886222E+03  0.96368182875E+03  0.12508992207E+03 0.  0.
          5    1    3    3  502    0 -0.96393556849E+02 -0.19129020643E+02  0.34146529254E+03  0.35535004663E+03  0.41800000000E+01 0.  1.
         -5    1    3    3    0  502 -0.10188606137E+03  0.11778826508E+03  0.58804356968E+03  0.60833178212E+03  0.41800000000E+01 0.  1.
        -11    1    1    2    0    0  0.93345922760E+02 -0.85457080315E+02  0.94786125597E+02  0.15811636056E+03  0.00000000000E+00 0.  1.
         11    1    1    2    0    0  0.10493369546E+03 -0.13202164120E+02  0.15915451370E+03  0.19109038912E+03  0.00000000000E+00 0. -1.
</event>
<event>
 7    1  0.3265282E-009  0.1616640E+03  0.7561462E-02  0.1186831E+00
          2   -1    0    0  501    0  0.00000000000E+00  0.00000000000E+00  0.68274453858E+03  0.68274453858E+03  0.00000000000E+00 0. -1.
         -2   -1    0    0    0  501 -0.00000000000E+00 -0.00000000000E+00 -0.46224539690E+02  0.46224539690E+02  0.00000000000E+00 0.  1.
         25    2    1    2    0    0 -0.13357381470E+03 -0.28042834749E+02  0.26657606508E+03  0.32455936842E+03  0.12509044966E+03 0.  0.
          5    1    3    3  502    0 -0.47359890017E+02 -0.73191457270E+02  0.11472181207E+03  0.14414754651E+03  0.41800000000E+01 0.  1.
         -5    1    3    3    0  502 -0.86213924688E+02  0.45148622520E+02  0.15185425301E+03  0.18041182191E+03  0.41800000000E+01 0.  1.
        -11    1    1    2    0    0  0.79105241895E+02  0.43009064330E+01  0.97830622482E+02  0.12588474009E+03  0.00000000000E+00 0.  1.
         11    1    1    2    0    0  0.54468572809E+02  0.23741928316E+02  0.27211331133E+03  0.27852496977E+03  0.00000000000E+00 0. -1.
</event>
<event>
 7    1  0.3265282E-009  0.1001761E+03  0.7561462E-02  0.1279926E+00
          2   -1    0    0  501    0  0.00000000000E+00  0.00000000000E+00  0.64768912960E+03  0.64768912960E+03  0.00000000000E+00 0. -1.
         -2   -1    0    0    0  501 -0.00000000000E+00 -0.00000000000E+00 -0.24468129341E+02  0.24468129341E+02  0.00000000000E+00 0.  1.
         25    2    1    2    0    0 -0.44799764647E+02 -0.43173692845E+02  0.34017872878E+03  0.36775259554E+03  0.12509763126E+03 0.  0.
          5    1    3    3  502    0  0.36573415228E+02 -0.36099223219E+02  0.81377148850E+02  0.96335255091E+02  0.41800000000E+01 0.  1.
         -5    1    3    3    0  502 -0.81373179874E+02 -0.70744696257E+01  0.25880157993E+03  0.27141734045E+03  0.41800000000E+01 0.  1.
        -11    1    1    2    0    0  0.46244432442E+02  0.33196778580E+02  0.28771563367E+03  0.29329312897E+03  0.00000000000E+00 0. -1.
         11    1    1    2    0    0 -0.14446677958E+01  0.99769142651E+01 -0.46733621911E+01  0.11111534433E+02  0.00000000000E+00 0.  1.
</event>
<event>
 7    1  0.3265282E-009  0.1463552E+03  0.7561462E-02  0.1205025E+00
         -2   -1    0    0    0  501 -0.00000000000E+00  0.00000000000E+00  0.89680186675E+02  0.89680186675E+02  0.00000000000E+00 0.  1.
          2   -1    0    0  501    0  0.00000000000E+00 -0.00000000000E+00 -0.28645645478E+03  0.28645645478E+03  0.00000000000E+00 0. -1.
         25    2    1    2    0    0  0.10367308237E+03 -0.33453964300E+01 -0.40375091389E+02  0.16744327995E+03  0.12509118398E+03 0.  0.
          5    1    3    3  502    0  0.84973161970E+02 -0.58859283982E+02 -0.30803349284E+02  0.10794059613E+03  0.41800000000E+01 0. -1.
         -5    1    3    3    0  502  0.18699920402E+02  0.55513887552E+02 -0.95717421050E+01  0.59502683814E+02  0.41800000000E+01 0. -1.
        -11    1    1    2    0    0 -0.13531636234E+02  0.32975707630E+02 -0.77441726124E+02  0.85250943795E+02  0.00000000000E+00 0. -1.
         11    1    1    2    0    0 -0.90141446137E+02 -0.29630311200E+02 -0.78959450594E+02  0.12344241772E+03  0.00000000000E+00 0.  1.
</event>
<event>
 7    1  0.3265282E-009  0.1006594E+03  0.7561462E-02  0.1278915E+00
         -2   -1    0    0    0  501 -0.00000000000E+00  0.00000000000E+00  0.38680302417E+02  0.38680302417E+02  0.00000000000E+00 0.  1.
          2   -1    0    0  501    0  0.00000000000E+00 -0.00000000000E+00 -0.44870968444E+03  0.44870968444E+03  0.00000000000E+00 0. -1.
         25    2    1    2    0    0 -0.97170203680E+01 -0.75097973370E+01 -0.36526280134E+03  0.38628375216E+03  0.12508959029E+03 0.  0.
          5    1    3    3  502    0 -0.62475346505E+02  0.19874388702E+02 -0.17592549478E+03  0.18779087401E+03  0.41800000000E+01 0.  1.
         -5    1    3    3    0  502  0.52758326137E+02 -0.27384186039E+02 -0.18933730656E+03  0.19849287815E+03  0.41800000000E+01 0.  1.
        -11    1    1    2    0    0  0.39368253021E+02 -0.11256253438E+02 -0.51065988678E+02  0.65454547489E+02  0.00000000000E+00 0. -1.
         11    1    1    2    0    0 -0.29651232653E+02  0.18766050775E+02  0.62994079971E+01  0.35651687206E+02  0.00000000000E+00 0.  1.
</event>
<event>
 7    1  0.3265282E-009  0.9637399E+02  0.7561462E-02  0.1288111E+00
          1   -1    0    0  501    0  0.00000000000E+00  0.00000000000E+00  0.12313800047E+03  0.12313800047E+03  0.00000000000E+00 0. -1.
         -1   -1    0    0    0  501 -0.00000000000E+00 -0.00000000000E+00 -0.10169874089E+03  0.10169874089E+03  0.00000000000E+00 0.  1.
         25    2    1    2    0    0  0.82210600046E+01 -0.24245008895E+02  0.20573729281E+02  0.12932513343E+03  0.12508519303E+03 0.  0.
          5    1    3    3  502    0  0.38945151147E+02  0.29090251176E+02 -0.22856262113E+02  0.53878090437E+02  0.41800000000E+01 0. -1.
         -5    1    3    3    0  502 -0.30724091142E+02 -0.53335260071E+02  0.43429991394E+02  0.75447042989E+02  0.41800000000E+01 0. -1.
        -11    1    1    2    0    0  0.15952968855E+02  0.46651400853E+02 -0.23406874158E+02  0.54577762639E+02  0.00000000000E+00 0.  1.
         11    1    1    2    0    0 -0.24174028859E+02 -0.22406391959E+02  0.24272404458E+02  0.40933845288E+02  0.00000000000E+00 0. -1.
</event>
<event>
 7    1  0.3265282E-009  0.1206034E+03  0.7561462E-02  0.1242105E+00
         -2   -1    0    0    0  501 -0.00000000000E+00  0.00000000000E+00  0.59336465950E+03  0.59336465950E+03  0.00000000000E+00 0.  1.
          2   -1    0    0  501    0  0.00000000000E+00 -0.00000000000E+00 -0.27702799295E+02  0.27702799295E+02  0.00000000000E+00 0. -1.
         25    2    1    2    0    0  0.24614212726E+02 -0.49280509664E+02  0.41296815955E+03  0.43499957559E+03  0.12508997507E+03 0.  0.
          5    1    3    3  502    0  0.83102672319E+01  0.42266669416E+02  0.14532051597E+03  0.15162802065E+03  0.41800000000E+01 0. -1.
         -5    1    3    3    0  502  0.16303945494E+02 -0.91547179080E+02  0.26764764358E+03  0.28337155494E+03  0.41800000000E+01 0. -1.
        -11    1    1    2    0    0 -0.34508810584E+02 -0.16553476955E+02  0.41389406172E+02  0.56373385125E+02  0.00000000000E+00 0.  1.
         11    1    1    2    0    0  0.98945978574E+01  0.65833986618E+02  0.11130429448E+03  0.12969449808E+03  0.00000000000E+00 0. -1.
</event>
<event>
 7    1  0.3265282E-009  0.1032806E+03  0.7561462E-02  0.1273545E+00
          1   -1    0    0  501    0  0.00000000000E+00  0.00000000000E+00  0.26723661805E+02  0.26723661805E+02  0.00000000000E+00 0. -1.
         -1   -1    0    0    0  501 -0.00000000000E+00 -0.00000000000E+00 -0.54691059306E+03  0.54691059306E+03  0.00000000000E+00 0.  1.
         25    2    1    2    0    0  0.27905998546E+02  0.35158497059E+02 -0.22681810350E+03  0.26288405383E+03  0.12508680589E+03 0.  0.
          5    1    3    3  502    0  0.66020130537E+02  0.41752426091E+02 -0.20229870828E+03  0.21689666317E+03  0.41800000000E+01 0. -1.
         -5    1    3    3    0  502 -0.38114131991E+02 -0.65939290322E+01 -0.24519395224E+02  0.45987390660E+02  0.41800000000E+01 0. -1.
        -11    1    1    2    0    0 -0.35393987488E+02  0.15197991062E+02 -0.20650467845E+03  0.21006640737E+03  0.00000000000E+00 0.  1.
         11    1    1    2    0    0  0.74879889420E+01 -0.50356488121E+02 -0.86864149298E+02  0.10068379367E+03  0.00000000000E+00 0. -1.
</event>
<event>
 7    1  0.3265282E-009  0.1936065E+03  0.7561462E-02  0.1155248E+00
          3   -1    0    0  501    0  0.00000000000E+00  0.00000000000E+00  0.48392893873E+03  0.48392893873E+03  0.00000000000E+00 0. -1.
         -3   -1    0    0    0  501 -0.00000000000E+00 -0.00000000000E+00 -0.84645408415E+02  0.84645408415E+02  0.00000000000E+00 0.  1.
         25    2    1    2    0    0  0.91737323231E+02 -0.14361489525E+03  0.21088064703E+03  0.29859751198E+03  0.12509537265E+03 0.  0.
          5    1    3    3  502    0 -0.14262945972E+02 -0.67164103731E+02  0.29143858348E+02  0.74708000490E+02  0.41800000000E+01 0. -1.
         -5    1    3    3    0  502  0.10600026920E+03 -0.76450791516E+02  0.18173678868E+03  0.22388951149E+03  0.41800000000E+01 0. -1.
        -11    1    1    2    0    0  0.12821932148E+02  0.33237576865E+02  0.13172508394E+02  0.37982277937E+02  0.00000000000E+00 0.  1.
         11    1    1    2    0    0 -0.10455925538E+03  0.11037731838E+03  0.17523037489E+03  0.23199455722E+03  0.00000000000E+00 0. -1.
</event>
<event>
 7    1  0.3265282E-009  0.1399521E+03  0.7561462E-02  0.1213393E+00
         -1   -1    0    0    0  501 -0.00000000000E+00  0.00000000000E+00  0.10082462289E+03  0.10082462289E+03  0.00000000000E+00 0.  1.
          1   -1    0    0  501    0  0.00000000000E+00 -0.00000000000E+00 -0.23902002932E+03  0.23902002932E+03  0.00000000000E+00 0. -1.
         25    2    1    2    0    0 -0.77648385654E+02 -0.48295607211E+02 -0.53087937428E+01  0.15504335711E+03  0.12509405191E+03 0.  0.
          5    1    3    3  502    0  0.21056268252E+02  0.21693263962E+02 -0.14167108579E+02  0.33647340155E+02  0.41800000000E+01 0. -1.
         -5    1    3    3    0  502 -0.98704653906E+02 -0.69988871174E+02  0.88583148360E+01  0.12139601696E+03  0.41800000000E+01 0. -1.
        -11    1    1    2    0    0  0.87597948649E+02  0.93264109643E+01 -0.87619304041E+02  0.12424783696E+03  0.00000000000E+00 0.  1.
         11    1    1    2    0    0 -0.99495629942E+01  0.38969196247E+02 -0.45267308644E+02  0.60553458133E+02  0.00000000000E+00 0. -1.
</event>
<event>
 7    1  0.3265282E-009  0.1784070E+03  0.7561462E-02  0.1169354E+00
          2   -1    0    0  501    0  0.00000000000E+00  0.00000000000E+00  0.54287919806E+03  0.54287919806E+03  0.00000000000E+00 0.  1.
         -2   -1    0    0    0  501 -0.00000000000E+00 -0.00000000000E+00 -0.59039589137E+02  0.59039589137E+02  0.00000000000E+00 0. -1.
         25    2    1    2    0    0 -0.63503312799E+02 -0.12459910860E+03  0.24153201266E+03  0.30584550991E+03  0.12508458814E+03 0.  0.
          5    1    3    3  502    0 -0.46727955006E+02 -0.14944827244E+03  0.19192499074E+03  0.24773163380E+03  0.41800000000E+01 0. -1.
         -5    1    3    3    0  502 -0.16775357793E+02  0.24849163839E+02  0.49607021920E+02  0.58113876109E+02  0.41800000000E+01 0. -1.
        -11    1    1    2    0    0  0.47525395060E+02  0.33904086851E+01  0.75056600661E+02  0.88902482245E+02  0.00000000000E+00 0. -1.
         11    1    1    2    0    0  0.15977917739E+02  0.12120869991E+03  0.16725099561E+03  0.20717079505E+03  0.00000000000E+00 0.  1.
</event>
<event>
 7    1  0.3265282E-009  0.1462506E+03  0.7561462E-02  0.1205157E+00
         -2   -1    0    0    0  501 -0.00000000000E+00  0.00000000000E+00  0.57459751487E+03  0.57459751487E+03  0.00000000000E+00 0.  1.
          2   -1    0    0  501    0  0.00000000000E+00 -0.00000000000E+00 -0.63332530802E+02  0.63332530802E+02  0.00000000000E+00 0. -1.
         25    2    1    2    0    0  0.10053983838E+03  0.28003999121E+02  0.73554118326E+02  0.17874235377E+03  0.12508452198E+03 0.  0.
          5    1    3    3  502    0  0.91179948499E+01 -0.44636102746E+02  0.15754610814E+02  0.48385944863E+02  0.41800000000E+01 0.  1.
         -5    1    3    3    0  502  0.91421843531E+02  0.72640101867E+02  0.57799507512E+02  0.13035640890E+03  0.41800000000E+01 0.  1.
        -11    1    1    2    0    0 -0.52151051799E+02  0.25261415696E+02  0.27855789626E+03  0.28452130481E+03  0.00000000000E+00 0.  1.
         11    1    1    2    0    0 -0.48388786582E+02 -0.53265414818E+02  0.15915296948E+03  0.17466638709E+03  0.00000000000E+00 0. -1.
</event>
<event>
 7    1  0.3265282E-009  0.8438152E+02  0.7561462E-02  0.1317058E+00
         -2   -1    0    0    0  501 -0.00000000000E+00  0.00000000000E+00  0.14263518011E+02  0.14263518011E+02  0.00000000000E+00 0.  1.
          2   -1    0    0  501    0  0.00000000000E+00 -0.00000000000E+00 -0.92585409385E+03  0.92585409385E+03  0.00000000000E+00 0. -1.
         25    2    1    2    0    0  0.34188728167E+02  0.47226976425E+01 -0.54890753904E+03  0.56403791852E+03  0.12509242226E+03 0.  0.
          5    1    3    3  502    0  0.13903931348E+02  0.34027510811E+02 -0.50910435585E+03  0.51044677328E+03  0.41800000000E+01 0. -1.
         -5    1    3    3    0  502  0.20284796819E+02 -0.29304813169E+02 -0.39803183185E+02  0.53591145244E+02  0.41800000000E+01 0. -1.
        -11    1    1    2    0    0 -0.64286728260E+02 -0.10771847906E+02 -0.28894710931E+03  0.29620811622E+03  0.00000000000E+00 0.  1.
         11    1    1    2    0    0  0.30098000093E+02  0.60491502632E+01 -0.73735927485E+02  0.79871577113E+02  0.00000000000E+00 0. -1.
</event>
<event>
 7    1  0.3265282E-009  0.9061735E+02  0.7561462E-02  0.1301364E+00
         -1   -1    0    0    0  501 -0.00000000000E+00  0.00000000000E+00  0.16112625367E+03  0.16112625367E+03  0.00000000000E+00 0.  1.
          1   -1    0    0  501    0  0.00000000000E+00 -0.00000000000E+00 -0.83340022123E+02  0.83340022123E+02  0.00000000000E+00 0. -1.
         25    2    1    2    0    0 -0.90124590840E+01  0.32502208981E+02  0.22925376235E+02  0.13157013498E+03  0.12509000574E+03 0.  0.
          5    1    3    3  502    0 -0.58254106007E+02  0.48690981012E+02  0.37031538568E+01  0.76128432580E+02  0.41800000000E+01 0. -1.
         -5    1    3    3    0  502  0.49241646923E+02 -0.16188772031E+02  0.19222222378E+02  0.55441702397E+02  0.41800000000E+01 0. -1.
        -11    1    1    2    0    0  0.22201287864E+02 -0.33253210062E+02 -0.14316146683E+02  0.42469108987E+02  0.00000000000E+00 0. -1.
         11    1    1    2    0    0 -0.13188828780E+02  0.75100108153E+00  0.69177001993E+02  0.70427031827E+02  0.00000000000E+00 0.  1.
</event>
<event>
 7    1  0.3265282E-009  0.9777523E+02  0.7561462E-02  0.1285045E+00
          1   -1    0    0  501    0  0.00000000000E+00  0.00000000000E+00  0.19120731343E+03  0.19120731343E+03  0.00000000000E+00 0. -1.
         -1   -1    0    0    0  501 -0.00000000000E+00 -0.00000000000E+00 -0.92519975961E+02  0.92519975961E+02  0.00000000000E+00 0.  1.
         25    2    1    2    0    0  0.57222591072E+02  0.39738334970E+02  0.17290872444E+02  0.14422556756E+03  0.12509388424E+03 0.  0.
          5    1    3    3  502    0  0.22190993402E+02  0.54919718669E+02  0.61617897668E+02  0.85573672352E+02  0.41800000000E+01 0.  1.
         -5    1    3    3    0  502  0.35031597670E+02 -0.15181383699E+02 -0.44327025224E+02  0.58651895208E+02  0.41800000000E+01 0.  1.
        -11    1    1    2    0    0  0.29510937386E+01  0.15680876968E+02  0.48969667053E+02  0.51503661501E+02  0.00000000000E+00 0. -1.
         11    1    1    2    0    0 -0.60173684810E+02 -0.55419211938E+02  0.32426797976E+02  0.87998060333E+02  0.00000000000E+00 0.  1.
</event>
<event>
 7    1  0.3265282E-009  0.2248280E+03  0.7561462E-02  0.1130334E+00
          2   -1    0    0  501    0  0.00000000000E+00  0.00000000000E+00  0.12986179414E+04  0.12986179414E+04  0.00000000000E+00 0. -1.
         -2   -1    0    0    0  501 -0.00000000000E+00 -0.00000000000E+00 -0.63891239536E+02  0.63891239536E+02  0.00000000000E+00 0.  1.
         25    2    1    2    0    0  0.12977089682E+03  0.17240987873E+03  0.10013437097E+04  0.10319409902E+04  0.12508928953E+03 0.  0.
          5    1    3    3  502    0  0.97770285681E+02  0.13887653692E+03  0.49261784224E+03  0.52109071395E+03  0.41800000000E+01 0. -1.
         -5    1    3    3    0  502  0.32000611143E+02  0.33533341815E+02  0.50872586747E+03  0.51085027627E+03  0.41800000000E+01 0. -1.
        -11    1    1    2    0    0 -0.79492653649E+02 -0.34910550775E+02  0.10100099707E+03  0.13318794971E+03  0.00000000000E+00 0.  1.
         11    1    1    2    0    0 -0.50278243176E+02 -0.13749932796E+03  0.13238199513E+03  0.19738024106E+03  0.00000000000E+00 0. -1.
</event>
<event>
 7    1  0.3265282E-009  0.1227694E+03  0.7561462E-02  0.1238597E+00
         -3   -1    0    0    0  501 -0.00000000000E+00  0.00000000000E+00  0.11512488926E+03  0.11512488926E+03  0.00000000000E+00 0.  1.
          3   -1    0    0  501    0  0.00000000000E+00 -0.00000000000E+00 -0.16642580970E+03  0.16642580970E+03  0.00000000000E+00 0. -1.
         25    2    1    2    0    0 -0.17328509828E+01  0.30440074927E+02 -0.88802580669E+02  0.15640498889E+03  0.12508805412E+03 0.  0.
          5    1    3    3  502    0  0.59390165207E+02 -0.10377642175E+01 -0.35653498265E+02  0.69403984154E+02  0.41800000000E+01 0. -1.
         -5    1    3    3    0  502 -0.61123016190E+02  0.31477839144E+02 -0.53149082404E+02  0.87001004740E+02  0.41800000000E+01 0. -1.
        -11    1    1    2    0    0  0.44191998075E+02 -0.53021115908E+02  0.33960354105E+02  0.76925139434E+02  0.00000000000E+00 0. -1.
         11    1    1    2    0    0 -0.42459147092E+02  0.22581040982E+02  0.35413061237E+01  0.48220570638E+02  0.00000000000E+00 0.  1.
</event>
<event>
 7    1  0.3265282E-009  0.1543480E+03  0.7561462E-02  0.1195230E+00
          1   -1    0    0  501    0  0.00000000000E+00  0.00000000000E+00  0.53834392213E+03  0.53834392213E+03  0.00000000000E+00 0. -1.
         -1   -1    0    0    0  501 -0.00000000000E+00 -0.00000000000E+00 -0.55010375781E+02  0.55010375781E+02  0.00000000000E+00 0.  1.
         25    2    1    2    0    0 -0.12201928016E+03 -0.53024570761E+02  0.26326387763E+03  0.32040152047E+03  0.12509578419E+03 0.  0.
          5    1    3    3  502    0  0.21830595738E+02 -0.22612854984E+01  0.94782905189E+01  0.24269295695E+02  0.41800000000E+01 0. -1.
         -5    1    3    3    0  502 -0.14384987590E+03 -0.50763285262E+02  0.25378558711E+03  0.29613222478E+03  0.41800000000E+01 0. -1.
        -11    1    1    2    0    0  0.88892071444E+02  0.45155985263E+02  0.77244780218E+02  0.12612541156E+03  0.00000000000E+00 0.  1.
         11    1    1    2    0    0  0.33127208716E+02  0.78685854976E+01  0.14282488850E+03  0.14682736588E+03  0.00000000000E+00 0. -1.
</event>
<event>
 7    1  0.3265282E-009  0.9587864E+02  0.7561462E-02  0.1289209E+00
         -1   -1    0    0    0  501 -0.00000000000E+00  0.00000000000E+00  0.26240284353E+02  0.26240284353E+02  0.00000000000E+00 0.  1.
          1   -1    0    0  501    0  0.00000000000E+00 -0.00000000000E+00 -0.48562093209E+03  0.48562093209E+03  0.00000000000E+00 0. -1.
         25    2    1    2    0    0  0.23562560297E+02 -0.49656713530E+01 -0.21093875728E+03  0.24641964288E+03  0.12509048299E+03 0.  0.
          5    1    3    3  502    0  0.62019264178E+02  0.10893002358E+02 -0.51094398233E+02  0.81198254664E+02  0.41800000000E+01 0. -1.
         -5    1    3    3    0  502 -0.38456703882E+02 -0.15858673711E+02 -0.15984435905E+03  0.16522138822E+03  0.41800000000E+01 0. -1.
        -11    1    1    2    0    0 -0.30592781092E+02  0.40423123081E+02 -0.19065887998E+03  0.19728343988E+03  0.00000000000E+00 0.  1.
         11    1    1    2    0    0  0.70302207954E+01 -0.35457451728E+02 -0.57783010469E+02  0.68158133678E+02  0.00000000000E+00 0. -1.
</event>
<event>
 7    1  0.3265282E-009  0.1208139E+03  0.7561462E-02  0.1241760E+00
         -1   -1    0    0    0  501 -0.00000000000E+00  0.00000000000E+00  0.14719990117E+02  0.14719990117E+02  0.00000000000E+00 0.  1.
          1   -1    0    0  501    0  0.00000000000E+00 -0.00000000000E+00 -0.11240338440E+04  0.11240338440E+04  0.00000000000E+00 0. -1.
         25    2    1    2    0    0  0.47758732600E+02  0.50320828897E+02 -0.64254591736E+03  0.65827488843E+03  0.12508992950E+03 0.  0.
          5    1    3    3  502    0  0.14900690647E+02  0.81562656940E+02 -0.53624283485E+03  0.54263095001E+03  0.41800000000E+01 0.  1.
         -5    1    3    3    0  502  0.32858041953E+02 -0.31241828043E+02 -0.10630308251E+03  0.11564393841E+03  0.41800000000E+01 0.  1.
        -11    1    1    2    0    0 -0.92708867987E+01  0.25998969736E+02 -0.14154324508E+03  0.14420952117E+03  0.00000000000E+00 0.  1.
         11    1    1    2    0    0 -0.38487845802E+02 -0.76319798633E+02 -0.32522469145E+03  0.33626942452E+03  0.00000000000E+00 0. -1.
</event>
<event>
 7    1  0.4544442E-009  0.1189968E+03  0.7561462E-02  0.1244761E+00
          2   -1    0    0  501    0  0.00000000000E+00  0.00000000000E+00  0.42057023709E+03  0.42057023709E+03  0.00000000000E+00 0. -1.
         -2   -1    0    0    0  501 -0.00000000000E+00 -0.00000000000E+00 -0.47971858293E+02  0.47971858293E+02  0.00000000000E+00 0.  1.
         25    2    1    2    0    0  0.57036286064E+02 -0.64466118372E+02  0.25764290428E+03  0.29903628687E+03  0.12503526059E+03 0.  0.
          5    1    3    3  502    0  0.98485221459E+01 -0.94283953092E+02  0.14563344957E+03  0.17381896108E+03  0.41800000000E+01 0. -1.
         -5    1    3    3    0  502  0.47187763918E+02  0.29817834720E+02  0.11200945471E+03  0.12521732578E+03  0.41800000000E+01 0. -1.
        -11    1    1    2    0    0 -0.24661587996E+02  0.38057335795E+02 -0.19173080068E+01  0.45389765369E+02  0.00000000000E+00 0.  1.
         11    1    1    2    0    0 -0.32374698068E+02  0.26408782577E+02  0.11687278252E+03  0.12411604315E+03  0.00000000000E+00 0. -1.
</event>
<event>
 7    1  0.3265282E-009  0.1527978E+03  0.7561462E-02  0.1197077E+00
         -2   -1    0    0    0  501 -0.00000000000E+00  0.00000000000E+00  0.24325328966E+02  0.24325328966E+02  0.00000000000E+00 0.  1.
          2   -1    0    0  501    0  0.00000000000E+00 -0.00000000000E+00 -0.12280039923E+04  0.12280039923E+04  0.00000000000E+00 0. -1.
         25    2    1    2    0    0 -0.31924183536E+02  0.12628860925E+03 -0.52034024579E+03  0.55078912218E+03  0.12508684740E+03 0.  0.
          5    1    3    3  502    0 -0.44833248150E+02  0.41403784985E+02 -0.72889935891E+02  0.95156233138E+02  0.41800000000E+01 0.  1.
         -5    1    3    3    0  502  0.12909064614E+02  0.84884824267E+02 -0.44745030990E+03  0.45563288904E+03  0.41800000000E+01 0.  1.
        -11    1    1    2    0    0 -0.23035675174E+02 -0.26853735705E+01 -0.85547024994E+02  0.88634908740E+02  0.00000000000E+00 0. -1.
         11    1    1    2    0    0  0.54959858710E+02 -0.12360323568E+03 -0.59779139259E+03  0.61290529039E+03  0.00000000000E+00 0.  1.
</event>
<event>
 7    1  0.3265282E-009  0.1100976E+03  0.7561462E-02  0.1260389E+00
          1   -1    0    0  501    0  0.00000000000E+00  0.00000000000E+00  0.21210173435E+03  0.21210173435E+03  0.00000000000E+00 0. -1.
         -1   -1    0    0    0  501 -0.00000000000E+00 -0.00000000000E+00 -0.73721792430E+02  0.73721792430E+02  0.00000000000E+00 0.  1.
         25    2    1    2    0    0 -0.59805079747E+02 -0.21065981110E+02  0.77280194608E+02  0.16012547313E+03  0.12509002975E+03 0.  0.
          5    1    3    3  502    0 -0.60118219686E+02 -0.53789109168E+02  0.93335133883E+02  0.12343576556E+03  0.41800000000E+01 0. -1.
         -5    1    3    3    0  502  0.31313993966E+00  0.32723128057E+02 -0.16054939274E+02  0.36689707570E+02  0.41800000000E+01 0. -1.
        -11    1    1    2    0    0 -0.18331376719E+02 -0.11648154415E+02  0.26328627046E+02  0.34130858117E+02  0.00000000000E+00 0. -1.
         11    1    1    2    0    0  0.78136456465E+02  0.32714135525E+02  0.34771120262E+02  0.91567195526E+02  0.00000000000E+00 0.  1.
</event>
<event>
 7    1  0.3566522E-009  0.1313979E+03  0.7561462E-02  0.1225396E+00
         -3   -1    0    0    0  501 -0.00000000000E+00  0.00000000000E+00  0.33449719515E+02  0.33449719515E+02  0.00000000000E+00 0.  1.
          3   -1    0    0  501    0  0.00000000000E+00 -0.00000000000E+00 -0.60165867801E+03  0.60165867801E+03  0.00000000000E+00 0. -1.
         25    2    1    2    0    0  0.13142018564E+02 -0.89543798484E+02 -0.33320928637E+03  0.36724145918E+03  0.12508819416E+03 0.  0.
          5    1    3    3  502    0  0.34436911202E+02  0.69337328957E+01 -0.24371912167E+02  0.42958584795E+02  0.41800000000E+01 0. -1.
         -5    1    3    3    0  502 -0.21294892638E+02 -0.96477531380E+02 -0.30883737420E+03  0.32428287438E+03  0.41800000000E+01 0. -1.
        -11    1    1    2    0    0  0.35308746173E+02  0.12376486570E+02 -0.71007498148E+02  0.80261757827E+02  0.00000000000E+00 0.  1.
         11    1    1    2    0    0 -0.48450764737E+02  0.77167311914E+02 -0.16399217397E+03  0.18760518052E+03  0.00000000000E+00 0. -1.
</event>
<event>
 7    1  0.3265282E-009  0.2717535E+03  0.7561462E-02  0.1100280E+00
          2   -1    0    0  501    0  0.00000000000E+00  0.00000000000E+00  0.15748541492E+04  0.15748541492E+04  0.00000000000E+00 0.  1.
         -2   -1    0    0    0  501 -0.00000000000E+00 -0.00000000000E+00 -0.50351113995E+02  0.50351113995E+02  0.00000000000E+00 0. -1.
         25    2    1    2    0    0  0.11924882879E+02  0.25703641021E+03  0.84574279117E+03  0.89282563661E+03  0.12508728778E+03 0.  0.
          5    1    3    3  502    0 -0.45339445669E+02  0.36935508786E+02  0.17025639910E+03  0.18006835085E+03  0.41800000000E+01 0. -1.
         -5    1    3    3    0  502  0.57264328548E+02  0.22010090142E+03  0.67548639207E+03  0.71275728576E+03  0.41800000000E+01 0. -1.
        -11    1    1    2    0    0 -0.82615342878E+01 -0.10283988930E+03  0.40726947693E+03  0.42013417216E+03  0.00000000000E+00 0.  1.
         11    1    1    2    0    0 -0.36633485910E+01 -0.15419652091E+03  0.27149076708E+03  0.31224545440E+03  0.00000000000E+00 0. -1.
</event>
<event>
 7    1  0.3532003E-009  0.1369713E+03  0.7561462E-02  0.1217463E+00
         -2   -1    0    0    0  501 -0.00000000000E+00  0.00000000000E+00  0.33252814687E+02  0.33252814687E+02  0.00000000000E+00 0. -1.
          2   -1    0    0  501    0  0.00000000000E+00 -0.00000000000E+00 -0.71160336481E+03  0.71160336481E+03  0.00000000000E+00 0.  1.
         25    2    1    2    0    0  0.15797059074E+02  0.10409106080E+03 -0.42530825103E+03  0.45564624737E+03  0.12506757510E+03 0.  0.
          5    1    3    3  502    0  0.63911681696E+02  0.58863764297E+02 -0.31706651822E+03  0.32878305184E+03  0.41800000000E+01 0. -1.
         -5    1    3    3    0  502 -0.48114622622E+02  0.45227296501E+02 -0.10824173281E+03  0.12686319553E+03  0.41800000000E+01 0. -1.
        -11    1    1    2    0    0 -0.34785061380E+02 -0.35844531118E+02 -0.18260207328E+03  0.18931019009E+03  0.00000000000E+00 0.  1.
         11    1    1    2    0    0  0.18988002306E+02 -0.68246529680E+02 -0.70440225815E+02  0.99899742031E+02  0.00000000000E+00 0. -1.
</event>
<event>
 7    1  0.3265282E-009  0.1002344E+03  0.7561462E-02  0.1279804E+00
         -1   -1    0    0    0  501 -0.00000000000E+00  0.00000000000E+00  0.11145172419E+03  0.11145172419E+03  0.00000000000E+00 0.  1.
          1   -1    0    0  501    0  0.00000000000E+00 -0.00000000000E+00 -0.25061140000E+03  0.25061140000E+03  0.00000000000E+00 0. -1.
         25    2    1    2    0    0 -0.17863409373E+01  0.76994128743E+02 -0.18281064218E+03  0.23452622429E+03  0.12510608342E+03 0.  0.
          5    1    3    3  502    0  0.11498618707E+02  0.41425544463E+02 -0.19069261631E+03  0.19552350314E+03  0.41800000000E+01 0. -1.
         -5    1    3    3    0  502 -0.13284959645E+02  0.35568584281E+02  0.78819741291E+01  0.39002721144E+02  0.41800000000E+01 0. -1.
        -11    1    1    2    0    0  0.30209445389E+02  0.64792164033E+01  0.17748552942E+02  0.35631474393E+02  0.00000000000E+00 0.  1.
         11    1    1    2    0    0 -0.28423104452E+02 -0.83473345147E+02  0.25902413435E+02  0.91905425511E+02  0.00000000000E+00 0. -1.
</event>
<event>
 7    1  0.3265282E-009  0.1003922E+03  0.7561462E-02  0.1279473E+00
          2   -1    0    0  501    0  0.00000000000E+00  0.00000000000E+00  0.44006480460E+02  0.44006480460E+02  0.00000000000E+00 0. -1.
         -2   -1    0    0    0  501 -0.00000000000E+00 -0.00000000000E+00 -0.27018654967E+03  0.27018654967E+03  0.00000000000E+00 0.  1.
         25    2    1    2    0    0  0.76389835527E+01  0.74342145510E+01 -0.11607446717E+03  0.17097874481E+03  0.12508728006E+03 0.  0.
          5    1    3    3  502    0  0.53427601615E+02  0.41821201793E+02 -0.67039578955E+02  0.95474075435E+02  0.41800000000E+01 0.  1.
         -5    1    3    3    0  502 -0.45788618062E+02 -0.34386987242E+02 -0.49034888212E+02  0.75504669376E+02  0.41800000000E+01 0.  1.
        -11    1    1    2    0    0 -0.29320961936E+02  0.23526774836E+02 -0.95604632361E+02  0.10273010110E+03  0.00000000000E+00 0.  1.
         11    1    1    2    0    0  0.21681978383E+02 -0.30960989387E+02 -0.14500969685E+02  0.40484184224E+02  0.00000000000E+00 0. -1.
</event>
<event>
 7    1  0.3265282E-009  0.2720078E+03  0.7561462E-02  0.1100136E+00
          2   -1    0    0  501    0  0.00000000000E+00  0.00000000000E+00  0.39479522057E+03  0.39479522057E+03  0.00000000000E+00 0. -1.
         -2   -1    0    0    0  501 -0.00000000000E+00 -0.00000000000E+00 -0.20712778904E+03  0.20712778904E+03  0.00000000000E+00 0.  1.
         25    2    1    2    0    0  0.25791646563E+03 -0.47542830369E+02  0.61507946937E+02  0.29700452906E+03  0.12508892349E+03 0.  0.
          5    1    3    3  502    0  0.32262432100E+02 -0.23616601484E+02  0.57315718837E+02  0.70008373903E+02  0.41800000000E+01 0. -1.
         -5    1    3    3    0  502  0.22565403353E+03 -0.23926228885E+02  0.41922280998E+01  0.22699615515E+03  0.41800000000E+01 0. -1.
        -11    1    1    2    0    0 -0.10956759971E+03  0.65140143640E+02  0.47041349558E+02  0.13587194629E+03  0.00000000000E+00 0.  1.
         11    1    1    2    0    0 -0.14834886592E+03 -0.17597313271E+02  0.79118135030E+02  0.16904653426E+03  0.00000000000E+00 0. -1.
</event>
<event>
 7    1  0.3265282E-009  0.9513537E+02  0.7561462E-02  0.1290872E+00
         -3   -1    0    0    0  501 -0.00000000000E+00  0.00000000000E+00  0.27537924577E+03  0.27537924577E+03  0.00000000000E+00 0.  1.
          3   -1    0    0  501    0  0.00000000000E+00 -0.00000000000E+00 -0.44828042744E+02  0.44828042744E+02  0.00000000000E+00 0. -1.
         25    2    1    2    0    0  0.28355954409E+02  0.55950795882E+01  0.11617474559E+03  0.17314664039E+03  0.12509125669E+03 0.  0.
          5    1    3    3  502    0  0.31236829582E+02  0.62763357063E+02  0.73233793158E+02  0.10146743011E+03  0.41800000000E+01 0.  1.
         -5    1    3    3    0  502 -0.28808751727E+01 -0.57168277475E+02  0.42940952427E+02  0.71679210281E+02  0.41800000000E+01 0.  1.
        -11    1    1    2    0    0 -0.20872872138E+02  0.24181257273E+02  0.11177319040E+03  0.11624825197E+03  0.00000000000E+00 0.  1.
         11    1    1    2    0    0 -0.74830822714E+01 -0.29776336861E+02  0.26032670357E+01  0.30812396148E+02  0.00000000000E+00 0. -1.
</event>
<event>
 7    1  0.3265282E-009  0.1350140E+03  0.7561462E-02  0.1220200E+00
         -4   -1    0    0    0  501 -0.00000000000E+00  0.00000000000E+00  0.36247922629E+02  0.36247922629E+02  0.00000000000E+00 0.  1.
          4   -1    0    0  501    0  0.00000000000E+00 -0.00000000000E+00 -0.65493958255E+03  0.65493958255E+03  0.00000000000E+00 0. -1.
         25    2    1    2    0    0  0.44796621618E+02 -0.84650577268E+02 -0.44788494824E+03  0.47478552364E+03  0.12509160268E+03 0.  0.
          5    1    3    3  502    0 -0.33289001309E+02 -0.22312359302E+02 -0.48414395748E+02  0.62987499565E+02  0.41800000000E+01 0. -1.
         -5    1    3    3    0  502  0.78085622927E+02 -0.62338217966E+02 -0.39947055249E+03  0.41179802407E+03  0.41800000000E+01 0. -1.
        -11    1    1    2    0    0 -0.34912667680E+02 -0.86016740430E+01 -0.70174358818E+02  0.78850008221E+02  0.00000000000E+00 0.  1.
         11    1    1    2    0    0 -0.98839539381E+01  0.93252251311E+02 -0.10063235287E+03  0.13755197332E+03  0.00000000000E+00 0. -1.
</event>
<event>
 7    1  0.3265282E-009  0.8143511E+02  0.7561462E-02  0.1325027E+00
         -1   -1    0    0    0  501 -0.00000000000E+00  0.00000000000E+00  0.15553457161E+02  0.15553457161E+02  0.00000000000E+00 0.  1.
          1   -1    0    0  501    0  0.00000000000E+00 -0.00000000000E+00 -0.15631767180E+04  0.15631767180E+04  0.00000000000E+00 0. -1.
         25    2    1    2    0    0  0.23644664540E+02 -0.62491682435E+02 -0.12866681605E+04  0.12944602887E+04  0.12509277903E+03 0.  0.
          5    1    3    3  502    0  0.31113087309E+02 -0.48000997299E+02 -0.12681148833E+04  0.12694112611E+04  0.41800000000E+01 0.  1.
         -5    1    3    3    0  502 -0.74684227695E+01 -0.14490685137E+02 -0.18553277114E+02  0.25049027647E+02  0.41800000000E+01 0.  1.
        -11    1    1    2    0    0 -0.39468034301E+02  0.21939907186E+02 -0.21971328366E+03  0.22430562248E+03  0.00000000000E+00 0. -1.
         11    1    1    2    0    0  0.15823369761E+02  0.40551775249E+02 -0.41241816681E+02  0.59964263937E+02  0.00000000000E+00 0.  1.
</event>
<event>
 7    1  0.3265282E-009  0.1313677E+03  0.7561462E-02  0.1225440E+00
         -2   -1    0    0    0  501 -0.00000000000E+00  0.00000000000E+00  0.32237596991E+02  0.32237596991E+02  0.00000000000E+00 0. -1.
          2   -1    0    0  501    0  0.00000000000E+00 -0.00000000000E+00 -0.72247157845E+03  0.72247157845E+03  0.00000000000E+00 0.  1.
         25    2    1    2    0    0 -0.59497742975E+02 -0.73193285040E+02 -0.25066069967E+03  0.29559320618E+03  0.12508924329E+03 0.  0.
          5    1    3    3  502    0  0.38328169514E+01  0.19690597394E+02  0.38426558969E+00  0.20494637630E+02  0.41800000000E+01 0.  1.
         -5    1    3    3    0  502 -0.63330559927E+02 -0.92883882434E+02 -0.25104496526E+03  0.27509856855E+03  0.41800000000E+01 0.  1.
        -11    1    1    2    0    0  0.25765019038E+02  0.88884521202E+02 -0.26716044839E+03  0.28273485725E+03  0.00000000000E+00 0.  1.
         11    1    1    2    0    0  0.33732723937E+02 -0.15691236162E+02 -0.17241283339E+03  0.17638111201E+03  0.00000000000E+00 0. -1.
</event>
<event>
 7    1  0.3265282E-009  0.2306039E+03  0.7561462E-02  0.1126215E+00
         -1   -1    0    0    0  501 -0.00000000000E+00  0.00000000000E+00  0.36130187043E+02  0.36130187043E+02  0.00000000000E+00 0.  1.
          1   -1    0    0  501    0  0.00000000000E+00 -0.00000000000E+00 -0.16136416006E+04  0.16136416006E+04  0.00000000000E+00 0. -1.
         25    2    1    2    0    0 -0.53204850523E+02  0.20811843654E+03 -0.87482155393E+03  0.90945281920E+03  0.12509052480E+03 0.  0.
          5    1    3    3  502    0 -0.21625642258E+02 -0.10235650115E+02 -0.14434162789E+03  0.14637081293E+03  0.41800000000E+01 0.  1.
         -5    1    3    3    0  502 -0.31579208265E+02  0.21835408666E+03 -0.73047992603E+03  0.76308200627E+03  0.41800000000E+01 0.  1.
        -11    1    1    2    0    0  0.15741444247E+02 -0.26587348881E+02 -0.31980440454E+02  0.44468289366E+02  0.00000000000E+00 0.  1.
         11    1    1    2    0    0  0.37463406275E+02 -0.18153108766E+03 -0.67070941920E+03  0.69585067909E+03  0.00000000000E+00 0. -1.
</event>
<event>
 7    1  0.3265282E-009  0.7049349E+02  0.7561462E-02  0.1358423E+00
          3   -1    0    0  501    0  0.00000000000E+00  0.00000000000E+00  0.11454397577E+03  0.11454397577E+03  0.00000000000E+00 0. -1.
         -3   -1    0    0    0  501 -0.00000000000E+00 -0.00000000000E+00 -0.11925428843E+03  0.11925428843E+03  0.00000000000E+00 0.  1.
         25    2    1    2    0    0 -0.43045663374E+02  0.25724447666E+02  0.17169837249E+02  0.13585500147E+03  0.12508837584E+03 0.  0.
          5    1    3    3  502    0 -0.34290523689E+02  0.32624211409E+02  0.68386532459E+02  0.83272861165E+02  0.41800000000E+01 0. -1.
         -5    1    3    3    0  502 -0.87551396848E+01 -0.68997637430E+01 -0.51216695210E+02  0.52582140303E+02  0.41800000000E+01 0. -1.
        -11    1    1    2    0    0  0.56149497322E+02 -0.34402220356E+02  0.58073338282E+01  0.66106005333E+02  0.00000000000E+00 0. -1.
         11    1    1    2    0    0 -0.13103833948E+02  0.86777726904E+01 -0.27687483741E+02  0.31837257402E+02  0.00000000000E+00 0.  1.
</event>
<event>
 7    1  0.3265282E-009  0.6464563E+02  0.7561462E-02  0.1379309E+00
          2   -1    0    0  501    0  0.00000000000E+00  0.00000000000E+00  0.25100330101E+03  0.25100330101E+03  0.00000000000E+00 0. -1.
         -2   -1    0    0    0  501 -0.00000000000E+00 -0.00000000000E+00 -0.48234193255E+02  0.48234193255E+02  0.00000000000E+00 0.  1.
         25    2    1    2    0    0  0.17492776455E+02 -0.67695137390E+01  0.10210788290E+03  0.16255550644E+03  0.12508576809E+03 0.  0.
          5    1    3    3  502    0  0.22238264402E+02  0.29121084705E+02  0.11738324701E+03  0.12304014409E+03  0.41800000000E+01 0. -1.
         -5    1    3    3    0  502 -0.47454879474E+01 -0.35890598444E+02 -0.15275364117E+02  0.39515362348E+02  0.41800000000E+01 0. -1.
        -11    1    1    2    0    0 -0.46965704768E+01 -0.23047990336E+02 -0.67547219011E+01  0.24472308856E+02  0.00000000000E+00 0.  1.
         11    1    1    2    0    0 -0.12796205978E+02  0.29817504075E+02  0.10741594676E+03  0.11220967897E+03  0.00000000000E+00 0. -1.
</event>
<event>
 7    1  0.3265282E-009  0.9295623E+02  0.7561462E-02  0.1295847E+00
          2   -1    0    0  501    0  0.00000000000E+00  0.00000000000E+00  0.23932894786E+03  0.23932894786E+03  0.00000000000E+00 0. -1.
         -2   -1    0    0    0  501 -0.00000000000E+00 -0.00000000000E+00 -0.60136694932E+02  0.60136694932E+02  0.00000000000E+00 0.  1.
         25    2    1    2    0    0 -0.25389213374E+02 -0.25190039183E+02  0.14678143177E+03  0.19614267673E+03  0.12509200890E+03 0.  0.
          5    1    3    3  502    0 -0.74003539052E+02 -0.21713739025E+01  0.67688040383E+02  0.10040110491E+03  0.41800000000E+01 0.  1.
         -5    1    3    3    0  502  0.48614325678E+02 -0.23018665281E+02  0.79093391389E+02  0.95741571816E+02  0.41800000000E+01 0.  1.
        -11    1    1    2    0    0  0.38678828383E+02  0.17491962207E+02  0.58959802177E+02  0.72651763776E+02  0.00000000000E+00 0. -1.
         11    1    1    2    0    0 -0.13289615009E+02  0.76980769762E+01 -0.26548981023E+02  0.30671202285E+02  0.00000000000E+00 0.  1.
</event>
<event>
 7    1  0.3265282E-009  0.1063499E+03  0.7561462E-02  0.1267483E+00
          1   -1    0    0  501    0  0.00000000000E+00  0.00000000000E+00  0.11904815855E+03  0.11904815855E+03  0.00000000000E+00 0. -1.
         -1   -1    0    0    0  501 -0.00000000000E+00 -0.00000000000E+00 -0.98150798720E+02  0.98150798720E+02  0.00000000000E+00 0.  1.
         25    2    1    2    0    0 -0.12043760564E+02 -0.21770229684E+02  0.12094129816E+02  0.12811323996E+03  0.12509092376E+03 0.  0.
          5    1    3    3  502    0  0.66562887522E+01 -0.71759725238E+02 -0.37367722975E+01  0.72285546366E+02  0.41800000000E+01 0. -1.
         -5    1    3    3    0  502 -0.18700049316E+02  0.49989495555E+02  0.15830902113E+02  0.55827693593E+02  0.41800000000E+01 0. -1.
        -11    1    1    2    0    0 -0.35893969331E+02  0.52804569802E+01 -0.48033333022E+01  0.36596888816E+02  0.00000000000E+00 0.  1.
         11    1    1    2    0    0  0.47937729894E+02  0.16489772703E+02  0.13606563315E+02  0.52488828492E+02  0.00000000000E+00 0. -1.
</event>
<event>
 7    1  0.3265282E-009  0.1330051E+03  0.7561462E-02  0.1223064E+00
         -1   -1    0    0    0  501 -0.00000000000E+00  0.00000000000E+00  0.10066623021E+03  0.10066623021E+03  0.00000000000E+00 0.  1.
          1   -1    0    0  501    0  0.00000000000E+00 -0.00000000000E+00 -0.19047686131E+03  0.19047686131E+03  0.00000000000E+00 0. -1.
         25    2    1    2    0    0 -0.57476999274E+02 -0.59470609962E+02 -0.73923018285E+02  0.16718942109E+03  0.12508929210E+03 0.  0.
          5    1    3    3  502    0  0.37220501499E+02 -0.28105484781E+02 -0.40465117905E+02  0.61888465595E+02  0.41800000000E+01 0.  1.
         -5    1    3    3    0  502 -0.94697500773E+02 -0.31365125181E+02 -0.33457900381E+02  0.10530095549E+03  0.41800000000E+01 0.  1.
        -11    1    1    2    0    0  0.73643007203E+02  0.68709970332E+02 -0.20243046264E+01  0.10073951728E+03  0.00000000000E+00 0.  1.
         11    1    1    2    0    0 -0.16166007929E+02 -0.92393603702E+01 -0.13863308188E+02  0.23214153147E+02  0.00000000000E+00 0. -1.
</event>
<event>
 7    1  0.3265282E-009  0.1029389E+03  0.7561462E-02  0.1274234E+00
          2   -1    0    0  501    0  0.00000000000E+00  0.00000000000E+00  0.11257804256E+04  0.11257804256E+04  0.00000000000E+00 0. -1.
         -2   -1    0    0    0  501 -0.00000000000E+00 -0.00000000000E+00 -0.13282680340E+02  0.13282680340E+02  0.00000000000E+00 0.  1.
         25    2    1    2    0    0 -0.41472124161E+01  0.18706891610E+02  0.85629381023E+03  0.86559405823E+03  0.12508731763E+03 0.  0.
          5    1    3    3  502    0  0.23155516013E+02  0.64749962222E+02  0.37130305257E+03  0.37764025842E+03  0.41800000000E+01 0. -1.
         -5    1    3    3    0  502 -0.27302728429E+02 -0.46043070612E+02  0.48499075766E+03  0.48795379981E+03  0.41800000000E+01 0. -1.
        -11    1    1    2    0    0 -0.32550484318E+02  0.12749358406E+02  0.17900995833E+03  0.18239146183E+03  0.00000000000E+00 0. -1.
         11    1    1    2    0    0  0.36697696734E+02 -0.31456250016E+02  0.77193976694E+02  0.91077585874E+02  0.00000000000E+00 0.  1.
</event>
<event>
 7    1  0.3265282E-009  0.1499133E+03  0.7561462E-02  0.1200580E+00
         -2   -1    0    0    0  501 -0.00000000000E+00  0.00000000000E+00  0.31015432031E+02  0.31015432031E+02  0.00000000000E+00 0.  1.
          2   -1    0    0  501    0  0.00000000000E+00 -0.00000000000E+00 -0.11194093676E+04  0.11194093676E+04  0.00000000000E+00 0. -1.
         25    2    1    2    0    0  0.59153432623E+02  0.11114403022E+03 -0.83898279973E+03  0.85755018339E+03  0.12509218500E+03 0.  0.
          5    1    3    3  502    0  0.91151090439E+02  0.74602372914E+02 -0.70892517083E+03  0.71865597164E+03  0.41800000000E+01 0. -1.
         -5    1    3    3    0  502 -0.31997657816E+02  0.36541657301E+02 -0.13005762890E+03  0.13889421176E+03  0.41800000000E+01 0. -1.
        -11    1    1    2    0    0 -0.24624505698E+02 -0.88644843145E+02 -0.91811237013E+02  0.12997529665E+03  0.00000000000E+00 0.  1.
         11    1    1    2    0    0 -0.34528926924E+02 -0.22499187070E+02 -0.15759989884E+03  0.16289931960E+03  0.00000000000E+00 0. -1.
</event>
<event>
 7    1  0.3265282E-009  0.1324605E+03  0.7561462E-02  0.1223850E+00
          2   -1    0    0  501    0  0.00000000000E+00  0.00000000000E+00  0.26631855891E+03  0.26631855891E+03  0.00000000000E+00 0. -1.
         -2   -1    0    0    0  501 -0.00000000000E+00 -0.00000000000E+00 -0.82824144003E+02  0.82824144003E+02  0.00000000000E+00 0.  1.
         25    2    1    2    0    0 -0.52271312743E+02  0.85806033494E+02  0.88593056944E+02  0.18327899297E+03  0.12508994366E+03 0.  0.
          5    1    3    3  502    0 -0.74220347218E+02  0.30676660928E+01  0.47140825305E+02  0.88078376046E+02  0.41800000000E+01 0.  1.
         -5    1    3    3    0  502  0.21949034475E+02  0.82738367401E+02  0.41452231639E+02  0.95200616923E+02  0.41800000000E+01 0.  1.
        -11    1    1    2    0    0  0.13768571249E+02 -0.38956067576E+01 -0.16818719162E+02  0.22082088227E+02  0.00000000000E+00 0.  1.
         11    1    1    2    0    0  0.38502741495E+02 -0.81910426736E+02  0.11172007712E+03  0.14378162171E+03  0.00000000000E+00 0. -1.
</event>
